Membrane in water
40155
    1TCq1    O1    1   2.959   3.603  10.736 -0.1391  0.1506  0.2419
    1TCq1    C1    2   2.934   3.537  10.848 -0.2923  0.3622  0.3193
    1TCq1    O2    3   3.022   3.493  10.930 -0.1961  0.0163 -0.2429
    1TCq1    C2    4   2.809   3.588  10.906  0.3216 -0.3833 -0.3323
    1TCq1    C3    5   2.701   3.612  10.826  0.1136 -0.4446  0.2219
    1TCq1    C4    6   2.579   3.617  10.891  0.3273 -0.0292 -0.2565
    1TCq1    C5    7   2.559   3.605  11.026 -0.1596  0.2121 -0.1937
    1TCq1    C6    8   2.665   3.559  11.100  0.1936  0.0997 -0.7001
    1TCq1    C7    9   2.793   3.554  11.037 -0.2511 -0.4724 -0.0579
    1TCq1    C8   10   2.650   3.472  11.217  0.0209 -0.0640  0.1217
    1TCq1    O4   11   2.733   3.384  11.234  0.3218 -0.0239 -0.1527
    1TCq1    C9   12   2.469   3.634  10.805 -0.2144 -0.5155 -0.6122
    1TCq1    O5   13   2.475   3.588  10.687  0.9807 -1.0051 -0.6929
    1TCq1    O6   14   2.366   3.695  10.852 -0.2275  0.9532  0.0655
    1TCq1    H1   15   2.887   3.656  10.696 -0.0759 -1.2191 -1.7242
    1TCq1    H2   16   2.704   3.623  10.719 -3.6646 -0.8239  0.0756
    1TCq1    H3   17   2.455   3.608  11.057  1.1241  0.6575  4.0190
    1TCq1    H4   18   2.874   3.519  11.099  0.2738  2.7952  1.1446
    2MPD2     C   19   2.503   3.373  11.693  0.3679  0.1845  0.0532
    2MPD2    C1   20   2.438   3.485  11.648  0.6918 -0.3876  0.0922
    2MPD2    C2   21   2.451   3.523  11.519 -0.6803 -0.6419 -1.0583
    2MPD2    C3   22   2.543   3.463  11.436 -0.4635  0.0473  0.2513
    2MPD2    C4   23   2.602   3.352  11.479 -0.0270  0.1088  1.1199
    2MPD2    C5   24   2.591   3.314  11.607 -0.6145 -0.6079 -0.2833
    2MPD2     H   25   2.387   3.595  11.470  0.3836  0.4405 -0.8707
    2MPD2    H1   26   2.657   3.277  11.423 -0.9737  0.5853 -0.4145
    2MPD2    H2   27   2.495   3.335  11.795  0.6231 -1.8330 -0.6814
    2MPD2    H3   28   2.614   3.215  11.644  0.1362  1.1625  4.0185
    2MPD2     N   29   2.541   3.507  11.302  0.4121  0.0122  0.4654
    2MPD2    H5   30   2.479   3.585  11.282 -0.6627 -0.9357  0.1234
    2MPD2    N1   31   2.343   3.564  11.721 -0.3249 -0.3544  0.1720
    2MPD2    H7   32   2.281   3.629  11.675 -0.9079 -1.0295  0.0187
    3TCq1    O1   33   1.771   4.508  10.440  0.0085 -0.3601 -0.3045
    3TCq1    C1   34   1.866   4.606  10.432  0.0629  0.2683 -0.6280
    3TCq1    O2   35   1.963   4.618  10.356 -0.1890 -0.3618 -0.6884
    3TCq1    C2   36   1.800   4.713  10.495 -0.0543  0.1623 -0.4978
    3TCq1    C3   37   1.811   0.111  10.434 -0.3639 -0.3448 -0.4552
    3TCq1    C4   38   1.744   0.218  10.487 -0.7897 -0.5550 -0.8670
    3TCq1    C5   39   1.674   0.198  10.606 -0.1242  0.2769 -0.5882
    3TCq1    C6   40   1.665   0.067  10.663  0.4732 -0.2186 -0.1007
    3TCq1    C7   41   1.731   4.682  10.605 -0.1978  0.1236  0.6894
    3TCq1    C8   42   1.601   0.045  10.794  1.0482 -0.4518 -0.0094
    3TCq1    O4   43   1.592   4.656  10.840 -0.0901 -0.6025 -0.5504
    3TCq1    C9   44   1.739   0.348  10.424 -0.9940  0.3222 -0.2062
    3TCq1    O5   45   1.747   0.341  10.298  0.0995 -0.3637  0.1573
    3TCq1    O6   46   1.723   0.451  10.493  0.2682  0.5206  0.0875
    3TCq1    H1   47   1.684   4.537  10.474 -1.0222 -1.6500 -1.8046
    3TCq1    H2   48   1.865   0.128  10.342  2.3548  0.7641  1.3435
    3TCq1    H3   49   1.618   0.283  10.644 -0.8532 -0.6253  0.3747
    3TCq1    H4   50   1.748   4.590  10.660  1.9238  0.0616 -0.0852
    4MPD2     C   51   1.288   0.250  11.147 -0.1532  0.3215 -0.9096
    4MPD2    C1   52   1.342   0.353  11.065 -0.4075 -0.2209 -0.1767
    4MPD2    C2   53   1.438   0.320  10.971 -0.6179 -0.1147  0.0633
    4MPD2    C3   54   1.477   0.189  10.955  0.3883  0.2555  1.0433
    4MPD2    C4   55   1.426   0.093  11.034  0.0698  0.8117 -0.4880
    4MPD2    C5   56   1.328   0.118  11.124  0.1744 -0.1095 -0.4261
    4MPD2     H   57   1.477   0.400  10.908 -1.0612  1.3142  1.6078
    4MPD2    H1   58   1.451   4.712  11.026  0.3379  0.7378  1.2836
    4MPD2    H2   59   1.203   0.261  11.212  1.1591 -2.2807  1.2316
    4MPD2    H3   60   1.280   0.038  11.179 -0.5670  1.0877  0.6792
    4MPD2     N   61   1.565   0.164  10.846  0.0750  0.2262  0.4504
    4MPD2    H5   62   1.600   0.247  10.800  0.0646 -0.4343 -0.7729
    4MPD2    N1   63   1.306   0.490  11.067  0.3606  0.1297 -0.6238
    4MPD2    H7   64   1.363   0.548  11.007 -0.4726  1.1049 -0.4774
    5TCq1    O1   65   2.130   1.913  11.761  0.1616 -0.5939  0.1023
    5TCq1    C1   66   2.112   1.862  11.639 -0.9645 -0.1923 -0.3914
    5TCq1    O2   67   2.162   1.754  11.607 -0.8126  0.3422  0.0282
    5TCq1    C2   68   2.000   1.921  11.564  0.2500 -0.1169 -0.4034
    5TCq1    C3   69   1.936   2.026  11.612 -0.0922  0.0191  0.1762
    5TCq1    C4   70   1.851   2.086  11.526  0.4914 -0.3211 -0.6152
    5TCq1    C5   71   1.834   2.044  11.398 -0.0020  0.1316 -0.3123
    5TCq1    C6   72   1.901   1.929  11.360  0.8149 -0.4735 -0.0289
    5TCq1    C7   73   1.989   1.871  11.439 -0.1025  0.2547 -0.3210
    5TCq1    C8   74   1.917   1.877  11.224 -0.0420 -0.3726  0.4894
    5TCq1    O4   75   2.031   1.845  11.186  0.1717  0.2149 -0.1303
    5TCq1    C9   76   1.767   2.190  11.581 -0.1404 -0.0183 -0.4278
    5TCq1    O5   77   1.686   2.151  11.668 -0.3926 -0.0040  0.9147
    5TCq1    O6   78   1.805   2.308  11.578  0.3380  0.0185  0.3037
    5TCq1    H1   79   2.121   2.011  11.760  0.9520 -0.5137  1.2395
    5TCq1    H2   80   1.949   2.067  11.711 -2.1957 -1.8231  1.2380
    5TCq1    H3   81   1.776   2.099  11.324 -0.2631  2.0756  1.3436
    5TCq1    H4   82   2.049   1.787  11.406  0.6976  1.6449 -2.4496
    6MPD2     C   83   1.639   1.860  10.972  0.1050  0.5444 -0.0333
    6MPD2    C1   84   1.768   1.857  11.018  0.0710 -0.2151 -0.2912
    6MPD2    C2   85   1.872   1.804  10.938 -0.2443  0.5024 -0.5435
    6MPD2    C3   86   1.844   1.742  10.818 -0.5911  0.3198  0.7387
    6MPD2    C4   87   1.713   1.746  10.766 -0.3756  0.0180  0.1728
    6MPD2    C5   88   1.619   1.803  10.847 -0.3888  0.0663  0.2654
    6MPD2     H   89   1.973   1.797  10.977 -0.0483  2.2178 -0.7164
    6MPD2    H1   90   1.679   1.687  10.682 -1.0347 -0.2317  0.6172
    6MPD2    H2   91   1.551   1.890  11.027 -0.3458 -0.0211 -0.4438
    6MPD2    H3   92   1.517   1.792  10.810 -0.9000  1.7612  1.1442
    6MPD2     N   93   1.948   1.664  10.759  0.4535  0.1809 -0.0929
    6MPD2    H5   94   2.038   1.646  10.803  0.3648  0.9765  0.4103
    6MPD2    N1   95   1.793   1.892  11.150  0.7888 -0.1992 -0.1775
    6MPD2    H7   96   1.712   1.908  11.210  1.2117 -2.4144  1.0168
    7TCq1    O1   97   4.015   1.786  12.986  0.4488  0.4894 -0.0218
    7TCq1    C1   98   4.141   1.742  12.940 -1.1415 -0.3283 -0.2408
    7TCq1    O2   99   4.229   1.806  12.883  0.2059 -0.9110 -0.0081
    7TCq1    C2  100   4.130   1.593  12.944 -0.3924 -0.1500  0.1028
    7TCq1    C3  101   4.020   1.541  12.880 -0.4725 -0.1837 -0.2600
    7TCq1    C4  102   4.016   1.408  12.867  0.1457  0.0192 -0.0304
    7TCq1    C5  103   4.118   1.327  12.900 -0.4602 -0.4232 -1.0796
    7TCq1    C6  104   4.231   1.383  12.956 -0.1799  0.1266 -0.1491
    7TCq1    C7  105   4.241   1.520  12.969 -0.7071 -0.3947  0.2648
    7TCq1    C8  106   4.336   1.286  12.988  0.0817 -0.3266 -0.4454
    7TCq1    O4  107   4.323   1.166  12.962  0.0119 -0.4642  0.6797
    7TCq1    C9  108   3.886   1.357  12.835 -0.5079  0.3621  0.7528
    7TCq1    O5  109   3.881   1.230  12.858  0.5803  0.1599 -0.2552
    7TCq1    O6  110   3.795   1.427  12.774 -0.1357  0.3598 -0.3954
    7TCq1    H1  111   3.974   1.725  13.051  1.4351 -0.8373 -0.6489
    7TCq1    H2  112   3.934   1.602  12.856 -2.4100 -2.0185  2.0891
    7TCq1    H3  113   4.123   1.222  12.874 -0.2580 -0.5874 -0.3541
    7TCq1    H4  114   4.326   1.569  13.014 -0.2975  0.0365 -0.9660
    8MPD2     C  115   4.700   1.167  13.347 -0.3548 -0.7467  0.2138
    8MPD2    C1  116   4.613   1.085  13.282 -0.4622  1.6209  0.2556
    8MPD2    C2  117   4.517   1.134  13.193  0.1774 -0.0891  0.1294
    8MPD2    C3  118   4.522   1.271  13.159  0.5937  0.7817 -0.8335
    8MPD2    C4  119   4.623   1.348  13.214 -0.3438  0.8026  0.7318
    8MPD2    C5  120   4.709   1.296  13.310 -0.3063 -0.4841 -0.4118
    8MPD2     H  121   4.444   1.069  13.146  0.5672 -1.3656  1.2849
    8MPD2    H1  122   4.636   1.451  13.182  1.7669  0.8428  1.7531
    8MPD2    H2  123   0.039   1.129  13.427  2.2738 -2.8955 -2.8575
    8MPD2    H3  124   0.065   1.358  13.350 -0.2630 -0.1229 -1.0593
    8MPD2     N  125   4.435   1.337  13.069 -0.6793 -0.9065  0.6076
    8MPD2    H5  126   4.439   1.438  13.078 -4.3696 -0.5155 -2.1076
    8MPD2    N1  127   4.611   0.950  13.322 -0.0325  0.6231 -0.2019
    8MPD2    H7  128   4.659   0.925  13.408  0.4517 -0.4634 -0.7837
    9TCq1    O1  129   1.487   4.440  10.957 -0.1503  0.2557 -0.4648
    9TCq1    C1  130   1.533   4.314  10.942 -0.1488  0.4157  0.1038
    9TCq1    O2  131   1.462   4.216  10.965 -0.5126 -0.0237 -0.3003
    9TCq1    C2  132   1.648   4.312  10.850  0.3723  0.7330 -1.2260
    9TCq1    C3  133   1.648   4.208  10.761  0.3871 -0.0195  0.3127
    9TCq1    C4  134   1.757   4.198  10.682 -0.1476 -0.1843  0.5803
    9TCq1    C5  135   1.862   4.286  10.685  0.0940  0.2166 -0.1058
    9TCq1    C6  136   1.863   4.376  10.786 -0.2750  0.0750 -0.1595
    9TCq1    C7  137   1.755   4.385  10.872 -0.1686  0.1448  0.0618
    9TCq1    C8  138   1.975   4.464  10.807  0.3200  0.7318  0.3484
    9TCq1    O4  139   2.054   4.489  10.717 -0.1984  0.6633 -0.4035
    9TCq1    C9  140   1.758   4.093  10.576  0.3313  0.8580 -0.1028
    9TCq1    O5  141   1.664   4.006  10.583  0.1934 -0.3394 -0.5949
    9TCq1    O6  142   1.830   4.117  10.474 -0.3542 -0.1522  0.4192
    9TCq1    H1  143   1.537   4.502  10.899 -0.2834  1.1294  0.3334
    9TCq1    H2  144   1.561   4.146  10.745  0.5625 -0.1235 -0.2157
    9TCq1    H3  145   1.950   4.272  10.622  1.2171  0.7939  1.3410
    9TCq1    H4  146   1.750   4.452  10.957  0.5336 -0.2821  0.4402
   10MPD2     C  147   2.199   4.630  10.947 -0.5046  0.3095  0.0720
   10MPD2    C1  148   2.083   4.573  11.002 -0.3474  0.2800 -0.5074
   10MPD2    C2  149   2.054   4.616  11.132  0.0062 -0.0885 -0.2480
   10MPD2    C3  150   2.125   4.717  11.193 -0.1675  0.1043 -0.0405
   10MPD2    C4  151   2.238   0.046  11.133 -0.7072 -0.8811  0.2435
   10MPD2    C5  152   2.278   4.719  11.011 -0.6773  0.2430 -0.4319
   10MPD2     H  153   1.971   4.569  11.184  0.1678 -0.9512 -0.7726
   10MPD2    H1  154   2.300   0.116  11.186 -1.9029  0.0656  0.4035
   10MPD2    H2  155   2.233   4.587  10.854  1.8799  0.1756  1.0044
   10MPD2    H3  156   2.365   0.024  10.953  0.3857 -1.8720  0.1238
   10MPD2     N  157   2.099   0.033  11.323  0.3933  0.4132 -0.3855
   10MPD2    H5  158   2.164   0.100  11.365  1.4247 -0.9180  0.1389
   10MPD2    N1  159   1.990   4.488  10.943  0.6564  0.1783  0.1146
   10MPD2    H7  160   1.918   4.442  10.998  2.0823 -3.5181 -1.0816
   11TCq1    O1  161   2.951   4.314  13.553  0.2920 -0.1517 -0.0500
   11TCq1    C1  162   2.860   4.361  13.650  0.1865 -0.0589  0.4138
   11TCq1    O2  163   2.754   4.409  13.620  0.7113 -0.0456 -0.0937
   11TCq1    C2  164   2.884   4.287  13.767 -0.1323  0.5566  0.1179
   11TCq1    C3  165   3.007   4.250  13.808  1.1354 -0.1212 -0.0880
   11TCq1    C4  166   3.015   4.160  13.910  0.9698 -0.3004 -0.7777
   11TCq1    C5  167   2.905   4.099  13.951  0.1337 -0.1452 -0.5007
   11TCq1    C6  168   2.782   4.132  13.908  0.1751 -0.3280 -0.2942
   11TCq1    C7  169   2.773   4.233  13.819 -0.4781  0.9064 -0.3211
   11TCq1    C8  170   2.700   4.018  13.880 -0.4334  0.6808  0.2736
   11TCq1    O4  171   2.583   4.029  13.859  0.0681 -0.5362 -0.0513
   11TCq1    C9  172   3.149   4.115  13.948 -0.3844 -0.3604  0.0057
   11TCq1    O5  173   3.241   4.180  13.901 -0.5397  0.0836 -0.0681
   11TCq1    O6  174   3.156   3.996  13.983 -0.2558 -0.3343 -0.0610
   11TCq1    H1  175   2.988   4.231  13.588 -2.2026 -1.0569  0.4791
   11TCq1    H2  176   3.096   4.297  13.768  1.4444  1.0155  1.9187
   11TCq1    H3  177   2.916   4.029  14.033  3.1988  1.7853  0.7731
   11TCq1    H4  178   2.681   4.235  13.760 -0.7381 -0.4833  0.0469
   12MPD2     C  179   2.645   3.750  13.754 -0.5247 -0.1156  0.0183
   12MPD2    C1  180   2.766   3.799  13.775 -0.1292  0.6540 -0.4446
   12MPD2    C2  181   2.874   3.720  13.742 -0.4034 -0.0928  0.0004
   12MPD2    C3  182   2.857   3.601  13.677 -0.3009 -0.0527  0.1695
   12MPD2    C4  183   2.731   3.559  13.640  0.3682 -0.3740  0.2571
   12MPD2    C5  184   2.624   3.638  13.682 -0.1642  0.3206 -0.3179
   12MPD2     H  185   2.974   3.760  13.755  0.3044 -1.8971  0.0469
   12MPD2    H1  186   2.712   3.467  13.587  0.4684  0.0289 -0.4790
   12MPD2    H2  187   2.558   3.802  13.792  0.4173 -0.4432  2.6473
   12MPD2    H3  188   2.523   3.600  13.675  0.1261 -0.9754  2.3880
   12MPD2     N  189   2.961   3.512  13.638 -0.0697 -0.0549  0.8203
   12MPD2    H5  190   2.926   3.436  13.580  1.0277  2.3712 -3.0392
   12MPD2    N1  191   2.788   3.930  13.830 -0.0908 -0.1544 -0.2650
   12MPD2    H7  192   2.887   3.951  13.838 -0.0416  1.2435 -4.8527
   13TCq1    O1  193   2.571   4.389  10.650 -0.1095  0.1106 -0.3333
   13TCq1    C1  194   2.437   4.385  10.668 -0.3651 -0.1687  0.0865
   13TCq1    O2  195   2.361   4.477  10.678 -0.2245  0.1721 -0.0288
   13TCq1    C2  196   2.398   4.251  10.696  0.2061  0.3652 -0.0807
   13TCq1    C3  197   2.454   4.139  10.634 -0.6159 -0.1534 -0.1172
   13TCq1    C4  198   2.390   4.017  10.646 -0.2766 -0.8628  0.2664
   13TCq1    C5  199   2.272   4.009  10.720 -0.3641  0.0535 -0.0965
   13TCq1    C6  200   2.226   4.117  10.796  0.5680 -0.0973 -0.1146
   13TCq1    C7  201   2.292   4.237  10.776  0.1920 -0.4006  0.6463
   13TCq1    C8  202   2.133   4.110  10.900 -0.3209  0.0782 -0.3538
   13TCq1    O4  203   2.142   4.195  10.983  0.2745  0.4800 -0.8452
   13TCq1    C9  204   2.445   3.904  10.578 -0.3631  0.7245  1.2291
   13TCq1    O5  205   2.366   3.807  10.562 -0.3231  0.6002  0.5616
   13TCq1    O6  206   2.571   3.899  10.563  0.5758  0.7183  0.4679
   13TCq1    H1  207   2.610   4.308  10.690  2.5598  0.8218 -1.5233
   13TCq1    H2  208   2.537   4.146  10.565  0.1910  0.5046  0.9061
   13TCq1    H3  209   2.228   3.912  10.737  0.5189  0.0346  2.1443
   13TCq1    H4  210   2.251   4.320  10.831  1.6243  0.1566  0.8741
   14MPD2     C  211   1.819   3.912  10.923  0.2091 -0.3936 -0.0399
   14MPD2    C1  212   1.902   4.014  10.953  0.5391  0.6200  0.2724
   14MPD2    C2  213   1.863   4.104  11.045  0.1590  0.1856 -0.6416
   14MPD2    C3  214   1.744   4.094  11.117  0.5204 -0.9944 -0.9364
   14MPD2    C4  215   1.672   3.976  11.095 -0.1387  0.5249 -0.4231
   14MPD2    C5  216   1.704   3.889  10.993 -0.5292  0.0742  0.2652
   14MPD2     H  217   1.934   4.184  11.064 -1.0250  1.2453 -0.6717
   14MPD2    H1  218   1.586   3.954  11.158  0.8232  1.3929  1.1986
   14MPD2    H2  219   1.844   3.855  10.835 -1.1068  0.0634 -0.7107
   14MPD2    H3  220   1.631   3.811  10.977 -0.7629  0.0941  1.2639
   14MPD2     N  221   1.706   4.175  11.218 -0.1484  0.0687  0.1010
   14MPD2    H5  222   1.634   4.143  11.282 -0.6799  1.5045  0.2232
   14MPD2    N1  223   2.029   4.023  10.878 -0.5962 -0.1621 -0.1474
   14MPD2    H7  224   2.048   3.954  10.806  1.2445  0.7056 -0.4887
   15TCq1    O1  225   3.556   4.259   2.143  0.1673  0.1344  0.2528
   15TCq1    C1  226   3.621   4.380   2.111 -0.0259 -0.0838  0.3242
   15TCq1    O2  227   3.587   4.488   2.161  0.1214  0.2607 -0.3411
   15TCq1    C2  228   3.755   4.352   2.057  0.0835  0.6899  0.2474
   15TCq1    C3  229   3.862   4.415   2.104  0.2525  0.7592 -0.2413
   15TCq1    C4  230   3.985   4.384   2.056  1.2828 -0.0813 -0.0295
   15TCq1    C5  231   4.005   4.294   1.958 -0.1341 -0.5760 -0.2569
   15TCq1    C6  232   3.894   4.236   1.905  0.2053 -0.2203 -0.7300
   15TCq1    C7  233   3.769   4.256   1.958 -0.0093  0.8314  0.6485
   15TCq1    C8  234   3.916   4.117   1.828 -0.1802 -0.3122 -0.0456
   15TCq1    O4  235   4.033   4.078   1.818  0.9600  0.3978 -0.1199
   15TCq1    C9  236   4.098   4.462   2.098  0.3338  0.7037 -0.7645
   15TCq1    O5  237   4.214   4.421   2.081  0.9338 -0.7515 -0.2663
   15TCq1    O6  238   4.061   4.558   2.161 -0.6415 -0.1724  0.7190
   15TCq1    H1  239   3.619   4.184   2.128 -2.1202 -2.0231  1.3610
   15TCq1    H2  240   3.851   4.493   2.179 -1.6023 -0.7073  1.0175
   15TCq1    H3  241   4.110   4.284   1.933 -0.0792  1.1112 -0.7234
   15TCq1    H4  242   3.679   4.205   1.928  2.3926 -1.0576 -3.3365
   16MPD2     C  243   3.685   3.969   1.583  0.4802 -0.8841 -0.0371
   16MPD2    C1  244   3.802   3.979   1.660  0.2305  0.6336  0.0727
   16MPD2    C2  245   3.911   3.905   1.627  0.2957 -0.2393 -0.4858
   16MPD2    C3  246   3.905   3.810   1.524  0.8850 -0.1487 -0.1717
   16MPD2    C4  247   3.791   3.797   1.450 -0.2854  0.0411 -0.2501
   16MPD2    C5  248   3.679   3.872   1.481 -0.5187 -0.1859 -0.0242
   16MPD2     H  249   4.008   3.916   1.675 -0.0996  1.4347 -0.0650
   16MPD2    H1  250   3.769   3.729   1.369  4.2291 -1.3845 -0.2663
   16MPD2    H2  251   3.600   4.032   1.607  1.3786  0.3030  0.0554
   16MPD2    H3  252   3.600   3.868   1.407  1.0927  1.9542 -1.8394
   16MPD2     N  253   4.030   3.742   1.502 -0.0668 -0.0155 -0.0397
   16MPD2    H5  254   4.109   3.743   1.565 -0.4840  0.7199  0.4795
   16MPD2    N1  255   3.805   4.083   1.757  0.2857  1.1457 -0.5196
   16MPD2    H7  256   3.713   4.123   1.775  0.0975 -0.0952  1.3022
   17TCq1    O1  257   2.169   3.260  11.338  0.2827 -0.2758  0.3958
   17TCq1    C1  258   2.168   3.396  11.308  0.2253 -0.2048  0.2852
   17TCq1    O2  259   2.178   3.486  11.394  0.0477 -0.4396 -0.2493
   17TCq1    C2  260   2.202   3.399  11.170 -0.7125 -0.2424 -0.7243
   17TCq1    C3  261   2.105   3.449  11.082 -0.3318 -0.0236  0.5768
   17TCq1    C4  262   2.138   3.438  10.949 -0.4847 -0.1346  0.2764
   17TCq1    C5  263   2.250   3.370  10.905  0.7959 -0.5334 -0.0894
   17TCq1    C6  264   2.344   3.328  11.002  0.8972  0.2519  0.3972
   17TCq1    C7  265   2.320   3.338  11.135 -0.3978  0.8766 -0.5004
   17TCq1    C8  266   2.474   3.269  10.968 -0.1642  0.1447  0.2093
   17TCq1    O4  267   2.527   3.210  11.061  0.0207  0.0644 -0.1705
   17TCq1    C9  268   2.051   3.511  10.858 -0.9157  0.5033  0.4079
   17TCq1    O5  269   1.979   3.595  10.916 -0.7306  0.7088  0.7677
   17TCq1    O6  270   2.082   3.517  10.737  0.1764 -0.3328  0.1897
   17TCq1    H1  271   2.156   3.203  11.259 -0.1253 -0.5468  0.6589
   17TCq1    H2  272   2.015   3.499  11.118  0.0317  0.8524  0.2661
   17TCq1    H3  273   2.272   3.360  10.800  0.3160  3.0287 -0.5306
   17TCq1    H4  274   2.392   3.323  11.215  0.4223 -0.0024 -1.4132
   18MPD2     C  275   2.737   3.178  10.854 -0.0372  0.2277  0.3360
   18MPD2    C1  276   2.652   3.274  10.802  0.0808  0.5701  0.2631
   18MPD2    C2  277   2.690   3.320  10.675 -0.0783 -0.4080 -0.1754
   18MPD2    C3  278   2.813   3.290  10.614 -0.4061  1.2845 -0.2921
   18MPD2    C4  279   2.879   3.179  10.660  0.0627  0.1435  0.7472
   18MPD2    C5  280   2.841   3.137  10.779 -1.2860 -0.3141  0.2720
   18MPD2     H  281   2.627   3.389  10.619 -1.8766 -2.2357 -0.4349
   18MPD2    H1  282   2.972   3.141  10.619  0.9758  1.2126  1.8101
   18MPD2    H2  283   2.724   3.133  10.952  0.7197  0.9822  0.7805
   18MPD2    H3  284   2.919   3.078  10.827 -0.7540 -0.1011 -0.3224
   18MPD2     N  285   2.865   3.351  10.498 -0.0333  0.0558 -0.1195
   18MPD2    H5  286   2.963   3.330  10.479  0.1706 -0.3727  1.3994
   18MPD2    N1  287   2.526   3.315  10.852  0.4409  0.1803 -0.2337
   18MPD2    H7  288   2.476   3.377  10.789 -0.1451 -0.1377 -0.0844
   19TMC2    C1  289   4.147   4.653  13.738  0.4992 -0.6162  0.5479
   19TMC2    C2  290   4.069   0.010  13.665  0.0099  0.7766  0.1547
   19TMC2    C3  291   4.037   4.706  13.538  0.2914 -0.4452  0.2078
   19TMC2    C4  292   4.187   4.536  13.685 -0.1934  0.0832  0.5962
   19TMC2    C5  293   4.142   4.501  13.561  0.5429  0.2022  0.3565
   19TMC2    C6  294   4.076   4.589  13.481 -0.1037  0.1665 -0.2898
   19TMC2     C  295   4.147   4.677  13.884  0.3939  0.3506 -0.1116
   19TMC2     O  296   4.079   0.045  13.925  0.1498 -0.7301  0.0894
   19TMC2     H  297   4.027   0.097  13.715  0.1467  2.3235 -2.4632
   19TMC2    H1  298   4.261   4.480  13.741 -0.8065 -1.9442 -0.6456
   19TMC2    H2  299   4.049   4.571  13.378  0.7526  0.0000 -0.4845
   19TMC2    C7  300   4.147   4.354  13.531  0.4071 -0.3264  0.8687
   19TMC2    C8  301   3.934   0.059  13.467 -0.5076  0.1874  0.6762
   19TMC2    O1  302   4.205   4.287  13.613  0.1232  0.0317  0.5503
   19TMC2    O2  303   3.835   0.111  13.521  0.0780  0.0193 -0.3813
   19TMC2    O5  304   3.991   0.097  13.351 -0.1856  0.3660 -0.1724
   19TMC2    H5  305   4.084   0.070  13.337  0.0622 -0.3054  2.8603
   20MPD2     C  306   4.121   4.653  14.184 -0.1744 -0.3556  0.4247
   20MPD2    C1  307   4.202   4.569  14.104 -0.0236  0.2005  1.1968
   20MPD2    C2  308   4.283   4.468  14.157  0.1244 -0.0412 -0.0540
   20MPD2    C3  309   4.274   4.449  14.299  0.2541 -0.6670  0.3733
   20MPD2    C4  310   4.192   4.528  14.377 -0.3460 -0.5874  0.3653
   20MPD2    C5  311   4.130   4.640  14.321 -0.5931  0.1323 -0.3615
   20MPD2     H  312   4.339   4.401  14.092  0.2183  0.2829 -0.3061
   20MPD2    H1  313   4.164   4.505  14.479 -0.7761  2.9740  1.0601
   20MPD2    H2  314   4.053   0.004  14.143  1.0346  0.8140  0.5296
   20MPD2    H3  315   4.069   4.711  14.375  1.3916  1.6101 -0.0648
   20MPD2     N  316   4.342   4.342  14.366 -0.3726  0.0807  0.2381
   20MPD2    H5  317   4.329   4.328  14.466  0.6480 -0.6540  0.2627
   20MPD2    N1  318   4.202   4.579  13.964 -1.1571 -0.3941 -0.0648
   20MPD2    H7  319   4.267   4.517  13.916  1.1639  1.2689  0.9338
   21MPD2     C  320   1.592   4.604  14.239 -0.3699 -0.2391  0.3388
   21MPD2    C1  321   1.644   4.474  14.256 -0.3593 -0.0120  0.1085
   21MPD2    C2  322   1.568   4.381  14.322  0.1720  0.0906  0.1992
   21MPD2    C3  323   1.450   4.414  14.383 -0.3380 -0.0338  0.5271
   21MPD2    C4  324   1.399   4.541  14.360  0.9702  0.1880 -0.4209
   21MPD2    C5  325   1.468   4.639  14.289 -0.6649 -0.1371  0.9804
   21MPD2     H  326   1.616   4.285  14.335 -1.2354 -0.4367  1.4951
   21MPD2    H1  327   1.301   4.568  14.399  1.2501 -1.4164  1.3913
   21MPD2    H2  328   1.644   4.679  14.180 -0.0238 -1.7492 -1.2846
   21MPD2    H3  329   1.428   0.014  14.266  0.1264  0.3950  1.8635
   21MPD2     N  330   1.384   4.328  14.469  0.2074  0.6740 -0.1294
   21MPD2    H5  331   1.289   4.357  14.491  0.7242  0.8025  2.0198
   21MPD2    N1  332   1.761   4.419  14.198 -0.3892  0.4666 -0.3605
   21MPD2    H7  333   1.777   4.319  14.204 -4.8015 -0.2783 -0.9541
   22TCq2    C1  334   1.423   4.201  14.514 -0.3403  0.4670  0.6674
   22TCq2    O2  335   1.536   4.157  14.524 -0.0923  0.1078 -0.0938
   22TCq2    C2  336   1.313   4.133  14.578 -0.6380 -0.4864  0.4161
   22TCq2    C3  337   1.346   4.049  14.680  0.8027 -0.0088  0.2555
   22TCq2    C4  338   1.251   3.965  14.725 -0.5580  0.3510 -0.8765
   22TCq2    C5  339   1.121   3.985  14.688 -0.4074  0.0034  0.1134
   22TCq2    C6  340   1.090   4.084  14.600  0.3203  0.4853  0.1732
   22TCq2    C7  341   1.183   4.163  14.543  0.2993 -0.8586 -0.1742
   22TCq2    C8  342   0.955   4.075  14.538  0.3569 -0.4566  0.6164
   22TCq2    O4  343   0.907   3.964  14.526  0.2520  0.1916 -0.4214
   22TCq2    C9  344   1.283   3.861  14.812  0.1154  0.4776 -0.7962
   22TCq2    O5  345   1.401   3.844  14.830  0.4136  0.2896  0.2739
   22TCq2    O6  346   1.186   3.815  14.882  0.6997 -0.2132  0.1367
   22TCq2    H2  347   1.448   4.036  14.714  0.2571 -0.7555  1.6112
   22TCq2    H3  348   1.044   3.925  14.735  1.3679 -1.5656  0.9993
   22TCq2    H4  349   1.160   4.230  14.460 -3.0385 -0.2720  1.2383
   23MPD2     C  350   3.103   0.164  14.333 -0.3931  0.2848 -0.4122
   23MPD2    C1  351   2.977   0.194  14.403 -0.7573  0.3706 -0.0565
   23MPD2    C2  352   2.871   0.228  14.330  0.6710  0.2960  0.6625
   23MPD2    C3  353   2.869   0.213  14.191 -0.1946 -0.1465  0.2751
   23MPD2    C4  354   2.985   0.169  14.123 -0.2724  0.2777 -0.5116
   23MPD2    C5  355   3.100   0.151  14.195  0.6363 -0.4530 -0.1550
   23MPD2     H  356   2.783   0.274  14.374  0.0687 -2.1239  1.9974
   23MPD2    H1  357   2.988   0.164  14.014 -1.6760  1.0933 -0.5917
   23MPD2    H2  358   3.199   0.148  14.380 -1.6703  0.2912  2.1949
   23MPD2    H3  359   3.192   0.124  14.144 -0.1617 -1.9393 -0.8138
   23MPD2     N  360   2.755   0.236  14.106  0.3342  0.4364 -0.9645
   23MPD2    H5  361   2.768   0.240  14.005  0.0514 -0.6891 -1.0466
   23MPD2    N1  362   2.970   0.213  14.539 -0.0711  0.1483  0.0472
   23MPD2    H7  363   2.881   0.254  14.567  0.2040  0.4183  0.5211
   24TCq2    C1  364   2.632   0.222  14.154  0.1558  0.2566 -0.1655
   24TCq2    O2  365   2.589   0.184  14.264 -0.0789  0.5219  0.3837
   24TCq2    C2  366   2.526   0.248  14.055 -0.1428  0.2153 -0.5455
   24TCq2    C3  367   2.401   0.191  14.077  0.4170 -0.9978 -0.4542
   24TCq2    C4  368   2.303   0.218  13.995 -0.3284 -0.6047 -1.0061
   24TCq2    C5  369   2.323   0.296  13.889  0.4497 -0.7091  0.1454
   24TCq2    C6  370   2.451   0.352  13.865 -0.4487 -0.0717 -0.6187
   24TCq2    C7  371   2.554   0.326  13.945 -0.1789 -0.1408  0.0089
   24TCq2    C8  372   2.449   0.484  13.813 -0.3620 -0.1681 -0.8016
   24TCq2    O4  373   2.553   0.547  13.818 -1.6428  0.6402  0.7640
   24TCq2    C9  374   2.174   0.146  14.008  0.5160 -0.2751  0.8672
   24TCq2    O5  375   2.145   0.091  14.119  0.2189 -0.1211  0.3520
   24TCq2    O6  376   2.096   0.140  13.910  0.0589  0.1839 -0.0790
   24TCq2    H2  377   2.394   0.114  14.154  3.2096  0.2221  1.0033
   24TCq2    H3  378   2.249   0.301  13.809  0.2141  0.4651  0.4278
   24TCq2    H4  379   2.648   0.378  13.925 -1.1311  1.1232 -1.2233
   25TMC2    C1  380   1.747   3.166  11.854 -0.4428 -0.9000  0.3806
   25TMC2    C2  381   1.878   3.207  11.865 -0.2433  0.4399 -0.4176
   25TMC2    C3  382   1.966   3.142  11.950  0.4216 -0.5786  0.2588
   25TMC2    C4  383   1.693   3.064  11.929 -0.6678 -0.4083 -0.5827
   25TMC2    C5  384   1.779   3.006  12.025  0.4255 -0.1807  0.1950
   25TMC2    C6  385   1.913   3.049  12.036  0.2694  0.3844  0.2581
   25TMC2     C  386   1.671   3.223  11.742 -0.5118 -0.3382 -0.5000
   25TMC2     O  387   1.687   3.341  11.713 -0.5522 -0.5655 -0.3296
   25TMC2     H  388   1.907   3.297  11.810  2.2260 -0.5985 -0.8293
   25TMC2    H1  389   1.592   3.027  11.916 -0.6475 -0.4030 -0.7499
   25TMC2    H2  390   1.977   3.022  12.119  1.1312  1.5470 -0.0367
   25TMC2    C7  391   1.731   2.936  12.141 -0.0308  0.9094 -0.9615
   25TMC2    C8  392   2.091   3.195  11.988  0.0177 -0.0043  0.1203
   25TMC2    O1  393   1.815   2.872  12.200  0.0426  0.1644 -0.2224
   25TMC2    O2  394   2.118   3.196  12.109 -0.5232  0.4048  0.8305
   25TMC2    O5  395   2.134   3.279  11.893 -0.1917  0.1598  0.6188
   25TMC2    H5  396   2.090   3.277  11.806  0.1113  1.6627  0.4276
   26MPD2     C  397   1.457   3.132  11.275  0.2280  0.7240 -0.4593
   26MPD2    C1  398   1.453   3.014  11.350  0.3403  0.0525 -0.6346
   26MPD2    C2  399   1.493   3.007  11.490 -0.2637  0.4435  0.2190
   26MPD2    C3  400   1.546   3.125  11.544 -0.0786 -0.1696  0.3008
   26MPD2    C4  401   1.533   3.246  11.479  0.1100 -0.9943  0.6783
   26MPD2    C5  402   1.493   3.241  11.351 -0.1677  0.5263  0.5664
   26MPD2     H  403   1.492   2.919  11.553 -1.2310  1.6669  1.9098
   26MPD2    H1  404   1.558   3.337  11.532 -0.9160 -1.0299  1.2210
   26MPD2    H2  405   1.423   3.146  11.173 -0.4434 -0.3562 -0.3853
   26MPD2    H3  406   1.489   3.335  11.297 -0.5939  0.4957  0.5396
   26MPD2     N  407   1.607   3.124  11.672  0.2598  0.5427  0.1630
   26MPD2    H5  408   1.625   3.028  11.700 -0.3796  0.1949 -0.6001
   26MPD2    N1  409   1.394   2.909  11.285  0.2914 -0.4213 -0.6993
   26MPD2    H7  410   1.358   2.924  11.191 -1.1770  0.4249  0.0031
   27TMC2    C1  411   0.445   0.150  11.738 -0.3027  0.0993  1.2151
   27TMC2    C2  412   0.392   0.124  11.614 -0.0166 -0.7482 -0.3871
   27TMC2    C3  413   0.298   0.220  11.585 -0.6110  0.6653  0.1038
   27TMC2    C4  414   0.436   0.267  11.809 -0.1552  0.5093  0.3001
   27TMC2    C5  415   0.350   0.364  11.773 -0.1739  0.1126  0.5146
   27TMC2    C6  416   0.267   0.319  11.677 -0.6774  0.6600 -0.5068
   27TMC2     C  417   0.443   0.031  11.824 -0.7423 -0.3671 -0.5839
   27TMC2     O  418   0.457   4.646  11.765 -0.1175  0.5896  0.0731
   27TMC2     H  419   0.385   0.024  11.572  0.9085 -0.7586 -0.5248
   27TMC2    H1  420   0.498   0.285  11.896  1.9503 -2.1845 -0.6353
   27TMC2    H2  421   0.183   0.386  11.658 -2.2150 -0.3867  2.6206
   27TMC2    C7  422   0.293   0.416  11.892  0.3454  0.4888  0.6617
   27TMC2    C8  423   0.169   0.164  11.542  0.0630 -0.3525 -0.4506
   27TMC2    O1  424   0.250   0.333  11.971 -0.1933  0.6075 -0.1360
   27TMC2    O2  425   0.069   0.162  11.609 -0.4097 -0.2401 -0.3450
   27TMC2    O5  426   0.198   0.090  11.430  0.1061 -0.5140  0.1248
   27TMC2    H5  427   0.287   0.109  11.393 -0.1925 -0.2094 -0.4525
   28MPD2     C  428   0.293   4.543  12.260  0.4025 -0.0651  0.0055
   28MPD2    C1  429   0.262   4.674  12.261  0.0335 -0.1865 -0.1946
   28MPD2    C2  430   0.307   0.032  12.162 -0.0970  0.8090 -0.5119
   28MPD2    C3  431   0.371   4.699  12.052  0.0392  0.3707  0.4452
   28MPD2    C4  432   0.399   4.567  12.048  0.4628 -0.0726 -0.1702
   28MPD2    C5  433   0.363   4.489  12.157 -0.1039 -0.1496 -1.0817
   28MPD2     H  434   0.275   0.136  12.154  0.4889  0.9899 -0.4744
   28MPD2    H1  435   0.452   4.519  11.967  1.2249 -2.4252  1.7098
   28MPD2    H2  436   0.257   4.476  12.337  0.6746 -1.1525 -0.8208
   28MPD2    H3  437   0.381   4.382  12.157 -0.9211 -0.2958 -3.0917
   28MPD2     N  438   0.403   0.067  11.944 -0.0315 -0.1002  0.0216
   28MPD2    H5  439   0.363   0.160  11.946  1.0836  0.3643  0.9857
   28MPD2    N1  440   0.174   0.003  12.359 -0.2136  0.3845  0.0100
   28MPD2    H7  441   0.129   4.659  12.421  0.2700 -0.2571 -0.3339
   29MPD2     C  442   0.795   2.851  13.933  0.2091 -0.1669 -0.7897
   29MPD2    C1  443   0.852   2.736  13.881  0.2151  0.1303 -0.5478
   29MPD2    C2  444   0.877   2.730  13.748 -0.5941  0.0437 -0.3796
   29MPD2    C3  445   0.873   2.851  13.672  0.5404  0.3396  0.1692
   29MPD2    C4  446   0.832   2.967  13.732 -0.3498 -0.1805  0.4201
   29MPD2    C5  447   0.786   2.964  13.860  0.0173  0.0219  0.6354
   29MPD2     H  448   0.916   2.642  13.698  1.2398  0.7403 -0.1803
   29MPD2    H1  449   0.820   3.062  13.680 -0.6482  0.1482  1.0876
   29MPD2    H2  450   0.748   2.848  14.031  1.3798 -0.4597 -0.2432
   29MPD2    H3  451   0.746   3.061  13.889  0.8955  0.2803  0.9709
   29MPD2     N  452   0.932   2.867  13.544 -0.2961  0.3269  0.5396
   29MPD2    H5  453   0.935   2.959  13.499  1.7118  0.0835  0.1625
   29MPD2    N1  454   0.864   2.623  13.961  0.0286 -0.9947  0.5246
   29MPD2    H7  455   0.887   2.533  13.921  1.9243 -0.7949  1.1737
   30TCq2    C1  456   0.971   2.769  13.463 -0.0980  0.2949  0.7416
   30TCq2    O2  457   0.982   2.651  13.481  0.5098  0.1503 -0.2511
   30TCq2    C2  458   1.024   2.825  13.346  0.4100 -0.2511 -0.1008
   30TCq2    C3  459   1.019   2.737  13.241 -0.5197 -0.4297  0.0500
   30TCq2    C4  460   1.117   2.740  13.147  0.5293 -0.0065 -0.1643
   30TCq2    C5  461   1.232   2.817  13.168 -0.7103 -0.2600 -0.3924
   30TCq2    C6  462   1.246   2.888  13.280  0.7320  0.7978 -0.2694
   30TCq2    C7  463   1.141   2.893  13.374 -0.5390  0.1289 -0.5625
   30TCq2    C8  464   1.374   2.963  13.293  0.7908  0.6965  0.2297
   30TCq2    O4  465   1.449   2.964  13.197 -0.5358  0.0456 -0.4500
   30TCq2    C9  466   1.117   2.648  13.035 -0.3013  0.2270 -0.6705
   30TCq2    O5  467   1.037   2.549  13.039 -0.1652 -0.3617  0.6957
   30TCq2    O6  468   1.181   2.684  12.935 -0.3558 -0.3702  0.0588
   30TCq2    H2  469   0.933   2.671  13.236 -0.2491 -0.7306 -0.5057
   30TCq2    H3  470   1.314   2.795  13.101 -0.3363 -1.2251  0.3807
   30TCq2    H4  471   1.138   2.966  13.454  0.5915 -0.0336 -0.3751
   31MPD2     C  472   3.139   2.038  14.783 -0.3283  0.4265  0.3890
   31MPD2    C1  473   3.040   2.041  14.690  0.2721 -0.3292  1.3586
   31MPD2    C2  474   2.910   1.992  14.722 -0.5432 -0.1963 -0.5679
   31MPD2    C3  475   2.882   1.952  14.849 -0.1096  0.2456  0.0569
   31MPD2    C4  476   2.980   1.951  14.942  0.0543 -0.1460 -0.3224
   31MPD2    C5  477   3.107   1.992  14.906  0.1127 -0.6994 -0.1952
   31MPD2     H  478   2.826   1.987  14.654 -0.2865  2.5494 -1.0530
   31MPD2    H1  479   2.950   1.928  15.044 -2.7721  2.9253 -0.4702
   31MPD2    H2  480   3.242   2.061  14.759 -0.0609 -0.6051  0.5532
   31MPD2    H3  481   3.184   1.987  14.982  1.8164  0.8919 -1.7827
   31MPD2     N  482   2.753   1.918  14.898 -0.5816  0.3706 -0.2929
   31MPD2    H5  483   2.758   1.889  14.995  1.4645 -1.6447 -0.9945
   31MPD2    N1  484   3.066   2.081  14.553  0.5627  0.6500 -0.0140
   31MPD2    H7  485   3.163   2.111  14.544  1.0178 -0.0484  2.4600
   32TCq2    C1  486   2.630   1.945  14.836  0.0101 -0.1407  0.0997
   32TCq2    O2  487   2.600   2.020  14.744 -0.6152 -0.1448 -0.8604
   32TCq2    C2  488   2.512   1.911  14.924  0.3565 -0.4979 -0.4057
   32TCq2    C3  489   2.404   1.985  14.902  0.4094  0.8868  0.4799
   32TCq2    C4  490   2.293   1.949  14.973  0.0891  0.5410  0.1527
   32TCq2    C5  491   2.294   1.843  15.061 -0.5675  0.3396 -0.0772
   32TCq2    C6  492   2.405   1.765  15.073 -0.4208  0.6430 -0.6193
   32TCq2    C7  493   2.516   1.797  15.003  0.1070 -0.2817  0.0322
   32TCq2    C8  494   2.423   1.701  15.204 -0.0758  0.5496  0.0725
   32TCq2    O4  495   2.532   1.652  15.233  0.0539 -0.5732 -0.7532
   32TCq2    C9  496   2.173   2.023  14.934 -0.7025 -0.6497  0.0966
   32TCq2    O5  497   2.065   2.014  15.005  0.6497 -0.8203  0.4502
   32TCq2    O6  498   2.190   2.101  14.830  0.2395  0.5358  0.4714
   32TCq2    H2  499   2.412   2.077  14.846  1.3321  0.3408 -0.2956
   32TCq2    H3  500   2.202   1.828  15.117 -0.3391  0.2149  0.2584
   32TCq2    H4  501   2.612   1.749  15.019  0.3421  0.6091  1.2861
   33MPD2     C  502   3.199   4.139  10.198  0.3886 -0.3883 -0.4696
   33MPD2    C1  503   3.093   4.058  10.164  0.4239 -0.0426  0.2637
   33MPD2    C2  504   3.009   4.088  10.060  0.1639 -0.9117  1.1626
   33MPD2    C3  505   3.022   4.207   9.983 -0.9730 -0.1706  0.2446
   33MPD2    C4  506   3.121   4.298  10.020 -0.4455 -0.0786 -0.4051
   33MPD2    C5  507   3.206   4.260  10.127  0.7323  0.2589 -0.2249
   33MPD2     H  508   2.932   4.014  10.042  0.6969 -0.2487 -3.7889
   33MPD2    H1  509   3.136   4.393   9.970  3.1313 -0.2738  0.2555
   33MPD2    H2  510   3.257   4.131  10.290 -0.4841 -1.3431 -0.0075
   33MPD2    H3  511   3.294   4.322  10.145  0.5704  0.6906 -0.9289
   33MPD2     N  512   2.925   4.250   9.888 -0.0713 -0.3981  0.0651
   33MPD2    H5  513   2.917   4.349   9.870  0.8134 -0.5644 -1.2707
   33MPD2    N1  514   3.090   3.936  10.238 -0.6521  0.0290  0.5983
   33MPD2    H7  515   3.174   3.899  10.281 -0.8744  0.8457  1.7219
   34TCq2    C1  516   2.829   4.170   9.826 -0.6317 -0.0742  0.6994
   34TCq2    O2  517   2.808   4.049   9.827 -0.4582 -0.3446 -0.1408
   34TCq2    C2  518   2.720   4.251   9.783 -0.0846  0.5817 -0.1751
   34TCq2    C3  519   2.594   4.212   9.829  0.0247 -0.3480  0.8187
   34TCq2    C4  520   2.499   4.312   9.838  0.0308  0.4792  0.5359
   34TCq2    C5  521   2.525   4.440   9.793 -0.7397  0.6296 -0.1431
   34TCq2    C6  522   2.638   4.465   9.726 -0.0832 -0.2740  0.4879
   34TCq2    C7  523   2.740   4.379   9.731  0.5555  0.0951 -0.3116
   34TCq2    C8  524   2.659   4.593   9.656  0.4104  0.6305  0.5788
   34TCq2    O4  525   2.775   4.621   9.618 -0.1018  0.1084 -0.2373
   34TCq2    C9  526   2.376   4.280   9.906  0.7184 -0.1567  0.4534
   34TCq2    O5  527   2.365   4.159   9.943 -0.0496  0.4443  0.5694
   34TCq2    O6  528   2.303   4.380   9.940 -0.1559 -0.9529  0.3387
   34TCq2    H2  529   2.578   4.120   9.884  1.6505 -0.5156  1.0181
   34TCq2    H3  530   2.442   4.509   9.795 -0.5090  0.9529 -2.3190
   34TCq2    H4  531   2.835   4.399   9.683  0.0535 -0.1001 -1.4032
   35MPD2     C  532   4.572   0.919  11.653  0.0399  0.2699  0.2489
   35MPD2    C1  533   4.582   0.785  11.687 -0.6432 -0.1330  0.4127
   35MPD2    C2  534   4.515   0.696  11.613 -0.4584  0.2708  0.5569
   35MPD2    C3  535   4.430   0.733  11.504  0.0770 -0.0658  0.3140
   35MPD2    C4  536   4.418   0.867  11.484 -0.0239  0.3724 -0.5900
   35MPD2    C5  537   4.482   0.956  11.556  1.2776 -0.1525  0.4351
   35MPD2     H  538   4.513   0.589  11.634 -0.9372  0.1004 -0.3616
   35MPD2    H1  539   4.364   0.927  11.411  2.1065  1.6490 -1.1456
   35MPD2    H2  540   4.627   0.999  11.702  1.4788  0.1220 -1.1249
   35MPD2    H3  541   4.476   1.062  11.537  0.2354 -0.3394 -0.2409
   35MPD2     N  542   4.351   0.638  11.439 -0.4316 -0.2035 -0.0295
   35MPD2    H5  543   4.347   0.540  11.465 -0.5147 -0.4366 -0.9288
   35MPD2    N1  544   4.639   0.755  11.806  0.2377 -0.1070  0.1819
   35MPD2    H7  545   4.652   0.837  11.865 -0.3058  1.1380 -1.4426
   36TCq2    C1  546   4.274   0.665  11.338 -0.0336 -0.0727  0.4260
   36TCq2    O2  547   4.254   0.775  11.287 -0.1743  0.0107  0.0419
   36TCq2    C2  548   4.208   0.547  11.283  0.1392  0.3018  0.2307
   36TCq2    C3  549   4.098   0.567  11.201  0.1115  0.2920 -0.2270
   36TCq2    C4  550   4.022   0.461  11.174 -0.8336 -0.2714 -0.2834
   36TCq2    C5  551   4.045   0.338  11.231 -1.0722  1.2610  0.5050
   36TCq2    C6  552   4.160   0.318  11.307 -0.2299  0.4913  0.3872
   36TCq2    C7  553   4.250   0.422  11.327 -0.2860  0.0203  0.2727
   36TCq2    C8  554   4.198   0.177  11.328 -0.6953  0.9981 -0.4542
   36TCq2    O4  555   4.137   0.089  11.272 -0.4356 -1.5973  0.5685
   36TCq2    C9  556   3.898   0.468  11.093  0.7945 -0.5008  0.2924
   36TCq2    O5  557   3.870   0.584  11.041 -0.6683 -0.3021 -0.1391
   36TCq2    O6  558   3.827   0.365  11.092 -0.2855  0.5285 -0.0693
   36TCq2    H2  559   4.080   0.668  11.165 -0.8560 -0.4477 -1.8187
   36TCq2    H3  560   3.979   0.254  11.217 -0.6998  0.7288  1.9250
   36TCq2    H4  561   4.347   0.403  11.372  0.5729  1.4362 -0.9862
   37TMC2    C1  562   1.400   1.025  11.463  0.0167 -0.5611  0.3729
   37TMC2    C2  563   1.394   1.121  11.355  0.6186  0.4283  0.5788
   37TMC2    C3  564   1.510   1.173  11.308  0.2965  0.1542 -0.4624
   37TMC2    C4  565   1.520   0.964  11.506 -0.1403 -0.1447 -0.4309
   37TMC2    C5  566   1.639   1.015  11.453  0.3158 -0.1131 -0.3630
   37TMC2    C6  567   1.629   1.134  11.371  0.7019  0.2027  0.6604
   37TMC2     C  568   1.276   0.999  11.527 -0.4707  0.1416  0.1352
   37TMC2     O  569   1.174   1.037  11.471  0.1871 -0.1076 -0.4361
   37TMC2     H  570   1.302   1.162  11.314 -0.3348 -1.7897  0.4543
   37TMC2    H1  571   1.519   0.866  11.551 -4.2668  0.3077  0.4850
   37TMC2    H2  572   1.719   1.182  11.334 -0.2828  1.0818 -0.6030
   37TMC2    C7  573   1.769   0.980  11.511 -0.5666  0.6628 -0.3419
   37TMC2    C8  574   1.505   1.318  11.275  0.2513  0.1851 -0.5305
   37TMC2    O1  575   1.774   0.926  11.620  0.0618 -0.1910 -0.6811
   37TMC2    O2  576   1.549   1.404  11.352 -0.1921 -0.1348 -0.4392
   37TMC2    O5  577   1.486   1.321  11.137 -0.6538 -0.1631 -0.2483
   37TMC2    H5  578   1.458   1.234  11.101 -1.5470  0.6713 -1.5940
   38MPD2     C  579   0.993   0.813  11.925 -0.2479 -0.1379  0.4227
   38MPD2    C1  580   1.129   0.807  11.960  0.1074  0.2547  0.5691
   38MPD2    C2  581   1.223   0.855  11.866  0.7202 -0.2116  0.0686
   38MPD2    C3  582   1.186   0.901  11.739  1.0504 -0.5550 -0.2399
   38MPD2    C4  583   1.051   0.909  11.708  0.4816  0.3398 -0.7372
   38MPD2    C5  584   0.958   0.857  11.801  0.0795  0.1148 -0.6149
   38MPD2     H  585   1.327   0.840  11.895  0.5424 -1.6606 -0.0563
   38MPD2    H1  586   1.015   0.946  11.613 -0.6208  1.5600  0.1723
   38MPD2    H2  587   0.910   0.792  11.991 -0.9840  2.8860  0.4606
   38MPD2    H3  588   0.851   0.864  11.786  0.2463 -0.1478 -1.9482
   38MPD2     N  589   1.291   0.947  11.657  0.0491 -0.6798 -0.3495
   38MPD2    H5  590   1.389   0.938  11.683  0.3379  0.8890 -0.8716
   38MPD2    N1  591   1.173   0.760  12.087 -0.0421 -0.0282  0.8286
   38MPD2    H7  592   1.273   0.755  12.102  0.0506 -0.8887 -0.1172
   39MPD2     C  593   4.588   3.254   1.572 -0.1170 -0.3597 -0.1281
   39MPD2    C1  594   4.513   3.355   1.619  0.1021  0.0364 -0.2842
   39MPD2    C2  595   4.373   3.335   1.619  0.1882 -0.6497  0.4430
   39MPD2    C3  596   4.318   3.222   1.569 -0.0706 -0.5870  0.0037
   39MPD2    C4  597   4.406   3.122   1.516 -0.0551  0.0765 -0.3712
   39MPD2    C5  598   4.539   3.134   1.533  0.1251  0.4460 -0.8295
   39MPD2     H  599   4.314   3.413   1.666  0.4088  0.5356 -1.2261
   39MPD2    H1  600   4.361   3.040   1.462  1.7617 -0.1552 -1.5223
   39MPD2    H2  601   4.696   3.258   1.578  0.0371  0.2605 -3.1527
   39MPD2    H3  602   4.600   3.058   1.485  1.1160 -0.7160  2.2898
   39MPD2     N  603   4.179   3.190   1.556  0.1497  0.9596  0.2579
   39MPD2    H5  604   4.163   3.095   1.526  2.4518  0.8772 -0.6873
   39MPD2    N1  605   4.590   3.460   1.665 -0.4703 -0.7997  0.2609
   39MPD2    H7  606   4.691   3.456   1.655 -0.6266 -0.4252 -1.4498
   40TCq2    C1  607   4.533   3.570   1.725  0.0782  0.7420  0.3546
   40TCq2    O2  608   4.418   3.601   1.754 -0.4480 -0.4732 -0.1778
   40TCq2    C2  609   4.637   3.669   1.759  0.7912 -0.1308 -0.2173
   40TCq2    C3  610   4.609   3.758   1.861 -0.2196  0.1633  0.2244
   40TCq2    C4  611   4.697   3.853   1.900  0.6365  0.1573 -0.3281
   40TCq2    C5  612   0.097   3.860   1.833 -0.6792  0.1869  0.3283
   40TCq2    C6  613   0.130   3.767   1.729 -0.5211 -0.3559 -0.0028
   40TCq2    C7  614   0.035   3.676   1.696  0.6891 -0.4237 -0.0853
   40TCq2    C8  615   0.265   3.744   1.674 -0.1037 -0.5509  0.0786
   40TCq2    O4  616   0.280   3.634   1.618 -0.5142  0.5894 -0.1690
   40TCq2    C9  617   4.671   3.938   2.017  0.5031 -1.1670 -0.5337
   40TCq2    O5  618   0.035   4.016   2.057 -0.7233 -0.1676 -0.5200
   40TCq2    O6  619   4.556   3.935   2.059 -0.1020 -0.0256 -0.3611
   40TCq2    H2  620   4.518   3.757   1.921  0.5707 -0.1057  1.4132
   40TCq2    H3  621   0.163   3.934   1.876  1.5433 -2.3988  1.4138
   40TCq2    H4  622   0.056   3.613   1.610 -0.2927  0.4609 -0.9866
   41TMC2    C1  623   3.502   0.737  13.181 -0.1097  0.5523 -0.0229
   41TMC2    C2  624   3.417   0.638  13.160  0.1771  0.4102  0.0460
   41TMC2    C3  625   3.365   0.628  13.037 -0.5203  0.1416  0.4509
   41TMC2    C4  626   3.537   0.827  13.086  0.0306  0.0879  1.0070
   41TMC2    C5  627   3.491   0.803  12.955 -0.2460 -0.0368 -0.1311
   41TMC2    C6  628   3.395   0.710  12.930  0.0045 -0.2579 -0.3380
   41TMC2     C  629   3.592   0.706  13.287 -1.0129 -0.1852 -1.1428
   41TMC2     O  630   3.603   0.591  13.326  0.0648  0.1531 -0.0634
   41TMC2     H  631   3.377   0.586  13.247 -1.2445  4.5052  1.8552
   41TMC2    H1  632   3.619   0.894  13.105 -0.9007  1.2373  0.9450
   41TMC2    H2  633   3.350   0.682  12.835 -0.4914  1.2412 -0.5537
   41TMC2    C7  634   3.574   0.846  12.846  0.8427  1.3989 -0.1321
   41TMC2    C8  635   3.230   0.604  13.019 -0.0003 -0.3661  0.1470
   41TMC2    O1  636   3.634   0.952  12.860  0.5685 -0.8125  0.2094
   41TMC2    O2  637   3.164   0.703  12.981  1.1446 -0.4497 -0.0442
   41TMC2    O5  638   3.184   0.519  13.119 -0.2523  0.4207 -0.0258
   41TMC2    H5  639   3.247   0.444  13.135 -1.9272 -1.0689 -0.4287
   42MPD2     C  640   3.817   0.720  13.449  1.1789 -0.3813 -0.3736
   42MPD2    C1  641   3.720   0.813  13.448 -0.5517  0.1894  0.0802
   42MPD2    C2  642   3.723   0.901  13.561 -0.0837  0.2915  0.3792
   42MPD2    C3  643   3.811   0.887  13.664 -0.0216  0.8929 -0.0385
   42MPD2    C4  644   3.905   0.793  13.659 -0.3078 -0.5047 -0.1388
   42MPD2    C5  645   3.908   0.713  13.551  0.0951 -0.4092  0.5225
   42MPD2     H  646   3.641   0.972  13.572  0.2717  0.9049 -0.9010
   42MPD2    H1  647   3.984   0.792  13.733  1.7847  0.0519 -2.3771
   42MPD2    H2  648   3.835   0.653  13.366 -0.6387 -0.2915 -0.8293
   42MPD2    H3  649   3.986   0.638  13.553  0.4307 -0.0524  0.7067
   42MPD2     N  650   3.814   0.968  13.783 -0.5085 -0.1271  0.0664
   42MPD2    H5  651   3.888   0.953  13.850 -0.0764  0.3330 -0.3018
   42MPD2    N1  652   3.631   0.824  13.345  0.0300 -0.0903 -0.4830
   42MPD2    H7  653   3.572   0.904  13.324  0.5283  0.6221  0.8207
   43MPD2     C  654   0.213   3.860   0.299 -0.2560 -0.7835 -0.0071
   43MPD2    C1  655   0.288   3.886   0.409 -0.7590 -0.0223  0.7230
   43MPD2    C2  656   0.226   3.929   0.517 -0.2725  0.5406 -0.6097
   43MPD2    C3  657   0.089   3.938   0.526 -0.1675  0.3061  0.4726
   43MPD2    C4  658   0.014   3.919   0.415 -0.3755 -0.2137 -0.1724
   43MPD2    C5  659   0.078   3.891   0.294 -0.6160 -0.0934 -0.1366
   43MPD2     H  660   0.283   3.968   0.600 -2.5683 -1.3457  1.8968
   43MPD2    H1  661   4.633   3.947   0.413 -0.3036  0.2211  3.2975
   43MPD2    H2  662   0.265   3.827   0.210  0.2262  2.5549 -0.9506
   43MPD2    H3  663   0.015   3.880   0.207 -1.5228  1.7238  0.2744
   43MPD2     N  664   0.023   3.980   0.648 -0.3734 -0.1918  0.0558
   43MPD2    H5  665   4.646   3.988   0.648 -0.2538  1.1744 -2.2214
   43MPD2    N1  666   0.431   3.891   0.406 -0.1089  0.0302 -0.6172
   43MPD2    H7  667   0.467   3.942   0.486  1.6892  0.1359 -1.5118
   44TCq2    C1  668   0.085   4.256   1.179 -0.3112  0.0673 -0.1867
   44TCq2    O2  669   0.203   4.247   1.151 -0.2237  0.2758  0.8446
   44TCq2    C2  670   4.710   4.190   1.088  0.2748  0.5514 -0.0697
   44TCq2    C3  671   4.595   4.256   1.054 -0.6593  0.5461 -0.4621
   44TCq2    C4  672   4.540   4.226   0.932 -0.3837 -0.1629  0.1342
   44TCq2    C5  673   4.598   4.144   0.836 -0.1204  1.0201 -0.5635
   44TCq2    C6  674   4.716   4.081   0.874  0.1565  0.2424 -0.0573
   44TCq2    C7  675   0.049   4.098   0.999 -0.4974  0.1151  0.7346
   44TCq2    C8  676   0.075   4.006   0.777 -0.4374 -0.0041  0.4840
   44TCq2    O4  677   0.187   3.980   0.820  0.0756 -0.1292 -0.0467
   44TCq2    C9  678   4.430   4.302   0.885 -0.0212  0.1659 -0.3873
   44TCq2    O5  679   4.357   4.356   0.970 -0.5164  0.1066  0.2517
   44TCq2    O6  680   4.422   4.316   0.761  0.6218 -0.7508  0.8981
   44TCq2    H2  681   4.536   4.323   1.116 -0.1191  1.0150 -0.4503
   44TCq2    H3  682   4.545   4.113   0.747 -0.6555  0.0510  0.0917
   44TCq2    H4  683   0.145   4.052   1.016  0.3821  2.1499  1.3316
   45TMC2    C1  684   0.675   1.083   9.582 -1.0026 -0.9426  0.2102
   45TMC2    C2  685   0.574   1.161   9.543  0.3325  0.9272 -0.3309
   45TMC2    C3  686   0.589   1.297   9.541 -0.4557  0.4804  0.0726
   45TMC2    C4  687   0.800   1.132   9.594  0.2974  0.0609 -0.8212
   45TMC2    C5  688   0.815   1.267   9.594  0.2385 -0.1474 -0.0755
   45TMC2    C6  689   0.710   1.350   9.572 -0.4409 -1.0304  0.5128
   45TMC2     C  690   0.668   0.944   9.555  0.8152  0.3885 -0.1218
   45TMC2     O  691   0.754   0.871   9.602  0.2339  0.2354  0.1418
   45TMC2     H  692   0.473   1.121   9.534  1.0852 -0.9893 -0.2684
   45TMC2    H1  693   0.882   1.063   9.611  1.5411  1.1829 -2.2019
   45TMC2    H2  694   0.728   1.455   9.557  1.8046 -2.0375 -3.6968
   45TMC2    C7  695   0.947   1.322   9.614 -0.2418  0.1085 -0.0712
   45TMC2    C8  696   0.476   1.372   9.585  0.5420 -0.6522 -0.1647
   45TMC2    O1  697   1.051   1.267   9.570  0.4785  0.1872  0.3223
   45TMC2    O2  698   0.392   1.314   9.648  0.4869  0.0566  0.0658
   45TMC2    O5  699   0.469   1.494   9.529 -0.6268 -0.7611 -0.4331
   45TMC2    H5  700   0.546   1.508   9.471  0.4145 -1.5392  0.7644
   46MPD2     C  701   0.583   0.665   9.485 -0.2278 -0.1017  0.0910
   46MPD2    C1  702   0.516   0.781   9.459 -0.2014 -0.5403 -0.5323
   46MPD2    C2  703   0.387   0.772   9.409  0.0381 -0.0104  0.7924
   46MPD2    C3  704   0.323   0.653   9.389 -0.7559 -0.0996 -0.5762
   46MPD2    C4  705   0.389   0.536   9.420  0.0105  0.2802 -0.2068
   46MPD2    C5  706   0.516   0.542   9.468  0.2929  0.1728 -0.1673
   46MPD2     H  707   0.332   0.862   9.387 -0.6596 -0.9176 -1.2069
   46MPD2    H1  708   0.350   0.439   9.394  2.7987  0.0638 -3.6611
   46MPD2    H2  709   0.684   0.662   9.522 -0.0494 -0.3697 -0.4142
   46MPD2    H3  710   0.568   0.447   9.477  1.5228  1.0393  2.0120
   46MPD2     N  711   0.183   0.659   9.345 -0.0994 -0.0384  0.1764
   46MPD2    H5  712   0.153   0.756   9.333 -1.3404 -0.4294  0.1285
   46MPD2    N1  713   0.555   0.909   9.490  0.4819  0.1803  0.0293
   46MPD2    H7  714   0.505   0.990   9.454 -1.9597 -1.5828 -0.5315
   47TMC2    C1  715   3.333   1.687   9.037  1.0288 -0.6465 -0.0083
   47TMC2    C2  716   3.318   1.589   8.941  0.7404 -0.0032  1.0035
   47TMC2    C3  717   3.194   1.570   8.895  0.1385  0.1928  0.3444
   47TMC2    C4  718   3.236   1.777   9.066 -0.2003 -0.3948 -0.2524
   47TMC2    C5  719   3.112   1.748   9.015 -0.1096 -0.0130  0.3971
   47TMC2    C6  720   3.084   1.646   8.932  0.2635 -0.2106 -0.1814
   47TMC2     C  721   3.455   1.695   9.107 -0.4073  0.4072  0.3633
   47TMC2     O  722   3.482   1.801   9.162  0.9033  0.0925  0.4038
   47TMC2     H  723   3.400   1.529   8.903  0.0036  0.8705 -1.9410
   47TMC2    H1  724   3.246   1.856   9.139  1.0530 -0.3668 -0.4632
   47TMC2    H2  725   2.990   1.620   8.884  0.3216  0.6844 -0.7850
   47TMC2    C7  726   3.000   1.833   9.049 -0.2696 -0.7802  0.3218
   47TMC2    C8  727   3.155   1.462   8.809 -0.3225  0.2776 -0.4319
   47TMC2    O1  728   2.893   1.806   8.990  0.1358  0.1103  0.1052
   47TMC2    O2  729   3.050   1.460   8.743  0.0163  0.1239 -0.7626
   47TMC2    O5  730   3.249   1.366   8.810 -0.0217  0.0940  0.8559
   47TMC2    H5  731   3.302   1.383   8.891  2.2837 -0.7395 -0.4610
   48MPD2     C  732   3.725   1.638   9.228  0.4190 -0.0877  0.2871
   48MPD2    C1  733   3.637   1.539   9.179 -0.1223 -0.4025  0.4403
   48MPD2    C2  734   3.673   1.406   9.177  0.2936  0.3533 -0.6502
   48MPD2    C3  735   3.799   1.361   9.224  0.6148  0.0649  0.2267
   48MPD2    C4  736   3.886   1.456   9.275  0.8921 -0.2923 -0.7667
   48MPD2    C5  737   3.844   1.590   9.277  0.5077  0.3998  0.1499
   48MPD2     H  738   3.609   1.330   9.134  1.4150 -0.6530 -0.5681
   48MPD2    H1  739   3.984   1.428   9.314  0.7785 -1.1012 -1.0554
   48MPD2    H2  740   3.700   1.742   9.247  0.3808 -0.0822  0.2052
   48MPD2    H3  741   3.914   1.655   9.330 -0.5349  0.9933  0.8009
   48MPD2     N  742   3.825   1.225   9.200 -0.2435 -0.0665 -0.0158
   48MPD2    H5  743   3.758   1.172   9.147  0.5900  0.9602 -2.1095
   48MPD2    N1  744   3.511   1.573   9.122 -0.2205 -0.6416 -0.1501
   48MPD2    H7  745   3.464   1.491   9.085 -0.4886  0.0496 -1.3327
   49MPD2     C  746   1.020   2.895   9.396  0.4129 -0.0599 -0.5534
   49MPD2    C1  747   1.041   2.859   9.527 -0.1960  0.0134  0.4312
   49MPD2    C2  748   1.082   2.964   9.612 -0.2684 -0.1193  0.0110
   49MPD2    C3  749   1.095   3.093   9.571 -0.2384  0.1124 -0.4392
   49MPD2    C4  750   1.077   3.124   9.440  0.2730  0.1854 -0.0831
   49MPD2    C5  751   1.041   3.023   9.359  0.1015  0.5530 -0.2744
   49MPD2     H  752   1.107   2.943   9.716  1.8802  0.9326 -0.2944
   49MPD2    H1  753   1.089   3.225   9.403 -0.9697  0.3463 -0.0551
   49MPD2    H2  754   0.999   2.829   9.313 -2.2434  0.2426 -0.0974
   49MPD2    H3  755   1.028   3.033   9.251  1.1732 -1.3718 -0.5687
   49MPD2     N  756   1.127   3.196   9.658 -0.4394 -0.3295 -0.0919
   49MPD2    H5  757   1.122   3.287   9.614 -0.8516 -0.7052 -0.8162
   49MPD2    N1  758   1.043   2.731   9.583  0.0084  0.6994  0.6152
   49MPD2    H7  759   1.062   2.733   9.683  2.4081 -1.0173  0.1839
   50TCq2    C1  760   0.995   2.620   9.522 -0.3015  0.1256  0.3538
   50TCq2    O2  761   0.967   2.601   9.405  0.5188  0.1543  0.7210
   50TCq2    C2  762   1.005   2.500   9.599 -0.6501  0.1844  0.0673
   50TCq2    C3  763   1.033   2.386   9.528 -0.5323  0.2327  0.7152
   50TCq2    C4  764   1.067   2.277   9.589  0.1655  0.0972 -0.1462
   50TCq2    C5  765   1.079   2.271   9.721 -0.1678 -0.2984 -0.2119
   50TCq2    C6  766   1.056   2.387   9.790  0.1917  1.4829  0.3983
   50TCq2    C7  767   1.017   2.503   9.730  0.0787 -0.3882  0.2428
   50TCq2    C8  768   1.026   2.382   9.932 -0.2447  0.0587 -0.4307
   50TCq2    O4  769   1.041   2.484  10.003  0.2271  0.3706  0.1248
   50TCq2    C9  770   1.077   2.160   9.514  0.0705  0.3088 -0.2312
   50TCq2    O5  771   1.056   2.161   9.389  0.4990  0.4384  0.6117
   50TCq2    O6  772   1.088   2.054   9.582 -0.6597 -0.4268  0.2154
   50TCq2    H2  773   1.056   2.389   9.422  0.7524 -0.1010  0.9891
   50TCq2    H3  774   1.102   2.176   9.766  0.6623  0.2686  0.5470
   50TCq2    H4  775   0.990   2.590   9.790 -1.1878 -0.3666 -0.3483
   51MPD2     C  776   1.328   3.136   0.497 -0.2361  0.3381  0.2167
   51MPD2    C1  777   1.303   3.051   0.601 -0.0973  0.1422  0.4594
   51MPD2    C2  778   1.258   3.097   0.723  0.3738 -0.1883  0.5474
   51MPD2    C3  779   1.244   3.229   0.744  0.0755  0.3955 -0.1445
   51MPD2    C4  780   1.276   3.311   0.643 -0.3357  0.0886  0.2690
   51MPD2    C5  781   1.308   3.266   0.516  0.2393 -0.4882 -0.0743
   51MPD2     H  782   1.237   3.034   0.808  0.4160 -1.1434 -0.1451
   51MPD2    H1  783   1.269   3.419   0.642  0.5369  0.1435  0.2800
   51MPD2    H2  784   1.362   3.108   0.398 -1.6337 -0.6308  0.0118
   51MPD2    H3  785   1.317   3.338   0.436  0.6082  0.3852  0.7466
   51MPD2     N  786   1.211   3.291   0.872 -0.4348 -0.5497 -0.2820
   51MPD2    H5  787   1.211   3.392   0.868  0.5461 -0.6696 -3.4097
   51MPD2    N1  788   1.322   2.913   0.561 -0.0765 -0.3652  0.5201
   51MPD2    H7  789   1.355   2.904   0.465 -0.8716  1.9479  0.0272
   52TCq2    C1  790   1.186   3.223   0.985 -0.2501 -0.0280 -0.6958
   52TCq2    O2  791   1.165   3.102   1.005  0.0267  0.5375  0.1253
   52TCq2    C2  792   1.161   3.312   1.106 -0.6894  0.0533  0.2976
   52TCq2    C3  793   1.051   3.277   1.175 -0.3115 -0.0292  0.2825
   52TCq2    C4  794   1.008   3.359   1.273  0.0637  0.0257  0.7016
   52TCq2    C5  795   1.082   3.465   1.312  0.4068 -0.9403  0.2134
   52TCq2    C6  796   1.186   3.499   1.233  0.1349  1.1074 -0.3511
   52TCq2    C7  797   1.232   3.423   1.130 -0.2926  0.0433 -0.4009
   52TCq2    C8  798   1.275   3.606   1.274 -0.3362 -0.3591  0.5095
   52TCq2    O4  799   1.266   3.657   1.383 -0.2593  0.1996  0.3921
   52TCq2    C9  800   0.895   3.310   1.345 -0.4814 -0.3479  0.2575
   52TCq2    O5  801   0.856   3.194   1.318 -0.0307  0.8120 -0.0402
   52TCq2    O6  802   0.844   3.390   1.429  0.9560  0.3543 -0.3806
   52TCq2    H2  803   0.989   3.192   1.149 -1.9010  1.2642 -0.1520
   52TCq2    H3  804   1.058   3.528   1.397  0.8234 -0.3861 -0.0817
   52TCq2    H4  805   1.323   3.445   1.074  1.2715  0.0558  2.1473
   53TMC2    C1  806   2.345   0.787  11.901 -0.8027  0.3644  0.1978
   53TMC2    C2  807   2.460   0.738  11.959 -0.4204 -0.2388  0.2159
   53TMC2    C3  808   2.448   0.719  12.095  0.1243 -0.3963 -0.1594
   53TMC2    C4  809   2.233   0.824  11.976 -0.1896 -0.2214  1.0193
   53TMC2    C5  810   2.233   0.808  12.112 -0.0541 -0.2552 -0.1285
   53TMC2    C6  811   2.341   0.754  12.177 -0.5985 -0.6126  0.2328
   53TMC2     C  812   2.347   0.820  11.754 -0.1907 -0.0713 -0.3398
   53TMC2     O  813   2.434   0.766  11.687 -0.3842  0.0451  0.1803
   53TMC2     H  814   2.546   0.725  11.895  0.6747 -0.3889  1.7314
   53TMC2    H1  815   2.164   0.900  11.940 -1.6458 -2.2929 -0.5629
   53TMC2    H2  816   2.361   0.749  12.283 -1.2721 -1.2087  0.3312
   53TMC2    C7  817   2.101   0.822  12.178  0.5983 -0.7090 -0.5464
   53TMC2    C8  818   2.565   0.681  12.172  0.1163  0.5654 -0.5949
   53TMC2    O1  819   2.010   0.849  12.102  0.5281  0.2425  0.0692
   53TMC2    O2  820   2.588   0.712  12.288 -0.1281 -0.5611 -0.1268
   53TMC2    O5  821   2.641   0.612  12.088 -0.0398 -0.3884 -0.6221
   53TMC2    H5  822   2.591   0.560  12.022 -0.1976 -0.6178 -0.3263
   54MPD2     C  823   2.287   0.944  11.479  0.5625 -0.6028  0.3325
   54MPD2    C1  824   2.201   0.936  11.585 -0.2602 -0.0052 -0.3532
   54MPD2    C2  825   2.068   0.964  11.568  0.1027 -0.3965 -0.1764
   54MPD2    C3  826   2.012   0.990  11.447  0.1470  0.2209  0.5509
   54MPD2    C4  827   2.100   1.010  11.344  0.2611 -0.0253  0.0231
   54MPD2    C5  828   2.237   0.988  11.359 -0.4247  0.2043 -0.6274
   54MPD2     H  829   2.004   0.946  11.654 -0.1699 -1.5475 -0.6317
   54MPD2    H1  830   2.059   1.041  11.248  0.2891  1.6789  0.5517
   54MPD2    H2  831   2.393   0.927  11.493  0.4818 -1.6513 -0.3504
   54MPD2    H3  832   2.303   1.009  11.276 -0.0603 -0.0710 -0.4047
   54MPD2     N  833   1.874   1.013  11.424  0.4807  0.3842  0.4015
   54MPD2    H5  834   1.846   1.021  11.327  0.7447  3.0360  0.5463
   54MPD2    N1  835   2.232   0.884  11.715 -0.3230  0.1083 -0.6863
   54MPD2    H7  836   2.155   0.890  11.781  0.0994  1.0124 -0.2773
   55MPD2     C  837   3.111   3.433  17.620  0.0108 -0.1070  0.7745
   55MPD2    C1  838   3.041   3.359   0.024  0.0469 -0.2727 -0.3402
   55MPD2    C2  839   2.951   3.427   0.105  0.0537  0.3727  0.7526
   55MPD2    C3  840   2.952   3.563   0.109 -0.2452 -0.2531 -0.2035
   55MPD2    C4  841   3.024   3.641   0.013 -0.6691 -0.2231 -0.5523
   55MPD2    C5  842   3.097   3.569  17.611 -0.4774 -0.5277 -0.0408
   55MPD2     H  843   2.890   3.361   0.165 -0.7189  1.1825  0.8488
   55MPD2    H1  844   3.019   3.749   0.007 -1.1371 -0.4130 -3.5630
   55MPD2    H2  845   3.174   3.379  17.550  1.1572 -0.8136  2.3336
   55MPD2    H3  846   3.154   3.625  17.538  0.1431 -4.4202 -2.5626
   55MPD2     N  847   2.861   3.632   0.193  0.0934 -0.2081 -0.1319
   55MPD2    H5  848   2.802   3.562   0.238 -0.3848  0.8374  0.8708
   55MPD2    N1  849   3.058   3.222   0.017  0.8533 -0.0166  0.0113
   55MPD2    H7  850   3.129   3.192  17.646  0.1624  1.4022 -1.3589
   56TCq2    C1  851   3.014   3.127   0.113  0.0060  0.2444  0.1018
   56TCq2    O2  852   2.959   3.141   0.218  0.6173  0.4773  0.2888
   56TCq2    C2  853   3.060   2.985   0.092 -0.3052 -0.2733  1.1351
   56TCq2    C3  854   3.091   2.948  17.656  0.2410 -0.4088  0.4850
   56TCq2    C4  855   3.134   2.821  17.636 -0.5482  0.2619  0.0284
   56TCq2    C5  856   3.143   2.729   0.041  0.3387  0.4047 -0.0802
   56TCq2    C6  857   3.125   2.765   0.169 -0.0134 -0.7207  0.4025
   56TCq2    C7  858   3.074   2.889   0.196 -0.1195 -0.3543 -0.6394
   56TCq2    C8  859   3.083   2.656   0.260 -0.4445  0.8147 -0.1133
   56TCq2    O4  860   3.094   2.542   0.228 -0.1416  0.2808 -0.3228
   56TCq2    C9  861   3.173   2.769  17.505 -0.2778  0.1585 -0.1616
   56TCq2    O5  862   3.245   2.672  17.499 -0.5150  0.4580 -0.1140
   56TCq2    O6  863   3.124   2.826  17.406 -0.5778  0.4426 -0.2771
   56TCq2    H2  864   3.086   3.009  17.567  0.2653 -2.0390 -0.6338
   56TCq2    H3  865   3.183   2.630   0.025  2.2692  0.7153  2.9076
   56TCq2    H4  866   3.052   2.925   0.296  0.1475  2.3981 -1.5635
   57TMC2    C1  867   1.881   4.462  12.870  0.4465  0.5564  0.2273
   57TMC2    C2  868   1.781   4.493  12.782  0.2363  0.2055  0.0615
   57TMC2    C3  869   1.822   4.523  12.655 -0.2901  0.6446  0.1672
   57TMC2    C4  870   2.018   4.452  12.843  0.1740 -0.5820  0.3864
   57TMC2    C5  871   2.056   4.491  12.717 -0.1126 -0.4106  0.1451
   57TMC2    C6  872   1.958   4.538  12.632  0.3119 -0.0893 -0.9681
   57TMC2     C  873   1.849   4.411  13.002  0.2816  0.3765  0.4179
   57TMC2     O  874   1.935   4.431  13.088 -0.4412 -0.4744  0.0664
   57TMC2     H  875   1.678   4.489  12.812 -0.0529  0.7633 -0.8365
   57TMC2    H1  876   2.082   4.407  12.918 -2.2245 -0.0271  2.7150
   57TMC2    H2  877   1.994   4.577  12.538  1.8794  3.5886  1.2020
   57TMC2    C7  878   2.192   4.532  12.693  0.2184 -0.5115  0.0630
   57TMC2    C8  879   1.739   4.556  12.544 -0.4827  0.9398  0.2881
   57TMC2    O1  880   2.214   4.620  12.611 -0.0549  0.1590 -0.9521
   57TMC2    O2  881   1.782   4.567  12.432  0.1369  0.7068 -0.9078
   57TMC2    O5  882   1.625   4.608  12.585  0.2065  0.5207 -0.2809
   57TMC2    H5  883   1.620   4.634  12.679  0.8073  0.2771 -0.1817
   58MPD2     C  884   1.510   4.231  13.345  0.2007  0.7788  0.3061
   58MPD2    C1  885   1.627   4.294  13.360  0.0656  0.5318 -0.1072
   58MPD2    C2  886   1.706   4.333  13.253 -0.2696 -0.0534 -0.5291
   58MPD2    C3  887   1.666   4.302  13.124 -0.4406 -0.3363 -0.0809
   58MPD2    C4  888   1.552   4.223  13.108  0.1335 -1.0638  0.0140
   58MPD2    C5  889   1.479   4.196  13.222  0.5131  0.0769  0.0916
   58MPD2     H  890   1.798   4.387  13.273 -0.9254  0.9729 -0.2778
   58MPD2    H1  891   1.512   4.191  13.012 -0.4451 -1.5277  0.4121
   58MPD2    H2  892   1.449   4.210  13.432  1.8209 -3.2592  0.4697
   58MPD2    H3  893   1.380   4.154  13.209 -0.6881  2.4448  1.6221
   58MPD2     N  894   1.731   4.346  13.004 -0.0684  0.1095 -0.2206
   58MPD2    H5  895   1.685   4.329  12.915 -0.0134 -2.7535  0.3176
   58MPD2    N1  896   1.665   4.340  13.485 -0.0515  0.0368 -0.8734
   58MPD2    H7  897   1.724   4.423  13.487  0.7076 -0.4994 -0.9514
   59MPD2     C  898   4.414   4.383  12.999  0.0241 -0.1976 -0.4607
   59MPD2    C1  899   4.528   4.382  12.919  0.2068 -0.2193  0.2504
   59MPD2    C2  900   4.650   4.391  12.981  0.3520 -0.8790 -0.1505
   59MPD2    C3  901   4.655   4.416  13.115 -0.8384  0.4894  0.4180
   59MPD2    C4  902   4.541   4.433  13.193 -0.2510 -0.0904  0.2090
   59MPD2    C5  903   4.420   4.408  13.132  0.7581 -0.4927  0.3556
   59MPD2     H  904   0.015   4.379  12.921 -0.3678  0.8853 -1.5773
   59MPD2    H1  905   4.550   4.448  13.300  1.4504 -0.1454  0.0833
   59MPD2    H2  906   4.314   4.370  12.958 -0.9715 -0.7887  2.1504
   59MPD2    H3  907   4.327   4.414  13.188  0.3249  0.8668 -0.5153
   59MPD2     N  908   0.051   4.452  13.183  0.0125 -0.1350 -0.1951
   59MPD2    H5  909   0.029   4.486  13.277 -1.1631  0.7430 -0.7810
   59MPD2    N1  910   4.527   4.354  12.780  0.3819 -0.0328  0.3114
   59MPD2    H7  911   4.618   4.362  12.737  0.9112  1.8946  1.7692
   60TCq2    C1  912   4.411   4.309  12.707 -0.0217  0.6112 -0.4087
   60TCq2    O2  913   4.294   4.289  12.746  0.0109  0.9212 -0.0585
   60TCq2    C2  914   4.442   4.264  12.577  0.9355 -0.1193  0.4790
   60TCq2    C3  915   4.355   4.174  12.522 -0.1698  0.0790 -0.2153
   60TCq2    C4  916   4.379   4.114  12.408 -0.3143 -0.0686 -0.2857
   60TCq2    C5  917   4.470   4.170  12.324 -0.3047  0.2562 -1.0887
   60TCq2    C6  918   4.538   4.275  12.372 -0.0173 -0.3014  0.6553
   60TCq2    C7  919   4.549   4.310  12.510 -0.2088 -0.0998 -0.1307
   60TCq2    C8  920   4.614   4.335  12.268 -0.3754  0.5683  0.3732
   60TCq2    O4  921   4.679   4.254  12.200 -0.1813 -0.0775 -0.0006
   60TCq2    C9  922   4.297   4.009  12.358 -0.0369  0.0726 -0.7873
   60TCq2    O5  923   4.321   3.979  12.239  0.1290  0.0727 -0.0968
   60TCq2    O6  924   4.216   3.948  12.435 -0.6448 -0.0645  0.3739
   60TCq2    H2  925   4.273   4.134  12.581  1.8881 -1.2850  1.7623
   60TCq2    H3  926   4.482   4.142  12.220  1.1579 -0.3426 -0.7521
   60TCq2    H4  927   4.613   4.390  12.543 -1.3608  0.2109  1.3467
   61MPD2     C  928   3.836   1.426  15.185  0.3217  0.1296 -0.0439
   61MPD2    C1  929   3.932   1.523  15.231 -0.1004 -0.0940  1.0339
   61MPD2    C2  930   4.003   1.596  15.140 -0.3538 -0.3183 -0.0709
   61MPD2    C3  931   3.986   1.575  15.003 -0.8713 -0.2293 -0.2644
   61MPD2    C4  932   3.891   1.480  14.957  0.4414  0.1978 -0.4444
   61MPD2    C5  933   3.820   1.412  15.049 -0.0543  0.4187 -0.2776
   61MPD2     H  934   4.087   1.654  15.173  1.0345 -0.7354 -2.8320
   61MPD2    H1  935   3.885   1.448  14.853 -2.0811  1.0355 -0.5720
   61MPD2    H2  936   3.787   1.363  15.258 -0.3634  1.7589  0.8918
   61MPD2    H3  937   3.757   1.328  15.020  0.9402 -0.5206  0.2639
   61MPD2     N  938   4.065   1.641  14.906 -0.1065 -0.0144 -0.3447
   61MPD2    H5  939   4.029   1.640  14.811 -4.7734 -0.7239  1.4325
   61MPD2    N1  940   3.952   1.545  15.372  0.1965  0.4467  0.3456
   61MPD2    H7  941   4.017   1.619  15.396  0.5917 -0.2254  1.3371
   62TCq2    C1  942   3.902   1.470  15.472 -0.1914  0.1223 -1.1377
   62TCq2    O2  943   3.812   1.387  15.481 -0.3226  0.1662  0.0189
   62TCq2    C2  944   3.936   1.539  15.594 -0.3439  0.7558  0.1234
   62TCq2    C3  945   3.830   1.577  15.670  0.1327 -0.8791 -0.0282
   62TCq2    C4  946   3.832   1.699  15.734  0.2830 -0.4653  0.1294
   62TCq2    C5  947   3.932   1.786  15.719  0.3522 -0.1630  0.3391
   62TCq2    C6  948   4.041   1.753  15.635  0.7532  0.6503  0.0845
   62TCq2    C7  949   4.042   1.628  15.579  0.2820 -0.3108  0.0010
   62TCq2    C8  950   4.118   1.861  15.582 -0.4110 -0.0964 -0.6601
   62TCq2    O4  951   4.160   1.826  15.474  0.0330  0.3722  0.0990
   62TCq2    C9  952   3.708   1.737  15.793  0.4956  0.2698 -1.2171
   62TCq2    O5  953   3.625   1.648  15.791 -0.2633 -0.0765 -0.3238
   62TCq2    O6  954   3.694   1.862  15.819  0.2965 -0.1596 -0.2996
   62TCq2    H2  955   3.742   1.514  15.670 -1.2859  1.1284 -1.9681
   62TCq2    H3  956   3.921   1.887  15.757 -1.9555  0.1722 -1.2476
   62TCq2    H4  957   4.130   1.588  15.530  1.9439  0.3901  2.3841
   63TMC2    C1  958   3.657   1.232  10.598  0.6308  0.1132 -0.4982
   63TMC2    C2  959   3.767   1.233  10.675 -0.5751 -0.1082 -1.3159
   63TMC2    C3  960   3.882   1.279  10.621 -0.4007  0.1660  0.2508
   63TMC2    C4  961   3.656   1.282  10.467 -0.1212  0.1389 -0.2101
   63TMC2    C5  962   3.777   1.324  10.417 -0.1508 -0.7617 -0.2415
   63TMC2    C6  963   3.890   1.313  10.489 -0.0177 -0.0221 -0.1751
   63TMC2     C  964   3.533   1.190  10.654  0.1709 -0.3823  0.4404
   63TMC2     O  965   3.527   1.179  10.778 -0.4474 -0.2553  0.3547
   63TMC2     H  966   3.777   1.187  10.773 -0.2596  2.1464 -0.2799
   63TMC2    H1  967   3.572   1.277  10.399 -0.1972 -2.7331  0.0940
   63TMC2    H2  968   3.981   1.337  10.435  0.1246 -0.4948 -0.1439
   63TMC2    C7  969   3.784   1.393  10.297  0.2573  0.4411  0.5332
   63TMC2    C8  970   3.984   1.318  10.714 -0.0450 -0.3185 -0.0840
   63TMC2    O1  971   3.701   1.361  10.214 -0.1313  0.3427 -0.2650
   63TMC2    O2  972   3.945   1.371  10.819  0.2474 -0.4994 -0.1817
   63TMC2    O5  973   4.110   1.330  10.660  0.2419 -0.3290 -0.5549
   63TMC2    H5  974   4.122   1.279  10.577 -0.8396  0.6807 -1.3369
   64MPD2     C  975   3.099   0.922  10.630  0.2380 -0.0732  0.3488
   64MPD2    C1  976   3.172   0.906  10.515  0.6611 -0.3743  0.4008
   64MPD2    C2  977   3.279   0.990  10.490 -0.1079  1.0488 -0.9901
   64MPD2    C3  978   3.331   1.072  10.589  0.8552  0.0675 -0.4332
   64MPD2    C4  979   3.262   1.073  10.709 -0.1875 -0.3799 -0.1371
   64MPD2    C5  980   3.141   1.005  10.728  0.6557  0.5222  0.2606
   64MPD2     H  981   3.331   0.970  10.397 -1.4882  0.0146 -1.5379
   64MPD2    H1  982   3.294   1.145  10.784  1.4911  0.3691 -1.5579
   64MPD2    H2  983   3.017   0.860  10.664 -1.1431  0.3870 -2.1702
   64MPD2    H3  984   3.087   1.025  10.820  0.3678 -0.9504  0.4085
   64MPD2     N  985   3.449   1.140  10.556 -0.8571  0.3302 -0.1192
   64MPD2    H5  986   3.481   1.113  10.464  0.7926 -0.5387  0.6947
   64MPD2    N1  987   3.130   0.800  10.428  0.2939 -0.7536 -0.2091
   64MPD2    H7  988   3.184   0.788  10.343  2.0145  1.8166  0.4922
   65MPD2     C  989   4.483   0.656  16.021 -0.1642  0.0065  0.6472
   65MPD2    C1  990   4.488   0.665  15.884 -0.4607  0.6700  0.4079
   65MPD2    C2  991   4.560   0.568  15.818  0.1687 -0.3569 -0.2190
   65MPD2    C3  992   4.620   0.461  15.884  0.2525  0.1064  0.5206
   65MPD2    C4  993   4.630   0.463  16.020 -0.6384  0.5420 -0.5434
   65MPD2    C5  994   4.552   0.555  16.086 -0.1120 -0.0928 -0.3057
   65MPD2     H  995   4.563   0.569  15.710 -0.0824  1.1575 -0.2206
   65MPD2    H1  996   4.694   0.394  16.073 -2.9282  0.0668  1.6206
   65MPD2    H2  997   4.435   0.730  16.084  1.7496  2.0263 -0.2589
   65MPD2    H3  998   4.538   0.544  16.192  0.0731 -1.9540 -0.4789
   65MPD2     N  999   4.679   0.350  15.807 -0.1796 -0.3619  0.2079
   65MPD2    H5 1000   0.005   0.283  15.864 -0.0462  0.1834  0.7297
   65MPD2    N1 1001   4.440   0.766  15.806  0.2577 -0.3355  0.1388
   65MPD2    H7 1002   4.471   0.752  15.710 -2.6612  0.5478 -0.9140
   66TCq2    C1 1003   4.376   0.881  15.841  0.2036  0.1130  0.1711
   66TCq2    O2 1004   4.335   0.921  15.948  0.1066 -0.2955  0.0837
   66TCq2    C2 1005   4.305   0.931  15.717  0.0144 -0.2856  0.1427
   66TCq2    C3 1006   4.267   0.840  15.626  0.4758  0.3730  0.0320
   66TCq2    C4 1007   4.219   0.892  15.506  0.0887  0.4988  0.0564
   66TCq2    C5 1008   4.193   1.023  15.478  0.7791  0.4073  0.0943
   66TCq2    C6 1009   4.230   1.108  15.582 -0.2666 -0.4185 -0.0714
   66TCq2    C7 1010   4.290   1.060  15.700  0.1692  0.1251  0.6261
   66TCq2    C8 1011   4.249   1.240  15.530 -0.4378  0.1749  0.1634
   66TCq2    O4 1012   4.249   1.262  15.412  0.0760 -0.3051  0.6501
   66TCq2    C9 1013   4.183   0.797  15.403 -0.2976 -0.3887  0.2388
   66TCq2    O5 1014   4.186   0.678  15.444 -0.3175 -0.1126  0.9199
   66TCq2    O6 1015   4.186   0.845  15.288 -0.1333  0.5718  0.0037
   66TCq2    H2 1016   4.284   0.733  15.634 -0.3665  0.1001 -1.7419
   66TCq2    H3 1017   4.143   1.049  15.385 -0.6772 -0.7108  0.5879
   66TCq2    H4 1018   4.332   1.128  15.773  1.5275 -0.6591  0.5563
   67MPD2     C 1019   0.110   0.076  13.958  0.4341  0.5614 -0.1111
   67MPD2    C1 1020   0.046   0.175  14.025  0.0920  0.4916  0.1038
   67MPD2    C2 1021   4.652   0.227  13.974  0.0696  0.2414 -0.2448
   67MPD2    C3 1022   4.597   0.185  13.850  0.4319 -0.0262 -0.0692
   67MPD2    C4 1023   4.657   0.080  13.785 -1.0499  0.1413  0.1800
   67MPD2    C5 1024   0.049   0.025  13.844  0.3849 -0.0846 -0.5394
   67MPD2     H 1025   4.603   0.313  14.017  1.6161  1.3201 -0.6060
   67MPD2    H1 1026   4.626   0.045  13.688 -0.5538  0.2601 -0.0204
   67MPD2    H2 1027   0.206   0.031  13.984 -0.6911 -1.1712  1.0697
   67MPD2    H3 1028   0.090   4.660  13.797 -0.0319 -1.0112  0.8338
   67MPD2     N 1029   4.482   0.246  13.800 -0.1241 -0.0057 -0.0446
   67MPD2    H5 1030   4.429   0.307  13.862 -1.0383  0.4277 -1.2454
   67MPD2    N1 1031   0.084   0.230  14.145 -0.6983  0.9316 -1.0065
   67MPD2    H7 1032   0.050   0.321  14.175  0.0860  2.4993 -4.8633
   68TCq2    C1 1033   0.177   0.177  14.229  0.3579 -0.4821  0.2045
   68TCq2    O2 1034   0.250   0.081  14.223  0.3777 -0.1526 -0.2821
   68TCq2    C2 1035   0.204   0.259  14.347  0.4705  0.1413 -0.7138
   68TCq2    C3 1036   0.142   0.382  14.361  0.6989 -0.3755  0.0780
   68TCq2    C4 1037   0.149   0.441  14.483  0.1520 -0.0596  0.1834
   68TCq2    C5 1038   0.216   0.389  14.590 -0.0460  0.3654 -0.5124
   68TCq2    C6 1039   0.273   0.268  14.578  0.5549  0.1060  0.5433
   68TCq2    C7 1040   0.272   0.206  14.453  0.1617  0.5726 -0.3624
   68TCq2    C8 1041   0.352   0.198  14.676  0.1335  0.6154 -0.2770
   68TCq2    O4 1042   0.421   0.101  14.648 -0.0255 -0.0756 -0.7946
   68TCq2    C9 1043   0.097   0.577  14.505 -0.2265 -0.0616  0.1947
   68TCq2    O5 1044   0.057   0.603  14.624  0.5822 -0.8314 -0.1065
   68TCq2    O6 1045   0.099   0.665  14.411 -0.1516  0.2021 -0.4220
   68TCq2    H2 1046   0.082   0.441  14.293  0.2515 -1.7037 -0.6750
   68TCq2    H3 1047   0.214   0.439  14.687  1.8197 -2.2670  0.9090
   68TCq2    H4 1048   0.317   0.110  14.432  0.0156  0.2456  0.8330
   69TMC2    C1 1049   1.452   1.443  12.394 -0.5892 -0.3523  0.3973
   69TMC2    C2 1050   1.317   1.439  12.381  0.4659 -0.6652  0.2821
   69TMC2    C3 1051   1.258   1.502  12.276 -0.5797 -0.6649 -0.1057
   69TMC2    C4 1052   1.523   1.502  12.292 -0.3122 -0.2819 -0.0451
   69TMC2    C5 1053   1.457   1.571  12.191  0.0529  0.4604  0.0544
   69TMC2    C6 1054   1.318   1.576  12.181 -0.2628  0.3740  0.2191
   69TMC2     C 1055   1.517   1.385  12.508 -0.0934  0.4984  0.1488
   69TMC2     O 1056   1.446   1.323  12.591  0.6738  0.6571 -0.1581
   69TMC2     H 1057   1.260   1.380  12.452 -0.0659  0.1937  0.5697
   69TMC2    H1 1058   1.631   1.504  12.303 -0.6562  1.3745  2.8972
   69TMC2    H2 1059   1.268   1.620  12.096 -1.5028  4.1363  2.8433
   69TMC2    C7 1060   1.545   1.602  12.077 -0.4487  0.5727  0.5439
   69TMC2    C8 1061   1.113   1.478  12.260  0.9106  0.0800  0.4644
   69TMC2    O1 1062   1.665   1.593  12.103  0.1650  0.0868 -0.5651
   69TMC2    O2 1063   1.059   1.373  12.286 -0.1473 -0.2336  0.8628
   69TMC2    O5 1064   1.061   1.605  12.254 -0.5096  0.0149 -0.6275
   69TMC2    H5 1065   1.129   1.676  12.260 -1.1166  0.7482 -2.2633
   70MPD2     C 1066   1.858   1.465  12.635 -0.3247  0.0508  0.5791
   70MPD2    C1 1067   1.742   1.390  12.632  0.3566 -0.1371 -0.1690
   70MPD2    C2 1068   1.706   1.313  12.742  0.1992  0.3374 -0.0686
   70MPD2    C3 1069   1.808   1.295  12.846  0.5544  0.2843  0.2466
   70MPD2    C4 1070   1.927   1.368  12.841 -0.6061  0.0141 -0.6391
   70MPD2    C5 1071   1.947   1.446  12.733  0.5783 -0.3827 -0.3434
   70MPD2     H 1072   1.612   1.259  12.746  1.0537 -1.2332 -1.2074
   70MPD2    H1 1073   2.013   1.343  12.902  1.2881  1.4939 -2.7176
   70MPD2    H2 1074   1.878   1.542  12.561 -0.9860  0.4966  0.8668
   70MPD2    H3 1075   2.043   1.495  12.717 -0.1037  1.0465 -0.0561
   70MPD2     N 1076   1.805   1.195  12.938  0.8883 -0.6349  0.3123
   70MPD2    H5 1077   1.889   1.187  12.995  0.1936 -4.3866  0.7863
   70MPD2    N1 1078   1.650   1.419  12.524  0.2011  0.4624 -0.0777
   70MPD2    H7 1079   1.679   1.491  12.458 -2.5803  0.1039 -1.6983
   71TMC2    C1 1080   0.327   2.392   2.138  0.2230  0.2792  0.1897
   71TMC2    C2 1081   0.449   2.376   2.205  0.2472 -0.2326  0.7333
   71TMC2    C3 1082   0.455   2.306   2.323  0.1855  0.0557 -0.1788
   71TMC2    C4 1083   0.215   2.345   2.200 -0.4330 -0.4604 -0.4308
   71TMC2    C5 1084   0.226   2.290   2.329 -0.1916  0.6463 -0.4080
   71TMC2    C6 1085   0.345   2.260   2.392 -0.2536 -0.0954 -0.0288
   71TMC2     C 1086   0.318   2.457   2.010 -0.0307 -0.1235  0.2850
   71TMC2     O 1087   0.214   2.443   1.946 -0.2209 -0.1743  0.2380
   71TMC2     H 1088   0.543   2.418   2.169  0.7562  0.0121  2.3550
   71TMC2    H1 1089   0.121   2.349   2.147 -0.0380 -0.5761 -1.1299
   71TMC2    H2 1090   0.346   2.218   2.492  3.5463 -0.8793 -0.3993
   71TMC2    C7 1091   0.117   2.303   2.424 -0.0253  0.0805 -0.1876
   71TMC2    C8 1092   0.579   2.289   2.391  0.4485  0.6253 -0.4306
   71TMC2    O1 1093   0.146   2.348   2.533  0.0984  0.3545 -0.0837
   71TMC2    O2 1094   0.581   2.302   2.514  0.3515  0.2891  0.2830
   71TMC2    O5 1095   0.687   2.330   2.314  0.2965  0.0132 -0.1739
   71TMC2    H5 1096   0.672   2.305   2.220  3.6913 -0.9121 -0.4707
   72MPD2     C 1097   0.491   2.713   1.613  0.1424  0.2029  0.8058
   72MPD2    C1 1098   0.378   2.638   1.622  0.4509 -0.5435  0.3708
   72MPD2    C2 1099   0.362   2.570   1.743 -0.2977  0.1283 -0.5402
   72MPD2    C3 1100   0.443   2.601   1.852  0.2077 -0.2227 -0.0654
   72MPD2    C4 1101   0.551   2.687   1.839  0.0440  0.3850 -0.1664
   72MPD2    C5 1102   0.575   2.734   1.720  0.3674  0.9880 -0.0441
   72MPD2     H 1103   0.271   2.511   1.740  0.3861 -1.0223  1.4685
   72MPD2    H1 1104   0.622   2.692   1.921  0.6756 -0.4184 -0.6667
   72MPD2    H2 1105   0.511   2.760   1.518 -0.8276 -1.5011 -0.2442
   72MPD2    H3 1106   0.667   2.785   1.693  1.1532  0.3779  1.4593
   72MPD2     N 1107   0.424   2.545   1.982  0.3865  0.4133  0.7703
   72MPD2    H5 1108   0.497   2.558   2.051 -1.1965 -1.6634  2.8120
   72MPD2    N1 1109   0.294   2.618   1.517 -1.1971  0.3469  0.2000
   72MPD2    H7 1110   0.215   2.557   1.534 -2.1845  1.4736 -0.4342
   73TMC2    C1 1111   4.653   3.243  13.426  0.2960  0.9824 -0.3892
   73TMC2    C2 1112   0.001   3.174  13.334 -0.3925  0.1828  0.7103
   73TMC2    C3 1113   0.133   3.165  13.358 -0.1913 -0.5427  0.4506
   73TMC2    C4 1114   4.714   3.308  13.531  0.2901 -0.3655  0.6522
   73TMC2    C5 1115   0.130   3.302  13.549 -0.2955 -0.6827 -0.0038
   73TMC2    C6 1116   0.204   3.227  13.462 -0.2265 -0.5387 -0.1701
   73TMC2     C 1117   4.553   3.330  13.365 -0.1972  0.5792 -0.0219
   73TMC2     O 1118   4.541   3.435  13.422  0.7678 -0.0432  0.5328
   73TMC2     H 1119   4.675   3.123  13.251  1.0662 -0.8721  0.5009
   73TMC2    H1 1120   4.662   3.369  13.604  0.2783  2.5299 -1.7806
   73TMC2    H2 1121   0.311   3.227  13.477 -0.0584 -3.5969 -1.4789
   73TMC2    C7 1122   0.188   3.435  13.570  0.4510  0.0899 -0.1031
   73TMC2    C8 1123   0.213   3.083  13.265 -0.3148  0.9800  0.6383
   73TMC2    O1 1124   0.301   3.452  13.614 -0.3788  0.2790  0.8457
   73TMC2    O2 1125   0.163   2.990  13.199 -0.4099  0.2528  0.4318
   73TMC2    O5 1126   0.340   3.107  13.285  0.2351  0.1752 -0.2989
   73TMC2    H5 1127   0.370   3.200  13.294 -1.0500  0.6404 -0.7690
   74MPD2     C 1128   4.213   3.509  13.044  0.1237  0.1921  0.3226
   74MPD2    C1 1129   4.284   3.578  13.143  0.3165 -0.1443  0.9003
   74MPD2    C2 1130   4.377   3.506  13.212 -0.0916  0.8811 -0.4913
   74MPD2    C3 1131   4.399   3.369  13.186  0.3398 -0.0065  0.9951
   74MPD2    C4 1132   4.343   3.310  13.077 -0.9488 -0.1254 -0.3716
   74MPD2    C5 1133   4.253   3.380  13.001  0.3564 -0.0506  0.0419
   74MPD2     H 1134   4.428   3.560  13.291  2.6834  0.3100 -1.8948
   74MPD2    H1 1135   4.352   3.204  13.053 -1.3515 -0.3283  0.3690
   74MPD2    H2 1136   4.139   3.554  12.979 -0.0307 -1.5791 -0.7292
   74MPD2    H3 1137   4.209   3.335  12.913  2.1502  1.3535 -1.5640
   74MPD2     N 1138   4.493   3.290  13.254 -0.0657  0.0757 -0.4520
   74MPD2    H5 1139   4.501   3.194  13.223  0.4311  0.5102 -1.6490
   74MPD2    N1 1140   4.261   3.719  13.149  0.0143 -0.5229 -0.1041
   74MPD2    H7 1141   4.191   3.760  13.088 -0.2258  1.1386  1.2810
   75TCq2    C1 1142   4.434   0.235  13.665  0.4408  0.0234 -0.1340
   75TCq2    O2 1143   4.477   0.167  13.570  0.3690  0.3771  0.3681
   75TCq2    C2 1144   4.303   0.288  13.641  0.5096  0.1640 -0.3204
   75TCq2    C3 1145   4.211   0.311  13.739  0.5830  0.1474  0.8068
   75TCq2    C4 1146   4.089   0.365  13.693 -0.6990 -0.3245  0.1374
   75TCq2    C5 1147   4.064   0.387  13.561 -0.1826  0.7573 -1.0367
   75TCq2    C6 1148   4.162   0.366  13.475 -0.2210 -0.2394 -0.5560
   75TCq2    C7 1149   4.285   0.325  13.511  0.4588 -0.1425  0.1842
   75TCq2    C8 1150   4.144   0.404  13.338  0.0502 -0.6071  0.1855
   75TCq2    O4 1151   4.242   0.449  13.278 -0.7596 -0.0317  0.2981
   75TCq2    C9 1152   3.979   0.390  13.785  0.1642  0.5440  1.0342
   75TCq2    O5 1153   4.006   0.374  13.904 -0.2275  1.3088  0.2212
   75TCq2    O6 1154   3.860   0.391  13.735  0.2789 -0.3631 -0.7050
   75TCq2    H2 1155   4.231   0.276  13.839  1.2834 -3.8437 -0.7549
   75TCq2    H3 1156   3.961   0.414  13.539  0.2755  1.6465 -2.0466
   75TCq2    H4 1157   4.364   0.316  13.437  0.9712  0.9480  0.5872
   76MPD2     C 1158   2.561   1.077  11.936  0.1824 -0.2046  0.0699
   76MPD2    C1 1159   2.561   1.138  11.811 -0.0259 -0.3990 -0.3469
   76MPD2    C2 1160   2.678   1.132  11.736 -0.6488  0.2529  0.4770
   76MPD2    C3 1161   2.784   1.045  11.771 -1.2929 -0.1254 -0.2428
   76MPD2    C4 1162   2.775   0.967  11.885  0.1988  0.1194  0.9196
   76MPD2    C5 1163   2.668   0.987  11.971 -0.0819 -0.0105 -0.0574
   76MPD2     H 1164   2.679   1.196  11.648 -1.6487 -1.7972 -1.0314
   76MPD2    H1 1165   2.849   0.895  11.918 -0.0336 -0.9649 -0.9737
   76MPD2    H2 1166   2.477   1.102  12.001 -1.6890 -2.1294 -1.5986
   76MPD2    H3 1167   2.662   0.944  12.070  3.6272  1.3221  0.7441
   76MPD2     N 1168   2.895   1.014  11.686  0.1113 -0.1539 -0.1560
   76MPD2    H5 1169   2.958   0.938  11.709  0.9813  0.6083 -0.0180
   76MPD2    N1 1170   2.455   1.226  11.768  0.2827  0.1232  0.5199
   76MPD2    H7 1171   2.478   1.284  11.688 -0.6807  2.4028  1.9070
   77TCq2    C1 1172   2.932   1.087  11.573  0.7969 -0.0312 -0.1145
   77TCq2    O2 1173   2.879   1.189  11.532  0.1200 -0.0060  0.2200
   77TCq2    C2 1174   3.076   1.065  11.538 -0.0572 -0.0032  0.1166
   77TCq2    C3 1175   3.131   0.938  11.555 -0.0364 -1.0213  0.4008
   77TCq2    C4 1176   3.263   0.929  11.538  0.0459  0.3685 -0.3342
   77TCq2    C5 1177   3.340   1.036  11.507 -0.1563  0.4242  0.0307
   77TCq2    C6 1178   3.279   1.157  11.498 -0.4776  1.0843  0.4096
   77TCq2    C7 1179   3.148   1.171  11.519  0.5296  0.1187 -0.1043
   77TCq2    C8 1180   3.349   1.278  11.525  0.1797  0.1856 -0.0784
   77TCq2    O4 1181   3.296   1.382  11.490 -0.4419  0.2312 -0.3769
   77TCq2    C9 1182   3.321   0.802  11.543 -0.3525 -0.0675  0.8465
   77TCq2    O5 1183   3.244   0.708  11.582  0.1163  0.0523  0.2827
   77TCq2    O6 1184   3.441   0.786  11.510  0.7353  0.6309 -0.3714
   77TCq2    H2 1185   3.068   0.855  11.583  1.2203 -2.2655 -0.4949
   77TCq2    H3 1186   3.445   1.016  11.491 -0.1576  1.0442 -0.7755
   77TCq2    H4 1187   3.107   1.271  11.523  0.1393  0.0104 -1.3873
   78MPD1     C 1188   3.674   1.833   1.893 -0.3999  0.2254  0.8868
   78MPD1    C1 1189   3.563   1.828   1.812  0.2047 -0.1414 -0.1903
   78MPD1    C2 1190   3.589   1.819   1.674  0.4705  0.4684  0.2500
   78MPD1    C3 1191   3.716   1.808   1.619 -0.2105  0.6791  0.0118
   78MPD1    C4 1192   3.824   1.803   1.706  1.2335  0.0919 -0.0288
   78MPD1    C5 1193   3.799   1.819   1.840 -0.1640 -0.7343 -0.2087
   78MPD1     H 1194   3.498   1.801   1.618  2.0227  0.7386 -2.3642
   78MPD1    H1 1195   3.925   1.795   1.669  1.2124 -1.7089  0.3187
   78MPD1    H2 1196   3.662   1.835   2.000 -0.5215 -0.7514  0.8964
   78MPD1    H3 1197   3.887   1.819   1.903  0.0135  0.6292 -0.4575
   78MPD1     N 1198   3.748   1.806   1.484  0.9086 -0.4679  0.6758
   78MPD1    H5 1199   3.845   1.791   1.458  0.0416 -0.9004 -2.3579
   78MPD1    N1 1200   3.432   1.822   1.855  0.1739 -0.3722 -0.7959
   78MPD1    H6 1201   3.423   1.893   1.928  0.9344 -0.0513 -1.0092
   78MPD1    H7 1202   3.372   1.859   1.781 -0.9328  1.0912  0.8416
   79TCq2    C1 1203   3.659   1.812   1.382 -0.5374  0.5626  0.9819
   79TCq2    O2 1204   3.536   1.811   1.388  0.6009  0.4373  0.3186
   79TCq2    C2 1205   3.720   1.754   1.265  0.3902  0.1187 -0.1270
   79TCq2    C3 1206   3.632   1.713   1.165  0.3108 -0.1253 -0.2761
   79TCq2    C4 1207   3.688   1.681   1.047  0.2132 -0.2422  0.0082
   79TCq2    C5 1208   3.824   1.686   1.015  0.1511  0.1653 -0.1588
   79TCq2    C6 1209   3.905   1.735   1.118 -0.3581 -0.0883  0.0839
   79TCq2    C7 1210   3.858   1.769   1.244  0.3858  1.0351 -0.7497
   79TCq2    C8 1211   4.045   1.702   1.110  0.1870  0.7347 -0.0992
   79TCq2    O4 1212   4.106   1.680   1.211 -0.6726  0.5712  0.1606
   79TCq2    C9 1213   3.603   1.644   0.935 -0.0386 -0.3749  0.3510
   79TCq2    O5 1214   3.485   1.617   0.963 -0.1024 -0.1534  0.1042
   79TCq2    O6 1215   3.653   1.618   0.828  0.0848 -0.1870  0.6026
   79TCq2    H2 1216   3.525   1.712   1.182  0.4613 -2.0104  0.5047
   79TCq2    H3 1217   3.860   1.653   0.919 -0.2840  1.7259 -0.8584
   79TCq2    H4 1218   3.923   1.821   1.312  0.2778 -0.0362  0.1610
   80MPD2     C 1219   1.989   0.467  12.471 -0.2437  0.5522  0.6449
   80MPD2    C1 1220   1.933   0.505  12.351 -1.0838 -0.7584 -0.3128
   80MPD2    C2 1221   1.807   0.561  12.347 -0.0881  0.6404  0.5618
   80MPD2    C3 1222   1.725   0.560  12.465  0.2193 -0.0127  0.3464
   80MPD2    C4 1223   1.784   0.521  12.582  0.5212  0.1371  0.3623
   80MPD2    C5 1224   1.913   0.480  12.582 -0.3867  0.2112  0.0651
   80MPD2     H 1225   1.776   0.606  12.254  0.6201 -1.3111 -0.6332
   80MPD2    H1 1226   1.735   0.516  12.678 -1.3312  0.8896 -0.5297
   80MPD2    H2 1227   2.090   0.428  12.471 -0.6173 -0.4206 -0.0930
   80MPD2    H3 1228   1.972   0.458  12.670 -0.7817  1.2046  0.5885
   80MPD2     N 1229   1.591   0.609  12.474  0.4551 -1.2960 -0.4298
   80MPD2    H5 1230   1.545   0.600  12.564  0.3868 -0.0126 -0.3245
   80MPD2    N1 1231   1.991   0.470  12.229 -0.2739 -0.6992 -0.1147
   80MPD2    H7 1232   1.928   0.498  12.153  1.1001 -1.9972 -1.7186
   81TCq2    C1 1233   2.124   0.454  12.202 -0.0666 -0.0120 -0.4454
   81TCq2    O2 1234   2.218   0.441  12.277  0.2726  0.1001 -0.4551
   81TCq2    C2 1235   2.146   0.422  12.065 -0.5466 -0.0742 -0.0614
   81TCq2    C3 1236   2.278   0.430  12.013  0.0294 -0.8963  0.9167
   81TCq2    C4 1237   2.295   0.407  11.878 -0.0684  0.9135  0.7433
   81TCq2    C5 1238   2.195   0.369  11.795  0.8877 -0.2222 -0.7313
   81TCq2    C6 1239   2.070   0.360  11.851 -0.5948 -0.3814 -0.2299
   81TCq2    C7 1240   2.044   0.389  11.981  0.1531  0.0530 -0.4737
   81TCq2    C8 1241   1.955   0.319  11.772 -0.5274  0.1467 -0.2926
   81TCq2    O4 1242   1.927   0.368  11.665 -0.0125  0.2352 -0.0163
   81TCq2    C9 1243   2.424   0.432  11.811  0.0785 -0.0049 -0.5495
   81TCq2    O5 1244   2.434   0.412  11.690 -0.3683 -0.3994 -0.2868
   81TCq2    O6 1245   2.518   0.460  11.888  0.3705 -0.3609  0.0659
   81TCq2    H2 1246   2.358   0.463  12.078 -0.5480  0.3395  1.0030
   81TCq2    H3 1247   2.202   0.360  11.688  0.9344 -0.7970 -0.6778
   81TCq2    H4 1248   1.940   0.381  12.009  0.8281 -0.6462  1.8835
   82MPD2     C 1249   0.183   0.434  10.409 -0.4600 -0.3325 -0.1954
   82MPD2    C1 1250   0.104   0.331  10.445  0.6887  0.3862  0.0115
   82MPD2    C2 1251   0.144   0.234  10.543  0.2093  0.1721  0.3245
   82MPD2    C3 1252   0.257   0.252  10.614 -0.6714 -0.0436 -0.1760
   82MPD2    C4 1253   0.341   0.355  10.584 -0.0286  0.6770 -0.7703
   82MPD2    C5 1254   0.301   0.447  10.480 -0.5601 -0.8833  0.0733
   82MPD2     H 1255   0.086   0.143  10.553 -0.6370  0.4135 -2.4282
   82MPD2    H1 1256   0.439   0.370  10.630 -1.0156  1.1917  1.1706
   82MPD2    H2 1257   0.149   0.507  10.336 -0.0061 -1.6206 -1.7026
   82MPD2    H3 1258   0.369   0.531  10.464  0.3937 -1.1558  2.5626
   82MPD2     N 1259   0.306   0.165  10.708 -0.2529  0.3323 -0.1802
   82MPD2    H5 1260   0.399   0.176  10.748 -0.4308  1.8710 -0.2201
   82MPD2    N1 1261   4.704   0.302  10.383  0.9179 -0.1412 -0.4036
   82MPD2    H7 1262   4.638   0.235  10.421  0.5612  1.1060  1.1457
   83TCq2    C1 1263   0.239   0.055  10.754 -0.5657 -0.1160  0.0771
   83TCq2    O2 1264   0.126   0.011  10.733 -0.5280 -0.2487 -0.0929
   83TCq2    C2 1265   0.319   4.699  10.847 -0.4648 -0.1156  0.6294
   83TCq2    C3 1266   0.430   0.030  10.910  0.7426 -0.7894 -0.1012
   83TCq2    C4 1267   0.514   4.665  10.984 -0.3058  0.4071 -0.7195
   83TCq2    C5 1268   0.483   4.530  10.990  0.3414 -0.6081  0.3702
   83TCq2    C6 1269   0.369   4.488  10.927 -0.1169  0.3628 -0.5633
   83TCq2    C7 1270   0.283   4.568  10.864 -0.1165 -1.1558 -0.2279
   83TCq2    C8 1271   0.342   4.342  10.937  0.3932  0.1605  0.2280
   83TCq2    O4 1272   0.390   4.273  11.030  0.0169  0.3657  0.4132
   83TCq2    C9 1273   0.629   4.723  11.047  0.3347  0.0024  0.5182
   83TCq2    O5 1274   0.662   4.678  11.160  0.3291  0.1548  0.1408
   83TCq2    O6 1275   0.699   0.079  10.979  0.4481 -0.4877 -0.0933
   83TCq2    H2 1276   0.458   0.135  10.909 -1.4722 -0.2002  0.4333
   83TCq2    H3 1277   0.553   4.455  11.025  1.6934  0.4436 -0.0508
   83TCq2    H4 1278   0.191   4.534  10.817  0.0548  0.6220 -1.8431
   84TCq2    C1 1279   1.180   3.183   9.787  0.0622 -0.3355  0.6292
   84TCq2    O2 1280   1.185   3.086   9.860  0.4520 -0.2715  0.2578
   84TCq2    C2 1281   1.215   3.310   9.848  0.4204  0.1367  0.2403
   84TCq2    C3 1282   1.252   3.413   9.766 -0.1845  0.0998  0.7552
   84TCq2    C4 1283   1.259   3.532   9.818 -0.7213  0.4869 -0.7556
   84TCq2    C5 1284   1.264   3.553   9.959  0.0281 -0.2781 -0.6626
   84TCq2    C6 1285   1.230   3.451  10.040  0.3318 -0.2611 -0.0937
   84TCq2    C7 1286   1.199   3.327   9.985  0.5447  0.3590  0.4610
   84TCq2    C8 1287   1.222   3.486  10.184 -0.0558 -0.2142 -0.8118
   84TCq2    O4 1288   1.253   3.600  10.218 -0.3786  0.3545  0.3381
   84TCq2    C9 1289   1.296   3.642   9.740 -0.3146 -0.1171  0.1861
   84TCq2    O5 1290   1.385   3.723   9.790 -0.3566 -0.3379  0.3968
   84TCq2    O6 1291   1.268   3.633   9.617 -0.2614  0.3887  0.1938
   84TCq2    H2 1292   1.275   3.399   9.661  1.9377  2.3870  0.9177
   84TCq2    H3 1293   1.293   3.650   9.996 -1.3494 -0.4305  0.8434
   84TCq2    H4 1294   1.164   3.245  10.046 -0.6163 -0.0004 -0.6870
   85MPD2     C 1295   1.985   1.622  16.227  0.4230 -0.5993  0.2202
   85MPD2    C1 1296   1.902   1.625  16.117  0.2711 -0.0380 -0.2701
   85MPD2    C2 1297   1.924   1.717  16.017 -0.5589  0.4823 -0.3430
   85MPD2    C3 1298   2.031   1.804  16.023 -0.0098 -0.0185  0.3187
   85MPD2    C4 1299   2.117   1.790  16.131 -0.9859  0.1645  0.1817
   85MPD2    C5 1300   2.096   1.701  16.233  0.7591  0.2254 -0.4651
   85MPD2     H 1301   1.852   1.731  15.938  0.3495  1.9153 -0.9092
   85MPD2    H1 1302   2.208   1.849  16.137 -1.2637  0.7127 -1.0175
   85MPD2    H2 1303   1.966   1.552  16.308 -0.5309  0.9333  1.3212
   85MPD2    H3 1304   2.163   1.690  16.318  1.1846 -1.3035 -0.9976
   85MPD2     N 1305   2.063   1.883  15.911 -0.2041 -0.3680 -0.2571
   85MPD2    H5 1306   1.991   1.887  15.840 -0.8391 -2.4305  0.2887
   85MPD2    N1 1307   1.790   1.541  16.095  0.1485  0.0728 -0.4170
   85MPD2    H7 1308   1.740   1.555  16.008  0.3226 -2.4672 -0.9404
   86TCq2    C1 1309   2.169   1.974  15.909 -0.1196  0.7611 -0.5187
   86TCq2    O2 1310   2.250   2.011  15.998 -0.0226 -0.0689  0.0102
   86TCq2    C2 1311   2.164   2.060  15.794 -0.4675 -0.4769 -0.0219
   86TCq2    C3 1312   2.119   2.014  15.667 -0.1644  0.1218  0.2794
   86TCq2    C4 1313   2.144   2.082  15.554 -0.0369  0.3250  0.5922
   86TCq2    C5 1314   2.223   2.188  15.558  0.4621 -0.4588  0.3103
   86TCq2    C6 1315   2.279   2.229  15.679 -0.4234  0.1198 -0.4027
   86TCq2    C7 1316   2.245   2.169  15.793 -0.7602 -0.3239 -0.2059
   86TCq2    C8 1317   2.412   2.285  15.688 -0.2733  0.5450  0.0583
   86TCq2    O4 1318   2.465   2.300  15.797 -0.0616 -0.5674  0.0321
   86TCq2    C9 1319   2.094   2.037  15.434  1.0879  0.3020 -0.0367
   86TCq2    O5 1320   2.167   2.058  15.331 -0.1171  0.2529 -0.4500
   86TCq2    O6 1321   1.992   1.963  15.434  0.1030  0.0682 -0.5543
   86TCq2    H2 1322   2.066   1.921  15.653 -0.0175 -0.0645  0.9547
   86TCq2    H3 1323   2.230   2.246  15.466  0.9601  0.5707  0.9990
   86TCq2    H4 1324   2.287   2.212  15.884 -2.9319 -0.4097  0.8505
   87MPD2     C 1325   4.406   0.785   1.292 -0.0998 -0.4507 -0.6426
   87MPD2    C1 1326   4.307   0.737   1.210  0.0925 -0.7756 -0.2280
   87MPD2    C2 1327   4.195   0.820   1.198 -0.1753 -0.7941 -0.3268
   87MPD2    C3 1328   4.172   0.932   1.273 -0.1711 -0.5183 -0.4303
   87MPD2    C4 1329   4.279   0.978   1.346  0.0731  0.3597 -0.5016
   87MPD2    C5 1330   4.393   0.902   1.358  0.6277  0.6799 -0.4573
   87MPD2     H 1331   4.123   0.797   1.120  0.8183  0.7321 -1.7074
   87MPD2    H1 1332   4.276   1.080   1.383 -0.8972  0.4415 -0.7912
   87MPD2    H2 1333   4.502   0.734   1.297 -0.1705 -0.6878 -1.7171
   87MPD2    H3 1334   4.479   0.940   1.413  0.9620 -0.2360 -0.3514
   87MPD2     N 1335   4.058   1.012   1.257 -0.2025 -0.1104 -0.2834
   87MPD2    H5 1336   4.057   1.094   1.317  0.3461  0.0277 -0.4641
   87MPD2    N1 1337   4.317   0.609   1.150  0.0855 -0.3310 -0.4222
   87MPD2    H7 1338   4.411   0.571   1.138  0.3827  0.0370  0.8223
   88TCq2    C1 1339   4.220   0.537   1.101  0.0049  0.1024  0.4154
   88TCq2    O2 1340   4.101   0.561   1.119 -0.7031 -0.2550 -0.4437
   88TCq2    C2 1341   4.266   0.401   1.059  0.2145  0.3926 -0.3261
   88TCq2    C3 1342   4.162   0.324   1.022 -0.3100  0.0383 -0.5526
   88TCq2    C4 1343   4.187   0.196   0.982  0.3754 -0.1268  0.5594
   88TCq2    C5 1344   4.316   0.159   0.964 -0.2123 -0.1591  0.1103
   88TCq2    C6 1345   4.421   0.252   0.985  0.1517  0.2572 -0.4727
   88TCq2    C7 1346   4.397   0.366   1.046 -0.4204  0.6735 -0.1675
   88TCq2    C8 1347   4.552   0.223   0.925  0.6805  0.2353  0.4610
   88TCq2    O4 1348   4.548   0.168   0.817 -0.8052  0.6108 -0.0669
   88TCq2    C9 1349   4.084   0.099   0.955  0.2583  0.4488  0.2646
   88TCq2    O5 1350   3.972   0.145   0.932 -0.1093 -0.0771  0.1843
   88TCq2    O6 1351   4.115   4.706   0.912  0.0621 -0.1384 -0.4717
   88TCq2    H2 1352   4.060   0.355   1.041  0.7452  3.4796 -0.4819
   88TCq2    H3 1353   4.330   0.060   0.921 -1.4360  0.0650 -0.7963
   88TCq2    H4 1354   4.478   0.438   1.053  1.6053 -1.6341 -0.1979
   89MPD2     C 1355   0.550   3.706   1.656  0.9363  0.4501  0.4655
   89MPD2    C1 1356   0.491   3.832   1.665 -0.3568  0.0180 -0.0157
   89MPD2    C2 1357   0.570   3.944   1.660  0.5328 -0.4182 -0.2899
   89MPD2    C3 1358   0.708   3.932   1.651 -0.3870  0.5321  0.1428
   89MPD2    C4 1359   0.763   3.803   1.646  0.2153 -0.1581  0.2275
   89MPD2    C5 1360   0.685   3.696   1.648  0.2715  0.1528 -0.1208
   89MPD2     H 1361   0.522   4.040   1.676 -1.8787 -1.5093 -0.9167
   89MPD2    H1 1362   0.864   3.787   1.610 -0.7938  1.1143 -3.2375
   89MPD2    H2 1363   0.501   3.610   1.669 -2.7496  2.3444  0.4827
   89MPD2    H3 1364   0.742   3.605   1.632 -1.1847 -0.7312 -0.2891
   89MPD2     N 1365   0.784   4.051   1.650 -0.0980 -0.5245  0.5624
   89MPD2    H5 1366   0.745   4.144   1.653  0.2204 -0.3553 -0.4348
   89MPD2    N1 1367   0.352   3.848   1.689 -0.1754 -0.2899 -0.1387
   89MPD2    H7 1368   0.328   3.941   1.722  0.3377 -0.0635 -0.4038
   90TCq2    C1 1369   0.921   4.047   1.660 -0.0832 -0.4710 -0.4416
   90TCq2    O2 1370   1.012   3.975   1.619  0.3835  0.8482 -0.6109
   90TCq2    C2 1371   0.962   4.177   1.707  0.2945  0.1554  0.0442
   90TCq2    C3 1372   0.869   4.260   1.770  0.3615  0.3898  0.1802
   90TCq2    C4 1373   0.926   4.370   1.838 -0.5720  0.3837  0.4947
   90TCq2    C5 1374   1.061   4.396   1.839 -0.0627  1.2323 -0.0156
   90TCq2    C6 1375   1.145   4.320   1.764  0.4905 -0.5847 -0.5717
   90TCq2    C7 1376   1.095   4.206   1.696 -0.1684  0.1882 -0.0323
   90TCq2    C8 1377   1.290   4.349   1.757  0.4250  0.3285  0.4293
   90TCq2    O4 1378   1.333   4.427   1.843 -0.5431 -0.0093 -0.4444
   90TCq2    C9 1379   0.845   4.461   1.914 -0.0709 -0.3523  0.2899
   90TCq2    O5 1380   0.887   4.572   1.964 -0.5387 -0.0835 -0.0231
   90TCq2    O6 1381   0.729   4.421   1.932  0.1469 -0.1702 -0.2139
   90TCq2    H2 1382   0.762   4.246   1.770  1.0435 -4.7793  0.0948
   90TCq2    H3 1383   1.092   4.487   1.889  0.7330  1.4333 -0.8878
   90TCq2    H4 1384   1.159   4.138   1.641 -1.1879 -0.0696 -0.8837
   91TMC2    C1 1385   2.270   2.955  16.335  0.3743  0.1207 -1.4927
   91TMC2    C2 1386   2.282   3.056  16.431 -0.1584  0.3107  0.1493
   91TMC2    C3 1387   2.164   3.099  16.489  0.1021  0.3243  0.0061
   91TMC2    C4 1388   2.150   2.890  16.307  0.6001  0.6976 -0.3333
   91TMC2    C5 1389   2.039   2.946  16.365  0.0033  0.4073  0.7929
   91TMC2    C6 1390   2.046   3.048  16.459  0.1571  0.5601  0.2981
   91TMC2     C 1391   2.386   2.879  16.297 -0.1004 -0.0697 -0.4946
   91TMC2     O 1392   2.385   2.835  16.182  0.3967  0.0553  0.0498
   91TMC2     H 1393   2.377   3.098  16.460 -0.1788  0.3495  0.1594
   91TMC2    H1 1394   2.137   2.810  16.235 -1.0293 -0.2767  1.0326
   91TMC2    H2 1395   1.955   3.073  16.511 -1.0490  1.8004 -2.4025
   91TMC2    C7 1396   1.919   2.865  16.357  0.0566 -0.1413  0.4955
   91TMC2    C8 1397   2.160   3.191  16.595 -0.2132  0.0721 -0.1140
   91TMC2    O1 1398   1.839   2.881  16.447  0.3887 -0.7486  0.1104
   91TMC2    O2 1399   2.088   3.290  16.589 -0.4312  0.9315 -0.0739
   91TMC2    O5 1400   2.261   3.170  16.684  0.3061 -0.2351 -0.5336
   91TMC2    H5 1401   2.300   3.080  16.684 -0.3378 -0.5099 -0.2630
   92MPD2     C 1402   2.607   2.700  16.289  0.0172 -0.0679 -0.4559
   92MPD2    C1 1403   2.586   2.779  16.399  0.0404 -0.2691  0.3293
   92MPD2    C2 1404   2.657   2.760  16.517 -0.2949  0.3657 -0.2578
   92MPD2    C3 1405   2.756   2.666  16.522 -0.2963 -0.3863  0.5602
   92MPD2    C4 1406   2.787   2.592  16.406  0.5110  0.0750 -0.7938
   92MPD2    C5 1407   2.711   2.611  16.295  0.1088  0.1912 -0.1064
   92MPD2     H 1408   2.620   2.812  16.605 -0.9139  1.1908 -0.9990
   92MPD2    H1 1409   2.872   2.526  16.397 -1.2977 -2.4065  0.0873
   92MPD2    H2 1410   2.559   2.720  16.194  0.0704 -4.2454 -1.3514
   92MPD2    H3 1411   2.729   2.548  16.208 -0.0510 -0.6031  0.4425
   92MPD2     N 1412   2.823   2.661  16.654  0.4965 -0.1650  0.4187
   92MPD2    H5 1413   2.803   2.725  16.730 -1.2573 -1.9973  1.4751
   92MPD2    N1 1414   2.480   2.874  16.399  0.4831 -0.3691 -0.1316
   92MPD2    H7 1415   2.482   2.921  16.489 -1.7178  2.4942 -1.5885
   93MPD2     C 1416   3.867   2.559  13.641  0.1316  0.3576  0.3893
   93MPD2    C1 1417   3.844   2.696  13.636 -0.4727  0.3532 -0.5318
   93MPD2    C2 1418   3.717   2.741  13.581  0.4518  0.0771  0.3769
   93MPD2    C3 1419   3.620   2.651  13.538 -0.9113  0.5031  0.0371
   93MPD2    C4 1420   3.641   2.516  13.556  0.0803  0.5785 -0.3768
   93MPD2    C5 1421   3.762   2.479  13.608  0.2420 -0.1286  0.2217
   93MPD2     H 1422   3.698   2.847  13.568  0.1326  0.0189  0.3796
   93MPD2    H1 1423   3.564   2.447  13.521  0.3271  0.1093  0.0050
   93MPD2    H2 1424   3.957   2.513  13.679  1.1164  1.5581 -0.4846
   93MPD2    H3 1425   3.775   2.373  13.624 -2.3344 -0.6716 -1.1962
   93MPD2     N 1426   3.504   2.689  13.459 -0.0308 -0.4994  0.0392
   93MPD2    H5 1427   3.457   2.612  13.412  1.8213 -0.4409 -1.9023
   93MPD2    N1 1428   3.940   2.788  13.668 -0.2713 -0.5073 -0.1298
   93MPD2    H7 1429   3.912   2.885  13.658  0.7716 -0.3647 -1.8452
   94TCq2    C1 1430   4.064   2.755  13.711  0.0575  0.6406 -0.1918
   94TCq2    O2 1431   4.125   2.651  13.706  0.8260  0.1080 -0.2839
   94TCq2    C2 1432   4.145   2.867  13.751  0.5755  0.3524  0.4737
   94TCq2    C3 1433   4.096   2.971  13.821 -0.6578 -0.0696  0.0728
   94TCq2    C4 1434   4.174   3.076  13.853  0.0861  0.1948  0.2908
   94TCq2    C5 1435   4.307   3.071  13.835 -0.4293  0.0026 -0.0556
   94TCq2    C6 1436   4.357   2.962  13.772 -0.3912 -0.1005  0.0749
   94TCq2    C7 1437   4.279   2.860  13.726 -0.5526 -0.1414 -0.4222
   94TCq2    C8 1438   4.497   2.969  13.729  0.1570  0.4147  0.2829
   94TCq2    O4 1439   4.524   2.923  13.619 -0.4190  0.4719  0.4139
   94TCq2    C9 1440   4.110   3.182  13.931 -0.7924  0.0514 -0.5567
   94TCq2    O5 1441   3.988   3.200  13.922  0.3391  0.4317 -0.1240
   94TCq2    O6 1442   4.184   3.238  14.014 -0.6064 -0.9819 -0.3845
   94TCq2    H2 1443   3.992   2.984  13.848 -0.6174 -0.3285  0.3478
   94TCq2    H3 1444   4.367   3.156  13.866 -2.5106  2.5418 -2.9690
   94TCq2    H4 1445   4.325   2.784  13.666  1.5201  1.3791 -0.7562
   95TMC2    C1 1446   4.318   4.178  16.072  0.2926  0.4902 -0.1352
   95TMC2    C2 1447   4.334   4.044  16.103 -0.4150  0.0618  0.1280
   95TMC2    C3 1448   4.286   4.013  16.228  0.2451 -0.4507 -0.4544
   95TMC2    C4 1449   4.237   4.273  16.136  0.1209  0.2033  0.1319
   95TMC2    C5 1450   4.189   4.233  16.256 -0.1827  0.1077  0.4312
   95TMC2    C6 1451   4.215   4.104  16.302  0.0156 -0.5815 -0.5408
   95TMC2     C 1452   4.407   4.245  15.982 -0.2210  0.2452  0.1606
   95TMC2     O 1453   4.422   4.366  15.989 -0.2787 -0.0526  0.0347
   95TMC2     H 1454   4.428   3.999  16.074 -0.5188 -2.5830  3.9146
   95TMC2    H1 1455   4.240   4.379  16.110 -0.4537  1.2465  4.3315
   95TMC2    H2 1456   4.178   4.068  16.397  0.6134  1.9014  0.6368
   95TMC2    C7 1457   4.108   4.311  16.341 -1.2576 -0.2014  0.0452
   95TMC2    C8 1458   4.357   3.907  16.293 -0.4504 -0.4297  0.6889
   95TMC2    O1 1459   4.071   4.271  16.452  0.0463  0.3487 -0.2386
   95TMC2    O2 1460   4.417   3.918  16.404 -0.0989 -0.2028 -0.2339
   95TMC2    O5 1461   4.360   3.803  16.206  0.2504 -0.0143 -0.4392
   95TMC2    H5 1462   4.302   3.823  16.129  0.1081  1.7577  0.1232
   96MPD2     C 1463   0.065   4.257  15.641 -0.0755 -0.3732 -0.3845
   96MPD2    C1 1464   0.002   4.361  15.704  0.5169  0.4458  0.0165
   96MPD2    C2 1465   4.619   4.329  15.793 -0.8543  0.2639 -0.8267
   96MPD2    C3 1466   4.590   4.193  15.822 -0.0719 -0.4252  0.4402
   96MPD2    C4 1467   4.655   4.094  15.754 -0.6755 -0.0480  0.1851
   96MPD2    C5 1468   0.039   4.125  15.668 -0.0333  0.2730  0.5567
   96MPD2     H 1469   4.572   4.410  15.846  0.2964  1.0588 -1.0108
   96MPD2    H1 1470   4.629   3.989  15.762 -0.0978 -0.1879  0.2077
   96MPD2    H2 1471   0.131   4.274  15.557  0.0359 -0.6949 -0.3611
   96MPD2    H3 1472   0.074   4.058  15.590 -0.6701 -1.6129  1.8961
   96MPD2     N 1473   4.485   4.154  15.912 -0.4610  0.1273 -0.0162
   96MPD2    H5 1474   4.452   4.058  15.909 -1.1906  0.3645  0.5872
   96MPD2    N1 1475   0.043   4.487  15.653  0.0268  0.1894  0.4977
   96MPD2    H7 1476   0.125   4.496  15.594  0.8354 -0.6296  1.5024
   97MPD2     C 1477   0.606   2.312   0.469 -0.1336  0.2050 -0.3133
   97MPD2    C1 1478   0.698   2.414   0.482 -0.4862  0.4459  1.3710
   97MPD2    C2 1479   0.806   2.420   0.395  0.3867  0.0548  0.4481
   97MPD2    C3 1480   0.831   2.316   0.295  0.3632  0.5527  0.3567
   97MPD2    C4 1481   0.732   2.214   0.291 -0.2922 -0.3738 -0.4535
   97MPD2    C5 1482   0.624   2.209   0.382 -0.2526  0.4849  0.0978
   97MPD2     H 1483   0.874   2.503   0.412  1.0997 -0.4906  0.2436
   97MPD2    H1 1484   0.748   2.132   0.222  1.7283 -1.3512  1.1645
   97MPD2    H2 1485   0.522   2.301   0.537  1.3184  1.6801  1.7111
   97MPD2    H3 1486   0.552   2.128   0.379  0.6013 -0.1741 -2.4586
   97MPD2     N 1487   0.940   2.307   0.211  0.0797  0.2168 -0.0262
   97MPD2    H5 1488   0.932   2.234   0.141  1.5430  0.1735 -0.1424
   97MPD2    N1 1489   0.673   2.510   0.583  0.0938  0.6261 -0.2635
   97MPD2    H7 1490   0.591   2.492   0.640  1.6356 -0.7851  1.4851
   98TCq2    C1 1491   1.050   2.391   0.215 -0.8279 -0.0673 -0.2260
   98TCq2    O2 1492   1.064   2.495   0.281  0.5925  0.4216  0.0898
   98TCq2    C2 1493   1.134   2.393   0.092 -0.1240  0.2969  0.4658
   98TCq2    C3 1494   1.109   2.309  17.685 -0.1984  0.3043  0.0105
   98TCq2    C4 1495   1.199   2.298  17.580 -0.0037  0.3788  0.4067
   98TCq2    C5 1496   1.316   2.370  17.578 -0.3009 -0.0555  0.7285
   98TCq2    C6 1497   1.342   2.447  17.691  0.3156 -0.6109  0.0577
   98TCq2    C7 1498   1.247   2.469   0.095  0.0009 -0.2182  0.4183
   98TCq2    C8 1499   1.446   2.550  17.680 -0.9360  0.3630  0.2748
   98TCq2    O4 1500   1.461   2.623   0.081  0.4823 -0.2771  0.3803
   98TCq2    C9 1501   1.170   2.208  17.473  0.3197  0.0114 -0.6194
   98TCq2    O5 1502   1.053   2.155  17.474  0.2486 -0.0872  0.6526
   98TCq2    O6 1503   1.276   2.183  17.408 -0.4541 -0.2075 -0.3187
   98TCq2    H2 1504   1.020   2.248  17.671 -0.9563  0.8249  2.6520
   98TCq2    H3 1505   1.382   2.352  17.494  2.1840  1.3422  2.3598
   98TCq2    H4 1506   1.272   2.527   0.183  1.0817 -2.4986  1.6039
   99MPD2     C 1507   0.214   4.538   1.603 -0.4601 -0.2248  0.3926
   99MPD2    C1 1508   0.077   4.542   1.587  0.1928  0.0529  0.1920
   99MPD2    C2 1509   0.023   4.472   1.477  1.0891  0.5642 -0.2314
   99MPD2    C3 1510   0.099   4.403   1.383 -0.3774  0.0559  0.5763
   99MPD2    C4 1511   0.240   4.416   1.386 -0.2126 -0.4374  0.1086
   99MPD2    C5 1512   0.290   4.484   1.499 -0.8277  0.5488  0.5540
   99MPD2     H 1513   4.638   4.474   1.478  1.0608 -1.9945  0.6923
   99MPD2    H1 1514   0.311   4.373   1.315 -0.5306 -2.5984  1.1167
   99MPD2    H2 1515   0.269   4.592   1.679  2.2138 -0.3526 -1.4712
   99MPD2    H3 1516   0.397   4.502   1.503 -0.8532  0.1669  2.6172
   99MPD2     N 1517   0.029   4.323   1.290  0.0303  0.1208  0.3273
   99MPD2    H5 1518   4.653   4.304   1.302 -0.2425  1.1149 -0.3162
   99MPD2    N1 1519   4.708   4.619   1.666 -0.0145 -0.5158  0.2212
   99MPD2    H7 1520   4.614   4.629   1.628  0.6911  0.1983 -1.3181
  100TCq2    C1 1521   0.031   4.706   1.760  0.8766  0.6506 -0.8392
  100TCq2    O2 1522   0.143   0.007   1.798 -0.5704 -0.1595  0.3795
  100TCq2    C2 1523   4.656   0.072   1.814  0.2575  0.6951  0.2576
  100TCq2    C3 1524   4.694   0.191   1.867 -0.0338  0.6020  0.4384
  100TCq2    C4 1525   4.608   0.292   1.869  0.1407 -0.9872 -0.0932
  100TCq2    C5 1526   4.476   0.271   1.837 -0.8199  0.8092  1.2743
  100TCq2    C6 1527   4.432   0.150   1.793 -0.3769  0.1261 -0.1356
  100TCq2    C7 1528   4.527   0.050   1.783  0.5617  0.1984  0.8169
  100TCq2    C8 1529   4.295   0.114   1.820  0.6490 -0.1885  0.1078
  100TCq2    O4 1530   4.225   0.192   1.879  0.5018  0.3564  0.3670
  100TCq2    C9 1531   4.654   0.422   1.917  0.6753 -0.0946 -0.0596
  100TCq2    O5 1532   4.579   0.523   1.904 -0.6291 -0.2198 -0.0702
  100TCq2    O6 1533   0.035   0.416   1.987 -0.2204 -0.0407  0.6670
  100TCq2    H2 1534   0.074   0.210   1.895  0.6649 -2.1497 -0.3036
  100TCq2    H3 1535   4.405   0.351   1.853 -1.6437  0.8685 -2.7431
  100TCq2    H4 1536   4.493   4.671   1.768  0.7110  0.4005 -0.9101
  101MPD2     C 1537   0.700   0.246  12.818 -0.6633  0.8648 -0.5128
  101MPD2    C1 1538   0.600   0.281  12.900  0.0199 -0.1420 -0.2525
  101MPD2    C2 1539   0.548   0.197  12.994  0.5958 -0.5709  0.1349
  101MPD2    C3 1540   0.610   0.075  13.000 -0.1479  0.1668 -0.0700
  101MPD2    C4 1541   0.705   0.036  12.917  0.4090  0.2611  0.2201
  101MPD2    C5 1542   0.757   0.124  12.825  0.5345  0.0104 -0.1422
  101MPD2     H 1543   0.467   0.226  13.060  0.7203  0.0668  0.0077
  101MPD2    H1 1544   0.759   4.666  12.918  0.6035  0.3774  0.6881
  101MPD2    H2 1545   0.733   0.313  12.740  0.3866  1.5871  0.5560
  101MPD2    H3 1546   0.834   0.085  12.759 -0.3117 -0.3026 -0.9443
  101MPD2     N 1547   0.562   4.706  13.097 -0.2256  0.3232  0.0919
  101MPD2    H5 1548   0.482   0.011  13.154 -1.9189  0.8362 -2.5076
  101MPD2    N1 1549   0.555   0.413  12.877 -0.3767 -0.3356 -0.0981
  101MPD2    H7 1550   0.598   0.466  12.802  0.7691  1.7026  2.0086
  102TCq2    C1 1551   0.603   0.851  12.687 -0.3741 -0.3324  0.4559
  102TCq2    O2 1552   0.715   0.821  12.711 -0.6260  0.3196 -0.0925
  102TCq2    C2 1553   0.504   0.796  12.779 -0.6916 -0.1719  0.7492
  102TCq2    C3 1554   0.391   0.859  12.812 -0.4879 -0.2350  0.3758
  102TCq2    C4 1555   0.301   0.802  12.895 -0.3518  0.0727  0.2854
  102TCq2    C5 1556   0.322   0.682  12.957  0.5904  0.0667  0.5612
  102TCq2    C6 1557   0.442   0.615  12.924 -0.4894  0.1984 -0.1588
  102TCq2    C7 1558   0.533   0.671  12.832 -0.3886  0.1193  0.2405
  102TCq2    C8 1559   0.457   0.473  12.954 -0.0035 -1.4449 -0.3763
  102TCq2    O4 1560   0.386   0.423  13.037  0.0290 -0.3937 -0.7603
  102TCq2    C9 1561   0.169   0.855  12.900 -0.2032 -0.3184 -0.4772
  102TCq2    O5 1562   0.149   0.953  12.827  0.7037 -0.2137 -0.0921
  102TCq2    O6 1563   0.078   0.792  12.956  0.0335 -0.4880 -0.1719
  102TCq2    H2 1564   0.376   0.957  12.768 -0.8322 -0.6415 -0.4101
  102TCq2    H3 1565   0.263   0.657  13.045  1.3429 -0.8022  0.8202
  102TCq2    H4 1566   0.616   0.620  12.784 -0.0383  1.7966 -0.9388
  103TMC2    C1 1567   3.886   1.226  12.081  0.4969 -0.6631 -0.1829
  103TMC2    C2 1568   3.969   1.333  12.112 -0.2599  0.7017 -0.1997
  103TMC2    C3 1569   4.040   1.334  12.234  0.5264 -0.3868 -0.1089
  103TMC2    C4 1570   3.855   1.138  12.175  0.4864  0.9551 -0.0941
  103TMC2    C5 1571   3.913   1.148  12.301 -0.0635  0.2106 -0.9428
  103TMC2    C6 1572   4.010   1.239  12.326 -0.1092  0.2041 -0.7897
  103TMC2     C 1573   3.803   1.225  11.959  0.2232 -0.2664 -0.7186
  103TMC2     O 1574   3.720   1.131  11.947 -0.3676  0.0275 -0.0208
  103TMC2     H 1575   3.999   1.410  12.042  0.6500  0.5974  0.0794
  103TMC2    H1 1576   3.773   1.068  12.165  2.8033 -1.8528  0.3047
  103TMC2    H2 1577   4.051   1.245  12.426  0.7913  4.0151 -1.3908
  103TMC2    C7 1578   3.870   1.062  12.409 -0.3739 -0.3366  0.1490
  103TMC2    C8 1579   4.154   1.422  12.248 -1.2004  0.4680  0.4447
  103TMC2    O1 1580   3.880   1.099  12.527 -0.0507  0.2477  0.0656
  103TMC2    O2 1581   4.167   1.520  12.179 -0.1265  0.0713 -0.6006
  103TMC2    O5 1582   4.253   1.342  12.289  0.1010 -0.2612  0.1127
  103TMC2    H5 1583   4.214   1.269  12.342 -1.5769 -0.4803 -1.4378
  104MPD2     C 1584   3.717   1.526  11.763 -0.1669 -0.0409 -0.2919
  104MPD2    C1 1585   3.718   1.393  11.795 -0.5182 -0.1096  0.2008
  104MPD2    C2 1586   3.645   1.300  11.717  0.2313 -0.6602 -1.0998
  104MPD2    C3 1587   3.556   1.351  11.630 -0.2005 -0.0110 -0.4147
  104MPD2    C4 1588   3.534   1.487  11.612  0.1482 -0.7830 -0.3900
  104MPD2    C5 1589   3.624   1.572  11.677 -0.2143  0.5821  0.1160
  104MPD2     H 1590   3.658   1.193  11.722 -0.3999 -0.7031 -0.0925
  104MPD2    H1 1591   3.455   1.527  11.549 -1.0954  0.0107  1.6807
  104MPD2    H2 1592   3.779   1.600  11.813  0.3368 -1.1324  0.6956
  104MPD2    H3 1593   3.611   1.679  11.669 -2.3420 -0.0252 -4.4945
  104MPD2     N 1594   3.469   1.251  11.581  0.3437  0.6426  0.3155
  104MPD2    H5 1595   3.486   1.154  11.605  1.6230  0.5644 -0.9042
  104MPD2    N1 1596   3.805   1.350  11.895  0.5604 -0.1293  0.5427
  104MPD2    H7 1597   3.870   1.422  11.924  0.6605  0.8653 -2.1524
  105MPD2     C 1598   0.929   4.702  17.480  0.2089  0.0584  0.5431
  105MPD2    C1 1599   0.799   0.000  17.444 -0.7047  0.2936 -0.5487
  105MPD2    C2 1600   0.698   0.018  17.540 -0.1266 -0.1816  0.0844
  105MPD2    C3 1601   0.732   0.032  17.677  0.4982 -0.1223 -0.1850
  105MPD2    C4 1602   0.867   0.046   0.009 -0.4737 -0.6752  0.4671
  105MPD2    C5 1603   0.968   0.012  17.609  0.2723 -1.0452  0.5459
  105MPD2     H 1604   0.594   0.011  17.510 -0.8218 -1.5734  2.8587
  105MPD2    H1 1605   0.912   0.054   0.108 -0.1648 -0.3104  0.2939
  105MPD2    H2 1606   1.015   4.685  17.416  1.2386  4.8366  0.6612
  105MPD2    H3 1607   1.073   4.721  17.632  0.9739  0.7659 -1.6233
  105MPD2     N 1608   0.622   0.050   0.076 -0.0938 -0.6529 -1.0027
  105MPD2    H5 1609   0.528   0.034   0.040 -0.7998  0.7222  0.2188
  105MPD2    N1 1610   0.753   4.714  17.311 -0.6684  0.2337  0.2639
  105MPD2    H7 1611   0.656   0.017  17.297 -1.6448 -2.1674  2.5943
  106TCq2    C1 1612   0.644   0.075   0.212 -0.0676 -0.2824 -0.5971
  106TCq2    O2 1613   0.732   0.146   0.263  0.2471  0.3964 -0.3077
  106TCq2    C2 1614   0.524   0.049   0.293  1.0140 -0.5738 -0.6084
  106TCq2    C3 1615   0.420   4.693   0.246 -0.3467  0.6883 -1.0800
  106TCq2    C4 1616   0.312   4.672   0.325 -0.0292 -0.1899  0.6639
  106TCq2    C5 1617   0.301   0.007   0.449  0.4099  0.3748 -1.0106
  106TCq2    C6 1618   0.406   0.083   0.497 -0.0759  0.0543  0.0874
  106TCq2    C7 1619   0.521   0.093   0.424 -0.1540  0.2768 -0.5415
  106TCq2    C8 1620   0.399   0.165   0.623 -0.0998  0.2508 -0.1800
  106TCq2    O4 1621   0.504   0.199   0.670 -0.0620 -0.0694  0.1173
  106TCq2    C9 1622   0.197   4.600   0.271  0.3154  0.4970 -0.0540
  106TCq2    O5 1623   0.210   4.549   0.159  0.0786  0.3720 -0.2836
  106TCq2    O6 1624   0.095   4.606   0.342  0.5587 -0.0670 -0.3395
  106TCq2    H2 1625   0.423   4.648   0.148  0.6333 -2.2521  0.2934
  106TCq2    H3 1626   0.217   4.706   0.513  0.9736  1.8647  0.3165
  106TCq2    H4 1627   0.600   0.153   0.466 -0.9137 -0.0039  1.3278
  107TMC2    C1 1628   1.247   3.924  11.016 -0.3546 -0.6705 -0.2934
  107TMC2    C2 1629   1.236   4.018  10.915 -0.4414  0.5327 -0.0841
  107TMC2    C3 1630   1.210   3.975  10.788 -0.5238  0.8272  0.1033
  107TMC2    C4 1631   1.237   3.792  10.990  0.3902  0.4963 -0.1589
  107TMC2    C5 1632   1.228   3.749  10.861 -0.4777  0.2219  0.3744
  107TMC2    C6 1633   1.220   3.843  10.754  0.3710  0.4410  0.5615
  107TMC2     C 1634   1.260   3.967  11.157 -0.1270 -0.1258 -0.1428
  107TMC2     O 1635   1.218   3.890  11.240 -0.1590 -1.3253  0.6351
  107TMC2     H 1636   1.234   4.124  10.937  0.2154  0.6011 -0.3290
  107TMC2    H1 1637   1.249   3.721  11.071 -1.2843 -0.9050 -1.1511
  107TMC2    H2 1638   1.196   3.813  10.653  2.5852 -0.0200  0.1641
  107TMC2    C7 1639   1.222   3.610  10.828  0.5454 -0.1948 -0.4152
  107TMC2    C8 1640   1.218   4.071  10.674 -0.3169 -0.5660  0.0932
  107TMC2    O1 1641   1.220   3.526  10.917 -0.1105 -1.1183 -0.2992
  107TMC2    O2 1642   1.242   4.037  10.560  0.1520  0.0609 -0.0958
  107TMC2    O5 1643   1.167   4.194  10.709 -0.6044  0.1656 -0.1661
  107TMC2    H5 1644   1.126   4.195  10.798  0.2370  0.3538  0.2223
  108MPD2     C 1645   1.345   4.297  11.280  0.5994 -0.6003  0.6512
  108MPD2    C1 1646   1.308   4.164  11.297 -0.1022  0.0567  0.3791
  108MPD2    C2 1647   1.236   4.127  11.415  0.1862  0.2508 -0.0421
  108MPD2    C3 1648   1.182   4.226  11.498  0.0400 -0.3609  0.0671
  108MPD2    C4 1649   1.200   4.361  11.464 -0.4039 -0.1298  0.7519
  108MPD2    C5 1650   1.293   4.395  11.366  0.6931  0.1013  0.4292
  108MPD2     H 1651   1.230   4.020  11.432 -0.0547 -0.1202 -2.4379
  108MPD2    H1 1652   1.164   4.441  11.527  1.9200  0.9952  0.6750
  108MPD2    H2 1653   1.410   4.331  11.201 -3.2803  1.4983 -1.6236
  108MPD2    H3 1654   1.323   4.499  11.358  1.1438 -0.0729 -0.1328
  108MPD2     N 1655   1.097   4.199  11.605  0.7835 -0.2149  0.2684
  108MPD2    H5 1656   1.044   4.275  11.645 -0.2517 -0.4103 -0.7565
  108MPD2    N1 1657   1.323   4.083  11.177 -0.0022  0.0194  0.5021
  108MPD2    H7 1658   1.379   4.127  11.104 -0.3134 -0.6811 -0.1564
  109MPD2     C 1659   0.015   1.628   1.822  0.5791  0.7109 -0.7867
  109MPD2    C1 1660   0.107   1.638   1.719 -0.7104 -0.0535 -0.3201
  109MPD2    C2 1661   0.197   1.745   1.724 -0.7840 -0.4605  0.4689
  109MPD2    C3 1662   0.192   1.840   1.820  0.4520  0.6213 -0.3141
  109MPD2    C4 1663   0.103   1.833   1.917  0.5844  0.1845 -0.0839
  109MPD2    C5 1664   0.011   1.725   1.919  0.4099 -0.2474  0.1094
  109MPD2     H 1665   0.254   1.771   1.636 -1.4291 -1.1659 -0.1590
  109MPD2    H1 1666   0.076   1.912   1.985  1.5988  0.9002 -0.5143
  109MPD2    H2 1667   4.658   1.554   1.821 -0.0045  1.2872  2.7640
  109MPD2    H3 1668   4.658   1.710   1.994 -0.9118  0.2454 -1.1467
  109MPD2     N 1669   0.274   1.954   1.801 -0.0532  0.5145 -0.9193
  109MPD2    H5 1670   0.332   1.949   1.718 -0.4140  1.1369 -1.2039
  109MPD2    N1 1671   0.089   1.560   1.602 -0.3494 -0.1786  0.2378
  109MPD2    H7 1672   4.723   1.513   1.589 -0.0726 -0.4718 -0.6821
  110TCq2    C1 1673   0.295   2.055   1.897  0.0613 -0.1523 -0.2719
  110TCq2    O2 1674   0.260   2.063   2.014  0.0434  0.2372  0.5071
  110TCq2    C2 1675   0.395   2.145   1.846  0.9586 -0.3888  0.3360
  110TCq2    C3 1676   0.507   2.169   1.917 -0.5711  0.0201 -0.0525
  110TCq2    C4 1677   0.597   2.258   1.865  0.9883 -0.2204  0.0096
  110TCq2    C5 1678   0.573   2.311   1.740  0.8303 -0.5806 -0.2228
  110TCq2    C6 1679   0.471   2.269   1.665 -0.1053  0.0136  0.2626
  110TCq2    C7 1680   0.376   2.184   1.716  0.7602 -0.2037  0.4009
  110TCq2    C8 1681   0.473   2.312   1.527 -0.3399 -0.5477 -0.3593
  110TCq2    O4 1682   0.532   2.420   1.505 -0.0731  0.1047  0.3579
  110TCq2    C9 1683   0.688   2.317   1.954  0.3952  0.1787 -0.2776
  110TCq2    O5 1684   0.708   2.260   2.065  0.0208 -0.4112  0.3394
  110TCq2    O6 1685   0.758   2.408   1.909  0.3368  0.7271 -0.0122
  110TCq2    H2 1686   0.514   2.135   2.020 -0.2502 -0.7938 -0.3476
  110TCq2    H3 1687   0.639   2.387   1.698 -2.5401  1.3878 -1.9839
  110TCq2    H4 1688   0.284   2.164   1.662  0.5689  1.9761 -0.1201
  111TMC2    C1 1689   1.100   1.681  11.378  1.1653 -0.7989  0.0154
  111TMC2    C2 1690   1.191   1.721  11.285 -0.1593  0.1912  0.2004
  111TMC2    C3 1691   1.320   1.686  11.313  0.4404 -0.6372 -0.6062
  111TMC2    C4 1692   1.128   1.611  11.497  0.5502 -0.2304 -0.1246
  111TMC2    C5 1693   1.262   1.586  11.509 -0.4042 -0.0058 -0.8038
  111TMC2    C6 1694   1.361   1.615  11.424  0.5638 -0.2630 -0.5937
  111TMC2     C 1695   0.967   1.670  11.327  0.4545 -0.6435 -0.2519
  111TMC2     O 1696   0.957   1.704  11.214 -0.9249 -0.0853  0.2195
  111TMC2     H 1697   1.162   1.786  11.204  2.4090  0.1367 -0.7458
  111TMC2    H1 1698   1.054   1.597  11.575 -1.9159  0.0199 -2.4010
  111TMC2    H2 1699   1.466   1.594  11.444  0.2418 -1.3378  0.0262
  111TMC2    C7 1700   1.305   1.491  11.616  0.1834  0.1545  0.1875
  111TMC2    C8 1701   1.421   1.740  11.229  0.5421 -0.7962  0.2433
  111TMC2    O1 1702   1.218   1.478  11.700 -0.3884 -0.1402 -0.0410
  111TMC2    O2 1703   1.531   1.784  11.260 -0.1986 -0.5620  0.0915
  111TMC2    O5 1704   1.400   1.670  11.113  0.1209  0.1301 -0.3616
  111TMC2    H5 1705   1.322   1.612  11.105 -0.0164  0.0821  1.4637
  112MPD2     C 1706   0.479   1.561  11.310  0.0596 -0.9185 -0.7161
  112MPD2    C1 1707   0.580   1.547  11.211  0.2989 -0.2263  0.5360
  112MPD2    C2 1708   0.712   1.569  11.248 -0.0957 -0.3973 -0.6675
  112MPD2    C3 1709   0.742   1.611  11.379 -0.1331  0.0503  0.0086
  112MPD2    C4 1710   0.646   1.616  11.477  0.1158  0.4841 -0.2756
  112MPD2    C5 1711   0.513   1.598  11.438 -0.0182 -0.2221 -0.2507
  112MPD2     H 1712   0.794   1.556  11.178  0.9120  1.1461  0.2373
  112MPD2    H1 1713   0.662   1.653  11.577  2.2113 -1.3417  0.0716
  112MPD2    H2 1714   0.375   1.542  11.289  0.1498 -0.1910 -1.8472
  112MPD2    H3 1715   0.440   1.599  11.518  0.5475  1.5100  0.2505
  112MPD2     N 1716   0.873   1.635  11.420 -0.8540  0.0573 -0.6211
  112MPD2    H5 1717   0.898   1.658  11.516  0.8352  1.0550 -1.3056
  112MPD2    N1 1718   0.564   1.511  11.074  0.2152 -0.0915 -0.1521
  112MPD2    H7 1719   0.650   1.485  11.026 -0.3797 -1.7984 -0.3141
  113MPD2     C 1720   4.030   4.259   0.912  0.6785 -0.2309  0.0345
  113MPD2    C1 1721   3.901   4.295   0.941  0.4960 -0.7067 -0.2110
  113MPD2    C2 1722   3.794   4.231   0.887  0.3869  0.0941  0.0620
  113MPD2    C3 1723   3.824   4.134   0.795  0.6638  0.7291 -0.3694
  113MPD2    C4 1724   3.947   4.101   0.750 -0.1098 -0.3626  0.7349
  113MPD2    C5 1725   4.049   4.169   0.807 -0.3472  0.2949  0.4920
  113MPD2     H 1726   3.699   4.281   0.901  0.6192  0.8625 -1.1382
  113MPD2    H1 1727   3.963   4.034   0.667  0.1210  0.7427 -0.1118
  113MPD2    H2 1728   4.116   4.309   0.955 -0.8520  2.7767 -0.3484
  113MPD2    H3 1729   4.148   4.147   0.770 -0.4499 -0.9277  0.9368
  113MPD2     N 1730   3.717   4.080   0.724 -0.0921 -0.4641 -0.4416
  113MPD2    H5 1731   3.735   4.004   0.659 -1.4058  1.7372 -3.4334
  113MPD2    N1 1732   3.877   4.396   1.033  0.5510  0.3374 -0.2619
  113MPD2    H7 1733   3.782   4.427   1.048 -0.1727 -1.4156 -1.1702
  114TCq2    C1 1734   3.584   4.081   0.763  0.5188 -0.0212  0.4089
  114TCq2    O2 1735   3.532   4.122   0.866  0.0617  0.3379  0.1881
  114TCq2    C2 1736   3.492   3.993   0.690  0.5343 -0.0146  0.2183
  114TCq2    C3 1737   3.505   3.992   0.554 -0.9124 -0.1115  0.2905
  114TCq2    C4 1738   3.479   3.879   0.476  0.0048 -0.0680  0.5482
  114TCq2    C5 1739   3.422   3.773   0.549 -0.0202 -0.6095  0.3168
  114TCq2    C6 1740   3.397   3.781   0.684 -0.8260  0.3483 -0.0449
  114TCq2    C7 1741   3.440   3.890   0.758 -0.3143  0.2182  0.2326
  114TCq2    C8 1742   3.320   3.668   0.739 -0.2050  0.7146 -0.2708
  114TCq2    O4 1743   3.294   3.575   0.669  0.2750 -0.2099 -0.9056
  114TCq2    C9 1744   3.522   3.890   0.336  0.0772 -0.0023  0.6776
  114TCq2    O5 1745   3.529   3.780   0.277  0.9498  0.3844 -0.6232
  114TCq2    O6 1746   3.546   4.006   0.289 -0.6647  0.3782 -0.0369
  114TCq2    H2 1747   3.547   4.081   0.509  0.9121 -1.2915 -0.3445
  114TCq2    H3 1748   3.373   3.691   0.498 -0.3886  0.6123 -1.3064
  114TCq2    H4 1749   3.416   3.900   0.863 -0.0164 -0.3790  0.3571
  115TMC2    C1 1750   4.450   1.965   0.651 -0.1205  0.1678  0.2626
  115TMC2    C2 1751   4.427   1.922   0.779  0.4170  0.4948  0.5910
  115TMC2    C3 1752   4.371   2.010   0.863  0.2444 -0.3199  0.4788
  115TMC2    C4 1753   4.407   2.085   0.608 -0.0664  0.3313 -0.7354
  115TMC2    C5 1754   4.354   2.169   0.702 -0.4011  0.3745  0.2913
  115TMC2    C6 1755   4.337   2.138   0.832 -0.3555  0.2546  0.4323
  115TMC2     C 1756   4.505   1.867   0.548 -0.4045 -0.2841  0.3600
  115TMC2     O 1757   4.501   1.901   0.433  0.1038 -0.1267 -0.4932
  115TMC2     H 1758   4.464   1.825   0.809  0.2671  0.0453 -0.7198
  115TMC2    H1 1759   4.418   2.116   0.504 -2.0518 -1.0954 -1.3900
  115TMC2    H2 1760   4.308   2.204   0.913 -0.7153 -1.5472  1.7704
  115TMC2    C7 1761   4.308   2.305   0.672 -0.4209  0.9082  0.1514
  115TMC2    C8 1762   4.383   1.969   1.002 -0.1026 -0.2154 -0.1289
  115TMC2    O1 1763   4.219   2.350   0.748  0.4402  0.8322  0.1226
  115TMC2    O2 1764   4.309   2.023   1.086  0.4228 -0.2040  0.2765
  115TMC2    O5 1765   4.497   1.901   1.029  0.3470  0.5884  0.1670
  115TMC2    H5 1766   4.552   1.896   0.948 -0.1978  0.6940 -0.2053
  116MPD2     C 1767   0.023   1.461   0.372  0.3902  0.9407 -0.5545
  116MPD2    C1 1768   4.637   1.530   0.327 -0.0499  0.2804 -0.3794
  116MPD2    C2 1769   4.585   1.629   0.399 -0.1930 -0.1831  0.7408
  116MPD2    C3 1770   4.634   1.659   0.525  0.4635  0.0635 -0.2081
  116MPD2    C4 1771   0.016   1.575   0.582 -0.2020  0.4386 -0.2798
  116MPD2    C5 1772   0.067   1.481   0.497  0.8587  0.7058  0.6901
  116MPD2     H 1773   4.490   1.670   0.367  0.5869  1.0188 -0.0476
  116MPD2    H1 1774   0.049   1.576   0.686  1.1470 -0.4350 -0.7156
  116MPD2    H2 1775   0.070   1.381   0.316 -1.5718 -1.7516  1.6502
  116MPD2    H3 1776   0.153   1.424   0.530  0.5134 -0.5928 -0.6726
  116MPD2     N 1777   4.578   1.760   0.602  0.8622  0.4874  0.6885
  116MPD2    H5 1778   4.593   1.763   0.702 -0.0685  0.2742  0.8335
  116MPD2    N1 1779   4.579   1.498   0.204  0.3997  0.1612 -0.5933
  116MPD2    H7 1780   4.499   1.555   0.181 -0.1824 -0.7086 -0.7402
  117TMC2    C1 1781   4.262   3.468  13.631 -0.0978 -0.1248 -0.2008
  117TMC2    C2 1782   4.379   3.457  13.697 -0.2322  0.0676  0.7794
  117TMC2    C3 1783   4.446   3.567  13.721 -1.1088  0.7103 -0.2008
  117TMC2    C4 1784   4.220   3.582  13.571 -0.2127  0.1865  0.2741
  117TMC2    C5 1785   4.300   3.691  13.591 -0.2416 -0.4314 -0.1715
  117TMC2    C6 1786   4.416   3.685  13.659 -0.6689  0.0491 -0.2011
  117TMC2     C 1787   4.205   3.340  13.600  0.1386 -0.2146  1.3235
  117TMC2     O 1788   4.275   3.240  13.586  0.2181 -0.2751  0.0442
  117TMC2     H 1789   4.414   3.362  13.736 -0.5994 -0.7315 -0.8478
  117TMC2    H1 1790   4.129   3.590  13.512 -2.2724 -3.7792  2.9063
  117TMC2    H2 1791   4.485   3.767  13.677  1.9500 -2.0059 -0.8668
  117TMC2    C7 1792   4.250   3.828  13.558  0.5368 -0.0148 -0.5446
  117TMC2    C8 1793   4.565   3.558  13.802  0.3427  0.4680 -0.4324
  117TMC2    O1 1794   4.314   3.926  13.591 -1.0486 -0.0635 -0.4481
  117TMC2    O2 1795   4.611   3.448  13.831 -0.0639 -0.2965  1.0880
  117TMC2    O5 1796   4.571   3.666  13.879 -0.1070 -0.8468  0.2230
  117TMC2    H5 1797   4.511   3.741  13.860  0.0656 -0.7929 -0.1126
  118MPD2     C 1798   3.980   3.899  13.327  0.3036  0.1908  0.3399
  118MPD2    C1 1799   4.076   3.929  13.425  0.2021  0.5079  0.1192
  118MPD2    C2 1800   4.094   4.065  13.471 -0.5492 -0.4489  0.2510
  118MPD2    C3 1801   4.037   4.171  13.400 -0.6636 -0.3002 -0.2584
  118MPD2    C4 1802   3.955   4.140  13.294 -0.1341  0.3115 -0.1696
  118MPD2    C5 1803   3.926   4.008  13.260  0.5814 -0.0436  0.6855
  118MPD2     H 1804   4.142   4.083  13.567 -0.3081 -0.9235  0.2197
  118MPD2    H1 1805   3.901   4.215  13.237  0.0547  1.2127  0.8326
  118MPD2    H2 1806   3.949   3.799  13.298  1.6568  0.2592 -1.3164
  118MPD2    H3 1807   3.849   3.981  13.189  2.1178 -1.5040 -0.4346
  118MPD2     N 1808   4.060   4.310  13.434 -0.0697  0.0936 -0.3329
  118MPD2    H5 1809   4.004   4.377  13.382 -0.3458  0.1716  0.0689
  118MPD2    N1 1810   4.136   3.825  13.489  0.6337  0.2607  0.3546
  118MPD2    H7 1811   4.101   3.731  13.471  0.6810  0.4106 -0.4926
  119MPD2     C 1812   2.042   4.671  13.560  0.5258  0.2624  0.1183
  119MPD2    C1 1813   1.914   4.688  13.613 -0.8781 -0.1700  1.0894
  119MPD2    C2 1814   1.816   4.689  13.517 -0.2864  0.7295  0.3838
  119MPD2    C3 1815   1.832   4.677  13.379 -0.0723 -0.3998 -0.5989
  119MPD2    C4 1816   1.964   4.652  13.337 -0.3556  0.2863  0.4370
  119MPD2    C5 1817   2.070   4.647  13.425 -0.4300  0.0578  0.5327
  119MPD2     H 1818   1.716   4.713  13.552 -0.4154 -0.9676  1.1454
  119MPD2    H1 1819   1.984   4.647  13.231 -0.4769  0.5699  0.4000
  119MPD2    H2 1820   2.135   4.680  13.616  0.1421 -0.7843  0.9171
  119MPD2    H3 1821   2.171   4.658  13.387 -0.4376  0.3593  0.5986
  119MPD2     N 1822   1.721   4.653  13.287  0.0880 -0.2075  0.0388
  119MPD2    H5 1823   1.749   4.654  13.189 -0.8850  0.8513 -0.2278
  119MPD2    N1 1824   1.896   4.713  13.749 -0.0083  0.5255 -0.0353
  119MPD2    H7 1825   1.977   0.005  13.808  0.3398 -0.7675 -0.1708
  120TCq2    C1 1826   1.588   4.643  13.320 -0.4038  0.0599  0.0872
  120TCq2    O2 1827   1.542   4.594  13.420  0.3711  0.6227 -0.9048
  120TCq2    C2 1828   1.505   4.623  13.200 -0.7843 -0.7368 -0.0409
  120TCq2    C3 1829   1.542   4.651  13.071  0.6747 -0.2310 -0.2560
  120TCq2    C4 1830   1.450   4.632  12.975  0.5475  0.4168  0.3346
  120TCq2    C5 1831   1.324   4.574  13.001  0.2781 -0.4180  0.1647
  120TCq2    C6 1832   1.297   4.537  13.127 -0.2474 -0.1107  0.2467
  120TCq2    C7 1833   1.386   4.564  13.228 -0.5580  0.3698  0.3566
  120TCq2    C8 1834   1.202   4.430  13.150  0.3676  0.0818 -0.2172
  120TCq2    O4 1835   1.130   4.402  13.056  0.5002 -0.2460 -0.4633
  120TCq2    C9 1836   1.475   4.683  12.845 -0.0609  0.1168 -0.0470
  120TCq2    O5 1837   1.375   4.697  12.772 -0.1982 -0.5653 -0.3004
  120TCq2    O6 1838   1.589   4.721  12.811  0.5584  0.3699  0.2846
  120TCq2    H2 1839   1.632   4.699  13.033  0.6528  1.4782  1.8989
  120TCq2    H3 1840   1.255   4.560  12.918  0.1872  0.9150  0.0153
  120TCq2    H4 1841   1.358   4.522  13.323  0.9853  0.3945  0.8292
  121TMC2    C1 1842   3.112   1.168  13.387  0.3521 -0.1745 -0.3408
  121TMC2    C2 1843   3.187   1.067  13.432  0.2456 -0.4440  1.0900
  121TMC2    C3 1844   3.126   0.942  13.444  0.0308 -0.3857 -0.2169
  121TMC2    C4 1845   2.977   1.155  13.378 -0.7582 -0.0869  0.0768
  121TMC2    C5 1846   2.920   1.035  13.404  0.2245 -0.8370 -0.4837
  121TMC2    C6 1847   2.992   0.922  13.437 -0.0283 -0.3590  0.7976
  121TMC2     C 1848   3.177   1.295  13.372  0.3244  0.5267 -0.9092
  121TMC2     O 1849   3.266   1.316  13.455  0.1015 -0.2880 -0.0437
  121TMC2     H 1850   3.293   1.070  13.455  0.2383 -0.0254  1.0657
  121TMC2    H1 1851   2.917   1.241  13.350 -0.8428 -0.2642 -0.2840
  121TMC2    H2 1852   2.944   0.828  13.460 -0.1656 -0.6393 -0.6708
  121TMC2    C7 1853   2.775   1.024  13.416 -0.7726 -0.1566  0.3623
  121TMC2    C8 1854   3.217   0.832  13.439 -0.2131  0.1970  0.0945
  121TMC2    O1 1855   2.729   0.916  13.451  0.1069 -0.0517 -0.2295
  121TMC2    O2 1856   3.333   0.837  13.478 -0.8464 -0.6614  0.2106
  121TMC2    O5 1857   3.163   0.739  13.364  0.3614  0.6162  0.0657
  121TMC2    H5 1858   3.075   0.756  13.323 -0.5695 -3.7019  0.2358
  122MPD2     C 1859   3.235   1.577  13.333 -0.4042  0.0023 -1.0989
  122MPD2    C1 1860   3.181   1.502  13.237  0.2101 -0.3414  0.1362
  122MPD2    C2 1861   3.156   1.551  13.110  0.0073 -0.3992 -0.1129
  122MPD2    C3 1862   3.193   1.685  13.081  0.1728 -0.1698 -0.5045
  122MPD2    C4 1863   3.245   1.760  13.187 -0.5942 -0.2355 -0.9058
  122MPD2    C5 1864   3.257   1.711  13.312  0.2697 -0.3783 -0.4107
  122MPD2     H 1865   3.113   1.483  13.037  3.1119 -1.5902 -0.8141
  122MPD2    H1 1866   3.282   1.857  13.158  0.8648 -0.4318  0.2612
  122MPD2    H2 1867   3.260   1.543  13.433 -3.2922  1.0544 -0.0323
  122MPD2    H3 1868   3.314   1.775  13.379  0.3162  0.1620 -0.9637
  122MPD2     N 1869   3.192   1.744  12.954  0.2003  0.5650  0.4619
  122MPD2    H5 1870   3.226   1.840  12.949  0.7317  0.3582  0.1577
  122MPD2    N1 1871   3.132   1.368  13.260 -0.1274  0.0452 -0.4113
  122MPD2    H7 1872   3.063   1.331  13.196 -0.7412  0.7863 -0.1731
  123MPD2     C 1873   1.160   4.530  10.664  0.1325 -0.0017 -0.4242
  123MPD2    C1 1874   1.141   4.505  10.535  1.1463 -0.1711 -0.1363
  123MPD2    C2 1875   1.208   4.588  10.445 -0.0258 -0.0641 -0.4502
  123MPD2    C3 1876   1.270   4.703  10.493  0.0931  0.4251 -0.3911
  123MPD2    C4 1877   1.285   0.005  10.624  1.1252 -0.1600  0.5138
  123MPD2    C5 1878   1.242   4.633  10.707 -0.1798 -0.1350 -0.2693
  123MPD2     H 1879   1.229   4.567  10.341  0.3368 -1.1553 -0.1584
  123MPD2    H1 1880   1.335   0.088  10.671 -2.3946  0.6568  2.8444
  123MPD2    H2 1881   1.110   4.482  10.747 -0.9350  0.3811 -0.8583
  123MPD2    H3 1882   1.259   4.636  10.814  0.6988 -0.1470 -0.4100
  123MPD2     N 1883   1.302   0.082  10.402  0.5202 -0.1160  0.1882
  123MPD2    H5 1884   1.276   0.052  10.308  2.5869  3.0437 -1.3718
  123MPD2    N1 1885   1.074   4.390  10.497 -0.1555 -0.7033 -0.0680
  123MPD2    H7 1886   1.034   4.334  10.572  0.2108 -2.7043 -1.3441
  124TCq2    C1 1887   1.355   0.204  10.426  0.8105 -0.2156 -0.5693
  124TCq2    O2 1888   1.397   0.256  10.533  0.0137  0.7794  0.5970
  124TCq2    C2 1889   1.371   0.278  10.298  0.1494  1.5139 -0.1554
  124TCq2    C3 1890   1.404   0.413  10.309 -0.9330  0.0855 -0.1380
  124TCq2    C4 1891   1.397   0.490  10.199 -0.3980  0.8539  1.2516
  124TCq2    C5 1892   1.368   0.441  10.078 -0.5135  0.3854 -0.3249
  124TCq2    C6 1893   1.332   0.312  10.069 -0.2506 -0.0424 -0.2865
  124TCq2    C7 1894   1.321   0.229  10.178  0.0096  0.5994  0.1336
  124TCq2    C8 1895   1.294   0.250   9.941 -0.0356 -0.6745  0.0496
  124TCq2    O4 1896   1.228   0.147   9.949  0.1867 -0.6787  0.0638
  124TCq2    C9 1897   1.436   0.628  10.206 -0.1238 -0.6953 -0.3926
  124TCq2    O5 1898   1.460   0.685  10.098  0.1097 -0.0490 -0.0808
  124TCq2    O6 1899   1.488   0.671  10.315 -0.1484 -0.1490  0.0566
  124TCq2    H2 1900   1.439   0.449  10.406  2.7483 -3.3185 -0.1750
  124TCq2    H3 1901   1.371   0.509   9.994  0.4423  2.8408  1.6891
  124TCq2    H4 1902   1.282   0.129  10.163  5.1418 -1.6969  1.9787
  125TMC2    C1 1903   2.128   2.117   9.225 -0.9316  0.3482 -0.2354
  125TMC2    C2 1904   2.108   2.095   9.091  0.1702  0.0385  0.1559
  125TMC2    C3 1905   2.210   2.119   9.002  0.2744  0.0607  0.5199
  125TMC2    C4 1906   2.250   2.152   9.274  0.0554 -0.2454  0.2054
  125TMC2    C5 1907   2.356   2.160   9.185 -0.1142  0.0676  0.2886
  125TMC2    C6 1908   2.334   2.154   9.046  0.3008 -0.6768  0.4895
  125TMC2     C 1909   2.053   2.024   9.307 -0.3108  0.5600  0.1457
  125TMC2     O 1910   1.936   2.022   9.274  0.2812 -1.3696 -0.4313
  125TMC2     H 1911   2.009   2.073   9.053  1.1851 -2.1974 -1.1833
  125TMC2    H1 1912   2.253   2.178   9.379  2.4369  2.5787 -0.5477
  125TMC2    H2 1913   2.408   2.183   8.972  2.3734 -1.7145  2.1635
  125TMC2    C7 1914   2.486   2.191   9.241  0.4537  0.8962 -0.2380
  125TMC2    C8 1915   2.192   2.102   8.862 -0.3832  0.0796 -0.4998
  125TMC2    O1 1916   2.479   2.225   9.362 -1.0603 -0.4458  0.2812
  125TMC2    O2 1917   2.112   2.160   8.788 -0.2013 -0.3513  0.3106
  125TMC2    O5 1918   2.309   2.038   8.825  0.8079  0.3973  0.3905
  125TMC2    H5 1919   2.350   1.993   8.902  0.7715  1.8980  1.2823
  126MPD1     C 1920   2.015   1.596   9.596  0.5620 -0.2844  0.7379
  126MPD1    C1 1921   2.131   1.660   9.625  0.0780 -0.1771  0.5127
  126MPD1    C2 1922   2.160   1.772   9.552  0.1040  0.0214  0.7691
  126MPD1    C3 1923   2.077   1.831   9.459  0.2150 -0.0912  0.6303
  126MPD1    C4 1924   1.966   1.758   9.422 -0.4298 -0.1078 -0.4924
  126MPD1    C5 1925   1.943   1.638   9.484 -0.3339 -0.1576 -0.7657
  126MPD1     H 1926   2.262   1.804   9.571  0.2542  0.5715 -0.8936
  126MPD1    H1 1927   1.902   1.779   9.337  1.1812 -0.8776 -1.8958
  126MPD1    H2 1928   1.989   1.498   9.633  0.6275 -0.5696  0.0304
  126MPD1    H3 1929   1.863   1.574   9.447  0.5484 -1.4452 -0.4526
  126MPD1     N 1930   2.126   1.948   9.393 -0.1969 -0.6062  0.3185
  126MPD1    H5 1931   2.224   1.971   9.407  0.0240 -0.9973 -0.5912
  126MPD1    N1 1932   2.229   1.602   9.707  0.0886  0.5505  0.3833
  126MPD1    H6 1933   2.293   1.675   9.735 -0.3028  0.7805  0.6757
  126MPD1    H7 1934   2.189   1.558   9.790 -2.3051  0.4753 -0.7995
  127MPD2     C 1935   3.292   0.610   9.001  0.6191  0.2492  0.2492
  127MPD2    C1 1936   3.329   0.623   9.133 -0.2372 -0.0553 -0.3325
  127MPD2    C2 1937   3.441   0.700   9.159 -0.2096  0.9645  0.0436
  127MPD2    C3 1938   3.516   0.746   9.048 -0.4107 -0.2012 -0.6548
  127MPD2    C4 1939   3.482   0.718   8.917  0.2615  0.5981 -0.5229
  127MPD2    C5 1940   3.367   0.657   8.900  0.0333  0.5832 -0.2595
  127MPD2     H 1941   3.472   0.724   9.260 -0.1139 -0.0957  0.2592
  127MPD2    H1 1942   3.527   0.757   8.827  0.2871 -0.9781 -1.2050
  127MPD2    H2 1943   3.201   0.565   8.964  1.6838 -0.1502 -1.9307
  127MPD2    H3 1944   3.320   0.640   8.804  1.2014 -1.1711 -0.5276
  127MPD2     N 1945   3.638   0.805   9.076  0.0085  0.1295  0.2022
  127MPD2    H5 1946   3.651   0.832   9.173 -0.0347 -0.6555  0.4228
  127MPD2    N1 1947   3.235   0.575   9.228  0.2969 -0.2738  0.2852
  127MPD2    H7 1948   3.163   0.514   9.189  2.1482 -1.4770 -1.2285
  128TCq2    C1 1949   3.262   0.569   9.367  0.2383  0.2709 -0.2596
  128TCq2    O2 1950   3.367   0.598   9.421 -0.5345  0.4048  0.2408
  128TCq2    C2 1951   3.146   0.526   9.446 -0.0854 -0.3394 -0.3279
  128TCq2    C3 1952   3.170   0.526   9.580 -0.0012 -0.1728  0.6232
  128TCq2    C4 1953   3.065   0.517   9.667  0.2284  0.1667 -0.1568
  128TCq2    C5 1954   2.945   0.496   9.622 -0.1150  0.8222  0.0152
  128TCq2    C6 1955   2.915   0.508   9.485  0.0090 -0.4626  0.1463
  128TCq2    C7 1956   3.017   0.537   9.399  0.5741 -0.1932  0.9214
  128TCq2    C8 1957   2.804   0.433   9.432 -0.2071 -0.4275  0.0660
  128TCq2    O4 1958   2.759   0.471   9.324 -0.6163 -0.4424  0.4210
  128TCq2    C9 1959   3.089   0.517   9.815  0.5019 -0.1870 -0.3188
  128TCq2    O5 1960   2.985   0.487   9.885 -0.0007 -0.5114 -0.2969
  128TCq2    O6 1961   3.201   0.562   9.857 -0.0957  0.2901  0.0351
  128TCq2    H2 1962   3.268   0.548   9.622 -1.1129  0.9073  2.5873
  128TCq2    H3 1963   2.869   0.475   9.697 -1.2005  5.0445  0.0702
  128TCq2    H4 1964   2.992   0.534   9.294  2.7329 -2.4820  0.4950
  129MPD2     C 1965   0.755   2.158   0.846 -0.0173 -0.3053  0.4518
  129MPD2    C1 1966   0.836   2.233   0.927  0.0144 -0.2155  0.1391
  129MPD2    C2 1967   0.935   2.314   0.865 -0.3017  0.0598  0.0624
  129MPD2    C3 1968   0.973   2.289   0.734  0.6786 -0.5124  0.6972
  129MPD2    C4 1969   0.902   2.202   0.659  0.0064  1.0473  0.3674
  129MPD2    C5 1970   0.793   2.139   0.714 -0.3942 -0.3035  0.3865
  129MPD2     H 1971   1.000   2.373   0.929 -0.4320  2.3210 -1.8989
  129MPD2    H1 1972   0.921   2.175   0.555  4.2863  0.1934  1.3498
  129MPD2    H2 1973   0.663   2.111   0.876 -0.6191  1.4876  1.4320
  129MPD2    H3 1974   0.732   2.080   0.646  0.4914 -1.2696  0.4225
  129MPD2     N 1975   1.086   2.352   0.692  0.4166 -0.4565  0.3030
  129MPD2    H5 1976   1.129   2.419   0.755 -1.5829  1.5475 -0.4606
  129MPD2    N1 1977   0.816   2.242   1.067 -0.7937  0.4262 -0.3105
  129MPD2    H7 1978   0.881   2.300   1.119  1.3711  0.6559 -3.2495
  130TCq2    C1 1979   0.720   2.166   1.127  0.0839 -0.1651  0.2633
  130TCq2    O2 1980   0.651   2.073   1.082 -0.0081  0.8648 -0.3742
  130TCq2    C2 1981   0.715   2.177   1.272  0.1145  0.2761  0.6606
  130TCq2    C3 1982   0.793   2.277   1.329  0.8782  0.4183 -0.5824
  130TCq2    C4 1983   0.827   2.265   1.456 -0.0157 -0.4739  0.6822
  130TCq2    C5 1984   0.781   2.160   1.529  0.3815  0.2645  0.2537
  130TCq2    C6 1985   0.699   2.067   1.472  0.2386 -0.0998  0.2068
  130TCq2    C7 1986   0.668   2.066   1.340  0.2044 -0.1934 -0.1843
  130TCq2    C8 1987   0.655   1.952   1.544 -0.1244 -0.4600  0.8939
  130TCq2    O4 1988   0.588   1.869   1.488  0.0190 -0.1869  0.0920
  130TCq2    C9 1989   0.932   2.355   1.513 -0.6936 -0.4692 -0.4815
  130TCq2    O5 1990   0.977   2.321   1.627  0.3000 -0.1867  0.0017
  130TCq2    O6 1991   0.962   2.458   1.446  0.2503 -0.0255  0.1476
  130TCq2    H2 1992   0.827   2.366   1.277  1.1435  1.3387  1.1686
  130TCq2    H3 1993   0.818   2.151   1.631 -1.5430  2.7034  1.1758
  130TCq2    H4 1994   0.599   1.999   1.290 -0.5593  1.0474 -0.7934
  131MPD2     C 1995   0.484   4.333   9.715 -0.2863  0.1444  0.0150
  131MPD2    C1 1996   0.589   4.412   9.742 -0.4512  0.2793 -0.3344
  131MPD2    C2 1997   0.666   4.367   9.852  0.3410  0.8593  0.4095
  131MPD2    C3 1998   0.649   4.243   9.910  0.1888  0.0824 -0.0902
  131MPD2    C4 1999   0.548   4.159   9.867  0.3384 -0.7911  0.1561
  131MPD2    C5 2000   0.456   4.212   9.784 -0.7543  0.1729 -0.1404
  131MPD2     H 2001   0.742   4.428   9.899 -0.8176  0.4291  2.8538
  131MPD2    H1 2002   0.525   4.065   9.917  1.2156 -0.0520  1.9671
  131MPD2    H2 2003   0.411   4.357   9.638 -2.7799 -0.2223  2.2798
  131MPD2    H3 2004   0.372   4.148   9.758 -0.9646  0.8461 -1.1399
  131MPD2     N 2005   0.739   4.215  10.018 -1.1062  0.7029  0.0114
  131MPD2    H5 2006   0.804   4.290  10.040 -0.0683 -0.5093  1.0900
  131MPD2    N1 2007   0.619   4.529   9.664 -0.7430 -0.2404  0.4168
  131MPD2    H7 2008   0.545   4.558   9.601  1.5920 -2.3532 -3.2762
  132TCq2    C1 2009   0.905   0.319   9.683  0.1607  0.7156  0.8655
  132TCq2    O2 2010   0.900   0.298   9.803 -0.3490  0.0602  0.4436
  132TCq2    C2 2011   0.812   0.217   9.617  0.4173 -0.6280  0.1012
  132TCq2    C3 2012   0.752   0.236   9.498 -0.5265 -0.2993  0.0913
  132TCq2    C4 2013   0.674   0.136   9.443 -0.1782  0.0570  0.1146
  132TCq2    C5 2014   0.652   0.023   9.511 -0.5759  0.5185 -0.0713
  132TCq2    C6 2015   0.735   4.719   9.613  0.3833  0.0551 -0.3330
  132TCq2    C7 2016   0.816   0.092   9.663  0.4481 -0.1030 -0.1728
  132TCq2    C8 2017   0.738   4.591   9.676  1.2167  0.2037  0.7093
  132TCq2    O4 2018   0.834   4.564   9.743 -0.0176 -0.1974  0.5134
  132TCq2    C9 2019   0.594   0.162   9.323 -0.2116 -0.2044 -0.3535
  132TCq2    O5 2020   0.489   0.099   9.306  0.0088  0.0703  0.1226
  132TCq2    O6 2021   0.640   0.243   9.244  0.6752 -0.3487  0.6743
  132TCq2    H2 2022   0.768   0.333   9.451 -1.6974 -0.3073 -0.3328
  132TCq2    H3 2023   0.581   4.677   9.469 -1.1346  1.5103 -0.7638
  132TCq2    H4 2024   0.866   0.072   9.757 -0.1470  0.8781  0.3559
  133MPD2     C 2025   4.652   1.404   8.934  0.4828 -0.0137  0.8695
  133MPD2    C1 2026   0.013   1.363   9.036 -0.1186 -0.9052  0.6057
  133MPD2    C2 2027   0.005   1.230   9.078  1.0091  0.6406  0.2268
  133MPD2    C3 2028   4.615   1.152   9.037 -0.5196 -0.4913  0.5421
  133MPD2    C4 2029   4.530   1.197   8.940 -0.1289 -0.1070 -0.2525
  133MPD2    C5 2030   4.555   1.321   8.885  0.2562 -0.0869 -0.3775
  133MPD2     H 2031   0.079   1.186   9.144  1.2940 -0.3660 -0.7691
  133MPD2    H1 2032   4.443   1.145   8.902 -0.0608 -1.7726  1.8912
  133MPD2    H2 2033   4.655   1.505   8.894  1.0264 -0.0152  0.9055
  133MPD2    H3 2034   4.482   1.355   8.814  0.0760  0.3216  0.0034
  133MPD2     N 2035   4.581   1.030   9.094  0.5481  0.0023  0.2709
  133MPD2    H5 2036   4.487   0.997   9.078  0.7179  1.0605 -3.0943
  133MPD2    N1 2037   0.109   1.457   9.082 -0.4568  0.3022  0.7080
  133MPD2    H7 2038   0.090   1.552   9.052  1.8577 -0.3671 -2.9038
  134TCq2    C1 2039   0.216   1.431   9.167  0.0372  0.3049 -0.1941
  134TCq2    O2 2040   0.261   1.320   9.195 -0.2686  0.4868 -0.7513
  134TCq2    C2 2041   0.289   1.553   9.196  0.3242 -0.8907  0.2864
  134TCq2    C3 2042   0.422   1.542   9.222  0.1037  0.2285 -0.0931
  134TCq2    C4 2043   0.489   1.658   9.245  0.3757  0.7548  0.2321
  134TCq2    C5 2044   0.433   1.783   9.224  0.1591 -0.7467 -0.2751
  134TCq2    C6 2045   0.296   1.784   9.212  0.7362 -0.5406 -0.9250
  134TCq2    C7 2046   0.226   1.670   9.196  0.1660 -0.5074  0.2903
  134TCq2    C8 2047   0.220   1.909   9.216  0.0340 -0.0345  0.1081
  134TCq2    O4 2048   0.113   1.919   9.153 -0.6594  0.1535 -0.3571
  134TCq2    C9 2049   0.632   1.645   9.280 -0.0743 -0.2007  0.0260
  134TCq2    O5 2050   0.658   1.543   9.347 -0.0816  0.1546 -0.3146
  134TCq2    O6 2051   0.715   1.737   9.258  0.6181 -0.0479 -0.0729
  134TCq2    H2 2052   0.466   1.444   9.238  2.0748  0.8608 -1.6435
  134TCq2    H3 2053   0.499   1.868   9.244 -1.8578  0.7986 -0.2116
  134TCq2    H4 2054   0.118   1.671   9.186  0.1540  1.9915  0.6903
  135MPD2     C 2055   2.279   2.459   8.849  0.5749  0.2012 -0.3119
  135MPD2    C1 2056   2.311   2.476   8.981  1.0736  0.5015  0.0472
  135MPD2    C2 2057   2.446   2.478   9.014  0.7097 -0.1876 -0.4257
  135MPD2    C3 2058   2.542   2.484   8.917  0.0040  0.4364  0.3080
  135MPD2    C4 2059   2.510   2.458   8.789 -0.0941  0.6540 -0.3380
  135MPD2    C5 2060   2.377   2.440   8.757  0.3143 -0.1160 -0.2279
  135MPD2     H 2061   2.470   2.487   9.119 -0.4112 -0.0705 -0.1801
  135MPD2    H1 2062   2.587   2.448   8.713 -0.6306 -0.8182 -0.7031
  135MPD2    H2 2063   2.179   2.447   8.809  0.2132  0.4290  0.5241
  135MPD2    H3 2064   2.359   2.418   8.652 -0.5056  1.9884 -0.5325
  135MPD2     N 2065   2.677   2.499   8.955  0.0714 -0.0705 -0.3445
  135MPD2    H5 2066   2.754   2.490   8.890  0.2005 -0.5021 -0.1376
  135MPD2    N1 2067   2.219   2.484   9.086 -0.1342  0.5086 -0.1453
  135MPD2    H7 2068   2.259   2.485   9.180 -0.6674  0.3365  0.0867
  136TCq2    C1 2069   2.083   2.484   9.064 -0.2078  0.4157 -0.1787
  136TCq2    O2 2070   2.024   2.476   8.954  0.3078  0.1800 -0.2024
  136TCq2    C2 2071   1.999   2.474   9.182  0.3884  0.1998 -0.0527
  136TCq2    C3 2072   1.878   2.414   9.158 -0.2942 -0.4172  0.3312
  136TCq2    C4 2073   1.808   2.364   9.267  0.2223 -0.4962 -0.0070
  136TCq2    C5 2074   1.855   2.378   9.398  0.8811 -0.6715  0.0269
  136TCq2    C6 2075   1.978   2.430   9.417  0.1624  0.4165 -0.1840
  136TCq2    C7 2076   2.042   2.497   9.315 -0.0276 -0.4568  0.2769
  136TCq2    C8 2077   2.062   2.385   9.523 -0.3358 -0.1995  0.6603
  136TCq2    O4 2078   2.175   2.434   9.534  0.2016 -0.6538 -0.1129
  136TCq2    C9 2079   1.686   2.292   9.243  0.7700 -0.2495  0.6911
  136TCq2    O5 2080   1.648   2.277   9.124 -0.2442  0.1746  0.5254
  136TCq2    O6 2081   1.623   2.242   9.342 -0.2440 -0.0830  0.0666
  136TCq2    H2 2082   1.837   2.411   9.058 -2.1518  1.5807  1.0326
  136TCq2    H3 2083   1.787   2.335   9.471  1.0680 -1.2454 -0.1365
  136TCq2    H4 2084   2.121   2.571   9.328 -0.2901  0.1880 -1.8243
  137MPD2     C 2085   2.600   0.946   8.619  0.0907 -0.5532 -0.4944
  137MPD2    C1 2086   2.470   0.948   8.668  0.0312 -0.3377  0.0310
  137MPD2    C2 2087   2.451   0.966   8.802 -0.2429 -0.2801  0.3528
  137MPD2    C3 2088   2.561   0.996   8.884 -0.7698 -0.3386 -0.6771
  137MPD2    C4 2089   2.694   0.998   8.830  0.5378 -0.0304  0.4027
  137MPD2    C5 2090   2.706   0.969   8.695  0.2875  0.3394 -0.3193
  137MPD2     H 2091   2.355   0.961   8.851  0.1160 -1.6233  0.9128
  137MPD2    H1 2092   2.781   1.023   8.889  0.0950 -1.4956  1.6743
  137MPD2    H2 2093   2.608   0.934   8.511  0.8781  1.3406 -0.6472
  137MPD2    H3 2094   2.802   0.991   8.649  1.5052 -0.9383  1.6250
  137MPD2     N 2095   2.540   1.015   9.021  0.5787 -0.7063 -0.1678
  137MPD2    H5 2096   2.444   1.010   9.053  0.3443 -0.9427 -0.9150
  137MPD2    N1 2097   2.365   0.928   8.577  0.0059  0.0564 -0.1639
  137MPD2    H7 2098   2.394   0.902   8.483  1.2083  0.2022  0.1604
  138TCq2    C1 2099   2.232   0.930   8.606 -0.5296  0.2611  0.3213
  138TCq2    O2 2100   2.175   0.970   8.710  0.3728  0.0610  0.4573
  138TCq2    C2 2101   2.151   0.909   8.490 -0.0982  0.0761 -0.3873
  138TCq2    C3 2102   2.203   0.892   8.364  0.2251  0.1543  0.5798
  138TCq2    C4 2103   2.118   0.861   8.262 -0.8742 -0.1166 -0.6838
  138TCq2    C5 2104   1.983   0.848   8.279 -0.4637  0.4372 -0.5453
  138TCq2    C6 2105   1.928   0.869   8.406 -0.2966 -0.0612 -0.0586
  138TCq2    C7 2106   2.016   0.888   8.513 -0.5422  0.7465 -0.6029
  138TCq2    C8 2107   1.789   0.828   8.429  0.1891  0.4658  0.0032
  138TCq2    O4 2108   1.745   0.769   8.332  0.0585  0.1291 -0.4202
  138TCq2    C9 2109   2.183   0.845   8.134  0.1757 -0.4463 -0.3075
  138TCq2    O5 2110   2.106   0.811   8.041 -0.0276 -0.1418  0.2025
  138TCq2    O6 2111   2.302   0.886   8.122  0.5899 -0.3068 -0.9431
  138TCq2    H2 2112   2.304   0.917   8.336 -0.4183  0.6556 -1.3329
  138TCq2    H3 2113   1.923   0.812   8.197 -1.8696 -0.9483  1.0906
  138TCq2    H4 2114   1.975   0.895   8.613 -2.6423  2.1193 -1.5498
  139TMC2    C1 2115   3.439   3.860  13.473 -0.0977 -0.0945  0.2453
  139TMC2    C2 2116   3.492   3.903  13.590  0.3593  0.3516 -0.2061
  139TMC2    C3 2117   3.409   3.932  13.700  0.0024 -0.1861 -0.3399
  139TMC2    C4 2118   3.306   3.872  13.443  0.1171 -0.9514 -0.0793
  139TMC2    C5 2119   3.228   3.889  13.556 -0.8402  0.1940  1.0443
  139TMC2    C6 2120   3.273   3.924  13.680 -0.0911 -0.0255  0.3054
  139TMC2     C 2121   3.531   3.827  13.362  0.4694 -0.7610  0.0452
  139TMC2     O 2122   3.481   3.838  13.250 -0.2479 -0.2447  0.3108
  139TMC2     H 2123   3.599   3.921  13.594  0.5187 -0.6892  0.0753
  139TMC2    H1 2124   3.269   3.863  13.341  0.9672  2.4999 -0.6863
  139TMC2    H2 2125   3.199   3.948  13.755 -1.1311  0.7112 -0.9593
  139TMC2    C7 2126   3.097   3.943  13.520 -0.7953 -0.4838  0.6462
  139TMC2    C8 2127   3.475   3.945  13.831 -0.5201  0.0981 -0.2205
  139TMC2    O1 2128   3.070   4.052  13.567  0.2519 -0.3825 -0.3987
  139TMC2    O2 2129   3.597   3.939  13.838 -0.7371  0.0867  0.2905
  139TMC2    O5 2130   3.395   3.927  13.943  0.4750 -0.3677  0.2972
  139TMC2    H5 2131   3.301   3.954  13.944  0.3870 -0.6368 -0.6518
  140MPD2     C 2132   3.811   3.579  13.367 -0.3052  0.2212 -1.2426
  140MPD2    C1 2133   3.722   3.671  13.313 -0.1752 -0.1129  0.3092
  140MPD2    C2 2134   3.723   3.691  13.175  0.3979  0.1708  0.9986
  140MPD2    C3 2135   3.791   3.607  13.086  0.1924  0.6459  0.3608
  140MPD2    C4 2136   3.871   3.509  13.141 -0.4272  0.2609 -0.1416
  140MPD2    C5 2137   3.876   3.503  13.281 -0.2782  0.2051  0.1553
  140MPD2     H 2138   3.661   3.765  13.126  2.1736  0.6973 -0.4071
  140MPD2    H1 2139   3.923   3.426  13.094 -1.3306 -0.5438  0.2866
  140MPD2    H2 2140   3.824   3.559  13.473 -1.4322  2.6239 -0.6607
  140MPD2    H3 2141   3.947   3.434  13.326 -1.5004  0.6985  2.8390
  140MPD2     N 2142   3.761   3.621  12.949  1.0945 -0.9257 -0.1523
  140MPD2    H5 2143   3.711   3.706  12.923  2.4474 -0.2938 -0.7105
  140MPD2    N1 2144   3.641   3.752  13.399 -0.3301  0.5025  0.5221
  140MPD2    H7 2145   3.656   3.735  13.498 -0.0481  0.3045  0.4450
  141TCq2    C1 2146   3.738   1.080  13.808 -0.1694  0.0723  0.4729
  141TCq2    O2 2147   3.648   1.132  13.741  0.1863  0.1802  0.8184
  141TCq2    C2 2148   3.768   1.132  13.936 -0.6306 -0.7156 -1.2541
  141TCq2    C3 2149   3.821   1.062  14.039 -0.1909  0.3463  0.1450
  141TCq2    C4 2150   3.887   1.124  14.141 -0.1153 -0.8490  0.0511
  141TCq2    C5 2151   3.913   1.254  14.139 -0.7385 -0.5594  0.4892
  141TCq2    C6 2152   3.862   1.332  14.027 -0.0754  0.2002 -0.1810
  141TCq2    C7 2153   3.791   1.271  13.930 -0.5872 -0.2103  0.1553
  141TCq2    C8 2154   3.844   1.475  14.049 -0.2634  0.1583 -0.1147
  141TCq2    O4 2155   3.762   1.525  13.976  0.0200 -0.3760  0.9773
  141TCq2    C9 2156   3.941   1.041  14.245  0.4556 -0.1376  0.0154
  141TCq2    O5 2157   4.018   1.092  14.332  0.3788  0.9926  0.3613
  141TCq2    O6 2158   3.903   0.923  14.248 -0.2410  0.4856  0.3069
  141TCq2    H2 2159   3.806   0.955  14.050 -0.7887  0.4380  0.2388
  141TCq2    H3 2160   3.966   1.294  14.224 -0.5705  2.4601 -1.0351
  141TCq2    H4 2161   3.757   1.324  13.841  0.7403  2.2293  1.1118
  142MPD2     C 2162   0.995   3.834   9.933 -0.5604 -0.1371  0.0046
  142MPD2    C1 2163   0.914   3.826   9.818  0.4692  0.3235  0.7145
  142MPD2    C2 2164   0.908   3.931   9.730 -0.5836 -0.4182 -0.5937
  142MPD2    C3 2165   0.962   4.052   9.780 -0.5147 -0.3629  0.9114
  142MPD2    C4 2166   1.030   4.062   9.901 -0.1412 -0.2541  0.2067
  142MPD2    C5 2167   1.042   3.954   9.980 -0.1456  0.2892 -0.2810
  142MPD2     H 2168   0.854   3.924   9.637 -0.8379  0.1958 -0.4906
  142MPD2    H1 2169   1.063   4.159   9.937  0.5494  0.3470 -2.0089
  142MPD2    H2 2170   1.015   3.739   9.983  1.5168 -0.6325 -1.7709
  142MPD2    H3 2171   1.095   3.954  10.074  0.0596  0.2056 -0.3956
  142MPD2     N 2172   0.957   4.178   9.711 -0.1397 -0.2385 -0.0657
  142MPD2    H5 2173   1.000   4.260   9.753 -0.9971  0.3319 -0.2913
  142MPD2    N1 2174   0.857   3.703   9.791  0.2964 -0.0143  0.0099
  142MPD2    H7 2175   0.877   3.629   9.858  1.2998  0.9431  0.7616
  143TCq2    C1 2176   0.887   4.199   9.594 -0.2978 -0.2900  0.3280
  143TCq2    O2 2177   0.809   4.123   9.533  0.6372 -0.7139  0.6679
  143TCq2    C2 2178   0.921   4.326   9.531 -0.0330 -0.8704  0.1670
  143TCq2    C3 2179   0.839   4.367   9.430  0.4381  0.8199  0.3827
  143TCq2    C4 2180   0.859   4.487   9.369 -0.3685 -0.0195 -0.5866
  143TCq2    C5 2181   0.957   4.568   9.417  0.0996 -0.3271  0.2061
  143TCq2    C6 2182   1.050   4.523   9.501 -0.4973  0.4586  0.2228
  143TCq2    C7 2183   1.029   4.397   9.565  0.6410 -0.0835  0.5060
  143TCq2    C8 2184   1.134   4.622   9.570  0.9510  0.6141  0.3313
  143TCq2    O4 2185   1.155   4.602   9.689  0.5448  0.0264 -0.0276
  143TCq2    C9 2186   0.798   4.524   9.246  0.3400 -0.2030  0.5517
  143TCq2    O5 2187   0.704   4.449   9.204 -0.2230  0.2229  0.1085
  143TCq2    O6 2188   0.855   4.612   9.175 -0.0817 -0.8556 -0.4653
  143TCq2    H2 2189   0.762   4.301   9.392 -0.1670  1.6201  0.2363
  143TCq2    H3 2190   0.969   4.672   9.388  1.5914 -0.6684 -0.4352
  143TCq2    H4 2191   1.097   4.360   9.641  1.1900  2.1880  1.1098
  144MPD2     C 2192   3.597   3.382   0.711 -0.1496 -0.5128 -0.8081
  144MPD2    C1 2193   3.666   3.293   0.632 -0.4648  0.2154  0.5621
  144MPD2    C2 2194   3.794   3.267   0.670  0.1803  0.1270 -0.2021
  144MPD2    C3 2195   3.846   3.333   0.780  0.0717  0.2171  0.8047
  144MPD2    C4 2196   3.772   3.418   0.864  0.4380  0.1127 -0.7058
  144MPD2    C5 2197   3.649   3.450   0.815 -0.3425 -0.1312 -0.2470
  144MPD2     H 2198   3.863   3.206   0.613 -0.6353 -0.9261 -0.0605
  144MPD2    H1 2199   3.818   3.469   0.947 -4.6501 -0.9107  2.7339
  144MPD2    H2 2200   3.496   3.414   0.686 -0.0429  0.6051  0.1887
  144MPD2    H3 2201   3.589   3.523   0.869 -0.5918  0.6354 -1.5550
  144MPD2     N 2202   3.984   3.313   0.819 -0.2379 -0.1025 -0.0085
  144MPD2    H5 2203   4.019   3.368   0.897 -1.0442  1.8257 -1.0000
  144MPD2    N1 2204   3.614   3.236   0.513  0.4615 -0.3512  0.3987
  144MPD2    H7 2205   3.678   3.169   0.470 -1.0251 -1.6301  0.2021
  145TCq2    C1 2206   4.079   3.228   0.761  0.1090 -0.0356  0.2419
  145TCq2    O2 2207   4.068   3.137   0.683 -0.0902  0.8282 -0.7805
  145TCq2    C2 2208   4.206   3.225   0.823 -0.4347 -0.0517  0.6810
  145TCq2    C3 2209   4.300   3.132   0.791  0.1720  0.4558 -0.2633
  145TCq2    C4 2210   4.431   3.153   0.826 -0.2160 -0.3442  0.7576
  145TCq2    C5 2211   4.472   3.279   0.867  0.4599  0.4259  0.6304
  145TCq2    C6 2212   4.381   3.376   0.874 -0.3741 -0.5613  0.7324
  145TCq2    C7 2213   4.248   3.352   0.857 -0.5875 -0.3631  0.0274
  145TCq2    C8 2214   4.431   3.498   0.940  0.3405  0.3525  0.2522
  145TCq2    O4 2215   4.552   3.502   0.961 -0.0990 -0.0044 -0.8157
  145TCq2    C9 2216   4.528   3.043   0.813  0.5174  1.1389  0.0343
  145TCq2    O5 2217   4.649   3.063   0.841  0.8320 -0.0972  0.0257
  145TCq2    O6 2218   4.484   2.929   0.776 -0.0912  0.0806  0.5988
  145TCq2    H2 2219   4.279   3.032   0.753 -2.3197  2.3638 -3.8450
  145TCq2    H3 2220   4.576   3.292   0.897  0.5374  1.2808 -0.0077
  145TCq2    H4 2221   4.185   3.441   0.855  0.0170  0.0930  0.9963
  146TMC2    C1 2222   0.059   1.768  12.414 -0.4209 -0.4117  0.4678
  146TMC2    C2 2223   4.654   1.747  12.379 -0.8691 -1.1593 -0.1541
  146TMC2    C3 2224   4.631   1.688  12.261 -0.1804 -0.2045  0.0388
  146TMC2    C4 2225   0.163   1.736  12.333 -0.4885 -0.0347 -0.3171
  146TMC2    C5 2226   0.135   1.669  12.217 -0.3547 -0.3751  0.6471
  146TMC2    C6 2227   0.008   1.651  12.180 -0.4163 -0.2406 -0.2351
  146TMC2     C 2228   0.093   1.816  12.542 -0.3373 -0.0251  0.7150
  146TMC2     O 2229   0.037   1.917  12.580 -0.2157  0.0727 -0.1347
  146TMC2     H 2230   4.575   1.758  12.453 -1.3218  1.2074 -0.9875
  146TMC2    H1 2231   0.262   1.745  12.376 -0.3959  0.2060 -0.5797
  146TMC2    H2 2232   4.721   1.623  12.075 -0.6379 -1.2385  0.0594
  146TMC2    C7 2233   0.239   1.593  12.153  0.3327 -0.4007  0.0135
  146TMC2    C8 2234   4.497   1.677  12.208 -0.0043 -0.0882 -0.1071
  146TMC2    O1 2235   0.209   1.531  12.049 -0.3010 -0.2727  0.5581
  146TMC2    O2 2236   4.455   1.587  12.131 -0.3275 -0.2350  0.3707
  146TMC2    O5 2237   4.472   1.807  12.198 -0.1057 -0.3804  0.3761
  146TMC2    H5 2238   4.541   1.867  12.233 -1.5242 -0.2570  2.9535
  147MPD2     C 2239   0.729   1.433  12.158 -0.2679 -0.1402 -0.3341
  147MPD2    C1 2240   0.691   1.474  12.283  0.2672  0.3259  0.1754
  147MPD2    C2 2241   0.565   1.523  12.303  1.0053  0.6567 -0.0110
  147MPD2    C3 2242   0.475   1.524  12.201  0.2624 -0.0276 -0.1647
  147MPD2    C4 2243   0.504   1.474  12.075 -0.2522 -0.5539  0.0510
  147MPD2    C5 2244   0.634   1.430  12.059 -0.4140  0.2221 -0.2733
  147MPD2     H 2245   0.542   1.549  12.405 -1.2037 -0.4443 -0.2288
  147MPD2    H1 2246   0.434   1.468  11.993  0.1956 -1.7824 -0.2420
  147MPD2    H2 2247   0.828   1.395  12.136 -0.7849 -1.9617  0.4834
  147MPD2    H3 2248   0.662   1.391  11.962  1.1054  1.1515 -0.2125
  147MPD2     N 2249   0.351   1.580  12.234 -0.4170 -0.4797 -0.0725
  147MPD2    H5 2250   0.353   1.633  12.320 -0.2631  2.7701 -2.0624
  147MPD2    N1 2251   0.789   1.478  12.391  0.4760  0.6644  0.1778
  147MPD2    H7 2252   0.879   1.434  12.377 -0.2673 -1.1727  1.1982
  148MPD2     C 2253   0.951   0.922  10.512 -0.0666 -0.3712 -0.5250
  148MPD2    C1 2254   0.940   0.789  10.553  0.4839 -0.0278 -0.3711
  148MPD2    C2 2255   0.866   0.704  10.476 -0.0936 -0.2042 -0.3329
  148MPD2    C3 2256   0.808   0.746  10.359  0.2093  0.8061 -0.8814
  148MPD2    C4 2257   0.833   0.872  10.309 -0.5212  0.0586  0.4230
  148MPD2    C5 2258   0.902   0.967  10.393  0.8612 -0.1105  0.2706
  148MPD2     H 2259   0.877   0.601  10.507  2.1644  0.6583  1.7623
  148MPD2    H1 2260   0.791   0.893  10.212 -1.0990 -0.8295  0.4754
  148MPD2    H2 2261   1.002   0.995  10.573  2.7459 -0.1572 -3.1436
  148MPD2    H3 2262   0.919   1.068  10.358  1.3047 -0.4691 -0.5365
  148MPD2     N 2263   0.737   0.656  10.280  0.1668  0.0120 -0.1932
  148MPD2    H5 2264   0.738   0.682  10.182 -0.6188 -2.0236 -0.7457
  148MPD2    N1 2265   1.015   0.737  10.662 -0.0577 -0.0037  0.5817
  148MPD2    H7 2266   1.020   0.636  10.671 -1.3252 -0.2213 -1.0622
  149TCq2    C1 2267   1.086   0.811  10.751 -0.3310 -0.8344 -0.6928
  149TCq2    O2 2268   1.096   0.932  10.767 -0.2727  0.5213  0.7781
  149TCq2    C2 2269   1.166   0.712  10.823 -0.5996  0.4526  0.1556
  149TCq2    C3 2270   1.290   0.767  10.799  0.4869  0.5827 -0.7806
  149TCq2    C4 2271   1.385   0.692  10.732 -0.0636 -0.9572 -0.7327
  149TCq2    C5 2272   1.349   0.565  10.678 -0.2325 -0.0970 -0.0704
  149TCq2    C6 2273   1.227   0.514  10.702 -0.2036 -0.2559 -0.5208
  149TCq2    C7 2274   1.143   0.586  10.779  0.2895 -0.5224 -0.5378
  149TCq2    C8 2275   1.163   0.443  10.598 -0.0886  0.2065  0.2622
  149TCq2    O4 2276   1.070   0.373  10.634 -0.3375  0.5571  0.1824
  149TCq2    C9 2277   1.490   0.761  10.670  0.6669 -0.7173 -0.0813
  149TCq2    O5 2278   1.581   0.690  10.620  0.1328  0.1256  0.1606
  149TCq2    O6 2279   1.453   0.873  10.630 -1.2002 -0.0575 -0.1231
  149TCq2    H2 2280   1.312   0.869  10.828  0.7959 -0.2694  1.9970
  149TCq2    H3 2281   1.416   0.514  10.609  0.2364  1.3218 -0.6724
  149TCq2    H4 2282   1.052   0.534  10.807  1.4470 -0.9710  2.4847
  150MPD2     C 2283   2.503   4.449  11.919 -0.6943 -0.6749  0.4064
  150MPD2    C1 2284   2.464   4.576  11.893 -0.2559  0.4410 -0.3746
  150MPD2    C2 2285   2.535   4.678  11.945 -0.3541 -0.2715 -0.2022
  150MPD2    C3 2286   2.656   4.647  12.006 -0.1167 -0.4654  0.1286
  150MPD2    C4 2287   2.704   4.519  12.022  0.2518 -0.1679 -0.4864
  150MPD2    C5 2288   2.624   4.418  11.974 -0.3922  0.0990 -0.5221
  150MPD2     H 2289   2.500   0.058  11.939 -0.4889 -0.3691 -1.2324
  150MPD2    H1 2290   2.798   4.489  12.067 -0.5412  0.0193  1.3035
  150MPD2    H2 2291   2.451   4.364  11.876 -0.6851 -2.3765  3.7137
  150MPD2    H3 2292   2.661   4.316  11.981 -1.7047 -0.2678  0.9259
  150MPD2     N 2293   2.740   0.038  12.048 -0.2266  0.4062 -0.1869
  150MPD2    H5 2294   2.692   0.126  12.034 -2.8909 -0.8511  1.0149
  150MPD2    N1 2295   2.339   4.601  11.834 -0.5553 -0.0896  0.2133
  150MPD2    H7 2296   2.282   4.518  11.819 -0.5196 -0.2228  0.8174
  151TCq2    C1 2297   2.865   0.029  12.101 -0.0667 -0.1982  0.4823
  151TCq2    O2 2298   2.926   4.663  12.157  0.4987  0.5887 -0.4926
  151TCq2    C2 2299   2.934   0.156  12.116  0.2473  0.4268 -0.0963
  151TCq2    C3 2300   2.902   0.260  12.027 -0.2104 -0.3647 -0.5251
  151TCq2    C4 2301   2.971   0.373  12.029 -0.2780 -0.2424  0.1790
  151TCq2    C5 2302   3.087   0.385  12.101  0.1937 -0.1584  0.6294
  151TCq2    C6 2303   3.125   0.279  12.179  0.4758  0.2918 -0.1767
  151TCq2    C7 2304   3.053   0.161  12.191  0.0846 -0.0796  0.0686
  151TCq2    C8 2305   3.254   0.298  12.241 -0.1093 -0.6150  0.4120
  151TCq2    O4 2306   3.314   0.401  12.217  0.8660  0.2105 -0.9684
  151TCq2    C9 2307   2.934   0.480  11.940 -0.2164 -0.0535  0.4920
  151TCq2    O5 2308   3.011   0.577  11.937  0.2637  0.4414  0.5892
  151TCq2    O6 2309   2.854   0.460  11.849 -0.1083  0.1109  0.0437
  151TCq2    H2 2310   2.821   0.253  11.955 -0.8332  1.1540  0.0066
  151TCq2    H3 2311   3.138   0.480  12.097 -1.2271  0.5800  0.0332
  151TCq2    H4 2312   3.069   0.092  12.274 -0.2723 -1.9297 -1.4079
  152MPD2     C 2313   2.151   4.088  12.592 -0.1577 -0.3080  0.5970
  152MPD2    C1 2314   2.164   4.195  12.505 -0.8186  0.5431  0.6035
  152MPD2    C2 2315   2.055   4.247  12.439  0.1384 -0.2354 -0.1339
  152MPD2    C3 2316   1.929   4.189  12.463  0.0437 -0.5795 -0.6876
  152MPD2    C4 2317   1.917   4.079  12.555 -0.1177 -0.8012  0.0552
  152MPD2    C5 2318   2.024   4.031  12.612  0.1174  0.8866 -0.1749
  152MPD2     H 2319   2.059   4.327  12.366  0.1450 -0.7926 -0.7447
  152MPD2    H1 2320   1.823   4.026  12.564  0.1530 -1.4167 -0.7028
  152MPD2    H2 2321   2.238   4.061  12.649  1.0621  1.8164 -0.2682
  152MPD2    H3 2322   2.009   3.953  12.686 -1.0215  0.5128 -0.8037
  152MPD2     N 2323   1.823   4.243  12.388  0.2276  0.1510  0.1858
  152MPD2    H5 2324   1.846   4.312  12.317  1.2849  0.4863  0.8349
  152MPD2    N1 2325   2.297   4.224  12.474  0.4388  0.1022 -0.2509
  152MPD2    H7 2326   2.368   4.183  12.534 -0.4072  2.7747  2.5831
  153TCq2    C1 2327   2.335   4.319  12.383  0.8104  0.0944  0.5048
  153TCq2    O2 2328   2.265   4.384  12.308 -0.3013  0.0070 -0.7854
  153TCq2    C2 2329   2.482   4.342  12.386  0.3992 -0.7659 -0.3175
  153TCq2    C3 2330   2.566   4.245  12.436 -0.3622 -0.3376 -0.8868
  153TCq2    C4 2331   2.695   4.288  12.467 -0.3761 -0.5925  0.2945
  153TCq2    C5 2332   2.730   4.412  12.444 -0.2831 -0.4457  0.4171
  153TCq2    C6 2333   2.644   4.504  12.386 -0.4423  0.2358 -0.5093
  153TCq2    C7 2334   2.515   4.469  12.357 -0.2700 -0.6202  0.2455
  153TCq2    C8 2335   2.675   4.643  12.400  0.0828  0.4874  0.2948
  153TCq2    O4 2336   2.590   4.723  12.370  0.5238 -0.0092  0.3037
  153TCq2    C9 2337   2.779   4.202  12.550 -0.4270 -0.6002  0.4585
  153TCq2    O5 2338   2.724   4.095  12.586  0.2415  0.0260  0.2174
  153TCq2    O6 2339   2.891   4.247  12.590  0.3300  0.0814  0.2031
  153TCq2    H2 2340   2.540   4.140  12.439  0.1648 -0.4821 -1.2208
  153TCq2    H3 2341   2.833   4.442  12.461 -0.8540  2.2954 -1.0106
  153TCq2    H4 2342   2.432   4.538  12.350 -1.6772 -2.5807 -2.5707
  154MPD2     C 2343   3.815   0.232  17.679 -0.2490 -0.4339 -0.4511
  154MPD2    C1 2344   3.878   0.246   0.108  0.3276  0.3995  0.4879
  154MPD2    C2 2345   3.794   0.267   0.218  0.8121 -0.5427  0.5237
  154MPD2    C3 2346   3.657   0.272   0.209  0.2633 -0.2761 -0.2680
  154MPD2    C4 2347   3.604   0.258   0.083  0.2196  0.0107 -0.0068
  154MPD2    C5 2348   3.681   0.235  17.670  0.7751 -0.0955 -0.1934
  154MPD2     H 2349   3.833   0.263   0.319 -0.2334 -0.8966  0.9102
  154MPD2    H1 2350   3.497   0.247   0.067  0.8781 -0.3032 -4.2778
  154MPD2    H2 2351   3.874   0.217  17.590  0.0069  2.1329 -0.7082
  154MPD2    H3 2352   3.630   0.221  17.576  1.5769  2.0576 -0.9452
  154MPD2     N 2353   3.573   0.310   0.320 -0.3123 -0.5513 -0.1915
  154MPD2    H5 2354   3.622   0.326   0.408 -1.2834  0.4709  0.1529
  154MPD2    N1 2355   4.018   0.228   0.117 -0.2238 -0.2712 -0.5197
  154MPD2    H7 2356   4.072   0.224   0.031  1.1072 -0.7145  0.3266
  155TCq2    C1 2357   4.091   0.244   0.233  0.3470  0.3318 -0.1859
  155TCq2    O2 2358   4.048   0.261   0.347  0.3093 -0.3241  0.2553
  155TCq2    C2 2359   4.232   0.237   0.216  0.3049  0.7963  0.3784
  155TCq2    C3 2360   4.284   0.160   0.113 -0.4288  0.2024  0.3741
  155TCq2    C4 2361   4.418   0.151   0.110 -0.5252  0.3586 -0.2930
  155TCq2    C5 2362   4.498   0.218   0.200 -0.4683  0.5929  0.5440
  155TCq2    C6 2363   4.442   0.288   0.299  0.1050  0.0768  0.3582
  155TCq2    C7 2364   4.307   0.291   0.322 -0.1877 -0.1502 -0.4738
  155TCq2    C8 2365   4.531   0.336   0.408 -0.0769  0.0759  0.3921
  155TCq2    O4 2366   4.647   0.292   0.403 -0.2003  0.5257  1.1846
  155TCq2    C9 2367   4.481   0.057   0.014 -0.1647  0.2905 -0.4046
  155TCq2    O5 2368   4.607   0.078  17.684  0.4697 -0.4050 -0.4963
  155TCq2    O6 2369   4.400   4.696  17.669 -0.2827 -0.0743 -0.6373
  155TCq2    H2 2370   4.221   0.100   0.049 -1.4050 -1.0996  2.5802
  155TCq2    H3 2371   4.602   0.190   0.181 -1.1377 -0.7486 -1.1480
  155TCq2    H4 2372   4.259   0.348   0.400 -3.4819 -1.7249 -1.3253
  156MPD2     C 2373   2.324   1.975  11.338 -0.6934 -0.2142 -0.1968
  156MPD2    C1 2374   2.259   2.094  11.322  0.3618  0.4026 -0.1133
  156MPD2    C2 2375   2.278   2.190  11.422 -0.3714  0.5228  0.2595
  156MPD2    C3 2376   2.345   2.159  11.537  0.2866 -0.2515  0.8427
  156MPD2    C4 2377   2.410   2.039  11.557 -0.1916  0.4830  0.3694
  156MPD2    C5 2378   2.400   1.950  11.452 -0.1204 -0.0801 -0.2719
  156MPD2     H 2379   2.235   2.288  11.407 -0.6375  0.9194  3.6664
  156MPD2    H1 2380   2.468   2.007  11.643 -0.7579  0.5355  0.7690
  156MPD2    H2 2381   2.323   1.901  11.259 -1.6074  1.5532 -1.8330
  156MPD2    H3 2382   2.457   1.858  11.455  3.2984  1.9505 -3.5822
  156MPD2     N 2383   2.359   2.262  11.632 -0.3640  0.1020 -0.3381
  156MPD2    H5 2384   2.338   2.358  11.606 -2.2574 -0.0541  0.6012
  156MPD2    N1 2385   2.211   2.122  11.190 -0.0421 -0.5391 -0.3151
  156MPD2    H7 2386   2.224   2.044  11.127 -1.4894 -0.3569 -0.8433
  157TCq2    C1 2387   2.117   2.223  11.167  0.5060 -0.1564 -0.1396
  157TCq2    O2 2388   2.091   2.326  11.227  0.3117  0.1775 -0.0842
  157TCq2    C2 2389   2.067   2.208  11.033 -0.0405 -0.8889 -0.1662
  157TCq2    C3 2390   2.103   2.096  10.966  0.3226  0.1410  0.3750
  157TCq2    C4 2391   2.112   2.105  10.828 -0.3466  0.4469 -0.3884
  157TCq2    C5 2392   2.074   2.217  10.761 -0.7697  0.7167 -0.0666
  157TCq2    C6 2393   2.025   2.325  10.833 -1.0165 -0.0422  0.3679
  157TCq2    C7 2394   2.028   2.322  10.967 -0.0621 -0.1945 -0.6835
  157TCq2    C8 2395   2.025   2.456  10.756 -0.2946 -0.0753 -0.4326
  157TCq2    O4 2396   2.100   2.459  10.661 -0.7208 -0.4136  0.1082
  157TCq2    C9 2397   2.159   1.994  10.757 -0.5928 -0.3694 -0.0610
  157TCq2    O5 2398   2.234   1.911  10.822 -0.1594 -0.1225  0.1211
  157TCq2    O6 2399   2.133   1.984  10.631  0.7412  0.2117 -0.1137
  157TCq2    H2 2400   2.117   1.997  11.009  1.4849  0.1102 -0.0729
  157TCq2    H3 2401   2.068   2.208  10.654 -0.2500 -1.1366  0.0516
  157TCq2    H4 2402   1.987   2.407  11.021  1.7582  0.2983 -0.0989
  158TMC2    C1 2403   3.783   4.507  13.674 -0.1481  0.2739 -0.8098
  158TMC2    C2 2404   3.780   4.380  13.618  0.2811  0.0412  0.3582
  158TMC2    C3 2405   3.678   4.347  13.533  0.0483 -0.7232 -1.3160
  158TMC2    C4 2406   3.685   4.595  13.638 -0.0722  1.0386 -0.0568
  158TMC2    C5 2407   3.581   4.559  13.562 -0.6999  0.0694  0.5838
  158TMC2    C6 2408   3.575   4.430  13.502  0.0312 -0.1816  0.3021
  158TMC2     C 2409   3.830   4.507  13.816 -0.9279  0.2306  0.3457
  158TMC2     O 2410   3.930   4.440  13.838  0.0677 -0.3804 -0.2100
  158TMC2     H 2411   3.864   4.316  13.638  0.2465 -0.7195 -1.8795
  158TMC2    H1 2412   3.679   4.699  13.669  0.5209  1.4003 -1.1794
  158TMC2    H2 2413   3.495   4.400  13.437  0.6492 -1.8021  0.2999
  158TMC2    C7 2414   3.483   4.656  13.516  0.2046  0.0590  1.2042
  158TMC2    C8 2415   3.674   4.206  13.511 -0.0332 -0.5626  0.5570
  158TMC2    O1 2416   3.524   0.050  13.508 -0.3971  0.0299  0.3895
  158TMC2    O2 2417   3.720   4.123  13.591  0.1002  0.0366  0.0836
  158TMC2    O5 2418   3.614   4.185  13.393 -0.5007  0.0568 -0.6461
  158TMC2    H5 2419   3.613   4.268  13.340 -0.2676  0.1805 -0.4541
  159MPD2     C 2420   3.675   4.537  14.310  0.5330 -0.2586 -0.2190
  159MPD2    C1 2421   3.569   4.544  14.221  0.0439 -0.0349 -0.7005
  159MPD2    C2 2422   3.596   4.557  14.091 -0.0964 -0.8464  0.1023
  159MPD2    C3 2423   3.723   4.556  14.036  0.1542 -0.5095 -0.0555
  159MPD2    C4 2424   3.825   4.533  14.126 -0.2934  0.0036  0.2716
  159MPD2    C5 2425   3.802   4.525  14.262 -0.2875 -0.1286  0.2943
  159MPD2     H 2426   3.518   4.568  14.016  0.2082 -0.8393 -0.2089
  159MPD2    H1 2427   3.926   4.517  14.092 -0.3742  1.7435 -0.7701
  159MPD2    H2 2428   3.656   4.537  14.417 -0.0259  1.7103 -0.3143
  159MPD2    H3 2429   3.887   4.510  14.327 -0.6199  0.6327  0.9065
  159MPD2     N 2430   3.733   4.560  13.896  0.2811 -0.3063 -0.4371
  159MPD2    H5 2431   3.650   4.589  13.846 -0.7165 -2.2613  0.1126
  159MPD2    N1 2432   3.439   4.545  14.274  0.4891  0.0076  0.3018
  159MPD2    H7 2433   3.430   4.569  14.372  0.6710 -1.7998  0.7598
  160TMC2    C1 2434   2.765   3.521   0.999  0.6586 -0.4339 -0.2584
  160TMC2    C2 2435   2.769   3.385   1.012  0.5174 -0.4765  0.2018
  160TMC2    C3 2436   2.840   3.318   0.920 -0.6614  0.8021  0.1286
  160TMC2    C4 2437   2.834   3.584   0.898  0.1393 -0.0688 -0.3066
  160TMC2    C5 2438   2.893   3.509   0.794  0.0279 -0.3828  0.4665
  160TMC2    C6 2439   2.903   3.379   0.811  0.8418  0.2571 -0.3557
  160TMC2     C 2440   2.692   3.593   1.099 -0.2339  0.5573  0.0601
  160TMC2     O 2441   2.654   3.524   1.190 -0.1585  0.0524  0.1200
  160TMC2     H 2442   2.709   3.324   1.079 -1.1010  1.3184  0.3981
  160TMC2    H1 2443   2.805   3.686   0.876 -3.6310 -1.4846 -2.0075
  160TMC2    H2 2444   2.953   3.334   0.726 -3.4764 -1.6020 -1.9204
  160TMC2    C7 2445   2.969   3.575   0.692  0.4629 -0.6986 -0.8374
  160TMC2    C8 2446   2.887   3.190   0.955  0.0161  0.3766  0.0446
  160TMC2    O1 2447   3.015   3.513   0.592 -0.2125 -0.1697 -0.2223
  160TMC2    O2 2448   2.898   3.148   1.068 -0.4444  0.0148 -0.1860
  160TMC2    O5 2449   2.906   3.103   0.847 -0.4644 -0.0116 -0.0882
  160TMC2    H5 2450   2.893   3.130   0.754  0.7150 -0.1334 -0.2783
  161MPD2     C 2451   2.529   3.783   1.264 -0.2611  0.2348 -0.4313
  161MPD2    C1 2452   2.623   3.819   1.168 -0.7268  0.1235  0.0727
  161MPD2    C2 2453   2.617   3.951   1.120 -0.4999 -0.0858  0.0004
  161MPD2    C3 2454   2.519   4.038   1.165 -0.9387 -0.4933 -0.3229
  161MPD2    C4 2455   2.439   4.000   1.266  0.0046 -0.0978 -0.1235
  161MPD2    C5 2456   2.442   3.871   1.314  0.0309 -0.0906  0.4385
  161MPD2     H 2457   2.689   3.982   1.045 -2.4514  0.2116 -1.7709
  161MPD2    H1 2458   2.372   4.071   1.313 -1.8384 -0.1273 -2.6688
  161MPD2    H2 2459   2.500   3.685   1.300  3.2546  0.2260  2.3511
  161MPD2    H3 2460   2.373   3.841   1.391  2.6403 -0.7923  2.5185
  161MPD2     N 2461   2.488   4.160   1.101  0.3916  0.0892  0.3458
  161MPD2    H5 2462   2.405   4.209   1.134 -0.4372 -0.4622 -0.8996
  161MPD2    N1 2463   2.699   3.727   1.092 -0.4962 -0.1860  0.4205
  161MPD2    H7 2464   2.778   3.755   1.036  0.4210 -0.2145  1.7049
  162TMC2    C1 2465   4.657   0.973   0.835  0.5098 -0.3181 -0.4799
  162TMC2    C2 2466   4.543   0.990   0.757 -0.4416 -0.1690  0.6541
  162TMC2    C3 2467   4.432   1.047   0.813 -0.4663  0.1949  0.1391
  162TMC2    C4 2468   4.670   1.009   0.961 -0.2325  0.8769 -0.2323
  162TMC2    C5 2469   4.563   1.080   1.010  0.4833  0.4039 -0.4695
  162TMC2    C6 2470   4.444   1.099   0.939 -0.6000  0.1031 -0.7436
  162TMC2     C 2471   0.047   0.914   0.770  0.2301 -0.0923  0.2453
  162TMC2     O 2472   0.157   0.931   0.821 -0.6005 -0.6040  0.7870
  162TMC2     H 2473   4.535   0.970   0.651 -0.6216 -0.2863  0.6896
  162TMC2    H1 2474   0.045   0.998   1.007 -0.3133  2.8423  0.4159
  162TMC2    H2 2475   4.360   1.150   0.986  0.9161  0.7872  1.2295
  162TMC2    C7 2476   4.555   1.138   1.148  0.0339 -0.6081  0.2953
  162TMC2    C8 2477   4.357   1.125   0.723 -0.2002  0.6523 -0.0212
  162TMC2    O1 2478   4.471   1.219   1.175  0.0906 -0.5338  0.0470
  162TMC2    O2 2479   4.294   1.079   0.630 -0.3156 -0.1441 -0.2377
  162TMC2    O5 2480   4.422   1.245   0.728  0.2031 -0.0834  0.2571
  162TMC2    H5 2481   4.486   1.240   0.802  0.3736  0.2492  0.1333
  163MPD2     C 2482   0.230   0.666   0.346 -0.5739 -0.4085  0.5965
  163MPD2    C1 2483   0.305   0.724   0.454 -0.9925 -0.6079  0.2834
  163MPD2    C2 2484   0.234   0.789   0.558  0.1023 -0.1416  0.0554
  163MPD2    C3 2485   0.096   0.777   0.564  0.0201  0.4996  0.4837
  163MPD2    C4 2486   0.028   0.701   0.468  0.6506 -0.2628  0.3013
  163MPD2    C5 2487   0.097   0.654   0.356 -0.0988  0.3553 -0.0915
  163MPD2     H 2488   0.294   0.845   0.628 -2.2513 -0.5369  2.3848
  163MPD2    H1 2489   4.643   0.697   0.479  0.7612 -2.2887  0.6761
  163MPD2    H2 2490   0.288   0.625   0.263  1.4512  0.0459  1.7855
  163MPD2    H3 2491   0.045   0.599   0.277  1.6178  0.0867 -1.0394
  163MPD2     N 2492   0.009   0.833   0.661  0.1812 -0.5976 -0.4583
  163MPD2    H5 2493   4.635   0.824   0.637  0.1454 -1.5386  0.0377
  163MPD2    N1 2494   0.439   0.735   0.422 -0.0851 -0.3691 -0.1060
  163MPD2    H7 2495   0.479   0.690   0.341  0.2340 -0.1554 -0.0695
  164TCq2    C1 2496   1.211   0.544  11.150  0.3967 -0.2891 -0.2010
  164TCq2    O2 2497   1.111   0.494  11.200  0.3761 -0.9203 -0.4005
  164TCq2    C2 2498   1.220   0.689  11.155  0.0562 -0.3589  0.7489
  164TCq2    C3 2499   1.339   0.755  11.126 -0.7792 -0.3523 -0.6192
  164TCq2    C4 2500   1.329   0.892  11.112  0.5090 -0.0013  0.4517
  164TCq2    C5 2501   1.214   0.958  11.128 -0.1041 -0.3958  0.6840
  164TCq2    C6 2502   1.110   0.888  11.167  0.3290 -0.3762 -0.7120
  164TCq2    C7 2503   1.108   0.753  11.184 -0.1985  0.2083 -0.8262
  164TCq2    C8 2504   0.979   0.953  11.172 -0.5938  1.1262  0.3842
  164TCq2    O4 2505   0.887   0.889  11.130  0.1771  0.1038  0.7052
  164TCq2    C9 2506   1.439   0.969  11.061 -0.0400  0.8077 -0.8507
  164TCq2    O5 2507   1.421   1.087  11.031 -1.0952 -0.6171  0.3865
  164TCq2    O6 2508   1.551   0.920  11.059  0.1246  0.1087  0.5311
  164TCq2    H2 2509   1.432   0.701  11.121  0.0942  0.9094  1.7407
  164TCq2    H3 2510   1.199   1.065  11.122  0.6664 -0.4099 -1.2894
  164TCq2    H4 2511   1.016   0.707  11.218 -0.1954  1.6911  1.2494
  165MPD2     C 2512   1.489   3.805   1.045  0.6368 -0.4228  0.0512
  165MPD2    C1 2513   1.444   3.763   1.168 -0.0519  0.3495  0.7771
  165MPD2    C2 2514   1.516   3.808   1.282  1.3892 -0.0085 -0.1381
  165MPD2    C3 2515   1.626   3.890   1.277  0.5928 -0.5829  0.2666
  165MPD2    C4 2516   1.669   3.930   1.154 -0.0951 -0.3619  0.1255
  165MPD2    C5 2517   1.600   3.890   1.035 -0.0537 -0.2877 -0.2179
  165MPD2     H 2518   1.483   3.770   1.378 -0.7451 -1.3884 -1.3986
  165MPD2    H1 2519   1.761   3.987   1.146  0.5113 -1.0246  2.2979
  165MPD2    H2 2520   1.427   3.788   0.958  0.5180 -0.1442  0.0817
  165MPD2    H3 2521   1.641   3.925   0.941  1.5315  0.9927  0.9560
  165MPD2     N 2522   1.700   3.934   1.387  0.3074  0.0271  0.1133
  165MPD2    H5 2523   1.771   4.007   1.387  1.3781 -1.0216  1.4065
  165MPD2    N1 2524   1.341   3.667   1.167  0.2194 -0.1699 -0.0815
  165MPD2    H7 2525   1.321   3.633   1.073 -1.8927 -0.9088  0.6463
  166TCq2    C1 2526   1.664   3.895   1.513 -0.5726  0.1626  0.8370
  166TCq2    O2 2527   1.569   3.835   1.560 -0.2358  0.1773 -0.6546
  166TCq2    C2 2528   1.756   3.957   1.604  0.6086 -0.1134  0.2109
  166TCq2    C3 2529   1.711   3.978   1.735 -0.3524  0.5110 -0.7848
  166TCq2    C4 2530   1.793   4.036   1.826  0.1984 -0.4495  0.1546
  166TCq2    C5 2531   1.922   4.063   1.791 -0.5030 -0.3344 -0.2602
  166TCq2    C6 2532   1.966   4.036   1.664 -0.2881  0.8835  0.5348
  166TCq2    C7 2533   1.880   3.990   1.563 -0.1471 -0.5349  0.0855
  166TCq2    C8 2534   2.097   4.064   1.618 -0.2464 -0.9492  0.3057
  166TCq2    O4 2535   2.133   4.015   1.510  0.3689  0.1834 -0.0080
  166TCq2    C9 2536   1.741   4.058   1.955 -0.3073  0.7725 -0.1018
  166TCq2    O5 2537   1.618   4.036   1.968 -0.4232  0.2926 -0.0152
  166TCq2    O6 2538   1.822   4.073   2.050  0.5534 -0.2634 -0.6744
  166TCq2    H2 2539   1.609   3.953   1.761  0.7957 -1.7276  1.5043
  166TCq2    H3 2540   1.991   4.114   1.857  0.6697 -1.7914 -0.3896
  166TCq2    H4 2541   1.921   3.983   1.463  0.2919  1.1553  0.1427
  167TMC2    C1 2542   0.159   0.549  12.645  0.9835  0.1007 -0.1968
  167TMC2    C2 2543   0.053   0.591  12.719  1.0202  0.1010 -0.4295
  167TMC2    C3 2544   0.014   0.511  12.817 -0.4472 -0.0462  0.2760
  167TMC2    C4 2545   0.218   0.429  12.667  0.3116 -0.2692 -0.6037
  167TMC2    C5 2546   0.183   0.352  12.775  0.1791  0.3147  0.1254
  167TMC2    C6 2547   0.072   0.389  12.848 -0.3109 -0.2242  0.8165
  167TMC2     C 2548   0.188   0.634  12.525 -0.3033  0.5751  0.0114
  167TMC2     O 2549   0.150   0.751  12.532 -0.4688 -0.1790  0.1627
  167TMC2     H 2550   4.722   0.681  12.692 -0.3031 -0.7403 -0.5678
  167TMC2    H1 2551   0.312   0.413  12.615 -0.0654 -2.8021 -0.5039
  167TMC2    H2 2552   0.035   0.337  12.935  1.5713 -0.4162  1.4962
  167TMC2    C7 2553   0.249   0.228  12.810  0.5454  0.5292  0.1473
  167TMC2    C8 2554   4.611   0.536  12.874 -0.4836 -0.6488 -0.8959
  167TMC2    O1 2555   0.218   0.176  12.917 -0.0752 -0.0860 -0.3475
  167TMC2    O2 2556   4.531   0.447  12.885 -0.5217 -0.1570 -0.3611
  167TMC2    O5 2557   4.580   0.663  12.885 -0.2268  0.2141  0.0304
  167TMC2    H5 2558   4.660   0.717  12.901 -0.4081  1.0747 -2.0538
  168MPD2     C 2559   0.291   0.766  12.276  0.3793 -0.2250 -0.1152
  168MPD2    C1 2560   0.258   0.634  12.281 -0.4237 -0.3486 -0.6487
  168MPD2    C2 2561   0.247   0.562  12.161  0.0335 -0.4292 -0.6439
  168MPD2    C3 2562   0.291   0.618  12.041  0.3752  0.0366 -0.2100
  168MPD2    C4 2563   0.322   0.746  12.044 -0.1132 -0.1345 -0.0925
  168MPD2    C5 2564   0.318   0.821  12.155  0.1032  0.4783 -0.0700
  168MPD2     H 2565   0.213   0.459  12.166 -0.9858  0.0139  1.8878
  168MPD2    H1 2566   0.360   0.799  11.958 -0.3222 -0.5932 -0.4668
  168MPD2    H2 2567   0.302   0.825  12.366 -1.7319  0.1554 -0.1152
  168MPD2    H3 2568   0.352   0.924  12.157  0.0836  0.4554  2.3817
  168MPD2     N 2569   0.314   0.551  11.917  0.2119  0.0994  0.2435
  168MPD2    H5 2570   0.369   0.612  11.857  1.6204  0.1731  1.5894
  168MPD2    N1 2571   0.225   0.567  12.410  0.3397 -0.6423  0.1186
  168MPD2    H7 2572   0.221   0.465  12.414 -0.2178 -0.6105  0.3615
  169MPD1     C 2573   2.173   0.477   8.796 -0.2832  0.0702 -0.2974
  169MPD1    C1 2574   2.289   0.519   8.849 -1.1876 -1.0908  0.1695
  169MPD1    C2 2575   2.361   0.427   8.924  0.0355 -0.2215 -0.4047
  169MPD1    C3 2576   2.317   0.300   8.947 -0.1785 -0.6119 -0.0479
  169MPD1    C4 2577   2.200   0.255   8.888 -0.1614  0.2642  0.8967
  169MPD1    C5 2578   2.128   0.349   8.821 -0.2319  0.2533 -0.3860
  169MPD1     H 2579   2.456   0.456   8.968  1.3174 -2.1985 -1.8201
  169MPD1    H1 2580   2.147   0.160   8.897  0.1132  0.4146  4.0460
  169MPD1    H2 2581   2.112   0.547   8.741 -0.1376  0.7823  0.4438
  169MPD1    H3 2582   2.032   0.320   8.781 -0.5098 -0.8856  1.1120
  169MPD1     N 2583   2.406   0.216   9.022 -0.2751  0.0655  0.5388
  169MPD1    H5 2584   2.468   0.259   9.090  1.0704  1.1064 -1.3371
  169MPD1    N1 2585   2.331   0.648   8.813  0.7510  0.2346  0.1595
  169MPD1    H6 2586   2.261   0.721   8.820  1.0283  0.4002  1.2067
  169MPD1    H7 2587   2.399   0.680   8.882 -0.5872  1.8804  0.7019
  170MPD1     C 2588   1.418   2.068  12.902 -0.0776  0.6671  0.4190
  170MPD1    C1 2589   1.512   2.041  13.003  0.3555 -0.8140 -0.2150
  170MPD1    C2 2590   1.557   2.143  13.078  0.6042  1.0529 -0.2480
  170MPD1    C3 2591   1.490   2.264  13.076  0.5969 -0.1255  0.7627
  170MPD1    C4 2592   1.397   2.293  12.981 -0.0248  0.1427 -0.3130
  170MPD1    C5 2593   1.371   2.195  12.891  0.3065 -0.9124  0.5653
  170MPD1     H 2594   1.627   2.120  13.157  0.2940  1.7797  0.2393
  170MPD1    H1 2595   1.336   2.382  12.979 -0.6479 -0.2605  0.7362
  170MPD1    H2 2596   1.382   1.986  12.841  1.8011 -0.0132  0.2277
  170MPD1    H3 2597   1.287   2.222  12.828  0.7525  0.2191  0.4410
  170MPD1     N 2598   1.536   2.368  13.167  0.0142  0.0003 -0.8166
  170MPD1    H5 2599   1.615   2.343  13.226 -0.4473 -0.8957 -0.5714
  170MPD1    N1 2600   1.569   1.913  13.022  0.2718  0.7841 -0.0235
  170MPD1    H6 2601   1.660   1.919  13.067 -1.4261 -1.9583  3.8063
  170MPD1    H7 2602   1.586   1.867  12.933 -1.1251  0.4043 -0.1054
  171MPD1     C 2603   4.379   3.375  15.633  0.0855 -0.0780 -0.1357
  171MPD1    C1 2604   4.452   3.431  15.738 -0.2970  0.0384 -0.7319
  171MPD1    C2 2605   4.585   3.432  15.720  0.4043 -0.2709  0.0551
  171MPD1    C3 2606   4.653   3.369  15.612 -0.0173  0.9292  0.2687
  171MPD1    C4 2607   4.571   3.323  15.505 -0.3993  0.1988 -0.2607
  171MPD1    C5 2608   4.437   3.323  15.521 -0.4479  0.1486 -0.5210
  171MPD1     H 2609   4.646   3.481  15.796 -0.8679 -1.6618  1.9694
  171MPD1    H1 2610   4.613   3.290  15.411  1.8859  0.0210  0.7917
  171MPD1    H2 2611   4.271   3.372  15.642  0.3702 -1.0597  2.8941
  171MPD1    H3 2612   4.373   3.279  15.446 -0.3773 -2.0229  0.6868
  171MPD1     N 2613   0.071   3.358  15.601  0.0562 -0.4775  0.1986
  171MPD1    H5 2614   0.111   3.314  15.519  1.2269  0.0948  0.4571
  171MPD1    N1 2615   4.383   3.484  15.850  0.5356 -0.2189  0.4028
  171MPD1    H6 2616   4.291   3.448  15.872  0.3128 -0.1164 -0.3621
  171MPD1    H7 2617   4.432   3.479  15.939  2.0879 -0.2118 -0.4432
  172MPD1     C 2618   3.729   2.602   0.249  0.3985  0.5673  0.2978
  172MPD1    C1 2619   3.709   2.697   0.346  0.4381 -0.1562  0.6633
  172MPD1    C2 2620   3.779   2.821   0.333 -0.2004 -0.2520  0.0362
  172MPD1    C3 2621   3.864   2.846   0.228  0.4790 -0.6703  0.3145
  172MPD1    C4 2622   3.870   2.754   0.130  0.6538  0.2050 -0.1407
  172MPD1    C5 2623   3.807   2.633   0.140  0.3148  0.7415 -0.0380
  172MPD1     H 2624   3.775   2.886   0.420  2.9564 -0.4656  0.3331
  172MPD1    H1 2625   3.949   2.771   0.057  1.8512 -0.2568  1.0545
  172MPD1    H2 2626   3.677   2.507   0.252 -0.2388  0.8935 -0.4732
  172MPD1    H3 2627   3.817   2.568   0.054  1.3723  0.3296  0.4021
  172MPD1     N 2628   3.939   2.962   0.217  0.2699 -0.6518 -0.3429
  172MPD1    H5 2629   4.008   2.970   0.142 -1.8862  0.3265 -2.2110
  172MPD1    N1 2630   3.649   2.663   0.472  0.4735 -0.2437  0.0521
  172MPD1    H6 2631   3.571   2.599   0.464 -1.0413  1.6333 -0.1986
  172MPD1    H7 2632   3.624   2.751   0.516 -0.3579 -0.4141 -0.0756
  173MPD1     C 2633   1.677   2.815  13.642 -0.7752 -0.9559 -0.0526
  173MPD1    C1 2634   1.770   2.847  13.733 -0.1384  0.2397  0.4005
  173MPD1    C2 2635   1.746   2.801  13.862 -0.0903  0.0817 -0.6280
  173MPD1    C3 2636   1.631   2.736  13.892 -0.3021 -0.0882 -0.5053
  173MPD1    C4 2637   1.544   2.710  13.786 -0.3869  0.4385 -0.4307
  173MPD1    C5 2638   1.570   2.737  13.656 -0.4056  0.0347  0.4887
  173MPD1     H 2639   1.822   2.813  13.939  0.0729 -2.4776 -0.3887
  173MPD1    H1 2640   1.453   2.657  13.813 -1.3421  1.4293 -1.7113
  173MPD1    H2 2641   1.697   2.838  13.538  2.0267 -1.9551  0.2649
  173MPD1    H3 2642   1.501   2.705  13.579  0.1391 -1.7034  0.7099
  173MPD1     N 2643   1.604   2.692  14.024 -0.3589 -0.4365  0.4673
  173MPD1    H5 2644   1.679   2.704  14.092 -0.7212 -1.2110  1.0037
  173MPD1    N1 2645   1.895   2.905  13.697  0.2192 -0.0411 -0.7313
  173MPD1    H6 2646   1.935   2.937  13.785  0.2103  1.6828 -1.3448
  173MPD1    H7 2647   1.898   2.988  13.637 -0.1856  0.6234  0.1621
  174MPD1     C 2648   2.194   2.473  14.552 -0.1044  1.0288 -0.3899
  174MPD1    C1 2649   2.100   2.432  14.637 -0.1222 -0.4233 -0.0740
  174MPD1    C2 2650   1.969   2.463  14.592 -0.0140 -0.7070 -0.5663
  174MPD1    C3 2651   1.935   2.497  14.466 -0.3583 -0.2612  0.0819
  174MPD1    C4 2652   2.039   2.512  14.375 -0.3139 -0.1131 -0.0803
  174MPD1    C5 2653   2.164   2.501  14.422 -0.3496  0.0368  0.6143
  174MPD1     H 2654   1.888   2.457  14.664  0.5423  0.1865  0.1209
  174MPD1    H1 2655   2.021   2.520  14.268 -1.9691  0.8691  0.2591
  174MPD1    H2 2656   2.300   2.462  14.573 -0.0333  1.1311 -0.7109
  174MPD1    H3 2657   2.246   2.515  14.353  0.7407 -0.2445  1.8566
  174MPD1     N 2658   1.800   2.525  14.421 -0.2900  0.0239  0.1467
  174MPD1    H5 2659   1.788   2.544  14.322  0.2529  1.2307  0.3057
  174MPD1    N1 2660   2.120   2.397  14.773  0.3521 -0.0626 -0.3869
  174MPD1    H6 2661   2.191   2.326  14.793  0.9859 -0.1022 -2.7038
  174MPD1    H7 2662   2.032   2.352  14.800 -0.6933  2.6874  0.7634
  175MPD1     C 2663   4.239   2.902  15.982 -0.2882 -0.1197  0.0481
  175MPD1    C1 2664   4.136   2.915  16.070  0.0831 -0.2463 -0.1692
  175MPD1    C2 2665   4.128   3.020  16.163 -0.4178  0.2863  0.1761
  175MPD1    C3 2666   4.235   3.110  16.164 -0.5186  0.6280 -0.3093
  175MPD1    C4 2667   4.341   3.089  16.079 -0.5139  0.0220 -0.2922
  175MPD1    C5 2668   4.349   2.979  15.996 -0.4679 -0.4433  0.1275
  175MPD1     H 2669   4.042   3.035  16.227  0.6450  0.5117  1.5599
  175MPD1    H1 2670   4.416   3.168  16.074 -0.3452  0.0191  2.3311
  175MPD1    H2 2671   4.247   2.832  15.900 -0.9409  0.0049 -0.1221
  175MPD1    H3 2672   4.436   2.973  15.930 -2.2963 -1.7528 -2.1635
  175MPD1     N 2673   4.252   3.214  16.263 -0.8732 -0.1517 -0.5292
  175MPD1    H5 2674   4.339   3.266  16.256 -0.7068 -0.5490 -1.3460
  175MPD1    N1 2675   4.017   2.845  16.048  0.0118  0.3700 -0.3722
  175MPD1    H6 2676   4.047   2.750  16.027  1.0433  0.6355 -0.0828
  175MPD1    H7 2677   3.962   2.840  16.134 -0.7581 -0.3094 -0.8974
  176MPD1     C 2678   0.552   1.277  15.789  0.4150  0.0833 -0.1665
  176MPD1    C1 2679   0.644   1.374  15.825 -0.5449  0.0471 -0.1613
  176MPD1    C2 2680   0.644   1.406  15.954  0.4213 -0.2377  0.6571
  176MPD1    C3 2681   0.559   1.362  16.054 -0.1526 -0.0856  0.7969
  176MPD1    C4 2682   0.469   1.272  16.009 -0.0450 -0.3982  0.4558
  176MPD1    C5 2683   0.463   1.233  15.878  0.1470  0.8742  0.3714
  176MPD1     H 2684   0.721   1.475  15.986  0.5147 -1.4445  2.9767
  176MPD1    H1 2685   0.399   1.218  16.071 -1.7853  0.3619 -0.8787
  176MPD1    H2 2686   0.547   1.238  15.688 -0.4904  1.2171 -0.5544
  176MPD1    H3 2687   0.393   1.160  15.840  2.6578 -1.3314 -0.0149
  176MPD1     N 2688   0.592   1.389  16.193 -0.1041 -0.3662  0.0852
  176MPD1    H5 2689   0.671   1.445  16.224 -1.2747  0.4639  1.6374
  176MPD1    N1 2690   0.752   1.395  15.743 -0.0359  0.2805 -0.1790
  176MPD1    H6 2691   0.801   1.480  15.769 -1.8044  1.3311 -0.2799
  176MPD1    H7 2692   0.727   1.389  15.644 -0.2542  2.7586 -0.2629
  177MPD1     C 2693   4.604   0.549   8.858 -0.2352  0.4471  0.7672
  177MPD1    C1 2694   4.499   0.471   8.902  0.6267 -0.2224 -0.0126
  177MPD1    C2 2695   4.382   0.541   8.939  0.2559 -0.5345  0.1672
  177MPD1    C3 2696   4.369   0.676   8.949  0.3167  0.3932 -0.1621
  177MPD1    C4 2697   4.473   0.750   8.905 -1.0476 -0.5905  0.4345
  177MPD1    C5 2698   4.588   0.688   8.860 -0.0481  0.4906 -1.1401
  177MPD1     H 2699   4.293   0.482   8.959 -0.7368  0.7904 -0.3971
  177MPD1    H1 2700   4.453   0.855   8.890 -0.4205 -0.2939  1.6743
  177MPD1    H2 2701   4.702   0.508   8.835 -0.5437 -0.8414  1.7453
  177MPD1    H3 2702   4.670   0.739   8.811  0.7868 -0.0126 -0.2543
  177MPD1     N 2703   4.240   0.730   8.980 -0.5560 -0.0901  0.2214
  177MPD1    H5 2704   4.160   0.668   8.990 -1.6426  0.9800 -1.8633
  177MPD1    N1 2705   4.506   0.334   8.892  0.0915 -0.1300  0.4486
  177MPD1    H6 2706   4.451   0.293   8.967  0.5593  0.1117  0.9226
  177MPD1    H7 2707   4.603   0.304   8.899  1.1444  3.4626  1.2044
  178MPD1     C 2708   1.697   1.791   0.289  1.2161 -0.9200 -0.7766
  178MPD1    C1 2709   1.673   1.673   0.226 -0.4055 -0.4349  0.2466
  178MPD1    C2 2710   1.673   1.679   0.092 -0.0018 -0.4367  0.1074
  178MPD1    C3 2711   1.723   1.785   0.018  0.2484 -0.6297  0.9643
  178MPD1    C4 2712   1.755   1.897   0.087  0.3599 -0.4666 -0.1839
  178MPD1    C5 2713   1.728   1.906   0.221 -0.3085 -0.1204 -0.2067
  178MPD1     H 2714   1.644   1.589   0.038  0.2207 -1.0207  0.9664
  178MPD1    H1 2715   1.805   1.978   0.035 -3.1862  2.4051  0.8468
  178MPD1    H2 2716   1.673   1.801   0.394  0.0150 -0.0142 -1.1384
  178MPD1    H3 2717   1.755   1.992   0.282 -0.6929 -1.5429  1.9855
  178MPD1     N 2718   1.741   1.791  17.573  0.4398  0.1996  0.0983
  178MPD1    H5 2719   1.781   1.871  17.526  0.0899  0.8733  0.9519
  178MPD1    N1 2720   1.597   1.570   0.283  0.8081 -0.1590 -0.5046
  178MPD1    H6 2721   1.601   1.481   0.234  0.1720  1.4842 -3.5451
  178MPD1    H7 2722   1.618   1.544   0.379  1.2244 -0.9050 -0.7997
  179MPD1     C 2723   0.921   0.530  16.410  0.6313 -0.5643  0.2198
  179MPD1    C1 2724   0.894   0.539  16.276  0.1207 -0.4112  0.6794
  179MPD1    C2 2725   0.942   0.438  16.195  0.3776 -0.8134  0.3250
  179MPD1    C3 2726   0.997   0.322  16.241 -0.0737 -0.1626  0.2147
  179MPD1    C4 2727   1.016   0.310  16.378  0.0646 -0.0991 -1.0205
  179MPD1    C5 2728   0.977   0.410  16.456 -0.5563 -0.2472 -0.1819
  179MPD1     H 2729   0.923   0.447  16.089  0.4610 -0.7960  0.3120
  179MPD1    H1 2730   1.039   0.218  16.431  1.1179  0.8238  0.1460
  179MPD1    H2 2731   0.893   0.613  16.473  0.2513  0.7120 -1.6197
  179MPD1    H3 2732   0.997   0.414  16.562 -0.8282  1.6760 -0.2045
  179MPD1     N 2733   1.049   0.220  16.162 -0.5009 -0.0608 -0.0874
  179MPD1    H5 2734   1.093   0.148  16.218 -2.2117 -0.4822  0.6873
  179MPD1    N1 2735   0.853   0.667  16.223 -0.1826 -0.3337  0.1639
  179MPD1    H6 2736   0.784   0.708  16.285  1.3483  1.0278  0.9534
  179MPD1    H7 2737   0.802   0.664  16.134  1.1096 -0.3319 -0.5750
  180MPD1     C 2738   0.769   1.716  14.775 -0.0884 -0.0538 -0.1986
  180MPD1    C1 2739   0.899   1.685  14.743 -0.8275 -0.6907 -0.3438
  180MPD1    C2 2740   0.915   1.619  14.621 -0.2251 -0.1132 -0.2350
  180MPD1    C3 2741   0.810   1.574  14.538 -0.2251 -0.0872  0.2550
  180MPD1    C4 2742   0.683   1.604  14.584 -0.2837  0.8877 -0.1959
  180MPD1    C5 2743   0.668   1.681  14.697  0.5897  0.6103  0.5698
  180MPD1     H 2744   1.016   1.593  14.590 -1.4337 -2.5780 -2.0936
  180MPD1    H1 2745   0.596   1.568  14.530  0.3711 -0.3902 -0.3900
  180MPD1    H2 2746   0.749   1.788  14.853 -0.6624 -0.1372 -0.2741
  180MPD1    H3 2747   0.567   1.715  14.715  0.2184 -0.6393  0.8909
  180MPD1     N 2748   0.831   1.493  14.422  0.2152 -0.1972 -0.9120
  180MPD1    H5 2749   0.924   1.477  14.383 -0.5103 -2.2592 -1.7714
  180MPD1    N1 2750   1.010   1.730  14.822 -0.1752  0.0911  0.2419
  180MPD1    H6 2751   1.090   1.671  14.799 -1.0810 -1.3063  0.6054
  180MPD1    H7 2752   1.002   1.739  14.923  3.9429 -1.9072  0.7399
  181MPD1     C 2753   2.529   2.615   9.571 -0.2231 -0.1376  0.7401
  181MPD1    C1 2754   2.528   2.692   9.688 -0.4637  0.4906 -0.4584
  181MPD1    C2 2755   2.619   2.794   9.708 -0.2736  0.4452  0.0614
  181MPD1    C3 2756   2.721   2.810   9.612 -0.0227 -0.3627  0.1357
  181MPD1    C4 2757   2.713   2.744   9.495 -0.4640 -0.4522  0.1248
  181MPD1    C5 2758   2.623   2.642   9.471  0.5425 -0.3269  0.1546
  181MPD1     H 2759   2.630   2.859   9.794 -1.5978 -1.7987  1.8976
  181MPD1    H1 2760   2.789   2.766   9.420 -1.1649  1.4391 -0.0216
  181MPD1    H2 2761   2.455   2.537   9.556  0.9593 -1.3429  1.1237
  181MPD1    H3 2762   2.613   2.588   9.377  2.5639  0.9002 -0.7349
  181MPD1     N 2763   2.827   2.902   9.624  0.2776 -0.2547  0.2767
  181MPD1    H5 2764   2.896   2.888   9.551  0.0487 -1.4946  0.2920
  181MPD1    N1 2765   2.438   2.668   9.794 -0.3643 -0.8732 -0.4054
  181MPD1    H6 2766   2.393   2.752   9.829  1.1918 -1.0493  2.0180
  181MPD1    H7 2767   2.352   2.625   9.759 -1.3585  1.6193 -0.9902
  182MPD1     C 2768   4.066   2.648   1.772 -0.3837 -0.0826 -0.0420
  182MPD1    C1 2769   3.969   2.746   1.768  0.6078  0.0082  0.3327
  182MPD1    C2 2770   3.871   2.731   1.671  0.7548 -0.3801 -0.1751
  182MPD1    C3 2771   3.854   2.612   1.601 -0.3909  0.2538 -0.0456
  182MPD1    C4 2772   3.957   2.516   1.608  0.3884  0.1033  0.4737
  182MPD1    C5 2773   4.061   2.544   1.688 -0.1266 -0.6446 -0.3118
  182MPD1     H 2774   3.797   2.809   1.661  1.2687  0.1626  0.2956
  182MPD1    H1 2775   3.954   2.422   1.555  0.9898  0.4370 -0.1497
  182MPD1    H2 2776   4.151   2.655   1.839 -0.5317  0.8118  0.0623
  182MPD1    H3 2777   4.147   2.477   1.686 -0.2136 -0.8015  1.1107
  182MPD1     N 2778   3.733   2.579   1.529 -0.2280 -0.0626 -0.2184
  182MPD1    H5 2779   3.729   2.483   1.494 -3.3199  0.4977 -1.3908
  182MPD1    N1 2780   3.997   2.872   1.820 -0.2579  0.4899  0.1888
  182MPD1    H6 2781   3.913   2.929   1.829 -0.1590  0.6182  0.3076
  182MPD1    H7 2782   4.060   2.877   1.901  1.0446  2.2683 -0.9194
  183MPD1     C 2783   4.453   4.062   9.442  0.2398 -0.0103 -0.3806
  183MPD1    C1 2784   4.331   4.091   9.388  0.9894 -0.3303  0.0763
  183MPD1    C2 2785   4.238   3.988   9.373  0.2834  0.3167 -0.5081
  183MPD1    C3 2786   4.273   3.852   9.395 -0.3320 -0.5840 -0.1582
  183MPD1    C4 2787   4.398   3.830   9.444 -0.4891  0.0938 -0.1309
  183MPD1    C5 2788   4.483   3.935   9.473 -0.3369 -0.0203  0.4232
  183MPD1     H 2789   4.139   4.023   9.346  1.1059  1.1040 -2.4824
  183MPD1    H1 2790   4.438   3.734   9.474  2.8170  1.2119 -0.9128
  183MPD1    H2 2791   4.528   4.138   9.463  2.0902 -1.2992 -2.4341
  183MPD1    H3 2792   4.575   3.913   9.526 -2.3918 -0.8623  3.6080
  183MPD1     N 2793   4.168   3.753   9.397  0.0725 -0.3686  0.2194
  183MPD1    H5 2794   4.069   3.778   9.397  0.5259  1.5085 -1.0963
  183MPD1    N1 2795   4.293   4.227   9.379  0.0600  0.0618 -0.1661
  183MPD1    H6 2796   4.370   4.288   9.351 -1.5384  1.9643 -0.4013
  183MPD1    H7 2797   4.218   4.243   9.311  0.1463  1.4870  0.0737
  184MPD1     C 2798   2.325   0.716   9.673  0.1811  0.2120  0.0373
  184MPD1    C1 2799   2.422   0.811   9.731  0.8585  0.1646 -0.0471
  184MPD1    C2 2800   2.538   0.835   9.661 -0.4762  0.8449 -0.1587
  184MPD1    C3 2801   2.560   0.767   9.538 -0.0478 -0.1541  0.1621
  184MPD1    C4 2802   2.463   0.690   9.481 -0.2385  0.0858 -1.1945
  184MPD1    C5 2803   2.345   0.670   9.546  0.2522  0.1057  0.3062
  184MPD1     H 2804   2.626   0.876   9.711  0.3930 -0.6788 -0.4388
  184MPD1    H1 2805   2.474   0.636   9.388  1.1532  0.1207 -1.0460
  184MPD1    H2 2806   2.237   0.693   9.730 -0.5871 -0.1016 -1.2686
  184MPD1    H3 2807   2.262   0.612   9.508 -0.5325  0.8481  0.8984
  184MPD1     N 2808   2.672   0.775   9.451  0.3218 -0.6496 -0.0712
  184MPD1    H5 2809   2.660   0.720   9.367  0.0748 -1.2092  0.3302
  184MPD1    N1 2810   2.395   0.856   9.861 -0.2593 -0.7241  0.5026
  184MPD1    H6 2811   2.426   0.953   9.867 -0.0061 -0.8341  0.9134
  184MPD1    H7 2812   2.296   0.856   9.885 -0.9466  0.9435 -2.3963
  185MPD1     C 2813   3.073   0.620   8.541  0.2769 -0.1950  0.2059
  185MPD1    C1 2814   2.996   0.552   8.630  0.4346  0.3761 -0.4321
  185MPD1    C2 2815   2.973   0.615   8.753  0.2511  0.3084  0.6608
  185MPD1    C3 2816   3.034   0.734   8.791 -0.0053  0.5307 -0.6247
  185MPD1    C4 2817   3.101   0.804   8.699  0.7731 -0.0467 -0.2327
  185MPD1    C5 2818   3.113   0.742   8.572  0.1155 -0.4854  0.1673
  185MPD1     H 2819   2.908   0.567   8.826 -0.2718  1.0579  0.6881
  185MPD1    H1 2820   3.131   0.905   8.722 -0.2425  0.5016 -1.3141
  185MPD1    H2 2821   3.095   0.576   8.444 -2.3365 -0.6824 -0.1732
  185MPD1    H3 2822   3.166   0.796   8.494 -1.0942  0.4133 -0.0260
  185MPD1     N 2823   3.025   0.785   8.923 -0.7267 -0.1086  0.2068
  185MPD1    H5 2824   3.082   0.867   8.940  0.5510 -0.7815 -0.8567
  185MPD1    N1 2825   2.927   0.429   8.594  0.2594 -0.8080  0.1919
  185MPD1    H6 2826   2.881   0.382   8.671 -1.4070 -0.1712 -0.4164
  185MPD1    H7 2827   2.992   0.363   8.551  2.5699 -0.1596  2.7193
  186MPD1     C 2828   1.261   0.023  15.517  0.6398 -0.0212  0.5127
  186MPD1    C1 2829   1.166   0.117  15.573  0.1858 -0.1373 -0.4001
  186MPD1    C2 2830   1.214   0.203  15.669 -0.0088 -0.1648 -0.1057
  186MPD1    C3 2831   1.351   0.212  15.697  0.0303  0.2524  0.4090
  186MPD1    C4 2832   1.439   0.135  15.629 -0.0170 -0.5769 -0.7355
  186MPD1    C5 2833   1.391   0.046  15.539  0.4752  0.0244 -0.1256
  186MPD1     H 2834   1.141   0.256  15.730 -0.5222 -0.3372 -0.5647
  186MPD1    H1 2835   1.547   0.142  15.632 -0.3203  2.8371  2.5870
  186MPD1    H2 2836   1.233   4.676  15.440  0.2391 -0.5256  1.1082
  186MPD1    H3 2837   1.457   4.718  15.471 -0.8427 -2.3115  0.3266
  186MPD1     N 2838   1.415   0.288  15.799  0.1383  0.5493 -0.5031
  186MPD1    H5 2839   1.514   0.275  15.817  0.7930  2.6004 -2.5619
  186MPD1    N1 2840   1.027   0.092  15.566  1.1049  0.3710 -0.5446
  186MPD1    H6 2841   0.987   0.186  15.576  1.4763  0.6183 -1.3951
  186MPD1    H7 2842   1.018   0.057  15.471 -0.7399 -0.9167  0.1164
  187MPD1     C 2843   0.468   3.155   0.595 -0.6043 -0.2628 -0.6235
  187MPD1    C1 2844   0.417   3.029   0.618  0.6131 -0.1158  0.3780
  187MPD1    C2 2845   0.456   2.927   0.533 -0.3126  0.8303  0.1697
  187MPD1    C3 2846   0.531   2.958   0.420  0.1480  0.1849  0.5443
  187MPD1    C4 2847   0.571   3.087   0.396 -0.1262 -0.7244  0.1824
  187MPD1    C5 2848   0.546   3.190   0.484 -0.2418  0.1965  0.0224
  187MPD1     H 2849   0.430   2.825   0.558 -0.2882  0.0822 -2.9571
  187MPD1    H1 2850   0.637   3.104   0.311 -0.8138 -1.6913 -0.5388
  187MPD1    H2 2851   0.446   3.241   0.658  0.5756 -0.1148 -0.4173
  187MPD1    H3 2852   0.587   3.291   0.483 -1.7921  0.8382  1.7527
  187MPD1     N 2853   0.571   2.859   0.334 -0.0320  0.1993  0.1862
  187MPD1    H5 2854   0.644   2.889   0.269 -0.6776  0.2456 -0.5221
  187MPD1    N1 2855   0.368   2.987   0.747 -0.8755  0.1618 -0.2752
  187MPD1    H6 2856   0.304   3.060   0.779 -1.7895 -1.5627  1.8149
  187MPD1    H7 2857   0.307   2.906   0.742 -0.9911  0.3327 -1.5622
  188MPD1     C 2858   0.663   2.456   9.627  0.0886  0.0362 -0.7551
  188MPD1    C1 2859   0.696   2.364   9.530  0.0912  1.1909 -0.0080
  188MPD1    C2 2860   0.653   2.235   9.540  0.0615 -0.4048  0.9034
  188MPD1    C3 2861   0.625   2.184   9.666  0.5069  0.4257  0.5149
  188MPD1    C4 2862   0.636   2.275   9.775 -0.3426 -0.1164 -0.1486
  188MPD1    C5 2863   0.645   2.407   9.753  0.5062 -0.3785  0.0146
  188MPD1     H 2864   0.663   2.176   9.450  3.7671  1.9040 -0.2047
  188MPD1    H1 2865   0.616   2.235   9.874 -1.6248  1.8760  0.3883
  188MPD1    H2 2866   0.696   2.559   9.625 -0.7153  0.3269  1.0386
  188MPD1    H3 2867   0.627   2.477   9.834  0.4833  0.5386 -0.7833
  188MPD1     N 2868   0.579   2.050   9.697 -0.4638  0.5090 -0.5170
  188MPD1    H5 2869   0.564   2.027   9.795  1.7907  0.8794 -0.0677
  188MPD1    N1 2870   0.737   2.412   9.402  0.6265 -0.0598 -0.1994
  188MPD1    H6 2871   0.790   2.499   9.396 -1.2805  1.2090  1.2529
  188MPD1    H7 2872   0.781   2.340   9.345  3.2207  0.7966  0.6752
  189MPD1     C 2873   2.226   2.657   0.537  0.4836  0.3491  0.3891
  189MPD1    C1 2874   2.136   2.629   0.437  0.0881  0.1178 -0.1215
  189MPD1    C2 2875   2.069   2.736   0.382 -0.0641  1.1335  0.4989
  189MPD1    C3 2876   2.108   2.863   0.399 -0.7409  0.5598 -0.0044
  189MPD1    C4 2877   2.217   2.887   0.480  0.2038  0.4809  0.3730
  189MPD1    C5 2878   2.261   2.783   0.558  0.1143  0.2320 -0.3199
  189MPD1     H 2879   1.994   2.714   0.307  1.2580 -2.1729  0.1419
  189MPD1    H1 2880   2.253   2.986   0.507  1.1375  0.0345  0.7578
  189MPD1    H2 2881   2.278   2.580   0.592 -1.5610 -0.3278  1.3764
  189MPD1    H3 2882   2.329   2.807   0.639 -0.9700 -0.8891  0.9465
  189MPD1     N 2883   2.037   2.963   0.320  0.1961  0.3243  0.1256
  189MPD1    H5 2884   1.960   2.934   0.262  1.6929 -0.2080 -1.6111
  189MPD1    N1 2885   2.089   2.496   0.428 -0.4722 -0.4997 -0.0263
  189MPD1    H6 2886   2.051   2.481   0.335 -0.5802 -0.0628 -0.0550
  189MPD1    H7 2887   2.165   2.430   0.444 -0.9244 -1.2231 -0.9085
  190MPD1     C 2888   0.784   1.024  15.410 -0.4168 -0.1766  0.0367
  190MPD1    C1 2889   0.876   1.063  15.321 -0.3462  0.3806  0.2370
  190MPD1    C2 2890   0.979   1.153  15.357 -0.0530  0.2973  0.2696
  190MPD1    C3 2891   0.993   1.192  15.485 -0.2906  0.2495 -0.2905
  190MPD1    C4 2892   0.906   1.143  15.583  0.7807  0.2500  0.6696
  190MPD1    C5 2893   0.806   1.051  15.545 -0.0942  0.6876 -0.6805
  190MPD1     H 2894   1.048   1.190  15.282 -0.8026  1.0042 -0.0837
  190MPD1    H1 2895   0.904   1.162  15.690 -0.6721  1.0334  0.5113
  190MPD1    H2 2896   0.703   0.958  15.382 -0.0326 -1.1101  1.0888
  190MPD1    H3 2897   0.743   1.013  15.624 -0.1001  0.1227 -0.9563
  190MPD1     N 2898   1.087   1.296  15.519 -0.7416 -0.1280  0.1382
  190MPD1    H5 2899   1.139   1.338  15.443 -1.6133 -2.1662 -1.5760
  190MPD1    N1 2900   0.872   1.005  15.196 -0.5691  0.0852 -0.4497
  190MPD1    H6 2901   0.778   0.969  15.179 -0.4368  0.2135 -1.4812
  190MPD1    H7 2902   0.904   1.069  15.123  3.3308 -3.8224 -2.1605
  191MPD1     C 2903   0.689   3.751  11.789  0.2132 -0.3061  0.3132
  191MPD1    C1 2904   0.618   3.675  11.880 -1.2595  0.7971 -0.0048
  191MPD1    C2 2905   0.652   3.538  11.872 -0.4489 -0.0482  0.0635
  191MPD1    C3 2906   0.724   3.481  11.768  0.4918 -0.0000  0.1518
  191MPD1    C4 2907   0.772   3.563  11.669  0.1163 -0.2919  0.9126
  191MPD1    C5 2908   0.766   3.696  11.688 -0.9496  0.3113  0.1420
  191MPD1     H 2909   0.615   3.467  11.945 -2.5934  0.9790 -0.0118
  191MPD1    H1 2910   0.837   3.529  11.589 -0.1936  0.3119  0.4071
  191MPD1    H2 2911   0.684   3.859  11.784  0.7359 -0.2942  0.0744
  191MPD1    H3 2912   0.808   3.764  11.615 -0.6930  2.9431  2.7703
  191MPD1     N 2913   0.757   3.340  11.777 -0.4003  0.3823  0.4339
  191MPD1    H5 2914   0.717   3.281  11.850 -1.6775  0.8639  0.1283
  191MPD1    N1 2915   0.554   3.728  11.992 -0.0084 -0.1299  0.4640
  191MPD1    H6 2916   0.498   3.658  12.039  1.7851 -2.6383 -1.1174
  191MPD1    H7 2917   0.490   3.804  11.971  0.8028  0.5839  0.5630
  192MPD1     C 2918   0.983   2.612  11.142 -0.4201 -0.1587  0.6685
  192MPD1    C1 2919   0.906   2.561  11.241  0.0603 -0.5092  0.6185
  192MPD1    C2 2920   0.877   2.643  11.353  0.1453  0.2492  0.1670
  192MPD1    C3 2921   0.934   2.766  11.360  0.4044 -0.1295 -0.4134
  192MPD1    C4 2922   1.004   2.813  11.248  0.0756  0.1185 -0.5290
  192MPD1    C5 2923   1.037   2.736  11.142 -0.2930 -0.1153  0.0951
  192MPD1     H 2924   0.807   2.609  11.429 -1.9780 -0.9121 -2.3075
  192MPD1    H1 2925   1.033   2.917  11.252  2.3645 -0.5894  1.4330
  192MPD1    H2 2926   1.002   2.553  11.053  1.5691 -1.8866  2.2479
  192MPD1    H3 2927   1.094   2.766  11.055  0.3020 -1.2588  0.0869
  192MPD1     N 2928   0.930   2.851  11.472  0.4352 -0.2103 -0.1659
  192MPD1    H5 2929   0.977   2.940  11.478  0.2429 -0.1542  0.4478
  192MPD1    N1 2930   0.831   2.445  11.218 -0.6433 -0.9439  0.0456
  192MPD1    H6 2931   0.800   2.402  11.305  0.6504  0.8967  1.4260
  192MPD1    H7 2932   0.899   2.376  11.187  0.9074  0.2713  0.7426
  193MPD1     C 2933   1.064   3.074  17.423  0.3744  0.5991  0.1265
  193MPD1    C1 2934   1.011   3.183  17.476  0.5177 -0.0606  0.6435
  193MPD1    C2 2935   0.989   3.290  17.391 -0.2332  0.4070  0.1690
  193MPD1    C3 2936   1.024   3.297  17.258  0.0096  0.3341 -0.0576
  193MPD1    C4 2937   1.096   3.189  17.211 -0.6954 -0.4253 -0.4685
  193MPD1    C5 2938   1.110   3.080  17.296  0.7454  0.1310  0.4854
  193MPD1     H 2939   0.941   3.377  17.434  2.4643  0.9999  1.9318
  193MPD1    H1 2940   1.144   3.181  17.113 -0.8068  0.8854 -0.6307
  193MPD1    H2 2941   1.055   2.978  17.473  2.7294 -1.0021 -2.4635
  193MPD1    H3 2942   1.148   2.993  17.244 -1.8757 -0.0075 -1.2169
  193MPD1     N 2943   0.987   3.392  17.164  0.5114  0.0561  0.5387
  193MPD1    H5 2944   1.019   3.380  17.068  0.9425 -0.5621  0.7572
  193MPD1    N1 2945   0.961   3.185  17.606  0.3985  0.1038 -0.5402
  193MPD1    H6 2946   1.022   3.129  17.665  1.7991  2.7870  0.5440
  193MPD1    H7 2947   0.967   3.278  17.646 -1.1365  2.2275 -5.2600
  194MPD1     C 2948   2.686   0.655  15.829 -0.7663 -0.5968 -0.0611
  194MPD1    C1 2949   2.646   0.719  15.940 -0.1618  0.5249  0.1485
  194MPD1    C2 2950   2.726   0.722  16.053  0.2778  0.3591 -0.3798
  194MPD1    C3 2951   2.847   0.646  16.055  0.6983 -0.1032  0.1240
  194MPD1    C4 2952   2.887   0.583  15.940  0.1003 -0.3859 -1.0181
  194MPD1    C5 2953   2.799   0.584  15.834 -0.5378  0.0129  0.2543
  194MPD1     H 2954   2.687   0.783  16.134 -0.8212  0.1052 -0.7086
  194MPD1    H1 2955   2.975   0.520  15.940  0.4930  0.1607 -1.0386
  194MPD1    H2 2956   2.616   0.652  15.746  1.3068  4.3210 -1.9913
  194MPD1    H3 2957   2.822   0.520  15.750  1.9608  1.4938 -0.1722
  194MPD1     N 2958   2.931   0.636  16.172 -0.0391  0.5509  0.1337
  194MPD1    H5 2959   3.024   0.600  16.157  0.0066 -1.0296  4.0280
  194MPD1    N1 2960   2.526   0.792  15.942  0.7146 -0.1174 -0.4420
  194MPD1    H6 2961   2.481   0.775  16.032 -1.3647  0.0649 -1.4421
  194MPD1    H7 2962   2.470   0.753  15.866  0.8803 -1.0252 -0.1021
  195MPD1     C 2963   0.993   1.967   0.305 -0.6283 -0.0477 -0.0745
  195MPD1    C1 2964   1.043   1.910   0.191 -0.7381  0.7348 -0.2688
  195MPD1    C2 2965   0.988   1.790   0.145 -1.4098  0.4942 -0.6601
  195MPD1    C3 2966   0.895   1.717   0.219 -0.7842 -0.1677 -0.0260
  195MPD1    C4 2967   0.861   1.770   0.339 -0.3081  0.4908  0.5523
  195MPD1    C5 2968   0.903   1.892   0.382  0.5729 -0.5250 -0.0951
  195MPD1     H 2969   1.011   1.767   0.041 -0.8671  1.1148 -0.6806
  195MPD1    H1 2970   0.798   1.713   0.407  0.3624  0.6041  1.2656
  195MPD1    H2 2971   1.022   2.066   0.338 -1.9148  0.1717  0.4136
  195MPD1    H3 2972   0.876   1.940   0.475 -1.5269  0.5660 -1.2735
  195MPD1     N 2973   0.828   1.599   0.174  0.2152 -0.5650  0.1401
  195MPD1    H5 2974   0.770   1.548   0.240 -0.5992 -0.3391 -0.4134
  195MPD1    N1 2975   1.133   1.985   0.111 -0.3033 -0.3298 -0.2741
  195MPD1    H6 2976   1.190   2.037   0.178 -0.4792 -0.8091  0.2457
  195MPD1    H7 2977   1.198   1.933   0.053  0.6597 -0.9687  1.3714
  196MPD1     C 2978   4.658   1.900   1.473 -0.1169 -0.2686  0.4734
  196MPD1    C1 2979   4.676   1.939   1.343 -0.1694  0.1366  1.1393
  196MPD1    C2 2980   4.677   2.076   1.314  0.1545  0.1231  0.1751
  196MPD1    C3 2981   4.682   2.166   1.413 -0.1017  0.5148  0.1336
  196MPD1    C4 2982   4.669   2.126   1.544  0.1145  0.2282 -0.4236
  196MPD1    C5 2983   4.657   1.993   1.573 -0.2272  0.3238  0.1870
  196MPD1     H 2984   4.695   2.107   1.212  0.1532 -0.1244  0.1010
  196MPD1    H1 2985   4.658   2.199   1.623  0.6418 -0.5191  0.3368
  196MPD1    H2 2986   4.647   1.794   1.493 -0.5064 -0.0156  1.5664
  196MPD1    H3 2987   4.646   1.958   1.675 -1.1743  0.9880  0.3201
  196MPD1     N 2988   4.702   2.306   1.400  0.0843 -0.3086  0.1188
  196MPD1    H5 2989   0.012   2.359   1.480  1.0236 -1.5403  0.5238
  196MPD1    N1 2990   4.671   1.844   1.238 -0.4375 -0.0280 -0.2670
  196MPD1    H6 2991   4.677   1.747   1.268 -0.7188 -0.4261 -1.4902
  196MPD1    H7 2992   4.586   1.856   1.184 -1.6321  2.7257  2.2410
  197MPD1     C 2993   4.379   4.076   0.184  0.7698  0.3739 -0.0662
  197MPD1    C1 2994   4.382   4.216   0.158  0.4551  0.3797 -0.6798
  197MPD1    C2 2995   4.319   4.263   0.043  0.2535  0.2190  0.2604
  197MPD1    C3 2996   4.264   4.169  17.646 -0.1994  0.3884  0.1529
  197MPD1    C4 2997   4.261   4.034  17.675  0.1651 -0.0878  1.0272
  197MPD1    C5 2998   4.321   3.991   0.094 -0.6909 -0.1252  0.6265
  197MPD1     H 2999   4.321   4.370   0.027 -0.0133  0.2728  0.5778
  197MPD1    H1 3000   4.227   3.960  17.604 -0.6262  1.5770 -0.3125
  197MPD1    H2 3001   4.422   4.032   0.273  1.9203  0.8623 -0.3717
  197MPD1    H3 3002   4.324   3.886   0.118 -1.1299 -0.3465 -0.2663
  197MPD1     N 3003   4.211   4.215  17.522  0.0577  0.2195  0.3253
  197MPD1    H5 3004   4.157   4.152  17.463  0.8604 -0.9498  0.8647
  197MPD1    N1 3005   4.471   4.299   0.230 -0.1646  0.3633  0.8849
  197MPD1    H6 3006   4.467   4.401   0.236  0.0979  0.4934 -1.3353
  197MPD1    H7 3007   4.477   4.259   0.323 -0.6497  1.1596  1.2615
  198MPD1     C 3008   0.796   2.376  15.410 -0.5640 -0.2161 -0.3615
  198MPD1    C1 3009   0.873   2.275  15.467  0.6636 -0.8768  0.3049
  198MPD1    C2 3010   1.006   2.300  15.495  0.2147  0.0548 -0.2017
  198MPD1    C3 3011   1.067   2.419  15.464 -0.5005  0.5251 -0.4507
  198MPD1    C4 3012   0.991   2.523  15.415 -0.1328  0.8830  0.1879
  198MPD1    C5 3013   0.855   2.497  15.385  0.4016  0.1460  0.6126
  198MPD1     H 3014   1.065   2.222  15.541  0.0248 -1.0490 -1.8626
  198MPD1    H1 3015   1.029   2.624  15.400 -2.7682  1.5707 -1.9136
  198MPD1    H2 3016   0.689   2.363  15.396 -0.5338 -0.3868 -0.4278
  198MPD1    H3 3017   0.794   2.571  15.335 -1.5054 -1.0558  1.1597
  198MPD1     N 3018   1.199   2.431  15.504  0.1580 -0.0170  0.1107
  198MPD1    H5 3019   1.236   2.346  15.543 -0.0674  1.2150  3.0081
  198MPD1    N1 3020   0.812   2.156  15.503 -0.0604  0.4190 -1.1324
  198MPD1    H6 3021   0.721   2.154  15.458  0.2158  0.1910 -1.6808
  198MPD1    H7 3022   0.784   2.157  15.601 -0.0787  0.4454 -1.1381
  199MPD1     C 3023   3.922   3.879   9.651 -0.0328  0.1504  0.1693
  199MPD1    C1 3024   3.843   3.988   9.626  0.0958  0.0105 -0.0655
  199MPD1    C2 3025   3.715   3.963   9.595  0.6473  0.0934  0.1453
  199MPD1    C3 3026   3.646   3.838   9.592  0.0191  0.0656 -0.4424
  199MPD1    C4 3027   3.730   3.729   9.619 -0.1460 -0.2571 -0.2663
  199MPD1    C5 3028   3.865   3.750   9.652  0.2674 -0.5565  0.5107
  199MPD1     H 3029   3.662   4.052   9.564  0.7556  0.1548  0.1365
  199MPD1    H1 3030   3.683   3.632   9.628 -3.2888  1.1695 -1.3907
  199MPD1    H2 3031   4.027   3.885   9.675 -0.4926  1.3977  1.9174
  199MPD1    H3 3032   3.928   3.667   9.684  1.6266 -0.7758 -2.7042
  199MPD1     N 3033   3.508   3.816   9.559 -0.1618 -0.6735  0.1520
  199MPD1    H5 3034   3.477   3.721   9.578  0.3316 -1.2405 -1.9250
  199MPD1    N1 3035   3.900   4.120   9.599 -0.0674 -0.4073 -1.2151
  199MPD1    H6 3036   3.836   4.195   9.624  1.7936  1.0094 -0.6762
  199MPD1    H7 3037   3.989   4.135   9.646  0.2880 -0.6921 -1.8067
  200MPD1     C 3038   2.138   3.538  14.509 -0.1962 -0.5664 -0.6467
  200MPD1    C1 3039   2.182   3.519  14.382 -0.4703 -0.4136 -0.5585
  200MPD1    C2 3040   2.310   3.542  14.348 -0.0901 -0.0056  0.4492
  200MPD1    C3 3041   2.402   3.583  14.440  0.2647 -0.7028 -1.0281
  200MPD1    C4 3042   2.352   3.617  14.564 -0.3049 -0.3999  0.0951
  200MPD1    C5 3043   2.226   3.587  14.599 -0.2765 -0.3467  0.2339
  200MPD1     H 3044   2.336   3.520  14.246 -1.4966  1.6999 -0.2765
  200MPD1    H1 3045   2.408   3.657  14.648 -1.8142  2.8128 -0.4328
  200MPD1    H2 3046   2.037   3.532  14.548  0.3878 -1.1221  0.7711
  200MPD1    H3 3047   2.210   3.607  14.705 -2.7159  1.8476 -0.5486
  200MPD1     N 3048   2.539   3.584  14.409  0.2678 -0.7006 -0.5299
  200MPD1    H5 3049   2.556   3.544  14.317  0.9632 -0.9685 -0.2825
  200MPD1    N1 3050   2.086   3.495  14.278 -0.1574  0.4199  0.5726
  200MPD1    H6 3051   2.129   3.433  14.209 -2.3610 -1.9288  1.3046
  200MPD1    H7 3052   1.994   3.457  14.299  0.3472 -0.2425  1.5511
  201MPD1     C 3053   4.448   3.172  12.720 -0.3418  0.2543  0.9405
  201MPD1    C1 3054   4.403   3.086  12.620  0.2107  0.0499  0.1765
  201MPD1    C2 3055   4.419   2.954  12.642  0.6327  0.4065  0.0769
  201MPD1    C3 3056   4.496   2.898  12.736 -0.9017  0.3199  0.0562
  201MPD1    C4 3057   4.550   2.980  12.834  0.5264 -0.2860 -0.5168
  201MPD1    C5 3058   4.522   3.117  12.828  1.0881  0.0758  0.2457
  201MPD1     H 3059   4.380   2.888  12.565  0.4824  2.3112 -1.4701
  201MPD1    H1 3060   4.611   2.943  12.915  1.7023  3.5338  0.3370
  201MPD1    H2 3061   4.419   3.277  12.716 -1.2629  0.0178  1.4985
  201MPD1    H3 3062   4.568   3.179  12.904 -1.6967  2.2656  0.1728
  201MPD1     N 3063   4.506   2.757  12.740  0.3096  0.0533 -0.0783
  201MPD1    H5 3064   4.449   2.705  12.674 -2.0680 -0.4066  2.3398
  201MPD1    N1 3065   4.311   3.137  12.521  0.3695  0.6607  0.2090
  201MPD1    H6 3066   4.312   3.235  12.496 -1.6270  0.2135 -1.6402
  201MPD1    H7 3067   4.217   3.132  12.559 -0.0093 -3.2246 -1.1465
  202MPD1     C 3068   0.459   2.739   9.900 -0.1284 -0.4086  0.1554
  202MPD1    C1 3069   0.404   2.797   9.788  0.6338 -0.0133 -0.5492
  202MPD1    C2 3070   0.284   2.742   9.739 -0.0224  0.0555 -0.2038
  202MPD1    C3 3071   0.249   2.611   9.775  0.4545  0.2102 -0.2922
  202MPD1    C4 3072   0.322   2.543   9.869 -0.3289  0.4082  0.9031
  202MPD1    C5 3073   0.427   2.608   9.933  0.0893 -0.4188 -0.6260
  202MPD1     H 3074   0.226   2.810   9.677 -0.0633 -0.9454 -1.2714
  202MPD1    H1 3075   0.305   2.441   9.903  0.3819  0.1709  0.5350
  202MPD1    H2 3076   0.524   2.792   9.968  1.3839 -0.8336 -0.9653
  202MPD1    H3 3077   0.478   2.559  10.015  0.3280  0.1801 -0.4217
  202MPD1     N 3078   0.137   2.557   9.709  0.3089 -0.0093  0.1143
  202MPD1    H5 3079   0.115   2.462   9.738  1.4907 -0.1271  0.6393
  202MPD1    N1 3080   0.416   2.934   9.776  1.3074 -0.1160  0.3111
  202MPD1    H6 3081   0.382   2.963   9.685  0.4078 -0.2870  0.5942
  202MPD1    H7 3082   0.515   2.959   9.778  0.7735  2.0349 -0.8623
  203MPD1     C 3083   3.066   3.623  12.579 -0.4299  0.0603 -0.1063
  203MPD1    C1 3084   3.159   3.540  12.644  0.3205 -0.3066 -0.2016
  203MPD1    C2 3085   3.160   3.407  12.615  0.2764 -0.0772 -0.8435
  203MPD1    C3 3086   3.099   3.353  12.505  0.0406  0.0033 -0.1330
  203MPD1    C4 3087   3.031   3.444  12.424 -0.0355  0.6466  0.3240
  203MPD1    C5 3088   3.015   3.577  12.467 -0.2886  0.5922  0.5153
  203MPD1     H 3089   3.222   3.333  12.665 -0.7466 -1.6468 -1.8868
  203MPD1    H1 3090   2.994   3.414  12.326  1.9845  0.8818 -0.5065
  203MPD1    H2 3091   3.037   3.717  12.624 -0.3543  0.4659 -0.9038
  203MPD1    H3 3092   2.954   3.647  12.410  1.5872  0.7973 -1.2488
  203MPD1     N 3093   3.125   3.221  12.475 -0.1623  0.5155 -0.8279
  203MPD1    H5 3094   3.184   3.168  12.538 -0.5873  0.1311 -0.7562
  203MPD1    N1 3095   3.204   3.576  12.773 -0.4333 -0.2716 -0.3133
  203MPD1    H6 3096   3.290   3.527  12.795 -1.0135 -0.8190  0.7918
  203MPD1    H7 3097   3.223   3.676  12.768  0.1443 -0.2736  1.6094
  204MPD1     C 3098   2.366   4.325  17.626  0.0737 -0.5498 -0.2875
  204MPD1    C1 3099   2.449   4.339  17.515  0.3990  0.2745 -0.3516
  204MPD1    C2 3100   2.519   4.237  17.464  0.3125 -0.2255  0.0008
  204MPD1    C3 3101   2.514   4.115  17.529 -0.5323 -0.5635  0.5139
  204MPD1    C4 3102   2.445   4.106  17.649 -0.7902 -0.2544 -0.8332
  204MPD1    C5 3103   2.379   4.211   0.002  0.3867 -0.5761 -0.2772
  204MPD1     H 3104   2.574   4.254  17.372 -1.8852  0.3070 -1.1933
  204MPD1    H1 3105   2.449   4.024   0.023  1.3847 -2.4469 -3.5385
  204MPD1    H2 3106   2.302   4.400  17.670  0.5928 -0.9438  1.1375
  204MPD1    H3 3107   2.341   4.209   0.103  0.4398 -1.5615 -0.2792
  204MPD1     N 3108   2.577   4.006  17.471  0.6496 -0.2044 -0.5820
  204MPD1    H5 3109   2.613   4.034  17.380  0.0743  2.8333  0.1182
  204MPD1    N1 3110   2.467   4.471  17.461  0.5000 -0.1573  0.4036
  204MPD1    H6 3111   2.538   4.481  17.388 -1.0312  0.1127 -1.0365
  204MPD1    H7 3112   2.472   4.544  17.532 -3.0620  1.4971 -1.0586
  205MPD1     C 3113   2.343   2.382  16.719  0.0912  0.4763  0.4279
  205MPD1    C1 3114   2.449   2.462  16.683 -0.3974 -0.4764  0.5884
  205MPD1    C2 3115   2.510   2.536  16.784  0.5211 -0.1138 -0.1013
  205MPD1    C3 3116   2.462   2.522  16.915  0.4334 -1.1436  0.3744
  205MPD1    C4 3117   2.355   2.446  16.946  0.7354 -0.3584  0.3692
  205MPD1    C5 3118   2.295   2.379  16.847  0.0134 -0.3077  0.4079
  205MPD1     H 3119   2.594   2.600  16.759  0.3212  0.5912  1.0562
  205MPD1    H1 3120   2.319   2.439  17.048 -1.3678 -0.8859 -0.4102
  205MPD1    H2 3121   2.279   2.327  16.650  2.2619 -1.3591 -0.0982
  205MPD1    H3 3122   2.201   2.332  16.873  0.9520 -2.0481  0.6057
  205MPD1     N 3123   2.529   2.570  17.030 -0.0211  0.2521 -0.3023
  205MPD1    H5 3124   2.486   2.555  17.121  1.5257  1.6887  0.6647
  205MPD1    N1 3125   2.481   2.485  16.549  0.8266 -0.3560 -0.0049
  205MPD1    H6 3126   2.579   2.511  16.548  0.5254  0.8161  2.0279
  205MPD1    H7 3127   2.465   2.403  16.491  1.4729  1.0097 -2.1012
  206MPD1     C 3128   3.169   0.995  16.351 -0.2861 -0.8948  0.3883
  206MPD1    C1 3129   3.039   1.027  16.384 -0.4004 -0.1023 -0.4296
  206MPD1    C2 3130   2.954   1.055  16.273  0.2846  0.0254  0.0691
  206MPD1    C3 3131   2.995   1.041  16.140 -0.1852 -0.8263 -0.0472
  206MPD1    C4 3132   3.122   0.993  16.113  0.2825 -0.2256  0.1863
  206MPD1    C5 3133   3.203   0.973  16.225 -0.2472  0.6646 -0.0649
  206MPD1     H 3134   2.859   1.102  16.297  1.2078  1.1976  1.4480
  206MPD1    H1 3135   3.171   0.978  16.018 -1.5059  0.4891 -0.8446
  206MPD1    H2 3136   3.236   0.986  16.435 -2.5957 -1.2444  2.2108
  206MPD1    H3 3137   3.307   0.952  16.204 -0.1413  1.9788 -0.8785
  206MPD1     N 3138   2.906   1.065  16.028  0.7895  0.1646 -0.0354
  206MPD1    H5 3139   2.952   1.058  15.938  2.2446  3.9892  0.3867
  206MPD1    N1 3140   3.006   1.063  16.513 -0.4810 -0.7699 -0.1571
  206MPD1    H6 3141   3.039   0.997  16.584 -0.1120 -1.2987 -0.8263
  206MPD1    H7 3142   2.906   1.052  16.534  0.0214 -1.7177  1.8144
  207MPD1     C 3143   4.660   3.465   9.473  0.2636  0.0009 -0.4174
  207MPD1    C1 3144   0.001   3.340   9.500 -0.3914  0.2876  0.5605
  207MPD1    C2 3145   0.132   3.335   9.540 -0.5941 -0.2882 -0.2028
  207MPD1    C3 3146   0.205   3.450   9.557 -0.4103  0.5210 -0.0621
  207MPD1    C4 3147   0.145   3.573   9.532  0.2773  0.2731  0.0677
  207MPD1    C5 3148   0.015   3.576   9.497  0.2798 -0.2543  0.2814
  207MPD1     H 3149   0.175   3.236   9.549 -0.1832 -0.1472 -0.6186
  207MPD1    H1 3150   0.199   3.665   9.551 -2.9768  2.2871 -0.3511
  207MPD1    H2 3151   4.562   3.479   9.428  0.1806  0.6521 -0.0236
  207MPD1    H3 3152   4.700   3.677   9.484  0.2556 -0.3329 -0.2810
  207MPD1     N 3153   0.342   3.451   9.591  0.1478  0.2188  1.0213
  207MPD1    H5 3154   0.381   3.544   9.602  2.2887 -0.4317 -1.0742
  207MPD1    N1 3155   4.664   3.220   9.459  0.1712  0.1601  0.8696
  207MPD1    H6 3156   4.563   3.235   9.468 -0.1897 -2.6599  1.4389
  207MPD1    H7 3157   4.684   3.138   9.515  3.3218  0.1118 -0.3501
  208MPD1     C 3158   3.669   1.834  17.526  0.0426 -0.2822 -0.4404
  208MPD1    C1 3159   3.532   1.795  17.530  0.0720  0.8179 -0.0519
  208MPD1    C2 3160   3.449   1.853  17.623 -0.0124 -0.4117 -0.7751
  208MPD1    C3 3161   3.500   1.942   0.021 -0.4056  0.1906  0.5039
  208MPD1    C4 3162   3.623   1.985   0.005  0.1021 -0.4906  0.1271
  208MPD1    C5 3163   3.710   1.933  17.608 -0.1777  0.3374 -0.4556
  208MPD1     H 3164   3.350   1.811  17.637 -0.7466  1.6233  0.1725
  208MPD1    H1 3165   3.663   2.059   0.072 -0.3361  0.7928 -1.0334
  208MPD1    H2 3166   3.739   1.785  17.459  0.6203 -0.6635  0.4424
  208MPD1    H3 3167   3.811   1.969  17.594 -0.3018  0.8895  0.0629
  208MPD1     N 3168   3.422   1.990   0.131  0.2374 -0.4917  0.0737
  208MPD1    H5 3169   3.324   1.966   0.144  0.7037 -0.9038  2.7715
  208MPD1    N1 3170   3.489   1.681  17.454 -0.4598 -0.2063  0.1975
  208MPD1    H6 3171   3.539   1.677  17.365 -1.1291  0.7711 -0.2120
  208MPD1    H7 3172   3.388   1.680  17.444 -0.2237 -0.0700 -2.2457
  209MPD1     C 3173   0.908   2.274  10.765  0.1101  0.4123 -0.5664
  209MPD1    C1 3174   0.928   2.279  10.627 -0.0055 -0.3029  0.6466
  209MPD1    C2 3175   0.970   2.396  10.575 -0.0602 -0.0642  0.5791
  209MPD1    C3 3176   0.998   2.502  10.650  0.2844 -0.2018 -0.5959
  209MPD1    C4 3177   0.966   2.499  10.784  0.4033  0.3539  0.2960
  209MPD1    C5 3178   0.923   2.381  10.848 -0.7555 -0.2459  0.1094
  209MPD1     H 3179   0.988   2.398  10.469 -0.1093 -0.1639  0.5686
  209MPD1    H1 3180   0.972   2.590  10.842 -0.3946  0.6764 -0.1292
  209MPD1    H2 3181   0.886   2.183  10.819 -0.1303  0.3616 -0.7511
  209MPD1    H3 3182   0.905   2.370  10.954 -0.7616 -0.8342  0.0456
  209MPD1     N 3183   1.050   2.616  10.580  0.5452 -0.0592  0.2159
  209MPD1    H5 3184   1.080   2.584  10.488 -0.9772  1.3879 -0.7959
  209MPD1    N1 3185   0.912   2.163  10.553  0.1281  0.0248 -0.2809
  209MPD1    H6 3186   0.857   2.091  10.601  0.2245 -1.3400 -2.2209
  209MPD1    H7 3187   0.884   2.162  10.456 -1.9889 -1.1615  0.3329
  210MPD1     C 3188   1.729   3.471  10.594  0.7132  0.3489 -0.9900
  210MPD1    C1 3189   1.713   3.372  10.681 -0.2226 -0.3891  0.0362
  210MPD1    C2 3190   1.628   3.265  10.654 -0.4975  0.0294 -0.2382
  210MPD1    C3 3191   1.542   3.271  10.549 -0.4804 -0.2650  0.6000
  210MPD1    C4 3192   1.543   3.386  10.471 -0.0383 -0.1033 -0.2447
  210MPD1    C5 3193   1.638   3.480  10.498  1.4076 -0.4233  0.1709
  210MPD1     H 3194   1.634   3.172  10.709  0.4069 -1.3885 -2.6954
  210MPD1    H1 3195   1.472   3.410  10.393 -0.8918  0.7942  0.8109
  210MPD1    H2 3196   1.804   3.548  10.606  3.9322 -3.2369  1.8964
  210MPD1    H3 3197   1.638   3.576  10.447 -1.2924  0.6155  2.0848
  210MPD1     N 3198   1.453   3.166  10.511 -0.3002 -0.0239 -0.5558
  210MPD1    H5 3199   1.388   3.178  10.435 -0.7211 -0.4869 -0.2717
  210MPD1    N1 3200   1.804   3.356  10.783 -0.6359 -0.4500 -0.0414
  210MPD1    H6 3201   1.823   3.447  10.825  0.5716 -0.4964 -0.5046
  210MPD1    H7 3202   1.759   3.296  10.852 -1.8045  1.5098  0.9035
  211MPD1     C 3203   3.463   2.177  17.390 -0.5256  0.7327  0.5964
  211MPD1    C1 3204   3.492   2.317  17.378  0.3892  0.3261  0.5569
  211MPD1    C2 3205   3.401   2.394  17.311 -0.3831 -0.4809  0.6823
  211MPD1    C3 3206   3.287   2.343  17.251  0.7588 -0.3625 -0.0763
  211MPD1    C4 3207   3.261   2.207  17.263  0.2401 -0.0333  0.2889
  211MPD1    C5 3208   3.348   2.125  17.329  0.3513  0.4225 -0.3695
  211MPD1     H 3209   3.421   2.500  17.301  2.1374 -0.9155  1.3203
  211MPD1    H1 3210   3.175   2.157  17.223 -0.9971  2.0452  0.3390
  211MPD1    H2 3211   3.513   2.112  17.462  3.1224  1.1955 -1.5327
  211MPD1    H3 3212   3.323   2.020  17.337  1.6359  0.0013 -1.8643
  211MPD1     N 3213   3.208   2.438  17.188  0.4552 -0.0868 -0.2470
  211MPD1    H5 3214   3.239   2.535  17.193 -0.9784  0.2117  3.2315
  211MPD1    N1 3215   3.598   2.373  17.460 -0.4346  0.4923 -0.5356
  211MPD1    H6 3216   3.685   2.320  17.463  0.9329  2.9468  4.3751
  211MPD1    H7 3217   3.628   2.460  17.417 -2.0632  1.5161  0.3704
  212MPD1     C 3218   2.307   1.289  16.226  0.5072 -0.5219 -0.6279
  212MPD1    C1 3219   2.272   1.346  16.352 -0.4673  0.3045 -0.6734
  212MPD1    C2 3220   2.199   1.264  16.441 -0.3674 -0.5814 -0.1872
  212MPD1    C3 3221   2.149   1.144  16.399  0.0136 -0.2321  0.3373
  212MPD1    C4 3222   2.192   1.084  16.279 -1.3043 -0.0695 -0.0579
  212MPD1    C5 3223   2.275   1.157  16.200  0.4930  0.6089 -0.0850
  212MPD1     H 3224   2.188   1.301  16.542  2.1350  1.2972 -0.5866
  212MPD1    H1 3225   2.170   0.982  16.251 -2.5375  0.2187 -0.1412
  212MPD1    H2 3226   2.364   1.344  16.152  1.4048 -0.1081  0.3797
  212MPD1    H3 3227   2.299   1.105  16.108 -0.4550 -1.4295  0.8257
  212MPD1     N 3228   2.071   1.060  16.489 -0.8369  0.2443  0.3373
  212MPD1    H5 3229   2.047   0.967  16.459  2.4186 -0.4668 -0.0840
  212MPD1    N1 3230   2.322   1.469  16.401 -0.3412  0.0575 -0.0110
  212MPD1    H6 3231   2.268   1.501  16.481  1.1165 -4.3581  2.6879
  212MPD1    H7 3232   2.328   1.547  16.335  2.4621 -0.3259 -0.2023
  213MPD1     C 3233   0.537   1.795  16.113 -0.2720 -0.1185 -0.2806
  213MPD1    C1 3234   0.425   1.772  16.037 -0.4154  0.0835  0.3063
  213MPD1    C2 3235   0.444   1.782  15.901  0.0600  0.4622  0.3913
  213MPD1    C3 3236   0.568   1.782  15.843 -0.1916  0.0656 -0.5486
  213MPD1    C4 3237   0.683   1.771  15.923 -0.1642 -0.1721 -0.2986
  213MPD1    C5 3238   0.658   1.777  16.055 -0.4602 -0.3262  0.0292
  213MPD1     H 3239   0.354   1.789  15.842  0.8298 -1.8328 -1.0382
  213MPD1    H1 3240   0.785   1.761  15.888 -0.1238  0.5256 -0.3777
  213MPD1    H2 3241   0.543   1.789  16.221 -0.4733 -1.7213 -0.3495
  213MPD1    H3 3242   0.754   1.788  16.103 -0.0220 -1.2367 -0.6551
  213MPD1     N 3243   0.563   1.796  15.706 -0.3877  0.4081  0.2864
  213MPD1    H5 3244   0.475   1.797  15.656 -0.1276 -2.4538 -0.2532
  213MPD1    N1 3245   0.302   1.805  16.095  0.2930 -0.0492  0.1025
  213MPD1    H6 3246   0.222   1.780  16.038 -0.2813 -0.9098  1.2932
  213MPD1    H7 3247   0.301   1.773  16.192 -1.1088  0.1508  0.1466
  214MPD1     C 3248   4.698   1.388  15.268  0.9420  0.1151 -0.4831
  214MPD1    C1 3249   0.012   1.479  15.177 -0.0379  0.0592 -0.2200
  214MPD1    C2 3250   0.134   1.542  15.200 -0.2532 -0.3048  0.1240
  214MPD1    C3 3251   0.212   1.524  15.314 -0.9584 -0.0354  0.2357
  214MPD1    C4 3252   0.153   1.443  15.406 -0.1873  0.3402 -0.5379
  214MPD1    C5 3253   0.042   1.371  15.384 -0.1689  0.4465 -0.2505
  214MPD1     H 3254   0.163   1.606  15.117 -0.9441 -2.0879 -1.5033
  214MPD1    H1 3255   0.200   1.427  15.502  1.1816 -3.9857 -1.9387
  214MPD1    H2 3256   4.600   1.343  15.258  1.0818 -1.4106  4.6474
  214MPD1    H3 3257   0.001   1.303  15.458 -0.6864  0.0656 -0.8849
  214MPD1     N 3258   0.331   1.598  15.334 -0.4379 -0.1049  0.0264
  214MPD1    H5 3259   0.366   1.594  15.429  0.4863 -3.0821 -0.4297
  214MPD1    N1 3260   4.675   1.493  15.052 -0.2008  0.4902 -1.0360
  214MPD1    H6 3261   4.575   1.472  15.059 -0.5062  1.8928 -1.2648
  214MPD1    H7 3262   4.682   1.583  15.005 -0.4033  0.9108 -0.2583
  215MPD1     C 3263   0.387   1.970  10.661 -0.0271  0.1286  0.2612
  215MPD1    C1 3264   0.486   1.990  10.752  0.0052  0.1058  0.2166
  215MPD1    C2 3265   0.563   2.100  10.739 -0.2935  0.0739 -0.2478
  215MPD1    C3 3266   0.524   2.208  10.664 -0.4443 -0.0044 -0.4589
  215MPD1    C4 3267   0.411   2.199  10.582 -0.0379  0.1030 -0.3413
  215MPD1    C5 3268   0.354   2.072  10.577  0.1403 -0.8313  0.3751
  215MPD1     H 3269   0.649   2.124  10.799  0.2869  0.2819 -1.1603
  215MPD1    H1 3270   0.377   2.277  10.515 -1.5850 -0.5086 -0.2807
  215MPD1    H2 3271   0.331   1.880  10.640 -0.1015  0.6711 -1.8728
  215MPD1    H3 3272   0.271   2.063  10.509  0.4936  2.5292 -0.5265
  215MPD1     N 3273   0.602   2.328  10.678  0.3475  0.1501 -0.7671
  215MPD1    H5 3274   0.677   2.335  10.745  0.2267  2.5977 -0.8827
  215MPD1    N1 3275   0.528   1.876  10.827 -0.1936  0.5555 -0.2005
  215MPD1    H6 3276   0.448   1.825  10.863 -0.4827  2.1806  1.4407
  215MPD1    H7 3277   0.595   1.895  10.902  0.1006  0.6714 -0.4903
  216MPD1     C 3278   2.956   4.104  16.067 -0.3215  0.7108 -0.0969
  216MPD1    C1 3279   2.918   4.238  16.060  0.0263 -0.4627 -0.3455
  216MPD1    C2 3280   3.001   4.327  16.124 -0.0730  0.7183  0.8145
  216MPD1    C3 3281   3.102   4.283  16.217  0.5865 -0.2242  0.1020
  216MPD1    C4 3282   3.130   4.152  16.236 -0.2624 -0.7338 -0.4130
  216MPD1    C5 3283   3.055   4.064  16.157 -0.3830  0.1129 -0.2931
  216MPD1     H 3284   2.971   4.431  16.116 -1.2868  0.3476  0.5140
  216MPD1    H1 3285   3.209   4.105  16.295  0.0324  0.7122  0.3482
  216MPD1    H2 3286   2.906   4.033  16.002 -0.6140  0.1708  0.7259
  216MPD1    H3 3287   3.085   3.961  16.172 -1.9132 -0.3424 -0.2764
  216MPD1     N 3288   3.164   4.384  16.295  0.5395  0.1078  0.6464
  216MPD1    H5 3289   3.122   4.476  16.290 -3.0634 -1.4246  2.4449
  216MPD1    N1 3290   2.825   4.279  15.963 -0.0196  0.0826 -0.5418
  216MPD1    H6 3291   2.792   4.373  15.982 -0.2183  0.2419 -1.6988
  216MPD1    H7 3292   2.747   4.215  15.950  1.3132 -1.5048 -0.8027
  217MPD1     C 3293   3.505   3.159   9.033  0.4969 -0.3050 -0.1405
  217MPD1    C1 3294   3.407   3.150   9.132 -0.4150 -0.2020 -0.1954
  217MPD1    C2 3295   3.315   3.043   9.128 -0.3241  0.2534 -0.1135
  217MPD1    C3 3296   3.319   2.949   9.029  0.2858  0.5628 -0.5086
  217MPD1    C4 3297   3.405   2.970   8.920 -0.0486  0.7571  0.2228
  217MPD1    C5 3298   3.498   3.066   8.931 -0.2729 -0.3030  0.6159
  217MPD1     H 3299   3.239   3.047   9.205 -0.5171  0.0634 -0.2919
  217MPD1    H1 3300   3.413   2.905   8.834 -1.3952  1.0490 -0.1153
  217MPD1    H2 3301   3.591   3.220   9.055 -0.0146  0.3198  0.1390
  217MPD1    H3 3302   3.586   3.079   8.868 -1.0787 -0.1252 -0.4709
  217MPD1     N 3303   3.237   2.833   9.023 -0.5221 -0.3492  0.0802
  217MPD1    H5 3304   3.237   2.780   8.937 -2.0166  0.8172 -0.6605
  217MPD1    N1 3305   3.387   3.252   9.232 -0.6819  0.2055  0.8775
  217MPD1    H6 3306   3.336   3.218   9.313  1.5699 -0.7983  1.8725
  217MPD1    H7 3307   3.469   3.302   9.268 -0.9921 -0.9161  3.1164
  218MPD1     C 3308   0.166   3.432  13.143 -0.4361  0.2331 -0.3262
  218MPD1    C1 3309   0.286   3.373  13.101  0.5138 -0.6539  0.0177
  218MPD1    C2 3310   0.288   3.299  12.982 -0.4858  0.7239 -0.6914
  218MPD1    C3 3311   0.179   3.295  12.896  0.0687 -1.4203  0.3377
  218MPD1    C4 3312   0.061   3.352  12.942  0.4695 -0.2363 -0.6269
  218MPD1    C5 3313   0.059   3.420  13.061  0.0991 -0.0780  0.2195
  218MPD1     H 3314   0.383   3.263  12.944 -0.7548 -0.0221 -0.6410
  218MPD1    H1 3315   4.697   3.358  12.880  0.7258  0.9608 -0.8692
  218MPD1    H2 3316   0.154   3.488  13.235 -0.6215  0.2108 -0.3383
  218MPD1    H3 3317   4.685   3.455  13.094 -0.1995  1.0806 -1.9314
  218MPD1     N 3318   0.188   3.219  12.770  0.0569  0.1762 -0.0239
  218MPD1    H5 3319   0.268   3.160  12.752 -0.7651 -1.5968  2.2199
  218MPD1    N1 3320   0.396   3.379  13.185  0.1710  0.5068 -0.4397
  218MPD1    H6 3321   0.473   3.398  13.121  0.3362  1.5286  0.0640
  218MPD1    H7 3322   0.401   3.471  13.229 -1.3653  0.3072  0.1454
  219MPD1     C 3323   0.088   2.975  11.705  0.5830 -0.2449 -0.1299
  219MPD1    C1 3324   0.193   3.052  11.752  0.3104  0.3279  0.0063
  219MPD1    C2 3325   0.201   3.079  11.890  0.2133  0.5121  0.2707
  219MPD1    C3 3326   0.108   3.008  11.976 -0.1896 -1.0214 -0.2256
  219MPD1    C4 3327   0.005   2.935  11.920  0.3801 -0.0973 -0.1680
  219MPD1    C5 3328   4.715   2.927  11.788 -0.0792 -0.1032  0.2937
  219MPD1     H 3329   0.278   3.144  11.930 -0.4713  0.5268  1.5744
  219MPD1    H1 3330   4.649   2.899  11.984 -0.2345 -0.0517 -0.8981
  219MPD1    H2 3331   0.079   2.954  11.599 -0.1135 -0.9529  0.0703
  219MPD1    H3 3332   4.631   2.869  11.751 -1.5758  1.3652  1.3781
  219MPD1     N 3333   0.098   3.011  12.115  0.0370  0.3168 -0.0644
  219MPD1    H5 3334   0.029   2.952  12.162  0.1308 -0.1962 -0.5750
  219MPD1    N1 3335   0.291   3.105  11.668  0.8402  0.3479 -0.0718
  219MPD1    H6 3336   0.375   3.065  11.710  0.9080  0.1766 -0.3682
  219MPD1    H7 3337   0.287   3.079  11.570  0.8541  0.5717 -0.1296
  220MPD1     C 3338   4.556   3.940   9.837 -0.7497 -0.4196  0.6641
  220MPD1    C1 3339   4.687   3.934   9.891  0.4362  0.5532  1.2333
  220MPD1    C2 3340   0.035   3.823   9.881 -0.5957 -0.2616  0.3060
  220MPD1    C3 3341   4.711   3.703   9.833 -0.3094 -0.3964  0.1647
  220MPD1    C4 3342   4.583   3.714   9.772  0.3386 -0.3525  0.2483
  220MPD1    C5 3343   4.512   3.828   9.773 -0.7844  0.3761 -0.2790
  220MPD1     H 3344   0.128   3.813   9.935  0.6008 -0.1182 -1.7117
  220MPD1    H1 3345   4.538   3.632   9.718  0.6998 -0.3396 -0.0755
  220MPD1    H2 3346   4.490   4.025   9.845  0.4831  0.7202 -1.3694
  220MPD1    H3 3347   4.419   3.817   9.718 -2.0232  1.4226  1.5947
  220MPD1     N 3348   0.060   3.592   9.855  0.0874  0.2006  0.3346
  220MPD1    H5 3349   0.146   3.609   9.906  0.5094  1.3158 -0.7539
  220MPD1    N1 3350   0.020   4.059   9.918  0.0058 -0.0853 -0.3151
  220MPD1    H6 3351   4.680   4.112   9.978 -0.0013 -0.0601 -0.3449
  220MPD1    H7 3352   0.109   4.056   9.968 -0.5913  1.1517  0.8264
  221MPD1     C 3353   3.357   2.813  16.757 -0.1646 -0.0327  0.0820
  221MPD1    C1 3354   3.328   2.729  16.651 -0.6167  0.0017 -0.3086
  221MPD1    C2 3355   3.325   2.591  16.679 -0.3355 -0.5671  1.0033
  221MPD1    C3 3356   3.368   2.546  16.800  0.0722 -0.5370  0.1557
  221MPD1    C4 3357   3.401   2.633  16.906  0.3341 -0.4476 -0.1691
  221MPD1    C5 3358   3.406   2.771  16.878  0.4362  0.4896  0.1050
  221MPD1     H 3359   3.302   2.525  16.596 -1.0821 -1.1544  1.6841
  221MPD1    H1 3360   3.445   2.598  16.998 -0.3855 -0.0635  0.3224
  221MPD1    H2 3361   3.350   2.920  16.742 -3.0426 -0.4014 -1.0317
  221MPD1    H3 3362   3.450   2.838  16.952 -0.2733  2.7425 -1.5130
  221MPD1     N 3363   3.377   2.411  16.836 -0.0552 -0.3834  0.2900
  221MPD1    H5 3364   3.445   2.395  16.910 -0.7440 -2.0328  0.5558
  221MPD1    N1 3365   3.258   2.780  16.543  0.0740  0.2341  0.0701
  221MPD1    H6 3366   3.267   2.725  16.458  1.3458  1.4633 -0.6030
  221MPD1    H7 3367   3.295   2.871  16.515 -0.3403  0.0319 -1.1078
  222MPD1     C 3368   2.352   0.902  16.741  0.1629  0.1776  0.2818
  222MPD1    C1 3369   2.333   0.822  16.854 -0.2210  0.1566  0.8023
  222MPD1    C2 3370   2.269   0.880  16.960  0.3329 -0.4453 -0.4860
  222MPD1    C3 3371   2.227   1.014  16.956 -0.1772  0.4616 -0.1419
  222MPD1    C4 3372   2.238   1.086  16.837 -0.5952  0.4147 -0.0917
  222MPD1    C5 3373   2.298   1.029  16.734  0.2148  0.9375 -0.2907
  222MPD1     H 3374   2.261   0.821  17.051 -0.6555 -0.8719 -0.8582
  222MPD1    H1 3375   2.209   1.190  16.827 -0.7435  0.6077  2.2789
  222MPD1    H2 3376   2.384   0.863  16.645  0.5654 -1.9879  1.2943
  222MPD1    H3 3377   2.312   1.092  16.647  0.6091 -3.6474 -3.5268
  222MPD1     N 3378   2.161   1.069  17.065  0.4226  0.0794 -0.2808
  222MPD1    H5 3379   2.129   1.160  17.033  2.1333  0.4688 -0.8857
  222MPD1    N1 3380   2.379   0.695  16.869  0.1884 -0.1237 -0.5341
  222MPD1    H6 3381   2.334   0.651  16.948  1.2722  0.5522  0.4598
  222MPD1    H7 3382   2.367   0.635  16.787  1.0043 -0.0537 -0.7055
  223MPD1     C 3383   1.620   0.739   0.168  0.6323 -0.2985  0.3984
  223MPD1    C1 3384   1.621   0.696   0.038  0.3829  0.3411  0.4425
  223MPD1    C2 3385   1.676   0.771  17.636  0.1016  0.2513 -0.3343
  223MPD1    C3 3386   1.713   0.899  17.665  0.1607 -0.7527 -0.1884
  223MPD1    C4 3387   1.712   0.942   0.097  0.5049 -0.4324 -0.3161
  223MPD1    C5 3388   1.671   0.856   0.200 -0.2097 -0.9741 -0.1744
  223MPD1     H 3389   1.691   0.736  17.534  2.5439 -0.3232  0.2313
  223MPD1    H1 3390   1.745   1.040   0.131 -2.4142  0.9353 -1.4379
  223MPD1    H2 3391   1.581   0.672   0.244 -0.5326 -1.3122 -1.0905
  223MPD1    H3 3392   1.670   0.897   0.301  3.2595  2.6722 -1.6303
  223MPD1     N 3393   1.788   0.970  17.567  0.0752 -0.4867  0.3968
  223MPD1    H5 3394   1.805   0.924  17.478 -0.0408 -2.0558  1.1715
  223MPD1    N1 3395   1.581   0.570   0.005  0.7765 -0.4256  0.1063
  223MPD1    H6 3396   1.542   0.548  17.609  1.4469  0.0250 -0.2829
  223MPD1    H7 3397   1.517   0.533   0.075 -0.8392 -0.4182 -1.3755
  224MPD1     C 3398   4.071   3.811   8.992 -0.3317  1.0308 -0.0387
  224MPD1    C1 3399   4.170   3.725   9.041 -0.2388  0.4160 -0.1917
  224MPD1    C2 3400   4.152   3.585   9.042  0.4299  0.0368 -0.6577
  224MPD1    C3 3401   4.027   3.534   9.007  0.2691 -0.1693  0.5529
  224MPD1    C4 3402   3.925   3.619   8.974 -0.0499 -0.0442 -0.1299
  224MPD1    C5 3403   3.944   3.755   8.963 -1.3033 -0.5167 -0.0438
  224MPD1     H 3404   4.229   3.514   9.070  0.1560  0.0781  0.2061
  224MPD1    H1 3405   3.825   3.579   8.964  0.2187 -0.2034 -2.0922
  224MPD1    H2 3406   4.086   3.918   8.980 -2.1035  1.4867  1.7693
  224MPD1    H3 3407   3.860   3.816   8.931  1.1936  2.2406 -1.3934
  224MPD1     N 3408   3.986   3.399   9.004  0.3009 -0.2781 -0.7751
  224MPD1    H5 3409   3.887   3.377   8.998 -0.2844  1.9471  0.6892
  224MPD1    N1 3410   4.301   3.774   9.060  0.0503  0.0306 -0.3359
  224MPD1    H6 3411   4.294   3.863   9.108  0.1001 -1.2386  2.0188
  224MPD1    H7 3412   4.360   3.709   9.112  1.1390  0.8927 -0.5039
  225MPD1     C 3413   0.485   4.084  12.366 -0.8388 -0.0958  0.0153
  225MPD1    C1 3414   0.486   3.983  12.276  0.1070  0.0376  0.5793
  225MPD1    C2 3415   0.368   3.956  12.218 -0.3234 -0.1516 -0.6865
  225MPD1    C3 3416   0.254   4.035  12.228 -0.2797 -0.5839  0.4501
  225MPD1    C4 3417   0.265   4.149  12.311  0.3434 -0.0117  0.0312
  225MPD1    C5 3418   0.377   4.166  12.385 -0.2327 -0.2784 -0.2435
  225MPD1     H 3419   0.370   3.867  12.156 -2.0588 -0.6943  0.0220
  225MPD1    H1 3420   0.185   4.222  12.318 -1.3291 -1.8490  0.4177
  225MPD1    H2 3421   0.573   4.110  12.423  0.6308  0.2172 -2.3974
  225MPD1    H3 3422   0.377   4.247  12.457  2.2823  1.1176 -1.8257
  225MPD1     N 3423   0.142   4.017  12.144  0.0075  0.6472  0.2621
  225MPD1    H5 3424   0.081   4.098  12.133 -0.3385  0.2709 -0.5753
  225MPD1    N1 3425   0.589   3.888  12.281  0.1438 -0.3270  0.3974
  225MPD1    H6 3426   0.683   3.921  12.299 -0.1106 -0.5187  2.1201
  225MPD1    H7 3427   0.596   3.835  12.195  0.6831  0.1452  0.1533
  226MPD1     C 3428   2.861   2.845   8.821  0.3970 -0.1764 -0.1841
  226MPD1    C1 3429   2.738   2.897   8.860  0.4590 -0.2067 -0.0410
  226MPD1    C2 3430   2.735   3.030   8.902 -0.5274  0.5563  0.4579
  226MPD1    C3 3431   2.851   3.105   8.932  0.6798 -0.1106 -0.6368
  226MPD1    C4 3432   2.970   3.036   8.908 -0.8281 -0.2391  0.6867
  226MPD1    C5 3433   2.978   2.920   8.842 -0.5340  0.2373 -0.3094
  226MPD1     H 3434   2.637   3.075   8.911  0.4670  2.8249 -0.0080
  226MPD1    H1 3435   3.065   3.080   8.936 -0.1441 -1.5908  0.4956
  226MPD1    H2 3436   2.866   2.747   8.774 -1.3367 -0.2873 -0.1186
  226MPD1    H3 3437   3.072   2.871   8.820  0.9889  2.5611  1.0397
  226MPD1     N 3438   2.846   3.236   8.992  0.3853 -0.0655 -0.1813
  226MPD1    H5 3439   2.752   3.260   9.019  1.4346  1.4612  2.1409
  226MPD1    N1 3440   2.610   2.837   8.829 -0.4780 -0.5628  0.4860
  226MPD1    H6 3441   2.547   2.849   8.908  1.2525 -0.5839  1.8601
  226MPD1    H7 3442   2.610   2.736   8.812 -0.3682 -0.6089  0.7594
  227MPD1     C 3443   2.201   3.540   9.418 -0.1554  0.4452  0.2079
  227MPD1    C1 3444   2.242   3.420   9.362 -0.4601  0.3568 -0.3772
  227MPD1    C2 3445   2.371   3.408   9.328 -0.4502  0.3949  0.2983
  227MPD1    C3 3446   2.461   3.516   9.331 -0.5605 -0.0131  0.5367
  227MPD1    C4 3447   2.423   3.634   9.393  0.1268  0.4470  0.3291
  227MPD1    C5 3448   2.293   3.646   9.433  0.0801 -0.2210 -0.0155
  227MPD1     H 3449   2.406   3.314   9.287 -1.8060 -0.4650  1.1152
  227MPD1    H1 3450   2.491   3.713   9.423  2.2224 -1.1102 -0.2652
  227MPD1    H2 3451   2.106   3.561   9.465 -0.1420 -0.7238  0.7537
  227MPD1    H3 3452   2.252   3.728   9.491  0.1008 -0.6686  0.6365
  227MPD1     N 3453   2.590   3.514   9.275 -0.0488 -0.5374 -0.3756
  227MPD1    H5 3454   2.608   3.430   9.220  0.4063  0.2362 -1.4034
  227MPD1    N1 3455   2.154   3.308   9.367  0.4764 -0.2469  0.3707
  227MPD1    H6 3456   2.175   3.231   9.303 -0.0610  0.1340 -0.2482
  227MPD1    H7 3457   2.061   3.338   9.341  1.1226  2.7683  1.5794
  228MPD1     C 3458   1.636   1.800  12.579  0.1881 -0.3454  0.1477
  228MPD1    C1 3459   1.648   1.733  12.692 -0.0097  0.3028  0.7355
  228MPD1    C2 3460   1.527   1.676  12.739  0.2279  0.3189 -0.5549
  228MPD1    C3 3461   1.404   1.675  12.669 -0.9526 -1.1280 -0.2236
  228MPD1    C4 3462   1.402   1.739  12.549 -0.3918  0.2746 -0.3407
  228MPD1    C5 3463   1.521   1.800  12.508 -0.6098  0.4806  0.5832
  228MPD1     H 3464   1.531   1.635  12.839 -0.9023 -0.1365 -0.6901
  228MPD1    H1 3465   1.311   1.769  12.499  0.2672  2.2474 -0.3687
  228MPD1    H2 3466   1.718   1.857  12.538 -0.3352 -0.5212 -1.1387
  228MPD1    H3 3467   1.516   1.841  12.408 -0.2718 -0.7662  0.0568
  228MPD1     N 3468   1.292   1.605  12.722 -0.2545 -0.4442  0.1746
  228MPD1    H5 3469   1.305   1.570  12.816  1.7207 -0.3979 -0.0825
  228MPD1    N1 3470   1.763   1.742  12.776  0.1805 -0.1729 -0.1324
  228MPD1    H6 3471   1.776   1.658  12.833  1.0408  0.1459  0.1525
  228MPD1    H7 3472   1.847   1.772  12.725 -0.8783  0.3599 -1.5649
  229MPD1     C 3473   1.735   0.568  14.296 -0.3464 -0.3753 -0.5466
  229MPD1    C1 3474   1.858   0.525  14.330  0.0583  0.2372  0.3459
  229MPD1    C2 3475   1.864   0.387  14.370  0.8113  0.0869  0.1062
  229MPD1    C3 3476   1.735   0.324  14.400 -0.0466  0.0062  0.7880
  229MPD1    C4 3477   1.612   0.382  14.366  0.5208  0.0762  0.4609
  229MPD1    C5 3478   1.613   0.513  14.322 -0.3279  0.2614  0.3045
  229MPD1     H 3479   1.963   0.352  14.396  0.0126 -1.7627  0.6514
  229MPD1    H1 3480   1.518   0.328  14.376 -0.5589  2.1478  1.6178
  229MPD1    H2 3481   1.719   0.668  14.258 -0.5569  0.0246  0.6195
  229MPD1    H3 3482   1.524   0.563  14.285 -0.1298  0.7570  0.4934
  229MPD1     N 3483   1.723   0.195  14.444  0.4740  0.6181  0.6933
  229MPD1    H5 3484   1.631   0.162  14.472  0.6388  0.2850  0.8463
  229MPD1    N1 3485   1.968   0.593  14.283 -0.1107  0.3602  0.3987
  229MPD1    H6 3486   2.049   0.574  14.341  0.4098  0.2721 -0.3579
  229MPD1    H7 3487   1.952   0.693  14.271 -0.7726  0.0985 -0.9156
  230MPD1     C 3488   1.492   4.447  15.250 -0.0602  0.1231  0.3730
  230MPD1    C1 3489   1.591   4.372  15.203  0.1203  0.7621  0.3958
  230MPD1    C2 3490   1.605   4.372  15.064  0.2142 -0.1822  0.0954
  230MPD1    C3 3491   1.541   4.469  14.985  0.4138  0.2131  0.1716
  230MPD1    C4 3492   1.434   4.535  15.040  0.3621  0.1659  0.4059
  230MPD1    C5 3493   1.411   4.529  15.177  0.5864  0.7983 -0.7308
  230MPD1     H 3494   1.678   4.308  15.016 -1.2511  0.0518 -2.4382
  230MPD1    H1 3495   1.363   4.582  14.973  1.3780  0.0177 -0.7763
  230MPD1    H2 3496   1.477   4.445  15.358  0.0689  0.2277  0.3940
  230MPD1    H3 3497   1.326   4.581  15.221  1.1742  0.9499  0.2201
  230MPD1     N 3498   1.580   4.478  14.850 -0.3841  0.1894  0.6715
  230MPD1    H5 3499   1.657   4.426  14.810 -0.4009  0.6495  0.0393
  230MPD1    N1 3500   1.669   4.281  15.276  0.2537 -0.2203 -0.0896
  230MPD1    H6 3501   1.687   4.305  15.374  0.5317 -0.1498 -0.1560
  230MPD1    H7 3502   1.762   4.287  15.234  0.1667 -2.4675 -0.5813
  231MPD1     C 3503   0.231   1.926  15.648  0.2810 -0.0095 -0.2617
  231MPD1    C1 3504   0.171   1.887  15.532  0.1479  0.9231 -0.0548
  231MPD1    C2 3505   0.223   1.929  15.415  0.3121 -0.0915  0.7833
  231MPD1    C3 3506   0.336   1.993  15.401  0.4300  0.6534  0.8993
  231MPD1    C4 3507   0.396   2.026  15.519  0.0700 -0.0650 -0.1005
  231MPD1    C5 3508   0.344   2.000  15.641 -0.1634 -1.0752 -0.0213
  231MPD1     H 3509   0.169   1.902  15.324  2.5869 -1.2903 -0.2059
  231MPD1    H1 3510   0.490   2.081  15.526  0.5672 -0.7973 -1.0852
  231MPD1    H2 3511   0.184   1.908  15.744  0.9271  0.8591  0.2237
  231MPD1    H3 3512   0.404   2.015  15.731  2.7823 -2.6388 -1.7478
  231MPD1     N 3513   0.386   2.032  15.276  0.6222 -0.1490 -0.1239
  231MPD1    H5 3514   0.323   2.019  15.197  0.6001  1.8094 -0.4464
  231MPD1    N1 3515   0.037   1.848  15.539  0.2899  0.2487 -0.3864
  231MPD1    H6 3516   0.015   1.782  15.613 -1.4448 -0.4523 -1.5184
  231MPD1    H7 3517   0.004   1.800  15.456  0.4893 -0.7520  0.1090
  232MPD1     C 3518   2.087   4.296  17.461  0.5201 -0.0529 -0.2342
  232MPD1    C1 3519   1.989   4.400  17.450 -0.1914  0.0407 -0.2642
  232MPD1    C2 3520   1.867   4.375  17.511 -0.5009 -0.0641 -0.1934
  232MPD1    C3 3521   1.841   4.277  17.602  0.2730 -0.0206  1.0173
  232MPD1    C4 3522   1.945   4.186  17.633  0.7353  0.1815  0.5881
  232MPD1    C5 3523   2.059   4.192  17.549  0.2758 -0.3247  0.4453
  232MPD1     H 3524   1.783   4.442  17.496 -0.9655 -0.3878  0.9134
  232MPD1    H1 3525   1.930   4.114   0.017  1.1842  0.2548  0.7433
  232MPD1    H2 3526   2.179   4.308  17.405  1.0383 -0.1240  0.6091
  232MPD1    H3 3527   2.137   4.122  17.573 -0.6890 -1.2157  0.9741
  232MPD1     N 3528   1.713   4.264  17.663 -0.6547 -0.1101 -0.0022
  232MPD1    H5 3529   1.650   4.343  17.658  0.5750  0.9326  1.0435
  232MPD1    N1 3530   2.008   4.492  17.348  0.0156  0.4018  0.4006
  232MPD1    H6 3531   2.102   4.530  17.354  1.7470 -3.8442 -0.3203
  232MPD1    H7 3532   1.950   4.572  17.373  0.7860  1.6927 -1.9002
  233MPD1     C 3533   2.195   2.201   2.480  0.2577  1.2251  1.1441
  233MPD1    C1 3534   2.284   2.171   2.575 -0.1624 -0.0532  0.0829
  233MPD1    C2 3535   2.419   2.203   2.547  0.2469  0.0852 -0.5807
  233MPD1    C3 3536   2.451   2.294   2.442 -0.0733  0.8222 -0.4424
  233MPD1    C4 3537   2.356   2.332   2.353  0.2735  0.2448 -0.5653
  233MPD1    C5 3538   2.231   2.281   2.378  0.6158 -0.3733 -0.4921
  233MPD1     H 3539   2.492   2.161   2.614 -0.2685 -1.1376 -0.7893
  233MPD1    H1 3540   2.378   2.403   2.274 -0.9076  0.2639 -0.8724
  233MPD1    H2 3541   2.092   2.171   2.495  0.7557 -1.1561 -0.2227
  233MPD1    H3 3542   2.158   2.301   2.301  1.9428  0.6380 -1.4819
  233MPD1     N 3543   2.581   2.334   2.403  0.4908  0.1515 -0.0659
  233MPD1    H5 3544   2.583   2.410   2.336  2.4027 -0.5895 -0.8533
  233MPD1    N1 3545   2.249   2.080   2.673  0.3238 -0.1896  0.5149
  233MPD1    H6 3546   2.310   2.083   2.755  0.1173 -0.1994  0.6713
  233MPD1    H7 3547   2.153   2.096   2.702  0.4243  1.2767  0.0288
  234MPD1     C 3548   4.202   1.291   9.010 -0.9530  0.4736  0.0463
  234MPD1    C1 3549   4.257   1.407   9.057  0.0098 -0.0769  0.0837
  234MPD1    C2 3550   4.173   1.519   9.057  0.3571  0.1649  1.0497
  234MPD1    C3 3551   4.055   1.517   8.994  0.3424  0.0634  0.4239
  234MPD1    C4 3552   4.009   1.407   8.935  0.3103 -0.7422  0.5245
  234MPD1    C5 3553   4.083   1.288   8.942 -0.2248  0.0234 -0.0070
  234MPD1     H 3554   4.212   1.617   9.078  0.1095  0.5668 -0.3623
  234MPD1    H1 3555   3.914   1.400   8.882  0.0077 -1.5608  1.1682
  234MPD1    H2 3556   4.257   1.199   9.030  0.2529  1.2193  0.1373
  234MPD1    H3 3557   4.048   1.191   8.907 -0.2001  0.4807 -1.2970
  234MPD1     N 3558   3.991   1.638   8.987 -0.3741  0.4527 -0.4704
  234MPD1    H5 3559   4.033   1.704   9.051 -1.5960  0.0072  0.7711
  234MPD1    N1 3560   4.372   1.408   9.138 -0.5379 -0.3701  0.1819
  234MPD1    H6 3561   4.411   1.502   9.135  0.4362 -0.8314 -1.3209
  234MPD1    H7 3562   4.446   1.349   9.101  1.3835  0.2628  2.9848
  235MPD1     C 3563   0.764   3.486  10.726  0.2030 -0.8533 -0.0168
  235MPD1    C1 3564   0.728   3.476  10.590 -0.0316 -0.1588 -0.0352
  235MPD1    C2 3565   0.752   3.593  10.521 -0.3008 -0.5323 -0.5183
  235MPD1    C3 3566   0.812   3.708  10.578  0.1461  0.3390  0.7322
  235MPD1    C4 3567   0.856   3.698  10.707 -0.3880  0.0693  0.0041
  235MPD1    C5 3568   0.840   3.586  10.783 -0.4372  0.1791 -0.5169
  235MPD1     H 3569   0.715   3.599  10.420  1.9292  3.5239 -1.0795
  235MPD1    H1 3570   0.919   3.777  10.744 -0.9044  0.3113  0.3729
  235MPD1    H2 3571   0.731   3.408  10.793  0.6362 -1.0078  0.0181
  235MPD1    H3 3572   0.849   3.613  10.888  1.0468  0.3326 -0.6951
  235MPD1     N 3573   0.832   3.823  10.498  0.0943 -0.4638  0.1686
  235MPD1    H5 3574   0.791   3.817  10.406  0.6614 -1.0119 -0.0509
  235MPD1    N1 3575   0.636   3.382  10.539 -0.4670 -0.1618  0.1285
  235MPD1    H6 3576   0.640   3.366  10.439 -0.7635 -1.0508  0.2548
  235MPD1    H7 3577   0.645   3.293  10.588  2.1178  0.2918  0.4577
  236MPD1     C 3578   4.617   0.835   9.985  0.3327  0.1000  0.3827
  236MPD1    C1 3579   4.714   0.873  10.078 -0.5410  0.3957  0.0099
  236MPD1    C2 3580   0.095   0.786  10.101 -0.0319 -0.2097  0.0890
  236MPD1    C3 3581   0.101   0.659  10.035  0.3602 -0.7161 -0.2363
  236MPD1    C4 3582   4.719   0.622   9.955 -0.4642 -0.6546 -0.6321
  236MPD1    C5 3583   4.614   0.707   9.929 -0.2479  0.3753 -0.5796
  236MPD1     H 3584   0.177   0.811  10.168  0.2349  2.0875 -1.1096
  236MPD1    H1 3585   4.707   0.528   9.903 -3.5479  0.3506 -1.7989
  236MPD1    H2 3586   4.537   0.904   9.958  0.9959 -0.7044 -3.6802
  236MPD1    H3 3587   4.529   0.684   9.865 -0.0560  0.7353 -0.9627
  236MPD1     N 3588   0.208   0.571  10.050 -0.0890 -0.1125 -0.2136
  236MPD1    H5 3589   0.198   0.483  10.000  0.7205 -0.2160 -0.1991
  236MPD1    N1 3590   4.708   1.006  10.120 -0.5476 -0.3377  0.1119
  236MPD1    H6 3591   4.612   1.038  10.124 -0.0959  0.6907  2.7264
  236MPD1    H7 3592   0.022   1.000  10.214 -1.8140 -0.2452  0.6206
  237MPD1     C 3593   0.612   3.190  14.582 -0.0940 -0.7030 -1.3212
  237MPD1    C1 3594   0.606   3.142  14.710  0.6895 -0.3502 -0.4741
  237MPD1    C2 3595   0.483   3.143  14.773 -0.6222 -0.1051 -0.1154
  237MPD1    C3 3596   0.366   3.189  14.711 -0.1175 -0.2309  0.0229
  237MPD1    C4 3597   0.370   3.229  14.582  0.6326 -0.2584  0.3420
  237MPD1    C5 3598   0.495   3.231  14.519  0.5097  0.0622 -0.4160
  237MPD1     H 3599   0.486   3.115  14.878 -1.4602  0.2389  0.0072
  237MPD1    H1 3600   0.283   3.264  14.526  2.3012  0.6115 -1.7353
  237MPD1    H2 3601   0.707   3.190  14.530  1.4055 -1.3236  1.4298
  237MPD1    H3 3602   0.506   3.268  14.417 -0.1369 -1.3593 -1.0078
  237MPD1     N 3603   0.238   3.206  14.782  0.0080  0.2566  0.2481
  237MPD1    H5 3604   0.161   3.252  14.733 -1.3938 -1.3934  0.8886
  237MPD1    N1 3605   0.718   3.079  14.757  0.2418  0.1288  0.5542
  237MPD1    H6 3606   0.801   3.088  14.700  1.1221 -2.6584  1.3922
  237MPD1    H7 3607   0.741   3.090  14.856  0.4022  0.5447  0.4692
  238MPD1     C 3608   2.156   1.741  14.254  0.3503  0.9851  0.1466
  238MPD1    C1 3609   2.124   1.653  14.354  0.4653 -0.0175 -0.0005
  238MPD1    C2 3610   1.985   1.618  14.366  0.4034  0.5193  0.0504
  238MPD1    C3 3611   1.893   1.691  14.303  0.3744 -0.6327  0.6410
  238MPD1    C4 3612   1.924   1.789  14.210  1.0176  0.6174 -0.3243
  238MPD1    C5 3613   2.059   1.809  14.189 -0.1113  0.1892 -0.2775
  238MPD1     H 3614   1.965   1.557  14.453 -0.4394 -0.2050 -0.6555
  238MPD1    H1 3615   1.851   1.853  14.162 -1.2193 -0.6879  1.3150
  238MPD1    H2 3616   2.258   1.760  14.220  0.5457 -0.0472  0.1457
  238MPD1    H3 3617   2.087   1.878  14.110  1.0976  1.2962  1.1082
  238MPD1     N 3618   1.754   1.680  14.337 -0.8726  0.1402  0.9365
  238MPD1    H5 3619   1.690   1.732  14.278 -0.4237  1.8562  1.9852
  238MPD1    N1 3620   2.222   1.579  14.425 -0.2977 -0.0268  0.0460
  238MPD1    H6 3621   2.310   1.629  14.422 -0.2758 -0.0864 -0.3293
  238MPD1    H7 3622   2.194   1.564  14.522  0.7029  0.7077  0.4462
  239MPD1     C 3623   2.428   2.737  15.283 -0.0289 -0.5312 -0.5880
  239MPD1    C1 3624   2.306   2.792  15.266  0.0151 -0.0197  0.2018
  239MPD1    C2 3625   2.265   2.825  15.139 -0.0738  0.4356 -0.7044
  239MPD1    C3 3626   2.343   2.799  15.025  0.0982 -0.7741 -0.0763
  239MPD1    C4 3627   2.466   2.742  15.044 -0.1500 -0.6810  0.1795
  239MPD1    C5 3628   2.514   2.721  15.173  0.1229  0.2144 -0.5260
  239MPD1     H 3629   2.161   2.855  15.132 -0.2469  0.1906  0.8655
  239MPD1    H1 3630   2.535   2.735  14.961 -0.0228  0.7309  0.1567
  239MPD1    H2 3631   2.485   2.721  15.374  0.8940  0.0913 -1.0566
  239MPD1    H3 3632   2.619   2.700  15.184 -0.2581 -0.4007  2.0551
  239MPD1     N 3633   2.305   2.824  14.889 -0.3658 -0.7472 -0.0820
  239MPD1    H5 3634   2.372   2.808  14.815 -0.4130 -2.7644  0.3301
  239MPD1    N1 3635   2.229   2.820  15.379  0.0310 -0.2258 -0.0982
  239MPD1    H6 3636   2.250   2.769  15.465  1.3028 -1.0110 -0.8665
  239MPD1    H7 3637   2.128   2.825  15.370 -0.0550 -0.4651  0.7629
  240MPD1     C 3638   2.437   2.138  14.034 -0.2557 -0.1841 -0.7996
  240MPD1    C1 3639   2.468   2.114  14.165  0.2882 -0.1828 -0.1312
  240MPD1    C2 3640   2.369   2.125  14.261 -0.0798 -0.7367 -0.2847
  240MPD1    C3 3641   2.235   2.134  14.216 -0.7539 -0.2308 -0.0672
  240MPD1    C4 3642   2.207   2.166  14.089 -0.1495  0.2455  0.6433
  240MPD1    C5 3643   2.308   2.172  13.997 -0.0714 -0.3440 -0.7337
  240MPD1     H 3644   2.400   2.094  14.360  1.4060  0.2301 -0.4339
  240MPD1    H1 3645   2.108   2.180  14.048 -0.3333  2.3577  1.8366
  240MPD1    H2 3646   2.504   2.131  13.949  2.8648 -1.2878  1.7243
  240MPD1    H3 3647   2.281   2.186  13.893  0.4959  1.8519 -0.6041
  240MPD1     N 3648   2.136   2.137  14.319  0.2564 -0.1568 -0.3817
  240MPD1    H5 3649   2.164   2.133  14.416  2.1859 -0.2470 -0.9363
  240MPD1    N1 3650   2.602   2.125  14.208  0.5415 -0.2036 -0.0417
  240MPD1    H6 3651   2.666   2.097  14.134  1.7380 -0.2510  1.0114
  240MPD1    H7 3652   2.614   2.072  14.294  1.9480 -1.6615 -1.1351
  241MPD1     C 3653   2.305   1.493  14.760  0.3796 -0.1551 -0.2927
  241MPD1    C1 3654   2.168   1.487  14.766  0.4646 -0.3990  0.8487
  241MPD1    C2 3655   2.096   1.598  14.729  0.3730  0.3105  0.4166
  241MPD1    C3 3656   2.156   1.720  14.711 -0.4337 -0.0511 -0.0795
  241MPD1    C4 3657   2.293   1.724  14.703  0.1110  0.4211 -0.0816
  241MPD1    C5 3658   2.367   1.611  14.724  0.1415  0.3738  0.6515
  241MPD1     H 3659   1.988   1.590  14.726  0.5601 -0.8501 -2.5017
  241MPD1    H1 3660   2.346   1.814  14.676 -1.6724  0.3572 -3.8526
  241MPD1    H2 3661   2.368   1.404  14.764  2.8749  1.6110 -0.2473
  241MPD1    H3 3662   2.475   1.623  14.721 -0.2230  2.4058 -3.6761
  241MPD1     N 3663   2.086   1.829  14.671  0.1024  0.1655 -0.9572
  241MPD1    H5 3664   2.146   1.906  14.642 -0.3170  0.7988 -0.1452
  241MPD1    N1 3665   2.107   1.365  14.791 -0.3290 -0.3577  0.0030
  241MPD1    H6 3666   2.161   1.304  14.852  2.5483  0.0284 -2.1417
  241MPD1    H7 3667   2.013   1.366  14.830 -0.2785 -0.4573  0.1279
  242MPD1     C 3668   0.537   0.681  15.942  0.3089 -0.3980  0.5867
  242MPD1    C1 3669   0.527   0.767  15.839 -0.3692  0.8852  0.2886
  242MPD1    C2 3670   0.599   0.746  15.724  0.4801  0.2705 -0.0241
  242MPD1    C3 3671   0.675   0.631  15.711 -0.4271 -0.2136  0.7997
  242MPD1    C4 3672   0.681   0.543  15.820 -0.1400 -0.0537  0.6123
  242MPD1    C5 3673   0.616   0.574  15.938 -0.7517  0.3719  0.0193
  242MPD1     H 3674   0.603   0.831  15.657  1.0341  2.0405  2.2425
  242MPD1    H1 3675   0.741   0.453  15.814 -1.0107 -0.6657  1.0984
  242MPD1    H2 3676   0.493   0.696  16.040  0.2359  3.8728 -0.0726
  242MPD1    H3 3677   0.623   0.507  16.022  0.8521 -0.6760 -0.9413
  242MPD1     N 3678   0.735   0.586  15.592  0.3031  0.2654  0.1169
  242MPD1    H5 3679   0.800   0.508  15.589  0.7172  0.7340 -2.9269
  242MPD1    N1 3680   0.476   0.893  15.864  0.2898  0.3501 -0.5875
  242MPD1    H6 3681   0.396   0.888  15.926  0.9943  3.6311  0.5991
  242MPD1    H7 3682   0.437   0.925  15.775 -0.9239  1.0205  0.1877
  243MPD1     C 3683   3.056   3.928  17.456 -0.4411  0.1271 -0.3900
  243MPD1    C1 3684   3.145   3.962  17.355 -0.5160 -0.2569 -0.1799
  243MPD1    C2 3685   3.111   4.077  17.284 -0.2130 -0.3335  0.1391
  243MPD1    C3 3686   3.003   4.164  17.311  0.1230  0.1841  0.9268
  243MPD1    C4 3687   2.918   4.128  17.411 -0.4400  0.0645  0.1506
  243MPD1    C5 3688   2.947   4.009  17.484 -0.3983  0.3663  1.0070
  243MPD1     H 3689   3.175   4.098  17.199  2.2684  0.5733  2.2271
  243MPD1    H1 3690   2.828   4.183  17.434 -1.3843 -2.0014  1.4244
  243MPD1    H2 3691   3.062   3.834  17.509  2.5803  1.1626  1.0998
  243MPD1    H3 3692   2.876   3.982  17.561  0.8906 -2.3347  1.2433
  243MPD1     N 3693   2.977   4.274  17.213 -0.0672  0.8779 -0.3576
  243MPD1    H5 3694   3.027   4.276  17.125  1.5245  2.0851  0.5607
  243MPD1    N1 3695   3.254   3.880  17.314  0.0648 -0.5174 -0.6068
  243MPD1    H6 3696   3.336   3.924  17.274  0.2875 -1.2109 -0.9155
  243MPD1    H7 3697   3.291   3.826  17.392 -3.0783 -2.0323 -0.1544
  244MPD1     C 3698   2.905   0.542  17.433 -0.1569 -0.6387  0.1908
  244MPD1    C1 3699   2.894   0.430  17.517  0.1594 -0.2075  0.2748
  244MPD1    C2 3700   2.884   0.305  17.461 -0.4346  0.5565 -0.0683
  244MPD1    C3 3701   2.894   0.296  17.323 -0.0892  0.0829  0.7934
  244MPD1    C4 3702   2.897   0.408  17.245 -0.3092 -0.1835  0.9708
  244MPD1    C5 3703   2.884   0.533  17.301 -0.9383  0.3918 -0.5884
  244MPD1     H 3704   2.893   0.218  17.525 -4.0063 -0.4950 -0.9869
  244MPD1    H1 3705   2.901   0.405  17.136 -2.3855 -1.4029  0.9151
  244MPD1    H2 3706   2.932   0.640  17.472  1.0095 -1.1611  0.6751
  244MPD1    H3 3707   2.886   0.629  17.250  0.0861  0.4818 -0.3883
  244MPD1     N 3708   2.923   0.163  17.280 -0.2335  0.1000  0.3463
  244MPD1    H5 3709   2.931   0.089  17.350 -0.8994 -0.2996 -0.0089
  244MPD1    N1 3710   2.902   0.442  17.658  0.0704  0.1808  0.0931
  244MPD1    H6 3711   2.877   0.536  17.689  1.6948  0.5812  0.2213
  244MPD1    H7 3712   2.830   0.383   0.005 -0.8860  0.6214 -0.9178
  245MPD1     C 3713   4.416   0.020  12.917 -0.4713  0.5992 -0.2909
  245MPD1    C1 3714   4.307   0.101  12.940  0.7868 -0.0540  0.4974
  245MPD1    C2 3715   4.327   0.202  13.033  0.7490  0.3567  0.4223
  245MPD1    C3 3716   4.458   0.234  13.086  0.2008 -0.0294 -0.3335
  245MPD1    C4 3717   4.561   0.151  13.060 -0.3444  0.2279  0.0937
  245MPD1    C5 3718   4.545   0.046  12.974  0.1213 -0.0864 -0.2041
  245MPD1     H 3719   4.252   0.263  13.082  0.2651 -1.7622  2.3060
  245MPD1    H1 3720   4.663   0.166  13.095 -0.3844 -0.9276  0.6834
  245MPD1    H2 3721   4.411   4.655  12.855  2.2736  0.0357  0.2990
  245MPD1    H3 3722   4.633   4.707  12.961 -0.7558 -1.2897 -0.3164
  245MPD1     N 3723   4.471   0.332  13.190  0.2422  0.4495  1.1709
  245MPD1    H5 3724   4.384   0.379  13.214 -0.9166 -0.8521 -0.4919
  245MPD1    N1 3725   4.179   0.057  12.915 -0.0767 -0.0074 -0.3424
  245MPD1    H6 3726   4.115   0.135  12.903  0.7412  0.2667 -2.9615
  245MPD1    H7 3727   4.181   0.011  12.825  0.8509  0.0520 -0.3500
  246MPD1     C 3728   0.145   2.413   9.377  0.3948 -0.1155 -0.1359
  246MPD1    C1 3729   0.246   2.349   9.442 -0.0446  0.3313  0.0088
  246MPD1    C2 3730   0.293   2.223   9.412  0.4222 -0.4442  0.5785
  246MPD1    C3 3731   0.224   2.141   9.323  0.2263  0.7211  0.0650
  246MPD1    C4 3732   0.115   2.200   9.255 -0.3378  0.3511  0.2953
  246MPD1    C5 3733   0.075   2.329   9.288 -0.1896  0.6165  0.1074
  246MPD1     H 3734   0.375   2.169   9.459  0.5691  0.7917  1.7349
  246MPD1    H1 3735   0.059   2.157   9.173 -1.5891  0.3751  1.1358
  246MPD1    H2 3736   0.121   2.515   9.402  0.4199  0.3458 -2.0319
  246MPD1    H3 3737   4.721   2.384   9.236 -1.8404  0.0441  1.9553
  246MPD1     N 3738   0.280   2.009   9.294 -0.1863  0.1570  0.0907
  246MPD1    H5 3739   0.366   1.987   9.345 -0.7152 -0.3217  0.7844
  246MPD1    N1 3740   0.330   2.428   9.521 -0.1670 -0.0625 -0.2255
  246MPD1    H6 3741   0.381   2.378   9.594 -1.6345 -0.9218  0.2292
  246MPD1    H7 3742   0.284   2.510   9.561 -1.1779 -0.3568 -0.7835
  247MPD1     C 3743   4.001   0.061  16.478 -0.1724 -0.1971 -0.1743
  247MPD1    C1 3744   4.033   4.680  16.558  0.5036 -0.4803  0.0508
  247MPD1    C2 3745   4.078   4.566  16.490 -0.1247  0.1652 -0.5221
  247MPD1    C3 3746   4.060   4.552  16.352  0.3584 -0.4536  0.0633
  247MPD1    C4 3747   3.998   4.656  16.286 -0.2219  0.4094 -0.0058
  247MPD1    C5 3748   3.993   0.056  16.341 -0.8394  0.4540 -0.3336
  247MPD1     H 3749   4.113   4.485  16.553  0.8039  1.9168  1.2203
  247MPD1    H1 3750   3.980   4.655  16.179 -0.7552 -3.1220  0.1074
  247MPD1    H2 3751   3.987   0.153  16.534  1.9920  1.1648 -1.8553
  247MPD1    H3 3752   3.965   0.141  16.280  1.0129  1.5325  0.3222
  247MPD1     N 3753   4.076   4.429  16.278  0.2697  0.0412 -0.2721
  247MPD1    H5 3754   4.090   4.427  16.178 -0.3431 -1.9177 -0.3244
  247MPD1    N1 3755   4.073   4.708  16.691 -0.1479 -0.0120  0.5147
  247MPD1    H6 3756   4.022   0.062  16.733 -1.3009 -0.9299  0.8066
  247MPD1    H7 3757   4.073   4.631  16.758  2.3459 -0.1775  0.3153
  248MPD1     C 3758   4.613   0.585   0.839  0.2523  0.6911  0.5791
  248MPD1    C1 3759   4.486   0.616   0.801 -0.3073 -0.8118 -0.0554
  248MPD1    C2 3760   4.443   0.564   0.681  0.0228 -0.0467 -0.6473
  248MPD1    C3 3761   4.520   0.474   0.612  0.6758 -0.6055  1.0903
  248MPD1    C4 3762   4.638   0.430   0.664  0.0986 -0.3236  0.1706
  248MPD1    C5 3763   4.689   0.494   0.770 -0.2803  0.7933  0.2312
  248MPD1     H 3764   4.350   0.599   0.637 -0.5188 -1.0921 -0.3438
  248MPD1    H1 3765   4.694   0.346   0.625 -0.8648 -0.0905 -1.7179
  248MPD1    H2 3766   4.659   0.627   0.928  2.5179  1.4418 -0.9272
  248MPD1    H3 3767   0.061   0.459   0.806  1.1492  1.7528 -2.6093
  248MPD1     N 3768   4.463   0.422   0.492 -0.1591 -0.5203 -0.8156
  248MPD1    H5 3769   4.372   0.458   0.464 -0.2782 -1.5459 -1.7609
  248MPD1    N1 3770   4.416   0.719   0.864 -0.0326 -0.5921  0.4619
  248MPD1    H6 3771   4.320   0.727   0.833 -0.1629 -0.0522  1.0058
  248MPD1    H7 3772   4.426   0.714   0.965  2.9939 -2.3176  0.0826
  249MPD1     C 3773   0.703   2.189  10.289  0.0296  0.1814 -0.0956
  249MPD1    C1 3774   0.743   2.091  10.206  0.0567  0.2505  1.0906
  249MPD1    C2 3775   0.826   2.117  10.102 -1.1111  0.5190 -0.0856
  249MPD1    C3 3776   0.878   2.243  10.081  0.8297 -0.4210  0.4238
  249MPD1    C4 3777   0.843   2.343  10.175  0.1321  1.1275  0.3925
  249MPD1    C5 3778   0.757   2.312  10.277 -0.0509  0.3750 -0.4936
  249MPD1     H 3779   0.847   2.039  10.030 -0.0892  1.2309 -0.5645
  249MPD1    H1 3780   0.886   2.441  10.156  1.2657  0.3837 -0.8169
  249MPD1    H2 3781   0.635   2.168  10.371 -1.5604  2.2501 -0.9125
  249MPD1    H3 3782   0.730   2.389  10.349  2.0641  2.1435 -1.6109
  249MPD1     N 3783   0.960   2.264   9.967 -0.4771 -0.4474 -0.6366
  249MPD1    H5 3784   0.959   2.191   9.897 -1.4082 -0.9077 -0.1316
  249MPD1    N1 3785   0.681   1.968  10.216 -0.5620 -0.4378  0.5797
  249MPD1    H6 3786   0.669   1.940  10.314  1.4084  0.4268  1.0593
  249MPD1    H7 3787   0.737   1.898  10.168  0.1751  0.4283  0.1821
  250MPD2     C 3788   2.934   3.343  12.864 -0.5954 -0.4125  0.0795
  250MPD2    C1 3789   2.818   3.419  12.872  0.4852 -0.1081 -0.1529
  250MPD2    C2 3790   2.690   3.356  12.862  0.4848  0.2482  0.5341
  250MPD2    C3 3791   2.688   3.219  12.826 -0.6679 -0.3226 -0.2827
  250MPD2    C4 3792   2.806   3.146  12.816  0.3895  0.0111  0.2247
  250MPD2    C5 3793   2.924   3.209  12.842  0.1017  0.2072  0.0953
  250MPD2     H 3794   2.603   3.420  12.870  0.7963  0.9808 -1.8878
  250MPD2    H1 3795   2.806   3.041  12.788  4.2166 -0.5906  2.4680
  250MPD2    H2 3796   3.031   3.388  12.883 -0.5780 -0.4505  0.0792
  250MPD2    H3 3797   3.014   3.148  12.837 -0.2455 -0.1675 -1.5642
  250MPD2     N 3798   2.571   3.152  12.806  0.0076 -0.0951  0.0417
  250MPD2    H5 3799   2.577   3.052  12.789  1.0681 -0.1644  0.8587
  250MPD2    N1 3800   2.844   3.554  12.918  0.4708 -0.1930 -0.0112
  250MPD2    H7 3801   2.940   3.580  12.938  0.4804 -1.0741  1.0617
  251TMC3    C1 3802   2.791   3.791  12.943 -0.6169  0.3239  0.4527
  251TMC3    C2 3803   2.708   3.898  12.945 -0.3661 -0.4786  0.4466
  251TMC3    C3 3804   2.759   4.028  12.957  0.0987 -0.2772 -0.3232
  251TMC3    C4 3805   2.931   3.815  12.958 -0.5343 -0.0935 -0.0576
  251TMC3    C5 3806   2.979   3.946  12.979  0.2512  0.3791 -0.1346
  251TMC3    C6 3807   2.892   4.051  12.987 -0.2094 -0.1027  0.2634
  251TMC3     C 3808   2.745   3.656  12.919  0.0810  0.1580  0.3879
  251TMC3     O 3809   2.634   3.646  12.875  0.6381 -0.5496 -0.2866
  251TMC3     H 3810   2.603   3.878  12.930 -0.7695  2.1942 -0.3723
  251TMC3    H1 3811   2.994   3.729  12.977  0.7468  1.2046  1.5550
  251TMC3    H2 3812   2.919   4.155  13.003 -1.8968  0.2766  0.6294
  251TMC3    C7 3813   3.117   3.966  12.956 -0.1173 -0.0470  0.9651
  251TMC3    C8 3814   2.656   4.135  12.954  0.1359 -0.2743  0.1487
  251TMC3    O1 3815   3.172   3.859  12.966  0.2353  0.7160  0.0123
  251TMC3    O2 3816   2.539   4.095  12.965 -0.1540  0.2290 -0.4314
  252TMC3    C1 3817   2.493   0.029   9.133 -0.6880  0.2205 -0.0604
  252TMC3    C2 3818   2.618   0.075   9.142 -0.1715 -0.0767  0.0975
  252TMC3    C3 3819   2.714   0.022   9.230 -0.0203 -0.6089 -0.6245
  252TMC3    C4 3820   2.461   4.645   9.211  0.1671  0.4543  0.0588
  252TMC3    C5 3821   2.557   4.585   9.289  0.0202 -0.0126 -0.3211
  252TMC3    C6 3822   2.681   4.638   9.308  0.1280  0.4395  0.2053
  252TMC3     C 3823   2.401   0.076   9.030  0.1230  0.2005  0.4033
  252TMC3     O 3824   2.341   4.709   8.973 -0.5250  0.0848 -0.6540
  252TMC3     H 3825   2.643   0.164   9.085 -1.3880  0.7815  0.9026
  252TMC3    H1 3826   2.372   4.584   9.197 -0.1298  0.6972  0.9303
  252TMC3    H2 3827   2.759   4.596   9.371 -0.3739 -0.3466  0.3150
  252TMC3    C7 3828   2.512   4.466   9.355  0.4810  0.4688  0.0263
  252TMC3    C8 3829   2.839   0.094   9.244  0.1136  0.5631  0.1041
  252TMC3    O1 3830   2.400   4.468   9.404 -0.3781  0.1019 -0.9352
  252TMC3    O2 3831   2.885   0.155   9.148 -0.3023  1.2366 -0.1697
  253MPD2     C 3832   4.126   3.097  15.429  0.0741 -0.2190 -0.8951
  253MPD2    C1 3833   4.002   3.092  15.365  0.6572 -0.4371 -0.1125
  253MPD2    C2 3834   3.890   3.054  15.440  0.0823  0.2006  0.8671
  253MPD2    C3 3835   3.901   3.024  15.572  0.7153  0.2045  0.6551
  253MPD2    C4 3836   4.022   3.031  15.642 -1.0994 -0.4854 -0.0775
  253MPD2    C5 3837   4.132   3.062  15.562  0.0375  0.3987 -0.4784
  253MPD2     H 3838   3.796   3.057  15.386  1.5902 -0.4192 -1.8350
  253MPD2    H1 3839   4.041   3.004  15.745 -2.5747  0.4907  0.4387
  253MPD2    H2 3840   4.218   3.120  15.377  0.4109 -0.2048 -0.2930
  253MPD2    H3 3841   4.233   3.066  15.602  0.2088  1.1579 -0.9890
  253MPD2     N 3842   3.787   3.003  15.655  0.5302 -0.1345 -0.8870
  253MPD2    H5 3843   3.803   2.998  15.755 -1.3267 -0.8319 -0.6131
  253MPD2    N1 3844   3.986   3.122  15.224 -0.0179  0.7315  0.3192
  253MPD2    H7 3845   3.895   3.104  15.183  0.3173 -0.3196  0.0366
  254TMC3    C1 3846   3.576   3.022  15.741  0.5149  0.6794 -0.3449
  254TMC3    C2 3847   3.459   3.109  15.750 -0.0382 -0.4275 -0.1624
  254TMC3    C3 3848   3.384   3.095  15.861  0.2458 -0.2896  0.2143
  254TMC3    C4 3849   3.626   2.946  15.845  0.0407 -0.5138  0.2627
  254TMC3    C5 3850   3.539   2.946  15.956 -0.0609 -0.1033 -0.2198
  254TMC3    C6 3851   3.422   3.019  15.967 -0.0707  0.3653  0.4230
  254TMC3     C 3852   3.659   3.030  15.625 -0.1417  0.1752  0.3437
  254TMC3     O 3853   3.607   3.060  15.518 -0.8372  0.1924 -0.0182
  254TMC3     H 3854   3.440   3.184  15.674  0.8073  2.5916  2.6163
  254TMC3    H1 3855   3.709   2.877  15.842  1.4370  1.2131 -0.4444
  254TMC3    H2 3856   3.357   3.019  16.053 -0.3112 -1.1384  0.2482
  254TMC3    C7 3857   3.583   2.886  16.083  0.0742 -0.2863 -0.3329
  254TMC3    C8 3858   3.342   3.217  15.919 -0.0240  0.2652 -0.0611
  254TMC3    O1 3859   3.518   2.919  16.182 -0.3788  0.1432  0.1831
  254TMC3    O2 3860   3.385   3.240  16.026 -0.1015 -0.3861 -0.3553
  255MPD2     C 3861   1.909   1.029   9.806 -0.5039 -0.0758  0.3241
  255MPD2    C1 3862   1.989   1.143   9.828 -0.3334  0.1090  0.1253
  255MPD2    C2 3863   2.104   1.159   9.752 -0.1960 -0.0784 -0.1891
  255MPD2    C3 3864   2.140   1.065   9.655  0.0584  0.3119  0.0278
  255MPD2    C4 3865   2.064   0.960   9.625 -1.1675 -0.4378  0.4281
  255MPD2    C5 3866   1.957   0.947   9.707  0.0272 -0.3393  0.3232
  255MPD2     H 3867   2.155   1.254   9.768 -0.9829  0.1874  0.7237
  255MPD2    H1 3868   2.071   0.884   9.548 -1.8669  0.4688 -0.5282
  255MPD2    H2 3869   1.827   0.999   9.871 -0.2495 -0.9816  0.2332
  255MPD2    H3 3870   1.904   0.853   9.694  0.5025 -0.0587 -3.8977
  255MPD2     N 3871   2.254   1.094   9.578  0.8005  0.0006  0.2057
  255MPD2    H5 3872   2.294   1.184   9.605  0.1100  0.4695 -0.3296
  255MPD2    N1 3873   1.936   1.238   9.920  0.1886 -0.1047  0.0640
  255MPD2    H7 3874   1.845   1.220   9.961 -0.9219  1.6654 -1.6123
  256TMC3    C1 3875   1.902   1.463  10.003 -0.2796  0.4862  0.0225
  256TMC3    C2 3876   1.961   1.579  10.033  0.0522 -0.8488  0.4997
  256TMC3    C3 3877   1.905   1.689   9.981 -0.0541  0.6445 -0.6228
  256TMC3    C4 3878   1.776   1.455   9.956  0.3177  0.0793  0.7123
  256TMC3    C5 3879   1.717   1.572   9.913 -0.3598  0.1978  0.3841
  256TMC3    C6 3880   1.778   1.691   9.924  0.6598  0.1821 -0.4942
  256TMC3     C 3881   1.998   1.357   9.951  0.1398 -0.9062 -0.7060
  256TMC3     O 3882   2.109   1.393   9.920 -0.8255 -0.2133 -0.1519
  256TMC3     H 3883   2.062   1.578  10.072  0.3155  0.9192 -0.1791
  256TMC3    H1 3884   1.722   1.362   9.943  1.6131 -0.4766 -0.6520
  256TMC3    H2 3885   1.730   1.781   9.887 -3.4194 -1.7364  0.0404
  256TMC3    C7 3886   1.618   1.543   9.809 -0.1064  0.0996 -0.6080
  256TMC3    C8 3887   2.002   1.798   9.955  0.1247  0.0597 -0.0616
  256TMC3    O1 3888   1.565   1.431   9.818  0.5573  0.0041 -0.2650
  256TMC3    O2 3889   2.117   1.784   9.995 -0.2777  1.0351  0.0418
  257MPD2     C 3890   1.947   3.226  12.944  0.4442 -0.1693  0.5686
  257MPD2    C1 3891   1.817   3.191  12.914 -0.1192 -0.0252 -0.7026
  257MPD2    C2 3892   1.760   3.089  12.990  0.5733  0.3935 -0.2080
  257MPD2    C3 3893   1.836   3.026  13.088 -0.1495 -0.1231 -0.0005
  257MPD2    C4 3894   1.969   3.059  13.118 -0.1829  0.0202 -0.4802
  257MPD2    C5 3895   2.015   3.164  13.041 -0.3885  0.2819 -0.1131
  257MPD2     H 3896   1.662   3.043  12.979  0.2673  0.6860  1.3932
  257MPD2    H1 3897   2.032   3.021  13.198 -0.1642  0.1208 -0.4477
  257MPD2    H2 3898   1.997   3.303  12.887 -1.3291  0.1908 -0.5081
  257MPD2    H3 3899   2.111   3.211  13.058 -0.3938  0.8917 -1.7372
  257MPD2     N 3900   1.770   2.916  13.152 -0.1036 -0.2607  0.2351
  257MPD2    H5 3901   1.671   2.906  13.132  0.1918 -0.1996 -1.2410
  257MPD2    N1 3902   1.746   3.268  12.821  0.1838  0.3317  0.4101
  257MPD2    H7 3903   1.811   3.320  12.762 -0.1244  0.6692  0.3657
  258TMC3    C1 3904   1.751   2.717  13.295 -0.5711  0.1340 -0.7895
  258TMC3    C2 3905   1.641   2.681  13.225 -0.5102 -0.1761  0.4274
  258TMC3    C3 3906   1.586   2.561  13.261  0.5705  0.4830  0.2588
  258TMC3    C4 3907   1.806   2.642  13.393 -0.5551  0.1784  0.9631
  258TMC3    C5 3908   1.758   2.521  13.420  0.3987 -0.3623  0.3327
  258TMC3    C6 3909   1.640   2.481  13.361 -0.7987  0.2635 -0.0043
  258TMC3     C 3910   1.830   2.831  13.249  0.2865 -0.5160  0.1756
  258TMC3     O 3911   1.947   2.837  13.289  0.2337  0.6837 -0.8009
  258TMC3     H 3912   1.616   2.718  13.127  1.2853  0.8830  0.3647
  258TMC3    H1 3913   1.878   2.686  13.461  0.5214 -0.8334  0.4772
  258TMC3    H2 3914   1.580   2.397  13.392  0.5730 -0.9615 -0.6571
  258TMC3    C7 3915   1.786   2.472  13.558  0.9752 -0.0305  0.5056
  258TMC3    C8 3916   1.499   2.500  13.163  0.6415 -0.5786 -0.8563
  258TMC3    O1 3917   1.689   2.418  13.615 -0.0436  0.6520  0.1126
  258TMC3    O2 3918   1.447   2.570  13.078  0.4648 -0.3022 -0.3063
  259MPD2     C 3919   0.760   0.049   1.399  1.4326  0.3941  0.4811
  259MPD2    C1 3920   0.647   0.049   1.320 -0.6275 -0.6144 -0.8488
  259MPD2    C2 3921   0.667   0.033   1.186 -0.5459  0.6587  0.5717
  259MPD2    C3 3922   0.793   0.033   1.127 -0.6072  0.3491  0.9785
  259MPD2    C4 3923   0.906   0.034   1.209 -0.1410 -0.2146  0.1225
  259MPD2    C5 3924   0.887   0.047   1.344 -0.4196  0.2253 -0.2197
  259MPD2     H 3925   0.576   0.027   1.129  0.0330 -0.2188 -0.2617
  259MPD2    H1 3926   1.005   0.009   1.174  0.1944  2.1332 -0.6197
  259MPD2    H2 3927   0.747   0.049   1.507  2.0833 -2.0504  0.5613
  259MPD2    H3 3928   0.971   0.033   1.411  1.6858  1.2745 -2.6485
  259MPD2     N 3929   0.793   0.023   0.987  0.0101 -0.1205 -0.0887
  259MPD2    H5 3930   0.709   0.007   0.934  0.2752 -1.3224 -0.1469
  259MPD2    N1 3931   0.523   0.058   1.389  0.5185 -0.0493  0.4761
  259MPD2    H7 3932   0.524   0.073   1.489 -0.4940 -0.7181  0.5861
  260TMC3    C1 3933   0.879   0.022   0.766  0.5719 -0.1957 -0.0803
  260TMC3    C2 3934   0.967   0.070   0.675  0.1171  0.5240 -0.3169
  260TMC3    C3 3935   0.936   0.041   0.547  0.0556  0.3992 -0.6108
  260TMC3    C4 3936   0.772   4.658   0.742 -0.1166  0.7852 -0.3923
  260TMC3    C5 3937   0.756   4.624   0.615 -0.4402 -0.8164 -0.5019
  260TMC3    C6 3938   0.835   4.673   0.514 -0.1143 -0.0832  0.3861
  260TMC3     C 3939   0.907   0.044   0.912  0.1801  0.6551  0.3637
  260TMC3     O 3940   1.009   0.097   0.945 -0.2327 -0.2019  0.2491
  260TMC3     H 3941   1.058   0.116   0.712  0.6251 -2.4181  2.0509
  260TMC3    H1 3942   0.727   4.593   0.817  1.7663  0.4445  0.4407
  260TMC3    H2 3943   0.821   4.651   0.408 -0.5440 -3.1647  1.0715
  260TMC3    C7 3944   0.648   4.545   0.575  0.0640 -0.5361 -0.3254
  260TMC3    C8 3945   1.033   0.087   0.449 -0.0174  0.6695  0.3718
  260TMC3    O1 3946   0.547   4.547   0.645  0.0736 -0.2504 -0.1254
  260TMC3    O2 3947   1.106   0.181   0.479  0.4162  1.0564  0.2628
  261MPD2     C 3948   1.787   3.239  12.431  0.7492  0.6789  0.8739
  261MPD2    C1 3949   1.922   3.285  12.448  0.1778  0.0425  0.5880
  261MPD2    C2 3950   1.961   3.390  12.374 -0.5457  0.2126  0.4375
  261MPD2    C3 3951   1.890   3.421  12.260 -0.5773 -0.6143  0.3864
  261MPD2    C4 3952   1.771   3.356  12.232 -0.2924 -0.2403  0.8833
  261MPD2    C5 3953   1.715   3.273  12.323 -0.5825  0.4106 -0.2702
  261MPD2     H 3954   2.064   3.421  12.388 -0.0562 -0.7783 -0.9831
  261MPD2    H1 3955   1.713   3.377  12.143 -0.5799 -2.8895  0.4171
  261MPD2    H2 3956   1.743   3.166  12.499 -3.1649  0.7141 -1.5961
  261MPD2    H3 3957   1.623   3.217  12.310 -0.9306  0.7803  0.5951
  261MPD2     N 3958   1.957   3.514  12.176  0.2736  0.1129 -0.2696
  261MPD2    H5 3959   2.045   3.553  12.210  0.6926 -0.7713 -0.3493
  261MPD2    N1 3960   2.013   3.228  12.542  0.3554 -0.0216  0.1690
  261MPD2    H7 3961   2.103   3.275  12.545  1.2970 -1.9775  2.7340
  262TMC3    C1 3962   1.997   3.630  11.978 -0.3623  0.1026 -0.3165
  262TMC3    C2 3963   1.962   3.754  11.926  0.0963 -0.2125  0.3626
  262TMC3    C3 3964   2.056   3.805  11.838  0.9746  0.5835 -0.7080
  262TMC3    C4 3965   2.124   3.586  11.966 -0.6545 -0.6725 -0.1229
  262TMC3    C5 3966   2.213   3.636  11.882  0.3659  0.6899 -0.0312
  262TMC3    C6 3967   2.175   3.746  11.808 -0.1406 -0.5942  0.3242
  262TMC3     C 3968   1.899   3.568  12.065 -0.1776 -0.4872 -0.7012
  262TMC3     O 3969   1.785   3.553  12.018  0.5872 -0.1449 -0.1613
  262TMC3     H 3970   1.863   3.794  11.944  0.5428  1.6290 -1.2330
  262TMC3    H1 3971   2.149   3.494  12.016 -2.5071 -0.1333  1.7853
  262TMC3    H2 3972   2.250   3.806  11.759 -1.3812  0.3869 -0.3962
  262TMC3    C7 3973   2.331   3.559  11.856 -0.5221  0.6347  0.2019
  262TMC3    C8 3974   2.008   3.924  11.770  0.3719 -0.2311 -0.5939
  262TMC3    O1 3975   2.383   3.498  11.948  0.6655  0.6247 -0.6740
  262TMC3    O2 3976   1.932   3.996  11.833  0.8473 -0.0679 -0.3338
  263MPD2     C 3977   2.877   2.086  10.922 -0.0911 -0.0788 -0.6859
  263MPD2    C1 3978   2.918   2.210  10.970 -0.6729 -0.2124 -0.2589
  263MPD2    C2 3979   2.972   2.306  10.884  1.1790  0.3423 -0.4673
  263MPD2    C3 3980   3.001   2.266  10.755  0.4458 -0.1928 -0.0809
  263MPD2    C4 3981   2.973   2.134  10.713 -0.1412 -0.2281 -0.5270
  263MPD2    C5 3982   2.907   2.051  10.799  0.0805 -0.1041  0.5311
  263MPD2     H 3983   2.983   2.409  10.917  0.0042 -0.7149  3.2775
  263MPD2    H1 3984   3.002   2.103  10.613 -1.1766 -0.3939 -0.7768
  263MPD2    H2 3985   2.827   2.017  10.989  1.7511  0.3346  1.1425
  263MPD2    H3 3986   2.868   1.958  10.759  1.1279 -0.1808 -0.3123
  263MPD2     N 3987   3.060   2.368  10.673 -0.7083  0.7649  0.2145
  263MPD2    H5 3988   3.088   2.449  10.727  1.2170  0.6393 -0.6107
  263MPD2    N1 3989   2.898   2.238  11.110  0.6168  0.1810  0.7350
  263MPD2    H7 3990   2.869   2.158  11.165  0.7727  0.4645  1.2316
  264TMC3    C1 3991   3.136   2.480  10.489 -0.0772 -0.5439 -0.0013
  264TMC3    C2 3992   3.090   2.601  10.546  0.5770 -0.0884  0.3449
  264TMC3    C3 3993   3.136   2.718  10.489  0.0362  0.3833 -0.4150
  264TMC3    C4 3994   3.196   2.480  10.364  0.1093  0.3953  0.2479
  264TMC3    C5 3995   3.218   2.599  10.305 -0.2766  0.1103  0.4645
  264TMC3    C6 3996   3.193   2.720  10.366  0.0451  0.0706 -0.1321
  264TMC3     C 3997   3.087   2.359  10.539 -0.0640  0.2583  0.0462
  264TMC3     O 3998   3.076   2.270  10.457  0.3004 -0.1774  0.3059
  264TMC3     H 3999   3.033   2.596  10.638 -1.1075  0.4270 -0.6803
  264TMC3    H1 4000   3.221   2.386  10.316 -2.4345  1.0672 -2.4004
  264TMC3    H2 4001   3.227   2.807  10.311  1.3239  2.3540  4.2790
  264TMC3    C7 4002   3.316   2.599  10.199  0.0485 -0.2946  0.3440
  264TMC3    C8 4003   3.125   2.850  10.550  0.2968  0.1794  0.5539
  264TMC3    O1 4004   3.408   2.517  10.212  0.4603  0.2783 -0.2099
  264TMC3    O2 4005   3.130   2.946  10.473  0.8879  0.3003 -0.1463
  265MPD2     C 4006   0.652   3.278  15.144  0.4773 -0.2696 -0.3516
  265MPD2    C1 4007   0.656   3.171  15.229  0.2607 -0.4548  0.4117
  265MPD2    C2 4008   0.740   3.066  15.206  0.1394 -1.0242 -0.1662
  265MPD2    C3 4009   0.834   3.076  15.098  0.1496 -0.2597 -0.7057
  265MPD2    C4 4010   0.831   3.193  15.021  0.7830 -0.2397 -0.2146
  265MPD2    C5 4011   0.739   3.289  15.037 -0.1613 -0.2302 -0.6685
  265MPD2     H 4012   0.742   2.981  15.273 -3.8291 -0.2781  0.9473
  265MPD2    H1 4013   0.912   3.213  14.952 -0.7150  3.4480 -0.9323
  265MPD2    H2 4014   0.578   3.356  15.158  1.2576  0.3528  0.2762
  265MPD2    H3 4015   0.752   3.382  14.984 -6.2146  0.6689 -0.6363
  265MPD2     N 4016   0.928   2.975  15.065  0.0626  0.3613  0.1514
  265MPD2    H5 4017   0.990   3.003  14.991  0.4233  2.9681  1.4155
  265MPD2    N1 4018   0.576   3.168  15.346 -0.5045  0.0092 -0.1865
  265MPD2    H7 4019   0.596   3.095  15.413 -0.2637  0.5535  0.3413
  266TMC3    C1 4020   0.434   3.258  15.517 -0.7109  0.5424 -0.4890
  266TMC3    C2 4021   0.519   3.219  15.614  0.3427  0.0778  0.8958
  266TMC3    C3 4022   0.492   3.257  15.744 -0.0596 -0.5760 -0.1041
  266TMC3    C4 4023   0.326   3.343  15.540 -0.3047 -0.6315 -0.4481
  266TMC3    C5 4024   0.292   3.366  15.673 -0.1129  0.2208 -0.0064
  266TMC3    C6 4025   0.378   3.329  15.773  0.1612 -0.5646  0.1415
  266TMC3     C 4026   0.480   3.265  15.379 -0.1444 -0.4794 -0.3778
  266TMC3     O 4027   0.415   3.335  15.307  0.0132  0.1803 -0.0392
  266TMC3     H 4028   0.615   3.174  15.590  2.2883  3.6403  1.9836
  266TMC3    H1 4029   0.259   3.374  15.461  0.3362  1.0003 -0.3481
  266TMC3    H2 4030   0.348   3.358  15.872 -0.8228 -1.6008  0.1475
  266TMC3    C7 4031   0.155   3.390  15.707  0.3154  0.6549 -1.0965
  266TMC3    C8 4032   0.577   3.197  15.843  0.0185  0.6984 -0.0255
  266TMC3    O1 4033   0.133   3.436  15.817  0.2746 -0.2204  0.0119
  266TMC3    O2 4034   0.629   3.089  15.815 -0.2525 -0.7915 -1.1479
  267MPD2     C 4035   3.396   4.410  17.281 -0.2330 -0.6812 -0.4330
  267MPD2    C1 4036   3.373   4.536  17.227 -0.6262  0.6201  0.8094
  267MPD2    C2 4037   3.358   4.550  17.089  0.0746 -0.5431  0.2859
  267MPD2    C3 4038   3.373   4.440  17.000 -0.1192 -0.2692  0.0596
  267MPD2    C4 4039   3.396   4.320  17.060 -0.3403 -0.4200 -0.6108
  267MPD2    C5 4040   3.399   4.300  17.193 -0.4419 -0.1876  0.5010
  267MPD2     H 4041   3.337   4.648  17.048  0.9121 -0.0600  1.0104
  267MPD2    H1 4042   3.392   4.232  16.997 -1.3098 -0.0723 -1.0322
  267MPD2    H2 4043   3.407   4.400  17.388  0.1984  0.3664 -0.3751
  267MPD2    H3 4044   3.402   4.195  17.223  1.2141 -1.0365 -2.6067
  267MPD2     N 4045   3.369   4.460  16.864  0.2501  0.0814 -0.1146
  267MPD2    H5 4046   3.368   4.378  16.804 -4.4911 -1.1091  1.5465
  267MPD2    N1 4047   3.372   4.647  17.320 -0.3691 -0.2912  0.4251
  267MPD2    H7 4048   3.412   4.628  17.411  1.8156 -2.8453 -1.0325
  268TMC3    C1 4049   3.344   0.149  17.406  0.4339  0.5946 -0.0868
  268TMC3    C2 4050   3.356   0.281  17.369 -0.3450 -0.0287 -0.3413
  268TMC3    C3 4051   3.309   0.382  17.447 -0.1548 -0.5813 -0.2818
  268TMC3    C4 4052   3.284   0.116  17.523 -0.1031  0.3922 -0.2960
  268TMC3    C5 4053   3.247   0.222  17.607 -0.1344  0.4163  0.2757
  268TMC3    C6 4054   3.258   0.351  17.570  0.1502 -0.2132  0.3762
  268TMC3     C 4055   3.341   0.053  17.291  0.8868 -0.0567  0.0576
  268TMC3     O 4056   3.301   0.096  17.187  0.0727  0.4111  0.6828
  268TMC3     H 4057   3.373   0.291  17.263 -0.2608 -4.7543 -0.7522
  268TMC3    H1 4058   3.260   0.014  17.549 -1.9828  0.6560 -0.9805
  268TMC3    H2 4059   3.217   0.429  17.635 -0.4612  1.5508 -2.1269
  268TMC3    C7 4060   3.194   0.182   0.042  0.1362  1.0992 -0.3556
  268TMC3    C8 4061   3.265   0.509  17.391  0.3724  0.0158 -0.3769
  268TMC3    O1 4062   3.227   0.067   0.083  0.0290  0.0986 -0.0104
  268TMC3    O2 4063   3.246   0.601  17.472  0.4623 -0.3846  0.4252
  269MPD2     C 4064   2.737   3.540  15.943 -0.1074  0.5348 -0.2728
  269MPD2    C1 4065   2.775   3.541  15.812  1.0611  0.0578 -0.5621
  269MPD2    C2 4066   2.781   3.658  15.744 -0.0107 -0.7398 -0.3328
  269MPD2    C3 4067   2.745   3.775  15.805  0.0746 -0.0713  0.0119
  269MPD2    C4 4068   2.709   3.780  15.939 -0.0350  0.0491  0.1001
  269MPD2    C5 4069   2.706   3.658  16.001  0.0328  0.7506 -0.3946
  269MPD2     H 4070   2.815   3.653  15.642  0.8590  0.3031 -0.0935
  269MPD2    H1 4071   2.672   3.862  16.000 -1.5266 -0.9160  0.4882
  269MPD2    H2 4072   2.711   3.445  15.988  3.1526 -0.7672 -1.1338
  269MPD2    H3 4073   2.672   3.651  16.104  0.3409  0.1927 -0.3303
  269MPD2     N 4074   2.746   3.894  15.730 -0.9416  0.9946  0.0879
  269MPD2    H5 4075   2.785   3.904  15.637  0.8123 -0.4126  0.6809
  269MPD2    N1 4076   2.784   3.409  15.761 -0.0067 -0.6141 -0.0896
  269MPD2    H7 4077   2.788   3.339  15.836 -0.3339 -1.2573 -0.6704
  270TMC3    C1 4078   2.814   3.237  15.601 -0.6316 -0.5438  0.2548
  270TMC3    C2 4079   2.787   3.192  15.473  0.1622 -1.0774  0.0224
  270TMC3    C3 4080   2.840   3.074  15.431 -0.1373 -0.5196  0.7597
  270TMC3    C4 4081   2.892   3.163  15.688 -0.7367 -0.3917  0.2162
  270TMC3    C5 4082   2.950   3.054  15.639  0.0073 -0.5540 -0.1447
  270TMC3    C6 4083   2.921   3.002  15.520  0.0448 -0.2778  0.4397
  270TMC3     C 4084   2.792   3.376  15.630 -0.2651 -0.3350  0.3900
  270TMC3     O 4085   2.778   3.447  15.532 -0.7618 -0.3711 -0.2895
  270TMC3     H 4086   2.724   3.250  15.408  0.4957 -1.4688 -0.6503
  270TMC3    H1 4087   2.925   3.196  15.786  2.5128 -0.0325 -1.0003
  270TMC3    H2 4088   2.971   2.914  15.482 -1.7979 -0.2838 -1.9946
  270TMC3    C7 4089   3.038   2.986  15.731 -0.3824 -0.4814 -1.0389
  270TMC3    C8 4090   2.830   3.026  15.292 -0.2255 -0.2351 -0.1051
  270TMC3    O1 4091   3.012   2.998  15.849 -0.8756  0.2469  0.0472
  270TMC3    O2 4092   2.919   2.949  15.249 -0.1546  1.0960  0.3599
  271MPD2     C 4093   2.603   3.255  13.411 -0.1726  0.0943  0.1680
  271MPD2    C1 4094   2.524   3.241  13.525  0.1483 -0.0607 -0.1477
  271MPD2    C2 4095   2.389   3.269  13.517 -0.6333 -0.2007 -0.8333
  271MPD2    C3 4096   2.334   3.308  13.391  0.0119 -0.0764  0.0879
  271MPD2    C4 4097   2.416   3.307  13.281  0.3230  0.6220 -0.8214
  271MPD2    C5 4098   2.549   3.291  13.293 -0.0944  0.1178 -0.0692
  271MPD2     H 4099   2.330   3.289  13.606  1.3525  1.4838  0.1223
  271MPD2    H1 4100   2.384   3.346  13.185  2.1570  2.1563 -0.8033
  271MPD2    H2 4101   2.711   3.247  13.412 -0.1492  0.4553  1.1822
  271MPD2    H3 4102   2.611   3.309  13.206  1.2021 -2.3647  0.3441
  271MPD2     N 4103   2.205   3.356  13.369 -0.3083  0.3220 -0.3853
  271MPD2    H5 4104   2.186   3.393  13.277  2.0250  3.3683  0.3433
  271MPD2    N1 4105   2.569   3.223  13.660 -0.1060 -0.0146  0.4167
  271MPD2    H7 4106   2.502   3.232  13.735  1.6852 -0.2489  2.0332
  272TMC3    C1 4107   2.742   3.180  13.832 -0.2010  0.3621 -0.6965
  272TMC3    C2 4108   2.864   3.119  13.846 -0.2112  0.3950  0.5573
  272TMC3    C3 4109   2.885   3.075  13.980  0.5510  0.6443 -0.2583
  272TMC3    C4 4110   2.655   3.219  13.935  0.8916  0.3598 -0.0759
  272TMC3    C5 4111   2.687   3.169  14.057  0.0539  0.2153 -0.2182
  272TMC3    C6 4112   2.803   3.095  14.085 -0.1152 -0.6922 -0.8973
  272TMC3     C 4113   2.707   3.213  13.692 -0.4376 -0.6507  0.1903
  272TMC3     O 4114   2.806   3.223  13.621  0.1075  0.1443 -0.1213
  272TMC3     H 4115   2.937   3.101  13.768  0.8125  0.8298  1.4187
  272TMC3    H1 4116   2.563   3.274  13.926  0.3956 -0.3799  0.5490
  272TMC3    H2 4117   2.802   3.042  14.179 -0.0593  2.6704  1.0018
  272TMC3    C7 4118   2.580   3.180  14.160 -0.0346 -0.1609 -0.7122
  272TMC3    C8 4119   3.029   3.054  14.007 -0.4320  0.1877  0.1550
  272TMC3    O1 4120   2.464   3.186  14.115 -0.1024 -0.8593 -0.0674
  272TMC3    O2 4121   3.097   3.057  13.906  0.8317  0.4450  0.2689
  273MPD2     C 4122   3.982   1.372  11.572 -0.7600  0.0537  0.4296
  273MPD2    C1 4123   3.972   1.493  11.520  0.1610  0.2434  0.4639
  273MPD2    C2 4124   3.911   1.505  11.395  0.3656 -0.4676  0.8105
  273MPD2    C3 4125   3.860   1.394  11.320 -0.1540 -0.2144 -0.3489
  273MPD2    C4 4126   3.870   1.270  11.384  0.3899 -0.1032  0.2962
  273MPD2    C5 4127   3.927   1.263  11.509  0.2873  0.0970 -0.0947
  273MPD2     H 4128   3.884   1.599  11.348 -0.1348 -1.1360 -0.2403
  273MPD2    H1 4129   3.833   1.171  11.360  0.3927 -0.5005  1.8883
  273MPD2    H2 4130   4.030   1.355  11.667 -1.7052 -2.2552  0.5098
  273MPD2    H3 4131   3.937   1.164  11.550  0.7979 -0.0371 -0.5400
  273MPD2     N 4132   3.797   1.422  11.197 -0.2782 -1.0798 -0.2365
  273MPD2    H5 4133   3.794   1.518  11.164  0.3807 -1.2612 -0.8191
  273MPD2    N1 4134   4.035   1.600  11.590  1.3517 -0.1641 -0.0507
  273MPD2    H7 4135   4.058   1.580  11.686  0.2834 -0.8974  0.0489
  274TMC3    C1 4136   3.598   1.403  11.093  0.7610 -0.4341 -0.0419
  274TMC3    C2 4137   3.573   1.423  10.958 -0.3246 -0.1405 -0.5950
  274TMC3    C3 4138   3.450   1.471  10.928 -0.3987 -0.0774  0.2804
  274TMC3    C4 4139   3.507   1.436  11.192 -0.0708 -0.4686  0.5467
  274TMC3    C5 4140   3.388   1.497  11.152 -0.7185  0.5493 -0.3580
  274TMC3    C6 4141   3.357   1.496  11.021 -0.0475 -0.4653  0.2495
  274TMC3     C 4142   3.714   1.331  11.144 -0.9547  0.3468  0.2189
  274TMC3     O 4143   3.685   1.220  11.182 -0.9497  0.1825 -0.9065
  274TMC3     H 4144   3.642   1.393  10.880 -1.2206  1.0445 -1.8297
  274TMC3    H1 4145   3.520   1.409  11.296  0.3155 -3.4786 -0.2990
  274TMC3    H2 4146   3.270   1.549  10.984  0.6093  1.6312  1.7243
  274TMC3    C7 4147   3.368   1.624  11.222  0.5583  0.3462  0.1156
  274TMC3    C8 4148   3.403   1.468  10.792  0.0334  1.0142 -0.2332
  274TMC3    O1 4149   3.264   1.680  11.196 -0.1555 -0.4476  1.0406
  274TMC3    O2 4150   3.284   1.452  10.785 -0.3669 -0.5046  0.0008
  275MPD2     C 4151   4.012   4.197  14.402 -0.4866  0.5221 -0.2248
  275MPD2    C1 4152   3.935   4.208  14.517  0.5076  0.1217  0.5157
  275MPD2    C2 4153   3.796   4.200  14.505  0.0273 -0.2150 -0.5320
  275MPD2    C3 4154   3.740   4.183  14.380 -0.5122 -0.0473 -0.2098
  275MPD2    C4 4155   3.817   4.157  14.268  0.4056 -0.3063  0.0584
  275MPD2    C5 4156   3.954   4.175  14.282 -0.5419  0.1969 -0.5228
  275MPD2     H 4157   3.733   4.215  14.592 -0.4800  0.5433 -1.0296
  275MPD2    H1 4158   3.781   4.137  14.168  1.4033 -0.3221 -0.2958
  275MPD2    H2 4159   4.119   4.212  14.410 -0.5013 -0.4672  1.7634
  275MPD2    H3 4160   4.013   4.165  14.192  0.0507  0.2180 -0.1380
  275MPD2     N 4161   3.604   4.168  14.365 -0.9794 -0.3797  0.3724
  275MPD2    H5 4162   3.578   4.163  14.267  2.2830 -0.4139 -0.4779
  275MPD2    N1 4163   3.978   4.248  14.642  0.3179 -0.0841 -0.1083
  275MPD2    H7 4164   3.916   4.259  14.722 -0.6209  1.9793 -1.0992
  276TMC3    C1 4165   4.122   4.327  14.818  0.2161 -0.2522 -0.2764
  276TMC3    C2 4166   4.039   4.274  14.914 -0.7204  0.7379 -0.1181
  276TMC3    C3 4167   4.065   4.303  15.044  0.2221  0.2258 -0.1100
  276TMC3    C4 4168   4.233   4.395  14.860  0.7574 -0.6280  0.0088
  276TMC3    C5 4169   4.257   4.414  14.995  0.4272 -0.6344  0.4116
  276TMC3    C6 4170   4.174   4.368  15.093  0.3502  0.4636  0.2872
  276TMC3     C 4171   4.105   4.282  14.677 -0.3499 -0.1844  0.1134
  276TMC3     O 4172   4.206   4.289  14.606  0.0493  0.1687 -0.0670
  276TMC3     H 4173   3.946   4.226  14.885  0.3304 -1.5411  0.3476
  276TMC3    H1 4174   4.299   4.429  14.781 -0.8930  2.4557 -0.0636
  276TMC3    H2 4175   4.189   4.398  15.196  0.8024  1.8648 -0.1829
  276TMC3    C7 4176   4.366   4.498  15.039 -0.2812 -0.2656 -0.9411
  276TMC3    C8 4177   4.010   4.212  15.147 -0.2209  0.0679 -0.2009
  276TMC3    O1 4178   4.365   4.527  15.162  0.4170 -0.4271  0.0648
  276TMC3    O2 4179   4.012   4.255  15.260  0.7119  0.1151 -0.6551
  277MPD2     C 4180   0.720   3.062  12.780 -0.3476  0.7419 -0.3656
  277MPD2    C1 4181   0.682   3.154  12.880  0.1841  0.1540 -0.7502
  277MPD2    C2 4182   0.655   3.113  13.012  0.0776  0.7792 -0.8966
  277MPD2    C3 4183   0.680   2.982  13.048 -0.1805  0.0247  0.0021
  277MPD2    C4 4184   0.725   2.895  12.953 -0.2910 -0.0784  0.3793
  277MPD2    C5 4185   0.735   2.933  12.820  0.5452  0.0920  0.1714
  277MPD2     H 4186   0.594   3.175  13.076 -0.4262 -1.9982  1.3147
  277MPD2    H1 4187   0.743   2.792  12.980  1.1897  0.6610  2.2866
  277MPD2    H2 4188   0.728   3.088  12.675 -0.6161 -0.3480 -0.6638
  277MPD2    H3 4189   0.755   2.853  12.749  2.7003 -0.1085  1.0089
  277MPD2     N 4190   0.641   2.944  13.181  0.4494 -0.1059  0.7271
  277MPD2    H5 4191   0.604   3.021  13.236 -1.5183  0.9398 -2.0674
  277MPD2    N1 4192   0.668   3.288  12.840  0.1224  0.4730  0.6147
  277MPD2    H7 4193   0.677   3.317  12.743  1.3070  0.3771  0.7050
  278TMC3    C1 4194   0.606   2.807  13.376 -0.1334  0.5455 -0.4670
  278TMC3    C2 4195   0.584   2.677  13.412 -0.7816  0.5239  0.7268
  278TMC3    C3 4196   0.526   2.650  13.535  0.4556  0.0506  0.1825
  278TMC3    C4 4197   0.543   2.911  13.445  0.0658  0.6822 -0.5459
  278TMC3    C5 4198   0.479   2.875  13.560 -0.9646  0.4125  0.8651
  278TMC3    C6 4199   0.473   2.748  13.612  0.0156  0.3409 -0.3474
  278TMC3     C 4200   0.659   2.820  13.240 -0.0112 -0.1378  0.2894
  278TMC3     O 4201   0.690   2.714  13.180 -0.1697  0.0506  0.4111
  278TMC3     H 4202   0.648   2.599  13.372  0.3995  2.0906 -0.4252
  278TMC3    H1 4203   0.550   3.015  13.417  0.6270  0.6764 -0.4195
  278TMC3    H2 4204   0.450   2.725  13.715 -0.0307  1.6597 -0.0749
  278TMC3    C7 4205   0.420   2.988  13.633  0.4738  0.0274  0.2668
  278TMC3    C8 4206   0.461   2.524  13.527  0.6706  0.1800  1.4520
  278TMC3    O1 4207   0.472   3.097  13.631  0.0491 -0.1440  0.0896
  278TMC3    O2 4208   0.488   2.431  13.606  0.8766  0.7746  0.1811
  279MPD2     C 4209   4.716   3.193   0.373  0.1405 -0.5677 -0.1068
  279MPD2    C1 4210   4.587   3.169   0.335 -0.2619  0.1749  0.3226
  279MPD2    C2 4211   4.544   3.208   0.204 -0.6126 -0.5162 -0.0208
  279MPD2    C3 4212   4.622   3.284   0.122 -0.4175  0.5645  0.9733
  279MPD2    C4 4213   0.034   3.301   0.162 -0.2500  0.5711 -0.5487
  279MPD2    C5 4214   0.074   3.261   0.290  0.0710  0.4783 -0.3458
  279MPD2     H 4215   4.443   3.184   0.171 -0.5865 -0.2004 -0.3271
  279MPD2    H1 4216   0.099   3.367   0.106 -0.1266 -0.5163 -1.6860
  279MPD2    H2 4217   0.030   3.167   0.471 -0.4397  2.0968  0.8016
  279MPD2    H3 4218   0.174   3.274   0.330 -1.0990  0.7247  2.5326
  279MPD2     N 4219   4.590   3.330  17.686 -0.3516 -0.1876  0.2123
  279MPD2    H5 4220   4.653   3.395  17.640  0.4306 -1.7928 -0.9913
  279MPD2    N1 4221   4.508   3.094   0.425  0.2742  0.0295 -0.5331
  279MPD2    H7 4222   4.555   3.053   0.505  2.8206  0.5900 -1.7342
  280TMC3    C1 4223   4.282   3.148   0.342  0.2652 -0.0967 -0.1797
  280TMC3    C2 4224   4.171   3.090   0.295 -0.1795 -0.2137 -0.3451
  280TMC3    C3 4225   4.056   3.154   0.309  0.3121  0.2067 -0.0417
  280TMC3    C4 4226   4.278   3.272   0.404  0.0927  0.2756  0.2618
  280TMC3    C5 4227   4.157   3.339   0.405 -0.0273  0.5486  0.0501
  280TMC3    C6 4228   4.040   3.284   0.361 -0.3882  0.0742  0.3758
  280TMC3     C 4229   4.374   3.054   0.407  0.7650 -0.5286  0.0549
  280TMC3     O 4230   4.311   2.967   0.472  0.2143  0.5036  0.2081
  280TMC3     H 4231   4.174   2.990   0.254  3.0814  1.2133 -3.6805
  280TMC3    H1 4232   4.368   3.315   0.445 -1.7808  2.3305  2.2056
  280TMC3    H2 4233   3.943   3.332   0.370 -1.8406 -2.3853 -2.4305
  280TMC3    C7 4234   4.154   3.479   0.434 -0.0268 -0.0668 -0.6311
  280TMC3    C8 4235   3.941   3.067   0.312  0.1745 -0.1458 -0.3201
  280TMC3    O1 4236   4.249   3.519   0.498 -0.3375 -0.0041 -0.2252
  280TMC3    O2 4237   3.847   3.106   0.386 -0.8415 -0.2796  0.2097
  281TMC3    C1 4238   3.757   3.573  12.723 -0.4034 -0.0571 -0.0389
  281TMC3    C2 4239   3.708   3.701  12.714  0.5105 -0.3388 -0.4366
  281TMC3    C3 4240   3.626   3.731  12.611  0.4139 -0.0338  0.4740
  281TMC3    C4 4241   3.712   3.469  12.642  0.2792  0.3151 -0.0486
  281TMC3    C5 4242   3.631   3.503  12.534 -0.1276 -0.3698 -0.2687
  281TMC3    C6 4243   3.583   3.629  12.519  0.0872 -0.0295 -0.1192
  281TMC3     C 4244   3.810   3.531  12.856 -0.3410 -0.4408  0.0676
  281TMC3     O 4245   3.861   3.419  12.868  0.6575 -0.6846 -1.0433
  281TMC3     H 4246   3.748   3.781  12.774  0.6960 -1.8257  1.4223
  281TMC3    H1 4247   3.739   3.368  12.670 -0.8078 -0.2450 -1.0161
  281TMC3    H2 4248   3.501   3.641  12.450 -0.3503  1.0956  0.5915
  281TMC3    C7 4249   3.547   3.396  12.490  0.7313  0.0025 -0.3955
  281TMC3    C8 4250   3.518   3.824  12.636 -0.5156 -0.2166 -0.0765
  281TMC3    O1 4251   3.522   3.363  12.371  0.5643  0.1896 -0.4992
  281TMC3    O2 4252   3.402   3.800  12.603  0.1871 -0.6210 -0.0604
  282MPD2     C 4253   0.625   0.234  15.127 -0.0031 -0.2602 -0.0742
  282MPD2    C1 4254   0.499   0.293  15.143  0.5970 -0.6805 -0.3483
  282MPD2    C2 4255   0.404   0.298  15.033  0.3457  0.3134  0.3494
  282MPD2    C3 4256   0.430   0.239  14.913  0.5301 -0.2971  0.3149
  282MPD2    C4 4257   0.551   0.175  14.897  0.9239  0.7961 -0.1127
  282MPD2    C5 4258   0.647   0.183  15.000  0.3634  0.2249  0.1502
  282MPD2     H 4259   0.311   0.353  15.042 -1.4816 -3.0320  2.2547
  282MPD2    H1 4260   0.585   0.130  14.804  0.7803 -0.2137  0.3314
  282MPD2    H2 4261   0.705   0.223  15.199 -0.0217  2.4833  0.3481
  282MPD2    H3 4262   0.749   0.152  14.982 -0.7451 -2.0017 -2.1522
  282MPD2     N 4263   0.341   0.254  14.800  0.2539  0.1477  0.2720
  282MPD2    H5 4264   0.264   0.317  14.819 -0.1197 -0.7698  1.7893
  282MPD2    N1 4265   0.451   0.346  15.264  0.9627 -0.0475  0.1177
  282MPD2    H7 4266   0.358   0.387  15.266  2.0457  2.3242  1.5486
  283TMC3    C1 4267   0.436   0.393  15.491  0.7269  0.0304 -0.3506
  283TMC3    C2 4268   0.356   0.501  15.466 -0.5799  0.6687 -0.4087
  283TMC3    C3 4269   0.289   0.552  15.569  0.2460 -0.1055  0.3647
  283TMC3    C4 4270   0.463   0.345  15.620 -0.3624  0.2478 -0.5119
  283TMC3    C5 4271   0.386   0.394  15.718 -0.2985  0.2165  1.0885
  283TMC3    C6 4272   0.299   0.503  15.695 -0.8300 -0.0009 -0.6838
  283TMC3     C 4273   0.498   0.316  15.384 -0.7049  0.7000  0.5488
  283TMC3     O 4274   0.587   0.243  15.424 -0.5118  0.4750  0.2750
  283TMC3     H 4275   0.339   0.529  15.363 -1.6897 -0.1231 -0.4430
  283TMC3    H1 4276   0.533   0.264  15.634  0.7117  1.3779  0.5796
  283TMC3    H2 4277   0.255   0.558  15.778 -0.1864 -0.7953  0.1919
  283TMC3    C7 4278   0.352   0.310  15.830 -0.7425 -0.1460 -0.9654
  283TMC3    C8 4279   0.238   0.689  15.563 -0.6305 -0.1688  0.2238
  283TMC3    O1 4280   0.264   0.352  15.900  0.4760  0.0033 -0.3648
  283TMC3    O2 4281   0.128   0.709  15.609 -0.1918 -0.1124  0.4116
  284MPD2     C 4282   3.998   3.767  11.771  0.5506 -0.0201  0.0738
  284MPD2    C1 4283   3.940   3.829  11.667 -0.4002 -0.6555 -0.0938
  284MPD2    C2 4284   3.804   3.815  11.645 -0.7010 -0.7145  0.1055
  284MPD2    C3 4285   3.728   3.726  11.715 -0.5142 -0.1407 -0.4172
  284MPD2    C4 4286   3.784   3.669  11.828 -0.5539 -0.4600  0.3392
  284MPD2    C5 4287   3.921   3.680  11.853  0.5185 -0.1409 -0.0971
  284MPD2     H 4288   3.757   3.872  11.566 -1.5282 -2.5461 -0.7060
  284MPD2    H1 4289   3.724   3.607  11.894  0.3829  0.6693  2.2522
  284MPD2    H2 4290   4.107   3.766  11.779  0.7074  0.2209 -2.2474
  284MPD2    H3 4291   3.955   3.621  11.937  1.5692 -1.6110 -1.5585
  284MPD2     N 4292   3.591   3.705  11.683  0.5858 -0.6944 -0.1512
  284MPD2    H5 4293   3.538   3.629  11.726 -0.2528 -0.1116 -0.1470
  284MPD2    N1 4294   4.008   3.908  11.574  0.3418  0.0177  0.2665
  284MPD2    H7 4295   3.959   3.941  11.491 -1.1240  1.7953  1.8276
  285TMC3    C1 4296   4.179   4.012  11.450  0.6417  0.1174 -0.1548
  285TMC3    C2 4297   4.102   3.961  11.350 -0.3262 -0.2542 -0.0885
  285TMC3    C3 4298   4.043   4.045  11.262 -0.3677 -1.0864  0.1109
  285TMC3    C4 4299   4.198   4.143  11.467 -0.9406  0.5858  0.3909
  285TMC3    C5 4300   4.155   4.220  11.363  0.0826  0.6554 -0.5083
  285TMC3    C6 4301   4.072   4.175  11.264 -0.1569 -0.3029  0.2416
  285TMC3     C 4302   4.145   3.942  11.577  0.1259 -0.3015  0.3267
  285TMC3     O 4303   4.216   3.963  11.677 -0.3661 -0.1281 -0.6780
  285TMC3     H 4304   4.068   3.859  11.341 -1.2445 -0.0296  0.7759
  285TMC3    H1 4305   4.258   4.182  11.549 -0.8070 -1.3959  1.2344
  285TMC3    H2 4306   4.052   4.244  11.183 -3.0280 -2.1261 -0.6087
  285TMC3    C7 4307   4.206   4.361  11.363 -0.2688 -0.3002 -0.1615
  285TMC3    C8 4308   3.935   3.990  11.189  0.4988  0.1467  0.0855
  285TMC3    O1 4309   4.142   4.438  11.291 -0.0727  0.0633 -0.2802
  285TMC3    O2 4310   3.947   3.874  11.151  0.4483 -0.1796  0.5629
  286MPD2     C 4311   3.335   3.659   1.946  0.6568 -0.6433 -0.2181
  286MPD2    C1 4312   3.315   3.608   1.821  0.1592  0.1346 -0.3719
  286MPD2    C2 4313   3.404   3.516   1.760 -0.1007 -0.9773  0.1896
  286MPD2    C3 4314   3.522   3.476   1.823 -0.3483 -0.1312 -0.4782
  286MPD2    C4 4315   3.537   3.527   1.954  0.2023  0.2705  0.6828
  286MPD2    C5 4316   3.449   3.619   2.010 -0.7929 -0.0078 -0.5177
  286MPD2     H 4317   3.382   3.482   1.659 -0.9590  1.7198 -0.5462
  286MPD2    H1 4318   3.610   3.486   2.023  0.9263 -2.5532 -1.7488
  286MPD2    H2 4319   3.269   3.724   2.003  1.0318 -1.3017  0.9549
  286MPD2    H3 4320   3.466   3.653   2.111  1.0932 -0.7881 -0.5768
  286MPD2     N 4321   3.616   3.391   1.759  0.2758  0.1796 -0.6355
  286MPD2    H5 4322   3.688   3.356   1.820  0.6151  1.7169 -0.1500
  286MPD2    N1 4323   3.196   3.646   1.748 -0.0205 -0.1315 -0.4683
  286MPD2    H7 4324   3.197   3.621   1.649  3.2195  0.4088 -0.5583
  287TMC3    C1 4325   3.715   3.253   1.593  0.1295  0.4139  0.7481
  287TMC3    C2 4326   3.688   3.144   1.511 -0.0722 -0.4598 -0.3509
  287TMC3    C3 4327   3.791   3.075   1.456 -0.8506 -0.2079  0.2076
  287TMC3    C4 4328   3.844   3.292   1.628 -0.6556 -0.0533  0.8749
  287TMC3    C5 4329   3.942   3.226   1.563 -0.0815 -0.1806 -0.2080
  287TMC3    C6 4330   3.925   3.115   1.487  0.2263  0.1969  0.7037
  287TMC3     C 4331   3.594   3.324   1.638  0.3096 -0.2596 -0.4734
  287TMC3     O 4332   3.495   3.321   1.567 -0.2555 -0.0197  0.1561
  287TMC3     H 4333   3.583   3.122   1.493 -0.8128  2.2421  0.6542
  287TMC3    H1 4334   3.859   3.381   1.689  1.0160 -0.1892  0.6397
  287TMC3    H2 4335   4.005   3.058   1.441 -1.2415 -2.1235  1.0334
  287TMC3    C7 4336   4.076   3.277   1.586 -0.5261  0.6815 -0.7356
  287TMC3    C8 4337   3.774   2.965   1.361 -0.4043  0.4681  0.3263
  287TMC3    O1 4338   4.082   3.391   1.630  0.4415 -0.0031  0.2297
  287TMC3    O2 4339   3.868   2.893   1.353 -0.6266  0.0354 -0.4066
  288TMC3    C1 4340   1.569   2.540  14.409 -0.2665  0.7373 -0.2510
  288TMC3    C2 4341   1.447   2.558  14.469  0.1924  0.2119  0.0347
  288TMC3    C3 4342   1.341   2.593  14.390 -0.3395  0.0540 -0.1026
  288TMC3    C4 4343   1.588   2.562  14.275 -0.0927  0.7216  0.4236
  288TMC3    C5 4344   1.479   2.609  14.202 -0.4436  0.0587  0.7789
  288TMC3    C6 4345   1.353   2.630  14.257 -0.3514 -0.2563 -0.4019
  288TMC3     C 4346   1.683   2.527  14.497 -0.2190  0.5883  0.3411
  288TMC3     O 4347   1.654   2.511  14.615 -0.6510  0.0334  0.5619
  288TMC3     H 4348   1.438   2.550  14.576 -2.6952 -0.3828 -0.2354
  288TMC3    H1 4349   1.680   2.541  14.222  0.6307  0.7807  1.6549
  288TMC3    H2 4350   1.266   2.650  14.196 -0.3038  1.6061  0.1429
  288TMC3    C7 4351   1.482   2.654  14.069 -1.0357  0.6423  0.3373
  288TMC3    C8 4352   1.217   2.632  14.451 -0.1577 -0.1835  0.1359
  288TMC3    O1 4353   1.376   2.676  14.008 -0.3618 -0.3520 -0.4268
  288TMC3    O2 4354   1.159   2.722  14.392  0.7385 -0.1312 -0.9132
  289MPD2     C 4355   1.307   1.885  14.611  0.6527 -0.3040 -0.5822
  289MPD2    C1 4356   1.361   2.005  14.563  0.1508  0.3484 -0.0001
  289MPD2    C2 4357   1.276   2.094  14.500  0.3139 -0.8317 -0.0519
  289MPD2    C3 4358   1.143   2.062  14.477 -0.3491  0.4073  0.5607
  289MPD2    C4 4359   1.092   1.942  14.530 -0.2699 -0.2441  0.1156
  289MPD2    C5 4360   1.177   1.860  14.592  0.6585 -0.1668  0.3172
  289MPD2     H 4361   1.313   2.191  14.468  0.2967 -1.0431 -0.7224
  289MPD2    H1 4362   0.989   1.908  14.522 -0.1887 -0.1240 -1.3808
  289MPD2    H2 4363   1.363   1.801  14.650 -1.3494 -1.0433  0.7208
  289MPD2    H3 4364   1.134   1.764  14.618  0.6030  0.4157  2.3456
  289MPD2     N 4365   1.052   2.145  14.400 -0.1719 -0.0444  0.7850
  289MPD2    H5 4366   0.961   2.112  14.370  1.3870 -2.2355 -1.5404
  289MPD2    N1 4367   1.503   2.021  14.573  0.0536  0.3937 -0.3396
  289MPD2    H7 4368   1.551   1.946  14.621  0.2445  0.3494 -0.6003
  290TMC3    C1 4369   0.973   2.309  14.256 -0.1697 -0.2466  0.7270
  290TMC3    C2 4370   0.930   2.442  14.250 -0.1101 -0.0112 -0.0878
  290TMC3    C3 4371   0.854   2.476  14.151  0.5753  0.0568 -0.1599
  290TMC3    C4 4372   0.921   2.218  14.167  0.0189  0.1889  0.1436
  290TMC3    C5 4373   0.841   2.258  14.068 -0.2247  0.4677 -0.4011
  290TMC3    C6 4374   0.807   2.388  14.059  0.6329 -0.2804  0.2470
  290TMC3     C 4375   1.073   2.274  14.351 -0.4204  0.3236 -0.9972
  290TMC3     O 4376   1.172   2.339  14.357  0.1829 -0.6059  0.5025
  290TMC3     H 4377   0.958   2.512  14.327  3.0007 -1.3156 -0.0112
  290TMC3    H1 4378   0.959   2.116  14.163 -0.6887 -0.0606 -0.1425
  290TMC3    H2 4379   0.738   2.419  13.982 -0.7267 -0.0806  1.5315
  290TMC3    C7 4380   0.784   2.170  13.963  1.0790 -0.1236  0.0035
  290TMC3    C8 4381   0.854   2.620  14.098  0.2043 -0.5035 -0.4266
  290TMC3    O1 4382   0.756   2.215  13.851 -0.1243 -0.5958  0.0391
  290TMC3    O2 4383   0.875   2.712  14.175  0.0739 -0.3457  0.3700
  291MPD2     C 4384   0.287   1.146   0.549 -0.6757  0.4413 -0.4935
  291MPD2    C1 4385   0.245   1.136   0.419 -0.1898 -0.7458  0.1405
  291MPD2    C2 4386   0.338   1.139   0.321 -0.3106  0.2105  0.1110
  291MPD2    C3 4387   0.469   1.164   0.351  0.5134 -1.3483 -0.5974
  291MPD2    C4 4388   0.514   1.180   0.481 -0.7251 -0.4911  0.2194
  291MPD2    C5 4389   0.418   1.157   0.580  0.2088 -0.4494  0.7834
  291MPD2     H 4390   0.302   1.138   0.219 -2.6467 -0.8671  0.9457
  291MPD2    H1 4391   0.619   1.204   0.495 -0.5142 -2.2220  1.7354
  291MPD2    H2 4392   0.221   1.126   0.633  0.7558 -0.8075  0.3310
  291MPD2    H3 4393   0.460   1.150   0.680  0.3023 -0.5725  0.7355
  291MPD2     N 4394   0.565   1.175   0.247  0.5441 -0.3047  0.0590
  291MPD2    H5 4395   0.653   1.217   0.275  1.5262 -1.5404 -1.1898
  291MPD2    N1 4396   0.115   1.117   0.389 -0.8877 -0.5121  0.3031
  291MPD2    H7 4397   0.088   1.098   0.293  2.2316 -1.0517 -0.4529
  292TMC3    C1 4398   4.605   1.142   0.414  0.1180 -0.5701  0.5783
  292TMC3    C2 4399   4.512   1.250   0.431  0.4145  0.1060 -0.2106
  292TMC3    C3 4400   4.403   1.239   0.352  1.0547 -0.2983  0.3555
  292TMC3    C4 4401   4.584   1.030   0.338 -1.4413 -0.0275  0.3297
  292TMC3    C5 4402   4.457   1.029   0.280 -0.9426  0.2919  0.3774
  292TMC3    C6 4403   4.367   1.132   0.282  0.3563 -0.6250  0.3137
  292TMC3     C 4404   0.011   1.136   0.482 -0.3633  0.8468  0.0543
  292TMC3     O 4405   0.013   1.196   0.587 -0.1546  0.8187  0.0559
  292TMC3     H 4406   4.529   1.335   0.495  1.5664  1.8556 -2.8499
  292TMC3    H1 4407   4.663   0.959   0.317 -1.5838  0.2665 -1.1598
  292TMC3    H2 4408   4.276   1.122   0.224  1.1136  0.0434 -0.9948
  292TMC3    C7 4409   4.425   0.917   0.192  1.1989  0.1511  0.0420
  292TMC3    C8 4410   4.305   1.346   0.360  0.3253  0.5154 -0.2795
  292TMC3    O1 4411   4.523   0.867   0.145 -0.8049  0.1345  0.2844
  292TMC3    O2 4412   4.265   1.393   0.255 -0.4007  0.1504 -0.4088
  293MPD2     C 4413   1.972   2.205  13.185 -0.6373 -0.3318  0.6803
  293MPD2    C1 4414   1.926   2.314  13.118 -0.1675  0.4642 -0.0426
  293MPD2    C2 4415   1.961   2.436  13.172 -0.2191  0.6788  0.4879
  293MPD2    C3 4416   2.048   2.452  13.279  0.4396  0.0071 -0.0999
  293MPD2    C4 4417   2.097   2.340  13.335 -0.4821  0.2507  0.2527
  293MPD2    C5 4418   2.043   2.222  13.298  0.1987 -0.2417  0.0132
  293MPD2     H 4419   1.928   2.526  13.121 -0.0787 -0.1564 -1.0440
  293MPD2    H1 4420   2.154   2.339  13.427 -0.9971 -2.9187  0.5635
  293MPD2    H2 4421   1.949   2.104  13.151 -0.6500 -0.0335 -0.2050
  293MPD2    H3 4422   2.075   2.138  13.359  2.5804  0.1240 -0.7257
  293MPD2     N 4423   2.101   2.578  13.316  0.6389 -0.0602 -0.4822
  293MPD2    H5 4424   2.080   2.664  13.266  0.8196  1.2853  1.7693
  293MPD2    N1 4425   1.858   2.296  12.994 -0.7479  0.3755 -0.1826
  293MPD2    H7 4426   1.839   2.199  12.972  1.0911  0.0562 -0.3425
  294TMC3    C1 4427   1.702   2.343  12.811 -0.1905 -0.4745  0.6301
  294TMC3    C2 4428   1.759   2.271  12.711  0.6259  0.1035  0.4108
  294TMC3    C3 4429   1.701   2.260  12.586  0.1682 -0.5260  0.3923
  294TMC3    C4 4430   1.590   2.420  12.781 -0.8064  0.4424  0.0839
  294TMC3    C5 4431   1.555   2.430  12.650  0.0609 -0.7627  0.5622
  294TMC3    C6 4432   1.611   2.357  12.548 -0.8959  0.0800 -0.4876
  294TMC3     C 4433   1.780   2.387  12.930 -0.8411  0.4279 -0.0847
  294TMC3     O 4434   1.747   2.498  12.975 -0.4761  0.1045  0.1826
  294TMC3     H 4435   1.854   2.224  12.733  1.2058  1.9685  1.9188
  294TMC3    H1 4436   1.558   2.486  12.860  3.1653  0.3486  1.7500
  294TMC3    H2 4437   1.561   2.354  12.453  1.4987 -0.7588 -1.7397
  294TMC3    C7 4438   1.488   2.555  12.619 -0.3289 -0.1067  0.3382
  294TMC3    C8 4439   1.753   2.157  12.488  0.2064  1.0567  0.9055
  294TMC3    O1 4440   1.418   2.608  12.698 -0.1009 -0.4449  0.6733
  294TMC3    O2 4441   1.849   2.089  12.513  0.2886 -0.2721  0.9970
  295MPD2     C 4442   1.901   2.093   0.547 -0.2860 -0.1774  0.4776
  295MPD2    C1 4443   1.903   2.193   0.452  0.6939 -0.5084  0.1836
  295MPD2    C2 4444   1.807   2.294   0.461 -0.7048 -0.7774 -0.1183
  295MPD2    C3 4445   1.704   2.286   0.553 -0.7279 -0.3808  0.7132
  295MPD2    C4 4446   1.708   2.192   0.651  0.2845  0.5401 -0.3817
  295MPD2    C5 4447   1.803   2.093   0.645 -0.7274  0.2500  0.1842
  295MPD2     H 4448   1.802   2.371   0.385 -0.0246  0.0818  0.6993
  295MPD2    H1 4449   1.628   2.179   0.723  0.6690 -0.5306 -0.1376
  295MPD2    H2 4450   1.980   2.020   0.556  0.2469  0.4547  0.9485
  295MPD2    H3 4451   1.806   2.014   0.720 -1.3174  0.1830  0.1342
  295MPD2     N 4452   1.601   2.372   0.555 -0.0885  0.0879  0.4095
  295MPD2    H5 4453   1.531   2.358   0.627 -1.1742 -0.5775 -0.7877
  295MPD2    N1 4454   1.987   2.194   0.334 -0.3067 -0.8096  0.3934
  295MPD2    H7 4455   1.993   2.274   0.273 -1.7251  0.0664  1.4053
  296TMC3    C1 4456   1.451   2.521   0.465  0.0366 -0.0862 -0.0992
  296TMC3    C2 4457   1.418   2.651   0.489  0.0136 -0.1851  0.2356
  296TMC3    C3 4458   1.296   2.674   0.550 -0.3176 -0.6825 -0.0755
  296TMC3    C4 4459   1.362   2.416   0.485  0.3165 -0.6816 -0.4318
  296TMC3    C5 4460   1.242   2.443   0.542  0.5089 -0.3355  0.0450
  296TMC3    C6 4461   1.200   2.571   0.570 -0.5389 -0.0144 -0.4997
  296TMC3     C 4462   1.585   2.484   0.470  0.0278 -0.7885  0.9315
  296TMC3     O 4463   1.674   2.556   0.429  0.2913  0.3221 -0.4408
  296TMC3     H 4464   1.498   2.725   0.490  0.3747 -0.5593 -0.7416
  296TMC3    H1 4465   1.391   2.317   0.452 -0.1518 -0.1946 -2.3271
  296TMC3    H2 4466   1.119   2.594   0.638  1.4136 -0.3570  1.9503
  296TMC3    C7 4467   1.143   2.333   0.567 -1.4813 -0.6502  0.7239
  296TMC3    C8 4468   1.281   2.798   0.631  0.2774 -0.1042  0.8769
  296TMC3    O1 4469   1.132   2.244   0.483  0.4498  0.0067 -0.0327
  296TMC3    O2 4470   1.208   2.795   0.729  0.3889 -0.2095  0.0861
  297MPD2     C 4471   0.093   3.587  16.456  0.3044  0.3349 -0.8710
  297MPD2    C1 4472   4.714   3.672  16.464  0.0235 -0.2196 -0.5213
  297MPD2    C2 4473   0.020   3.808  16.453 -0.2395 -0.4286  0.1192
  297MPD2    C3 4474   0.153   3.848  16.444  0.1601  0.2651 -0.1724
  297MPD2    C4 4475   0.252   3.760  16.439  0.6475  1.1449  0.3459
  297MPD2    C5 4476   0.223   3.627  16.446  0.4737 -0.2085 -0.3603
  297MPD2     H 4477   4.664   3.882  16.454  0.4264  0.2698  2.1794
  297MPD2    H1 4478   0.352   3.794  16.419  2.3170 -3.1747  1.3950
  297MPD2    H2 4479   0.072   3.481  16.442 -0.0358  0.6406 -2.7193
  297MPD2    H3 4480   0.299   3.551  16.436  0.2154 -0.7039  1.5305
  297MPD2     N 4481   0.198   3.980  16.414 -0.1297  0.1562  0.0433
  297MPD2    H5 4482   0.293   3.999  16.386 -0.3463  2.5012  0.9282
  297MPD2    N1 4483   4.577   3.636  16.486  0.1127 -0.0419  0.1937
  297MPD2    H7 4484   4.507   3.709  16.477 -1.7597 -1.8366  0.3464
  298TMC3    C1 4485   4.388   3.497  16.499  0.0205  0.0560  0.5751
  298TMC3    C2 4486   4.350   3.382  16.440  0.3752 -0.9530 -0.1395
  298TMC3    C3 4487   4.216   3.373  16.423  0.0407 -0.5994  0.2938
  298TMC3    C4 4488   4.302   3.602  16.524  0.9811 -0.6132  0.0251
  298TMC3    C5 4489   4.170   3.595  16.503  0.2649 -0.3784  0.3758
  298TMC3    C6 4490   4.130   3.475  16.447 -0.8548  0.3997  0.6453
  298TMC3     C 4491   4.530   3.514  16.509 -0.0540  0.3690  0.4876
  298TMC3     O 4492   4.592   3.408  16.516  0.4967  0.4328 -0.3947
  298TMC3     H 4493   4.426   3.306  16.424  2.4416  1.1206 -0.2390
  298TMC3    H1 4494   4.342   3.697  16.558  0.5125  0.4469 -2.4112
  298TMC3    H2 4495   4.026   3.461  16.422 -0.8275  0.2265  0.6285
  298TMC3    C7 4496   4.109   3.721  16.461  0.7275 -0.5300  0.0179
  298TMC3    C8 4497   4.165   3.251  16.354  0.5816  0.2251 -0.2697
  298TMC3    O1 4498   4.128   3.819  16.529 -0.2790  0.2102  0.1054
  298TMC3    O2 4499   4.047   3.231  16.339  0.4936 -0.1797  0.0117
  299MPD2     C 4500   0.311   3.333  10.439  0.1145  0.6105  0.1251
  299MPD2    C1 4501   0.310   3.467  10.416 -0.3363 -0.6526  0.2497
  299MPD2    C2 4502   0.202   3.514  10.344  0.6210 -0.1581 -0.1894
  299MPD2    C3 4503   0.111   3.430  10.286  0.2830  0.3303  0.4144
  299MPD2    C4 4504   0.128   3.294  10.298  0.2027 -0.1640  0.3325
  299MPD2    C5 4505   0.226   3.245  10.384  0.1441 -1.1169 -0.9605
  299MPD2     H 4506   0.205   3.618  10.313  0.5411  0.0320  0.4473
  299MPD2    H1 4507   0.071   3.215  10.250 -0.8726  0.4234  0.6619
  299MPD2    H2 4508   0.386   3.290  10.505  0.2368  1.0122  0.2464
  299MPD2    H3 4509   0.240   3.143  10.419  0.8612  0.0504  2.1493
  299MPD2     N 4510   4.714   3.470  10.224 -0.6330  0.6203 -0.4781
  299MPD2    H5 4511   4.647   3.400  10.191 -0.6490  0.6794 -0.5731
  299MPD2    N1 4512   0.392   3.550  10.497  0.3984 -0.0778 -0.0968
  299MPD2    H7 4513   0.462   3.494  10.545  0.7420  0.5864  0.1683
  300TMC3    C1 4514   4.533   3.626  10.179  0.0626 -0.3985 -0.0889
  300TMC3    C2 4515   4.495   3.746  10.148 -0.0873  1.5320 -0.0739
  300TMC3    C3 4516   4.360   3.768  10.127 -0.1731 -0.0748  0.0974
  300TMC3    C4 4517   4.442   3.532  10.213 -0.3959 -0.7297 -0.1932
  300TMC3    C5 4518   4.310   3.549  10.186  0.1827  0.2479 -0.2514
  300TMC3    C6 4519   4.263   3.669  10.145  0.0522  0.2381 -1.3369
  300TMC3     C 4520   4.676   3.604  10.209  0.0031  0.0025 -0.1719
  300TMC3     O 4521   0.019   3.703  10.232  0.2074  0.9672 -0.7745
  300TMC3     H 4522   4.557   3.834  10.134  3.5963 -0.9883  0.4952
  300TMC3    H1 4523   4.479   3.442  10.261  0.1614  0.0107  0.7421
  300TMC3    H2 4524   4.161   3.696  10.122  0.1768  2.8269  1.2209
  300TMC3    C7 4525   4.228   3.438  10.231 -0.1088 -0.4739 -0.5341
  300TMC3    C8 4526   4.325   3.909  10.136  0.3143  0.5692  0.2601
  300TMC3    O1 4527   4.288   3.328  10.243  0.1052 -0.1310 -0.1614
  300TMC3    O2 4528   4.404   3.986  10.187  0.2843  0.3016 -0.2603
  301MPD2     C 4529   2.035   0.026   1.504 -0.4291  0.7785  0.4333
  301MPD2    C1 4530   1.957   4.700   1.404  0.2689  0.6319  0.0277
  301MPD2    C2 4531   2.027   4.634   1.301 -0.2628  0.1110  0.0714
  301MPD2    C3 4532   2.163   4.618   1.306 -0.0041  0.1533 -0.3170
  301MPD2    C4 4533   2.236   4.660   1.410 -0.3054 -0.1232 -0.8728
  301MPD2    C5 4534   2.169   0.004   1.511 -0.8033  0.0150  0.1477
  301MPD2     H 4535   1.967   4.599   1.219 -0.6284  0.4402  0.1984
  301MPD2    H1 4536   2.344   4.667   1.411 -0.2627 -0.4134 -3.2087
  301MPD2    H2 4537   2.000   0.060   1.601 -1.6600 -0.5066  0.4438
  301MPD2    H3 4538   2.218   0.047   1.598  0.5019  2.4060 -1.7683
  301MPD2     N 4539   2.244   4.566   1.196 -0.0730 -0.1135  0.1327
  301MPD2    H5 4540   2.344   4.585   1.207 -0.4520  0.5169  2.4095
  301MPD2    N1 4541   1.818   4.719   1.407 -0.0460 -0.7291 -0.2637
  301MPD2    H7 4542   1.761   4.663   1.344 -0.8901 -1.3573  1.0545
  302TMC3    C1 4543   2.298   4.472   0.987 -0.0463  0.7797 -0.1675
  302TMC3    C2 4544   2.396   4.392   1.031 -0.0326 -0.5003 -0.5969
  302TMC3    C3 4545   2.470   4.321   0.940  0.1337 -0.3865 -0.5974
  302TMC3    C4 4546   2.248   4.465   0.856  1.0972  0.8659  0.0432
  302TMC3    C5 4547   2.317   4.389   0.766  0.1636  0.2297 -0.2010
  302TMC3    C6 4548   2.433   4.321   0.806  0.2520  1.5173  0.6279
  302TMC3     C 4549   2.191   4.515   1.077  0.3512 -0.1357 -0.5445
  302TMC3     O 4550   2.075   4.520   1.030 -0.7619 -0.3463 -0.1747
  302TMC3     H 4551   2.426   4.399   1.135 -2.9059  0.3143  0.1808
  302TMC3    H1 4552   2.173   4.538   0.825  1.1451  1.1156  0.5051
  302TMC3    H2 4553   2.493   4.252   0.748 -0.0364  0.5087  1.5294
  302TMC3    C7 4554   2.251   4.328   0.644 -0.0013  0.1010  0.4950
  302TMC3    C8 4555   2.541   4.204   0.981  0.3607  0.1369 -0.7493
  302TMC3    O1 4556   2.298   4.224   0.603  0.0644 -0.4495  0.0492
  302TMC3    O2 4557   2.630   4.165   0.910 -0.0994 -0.7468 -0.0018
  303MPD2     C 4558   2.508   3.130  10.289 -0.4591 -0.1610  0.1614
  303MPD2    C1 4559   2.410   3.046  10.255 -0.2228 -1.4227 -0.0839
  303MPD2    C2 4560   2.402   3.020  10.120 -0.3687  0.6809  0.3367
  303MPD2    C3 4561   2.478   3.082  10.022  0.4495  0.2680  0.6266
  303MPD2    C4 4562   2.571   3.170  10.061 -0.1059  0.4628  0.0099
  303MPD2    C5 4563   2.590   3.192  10.198 -0.1500  0.5513 -0.5580
  303MPD2     H 4564   2.315   2.964  10.089 -0.9484  1.9671 -0.3529
  303MPD2    H1 4565   2.642   3.223   9.999  0.9109  1.0169  1.6743
  303MPD2    H2 4566   2.519   3.155  10.394 -0.3199 -1.9274  0.5576
  303MPD2    H3 4567   2.662   3.263  10.238  1.0767 -0.9417 -0.1271
  303MPD2     N 4568   2.462   3.054   9.882 -0.3461 -0.2004  0.5705
  303MPD2    H5 4569   2.539   3.086   9.825 -1.2954 -0.7660 -1.0393
  303MPD2    N1 4570   2.328   2.998  10.354  0.2736 -0.2927 -0.0282
  303MPD2    H7 4571   2.331   3.049  10.442  0.0747  0.8720 -0.6884
  304TMC3    C1 4572   2.139   2.879  10.428 -0.2542  0.5328  0.5571
  304TMC3    C2 4573   2.078   2.997  10.451 -0.8499  0.7407  0.3524
  304TMC3    C3 4574   1.941   2.997  10.477  0.5674 -0.5366 -0.4988
  304TMC3    C4 4575   2.074   2.760  10.439 -0.9229  0.1716  0.0844
  304TMC3    C5 4576   1.941   2.763  10.476 -0.1883  0.6258 -0.4109
  304TMC3    C6 4577   1.876   2.879  10.502 -0.0513 -0.3511 -0.0966
  304TMC3     C 4578   2.244   2.888  10.335  0.4942 -0.3588  0.5657
  304TMC3     O 4579   2.237   2.811  10.243  0.4995  0.7092  0.6160
  304TMC3     H 4580   2.119   3.093  10.422  1.2749 -0.2503  0.0981
  304TMC3    H1 4581   2.120   2.669  10.403 -0.5663  0.9290 -1.3955
  304TMC3    H2 4582   1.774   2.871  10.539 -0.2432  1.1858 -0.3010
  304TMC3    C7 4583   1.848   2.688  10.396 -0.7088 -0.9836  0.6857
  304TMC3    C8 4584   1.867   3.107  10.406 -0.1702  0.4777  0.0289
  304TMC3    O1 4585   1.769   2.765  10.343 -0.3440 -0.0119 -0.4462
  304TMC3    O2 4586   1.913   3.216  10.393  0.7835 -0.0661 -0.4934
  305MPD2     C 4587   0.280   0.359  13.773  0.4651  0.0980 -0.1341
  305MPD2    C1 4588   0.358   0.246  13.808 -0.8523  0.1149 -0.0285
  305MPD2    C2 4589   0.360   0.146  13.715 -0.0778 -0.4247  0.4153
  305MPD2    C3 4590   0.288   0.140  13.599 -0.0533 -0.0971  0.0498
  305MPD2    C4 4591   0.206   0.247  13.573 -0.4861 -0.2811  0.0936
  305MPD2    C5 4592   0.201   0.355  13.658 -0.0096  0.2723  0.6892
  305MPD2     H 4593   0.415   0.057  13.743  1.4083  0.4348  0.2527
  305MPD2    H1 4594   0.145   0.248  13.483  1.1563  1.3298 -0.9872
  305MPD2    H2 4595   0.272   0.445  13.839 -1.2697 -0.9662  1.0350
  305MPD2    H3 4596   0.148   0.446  13.633 -1.6315 -0.5300  1.2160
  305MPD2     N 4597   0.292   0.030  13.512 -0.2061  0.5684 -0.0137
  305MPD2    H5 4598   0.224   0.042  13.438 -1.1372 -0.3911  0.6807
  305MPD2    N1 4599   0.411   0.235  13.939 -0.2771 -0.4754 -0.6343
  305MPD2    H7 4600   0.389   0.312  14.001 -0.9954  0.2541 -1.7862
  306TMC3    C1 4601   0.543   0.156  14.114 -0.7932  1.1852  0.4250
  306TMC3    C2 4602   0.576   0.046  14.184 -0.4887  0.2036 -0.5437
  306TMC3    C3 4603   0.625   0.058  14.311 -0.4943 -0.5627  0.1712
  306TMC3    C4 4604   0.543   0.276  14.182 -0.3867  0.4742  0.1857
  306TMC3    C5 4605   0.589   0.286  14.312  0.0471  0.2876 -0.2397
  306TMC3    C6 4606   0.628   0.175  14.379  0.9121 -0.1554  0.2966
  306TMC3     C 4607   0.501   0.136  13.973 -0.4766 -0.3833  0.5606
  306TMC3     O 4608   0.552   0.043  13.913  0.0842  0.3145  0.3200
  306TMC3     H 4609   0.558   4.677  14.131  0.5717  0.0248 -0.5808
  306TMC3    H1 4610   0.494   0.360  14.135 -2.8905 -0.5848  0.9183
  306TMC3    H2 4611   0.686   0.182  14.470 -1.4450  0.4660  1.7441
  306TMC3    C7 4612   0.533   0.400  14.389  0.3231  0.5063  0.2740
  306TMC3    C8 4613   0.663   4.662  14.378  0.4850 -0.3674 -0.1362
  306TMC3    O1 4614   0.464   0.487  14.331  0.3609 -0.5932 -0.2144
  306TMC3    O2 4615   0.707   4.670  14.492 -0.0635 -0.8305  0.3057
  307MPD2     C 4616   2.955   2.501   0.481  0.5792  0.4036  0.3351
  307MPD2    C1 4617   2.928   2.631   0.454 -0.1863  0.2513  0.7528
  307MPD2    C2 4618   2.839   2.703   0.533  0.0978  0.6297  0.2152
  307MPD2    C3 4619   2.775   2.637   0.643  0.2032  0.1589 -0.2160
  307MPD2    C4 4620   2.813   2.502   0.674 -0.1815  0.4537 -0.6365
  307MPD2    C5 4621   2.898   2.439   0.590  0.4840  0.4787 -0.1325
  307MPD2     H 4622   2.829   2.809   0.516  0.0266  0.6280  0.2471
  307MPD2    H1 4623   2.779   2.454   0.765 -0.6163  2.8642  0.4854
  307MPD2    H2 4624   3.034   2.456   0.422  1.3027 -0.0722  1.6623
  307MPD2    H3 4625   2.945   2.347   0.623 -1.4657 -0.0637  1.1182
  307MPD2     N 4626   2.687   2.720   0.713  0.8625  0.2077  0.4599
  307MPD2    H5 4627   2.665   2.815   0.683  1.7097  0.0496 -0.6910
  307MPD2    N1 4628   2.996   2.704   0.355  0.0630 -0.2918 -0.3991
  307MPD2    H7 4629   2.959   2.796   0.331  1.8017  0.9576  1.6701
  308TMC3    C1 4630   2.298   2.844   0.909 -0.5122 -0.2116 -0.1457
  308TMC3    C2 4631   2.325   2.981   0.910  0.3870  1.2439  0.2202
  308TMC3    C3 4632   2.455   3.017   0.878 -0.2827  0.2838  0.2900
  308TMC3    C4 4633   2.396   2.751   0.897  0.0482 -0.0150  0.1991
  308TMC3    C5 4634   2.530   2.791   0.872 -0.7849 -0.1021 -0.6140
  308TMC3    C6 4635   2.557   2.924   0.856  0.3156 -0.5108  0.0429
  308TMC3     C 4636   2.162   2.788   0.892 -1.0772 -0.0199  0.2699
  308TMC3     O 4637   2.135   2.672   0.902 -0.3402 -0.7050 -0.0637
  308TMC3     H 4638   2.242   3.050   0.901 -1.9099 -1.1977  2.8822
  308TMC3    H1 4639   2.378   2.644   0.891 -1.7996  0.2057  1.8957
  308TMC3    H2 4640   2.660   2.955   0.849  0.7685 -1.6995  1.3333
  308TMC3    C7 4641   2.617   2.678   0.823  0.3723 -0.2718  0.2229
  308TMC3    C8 4642   2.478   3.148   0.826 -0.0655 -0.8171 -0.7953
  308TMC3    O1 4643   2.615   2.573   0.887 -0.2253 -0.2133  0.0168
  308TMC3    O2 4644   2.558   3.146   0.730  0.6906  0.0438 -0.1068
  309MPD2     C 4645   2.330   3.741  17.364  0.1606  0.3636 -0.3921
  309MPD2    C1 4646   2.284   3.760  17.236  0.3320  0.2169 -1.2075
  309MPD2    C2 4647   2.165   3.831  17.209 -0.3616 -1.0965  0.1771
  309MPD2    C3 4648   2.093   3.874  17.321  0.1397  0.2853 -0.5553
  309MPD2    C4 4649   2.137   3.850  17.450 -0.7478  0.4314  0.4532
  309MPD2    C5 4650   2.256   3.788  17.467  0.5867 -0.1586  0.8352
  309MPD2     H 4651   2.141   3.853  17.105  0.2075  1.3965  0.5583
  309MPD2    H1 4652   2.075   3.867  17.537 -0.9257 -1.9280  0.7828
  309MPD2    H2 4653   2.417   3.681  17.388 -0.5338 -0.3227  0.4477
  309MPD2    H3 4654   2.282   3.766  17.570  1.0786 -1.6675  0.3826
  309MPD2     N 4655   1.969   3.936  17.307 -0.4500  0.3710 -0.7633
  309MPD2    H5 4656   1.904   3.951  17.384  0.3339 -0.8766  0.1385
  309MPD2    N1 4657   2.360   3.726  17.114 -0.3304  0.3060 -0.2973
  309MPD2    H7 4658   2.330   3.774  17.029  0.5496 -0.2140 -0.9076
  310TMC3    C1 4659   2.506   3.602  16.980 -0.5197 -0.5220  0.2898
  310TMC3    C2 4660   2.450   3.648  16.863 -0.0503  0.4212  0.5182
  310TMC3    C3 4661   2.513   3.628  16.744 -0.1516  1.5088 -0.0873
  310TMC3    C4 4662   2.631   3.543  16.976  0.0044  0.2564  0.4957
  310TMC3    C5 4663   2.690   3.520  16.852 -0.3727 -0.4542  0.6059
  310TMC3    C6 4664   2.632   3.558  16.734  1.2540 -0.0125  1.3759
  310TMC3     C 4665   2.450   3.621  17.108 -0.3660  0.0565  0.5104
  310TMC3     O 4666   2.497   3.550  17.199 -0.0756 -0.2058 -0.3415
  310TMC3     H 4667   2.352   3.694  16.859  0.0262  0.6448  1.1317
  310TMC3    H1 4668   2.683   3.515  17.067  0.3240  2.6122  1.0210
  310TMC3    H2 4669   2.681   3.543  16.639  0.1327 -1.5121  1.0321
  310TMC3    C7 4670   2.793   3.423  16.849 -0.2624 -0.1958  0.0406
  310TMC3    C8 4671   2.460   3.705  16.638  0.0972 -0.3778  0.0532
  310TMC3    O1 4672   2.784   3.338  16.761  1.1007  0.2385  0.6606
  310TMC3    O2 4673   2.346   3.737  16.624 -0.3814  0.0244 -0.0239
  311MPD2     C 4674   4.183   4.506  12.542  1.0676 -0.3545  0.2740
  311MPD2    C1 4675   4.175   4.641  12.564 -0.2536  0.0336 -0.5314
  311MPD2    C2 4676   4.053   4.702  12.600 -0.3311  0.9170  0.0161
  311MPD2    C3 4677   3.937   4.635  12.620 -0.5570 -0.4355 -0.8836
  311MPD2    C4 4678   3.946   4.495  12.598 -0.1857 -0.0405 -0.3982
  311MPD2    C5 4679   4.065   4.436  12.567 -0.3112  0.3448 -0.3245
  311MPD2     H 4680   4.048   0.085  12.619 -0.2962  1.2683 -1.9775
  311MPD2    H1 4681   3.863   4.433  12.629  0.5179 -1.6693 -1.7579
  311MPD2    H2 4682   4.266   4.439  12.527  1.7310  0.4609  0.2701
  311MPD2    H3 4683   4.072   4.328  12.558  0.1344  0.4045 -0.7083
  311MPD2     N 4684   3.817   4.702  12.667 -0.2404  0.5146 -0.2841
  311MPD2    H5 4685   3.828   0.079  12.676  0.0808  0.1621  3.5844
  311MPD2    N1 4686   4.281   0.009  12.546 -0.3422  0.5226  0.0436
  311MPD2    H7 4687   4.248   0.104  12.550 -2.1545 -0.0568 -0.9382
  312TMC3    C1 4688   3.596   0.002  12.740 -0.9461 -0.2548 -0.9252
  312TMC3    C2 4689   3.479   4.719  12.678  0.0915 -0.7097  0.0843
  312TMC3    C3 4690   3.402   0.104  12.668  0.7748 -0.9303  0.5037
  312TMC3    C4 4691   3.625   0.109  12.821  0.5690  0.4927  0.0954
  312TMC3    C5 4692   3.548   0.226  12.805  0.1151 -1.0087  0.0361
  312TMC3    C6 4693   3.432   0.226  12.733 -1.0943  0.1666  0.4541
  312TMC3     C 4694   3.699   4.636  12.691  0.2956  0.3121 -0.6234
  312TMC3     O 4695   3.668   4.517  12.685 -0.4632  0.0324 -0.1258
  312TMC3     H 4696   3.454   4.637  12.611  1.8232 -0.6442 -0.6593
  312TMC3    H1 4697   3.723   0.107  12.868  0.3762 -0.5905  0.4430
  312TMC3    H2 4698   3.360   0.306  12.749  0.3117  1.7477 -1.2341
  312TMC3    C7 4699   3.584   0.351  12.869 -0.8263  0.1725 -0.8987
  312TMC3    C8 4700   3.278   0.080  12.610 -0.1115  0.4305 -1.1144
  312TMC3    O1 4701   3.549   0.457  12.817  0.2278  0.2531 -0.5883
  312TMC3    O2 4702   3.242   4.691  12.581 -0.3817 -0.4236 -0.3301
  313MPD2     C 4703   3.189   3.909  10.694  0.7849 -0.5491  0.3967
  313MPD2    C1 4704   3.289   4.004  10.696 -0.2073  0.7908 -0.4763
  313MPD2    C2 4705   3.390   4.006  10.602  0.0717  0.2814 -0.0110
  313MPD2    C3 4706   3.393   3.912  10.502  0.2791  0.4587  0.2144
  313MPD2    C4 4707   3.290   3.817  10.496 -0.2919 -0.0260 -0.5380
  313MPD2    C5 4708   3.198   3.811  10.596 -0.1121 -0.0858 -0.1233
  313MPD2     H 4709   3.466   4.083  10.607 -0.9731  1.2500  0.7797
  313MPD2    H1 4710   3.295   3.736  10.424 -1.7517  2.3974 -3.3649
  313MPD2    H2 4711   3.111   3.896  10.768  1.3828 -0.8700  0.9766
  313MPD2    H3 4712   3.118   3.738  10.597 -1.0215  0.9694  3.4263
  313MPD2     N 4713   3.506   3.906  10.422 -0.1845 -0.4809  0.6102
  313MPD2    H5 4714   3.573   3.981  10.435  0.1504 -1.1747  2.9171
  313MPD2    N1 4715   3.287   4.106  10.790 -0.1752  0.1238  0.7121
  313MPD2    H7 4716   3.356   4.178  10.771  0.1523 -0.5848 -0.7232
  314TMC3    C1 4717   3.233   4.234  10.976  0.0014  0.3418  0.1573
  314TMC3    C2 4718   3.363   4.285  10.963 -0.3405  0.1404 -0.3563
  314TMC3    C3 4719   3.369   4.419  10.957  0.3745 -0.5950 -0.5236
  314TMC3    C4 4720   3.126   4.316  10.983 -0.2094 -0.7066 -0.1734
  314TMC3    C5 4721   3.133   4.447  10.962 -0.2246  0.1946  0.4185
  314TMC3    C6 4722   3.253   4.500  10.942 -0.7532  0.3309 -0.0154
  314TMC3     C 4723   3.201   4.118  10.894  0.0717 -0.3879 -0.3754
  314TMC3     O 4724   3.114   4.044  10.936 -0.4420 -0.1127 -0.3610
  314TMC3     H 4725   3.449   4.223  10.984 -0.3527  0.5931  1.0034
  314TMC3    H1 4726   3.028   4.270  10.986 -0.7696  0.6198  2.0020
  314TMC3    H2 4727   3.266   4.607  10.939 -3.0307  0.5939 -0.7206
  314TMC3    C7 4728   3.040   4.484  10.854 -0.0427 -0.2848 -0.0423
  314TMC3    C8 4729   3.494   4.481  10.956  0.5121  0.3283 -0.8593
  314TMC3    O1 4730   2.919   4.481  10.874 -0.0453  0.1857 -0.4239
  314TMC3    O2 4731   3.505   4.602  10.939 -0.2855  0.1346 -0.4773
  315MPD2     C 4732   3.417   3.434  17.405 -0.5168  0.6906  0.0391
  315MPD2    C1 4733   3.446   3.469  17.533  0.9187 -1.1797 -0.1004
  315MPD2    C2 4734   3.500   3.592  17.560 -0.3558 -0.4504  0.5572
  315MPD2    C3 4735   3.521   3.684  17.462 -0.0007  0.0596 -0.5019
  315MPD2    C4 4736   3.480   3.654  17.334 -0.1904  0.2070 -0.4102
  315MPD2    C5 4737   3.424   3.530  17.308  0.1476 -0.5169  0.0442
  315MPD2     H 4738   3.537   3.611  17.660  0.6754 -1.5074  0.3723
  315MPD2    H1 4739   3.494   3.724  17.253  2.1972 -0.2115 -0.3660
  315MPD2    H2 4740   3.393   3.335  17.368  0.3218  0.7304 -0.6120
  315MPD2    H3 4741   3.377   3.516  17.211  0.1214  0.2532 -0.0570
  315MPD2     N 4742   3.597   3.798  17.501  0.3631  0.3119 -0.2205
  315MPD2    H5 4743   3.632   3.808  17.596  2.1852  1.7169 -1.0525
  315MPD2    N1 4744   3.444   3.391  17.650 -0.4870  0.4957 -0.6819
  315MPD2    H7 4745   3.490   3.432   0.035 -0.2283 -1.4802  0.1840
  316TMC3    C1 4746   3.689   4.014  17.495  0.0912  0.0428  1.2386
  316TMC3    C2 4747   3.777   3.988  17.594 -0.6927  0.0342 -0.3556
  316TMC3    C3 4748   3.843   4.092  17.658  1.0147  0.1544  0.1834
  316TMC3    C4 4749   3.676   4.141  17.443  0.4208 -0.4855 -0.0496
  316TMC3    C5 4750   3.738   4.241  17.510 -0.3929 -0.1925 -0.5060
  316TMC3    C6 4751   3.817   4.220  17.622  0.1240  0.5015 -0.0031
  316TMC3     C 4752   3.610   3.909  17.425  0.1873 -0.6172 -0.2570
  316TMC3     O 4753   3.555   3.944  17.320  0.4897 -0.4072 -0.6577
  316TMC3     H 4754   3.803   3.884  17.610 -2.8332 -0.2795  1.0571
  316TMC3    H1 4755   3.620   4.163  17.353 -2.2104  2.3840  2.3180
  316TMC3    H2 4756   3.864   4.302  17.676 -2.3420  2.0612 -0.2045
  316TMC3    C7 4757   3.724   4.375  17.468 -0.5165 -0.0520 -0.1532
  316TMC3    C8 4758   3.895   4.075   0.099  0.3263 -0.7279 -0.4146
  316TMC3    O1 4759   3.738   4.475  17.542 -0.0901 -0.6518 -0.7721
  316TMC3    O2 4760   3.916   4.173   0.166  0.0072  0.4407  0.2760
  317MPD2     C 4761   0.249   1.892  12.795 -0.6680 -0.1213  0.5234
  317MPD2    C1 4762   0.253   1.768  12.730 -0.2594 -0.8683 -0.1154
  317MPD2    C2 4763   0.341   1.684  12.780  0.4273 -0.0564 -0.1368
  317MPD2    C3 4764   0.424   1.711  12.886 -0.2122  0.3245 -1.1515
  317MPD2    C4 4765   0.412   1.831  12.952 -0.6808  0.2186 -0.2910
  317MPD2    C5 4766   0.327   1.922  12.903  0.0772 -0.1840 -0.0901
  317MPD2     H 4767   0.356   1.595  12.720 -2.2040 -0.0854 -0.7590
  317MPD2    H1 4768   0.474   1.853  13.038 -1.2878 -2.0431  0.7348
  317MPD2    H2 4769   0.200   1.980  12.752  1.9835  0.9450 -0.2931
  317MPD2    H3 4770   0.328   2.018  12.953 -0.3290 -1.1282  1.7326
  317MPD2     N 4771   0.522   1.615  12.929  0.7611  0.6817 -0.2424
  317MPD2    H5 4772   0.538   1.532  12.873 -0.3565  0.5675 -0.3925
  317MPD2    N1 4773   0.185   1.742  12.612 -0.1665  0.2418  0.8862
  317MPD2    H7 4774   0.202   1.649  12.573 -3.8875 -0.1818  0.2626
  318TMC3    C1 4775   0.678   1.510  13.049 -1.0074  0.2887 -0.2531
  318TMC3    C2 4776   0.621   1.391  13.009  0.7664 -0.8509  0.3653
  318TMC3    C3 4777   0.705   1.281  12.998  0.6028  0.7508 -0.6704
  318TMC3    C4 4778   0.801   1.511  13.102 -0.0124 -0.2944 -0.1500
  318TMC3    C5 4779   0.875   1.395  13.102  0.1162  0.2321 -0.6524
  318TMC3    C6 4780   0.829   1.280  13.045 -0.2287 -0.7267  0.5127
  318TMC3     C 4781   0.614   1.637  13.033  0.7283 -0.1681  0.1706
  318TMC3     O 4782   0.630   1.725  13.117 -0.0351  0.5079 -0.0229
  318TMC3     H 4783   0.513   1.385  12.999  0.8126  1.5964 -1.5103
  318TMC3    H1 4784   0.841   1.604  13.140 -0.4401 -0.7843  1.4900
  318TMC3    H2 4785   0.894   1.194  13.033 -1.3983 -1.6462  0.7163
  318TMC3    C7 4786   1.015   1.411  13.138 -0.5858 -0.6065 -0.0547
  318TMC3    C8 4787   0.637   1.156  12.991  0.5290 -0.0413  0.0086
  318TMC3    O1 4788   1.049   1.531  13.148 -0.0122  0.2575  0.1648
  318TMC3    O2 4789   0.684   1.073  13.066 -0.7422  0.1780  0.1409
  319MPD2     C 4790   1.941   3.433  16.126 -0.1536  0.1583 -0.3046
  319MPD2    C1 4791   1.847   3.367  16.206  0.3380  0.3884 -0.0396
  319MPD2    C2 4792   1.790   3.249  16.151 -0.0515 -0.6620  0.0324
  319MPD2    C3 4793   1.820   3.210  16.027  1.0284 -0.2349 -0.3116
  319MPD2    C4 4794   1.920   3.276  15.948 -0.2820 -0.4313  0.6968
  319MPD2    C5 4795   1.983   3.386  16.005 -0.3074  0.0144 -0.3435
  319MPD2     H 4796   1.723   3.186  16.209  1.9180 -0.7225  2.2355
  319MPD2    H1 4797   1.948   3.257  15.845 -0.8719  3.8950 -0.2941
  319MPD2    H2 4798   1.980   3.528  16.161 -0.1183 -0.3629  1.0566
  319MPD2    H3 4799   2.059   3.438  15.948 -0.2503 -0.9667 -1.1815
  319MPD2     N 4800   1.751   3.105  15.962  0.1183  0.1626 -1.0276
  319MPD2    H5 4801   1.777   3.083  15.866  1.8723 -1.3810 -0.2161
  319MPD2    N1 4802   1.830   3.396  16.341  0.1814  0.2274 -0.2280
  319MPD2    H7 4803   1.774   3.334  16.398 -0.6646  2.4153  1.3128
  320TMC3    C1 4804   1.572   2.966  15.921  0.0850  0.0122 -0.8580
  320TMC3    C2 4805   1.527   3.053  15.818  0.0770  0.1720 -0.0883
  320TMC3    C3 4806   1.395   3.030  15.770 -0.4956  0.6334 -0.6600
  320TMC3    C4 4807   1.492   2.877  15.977  0.6760  0.2591  0.1932
  320TMC3    C5 4808   1.368   2.855  15.932 -0.3887 -0.1350 -0.3032
  320TMC3    C6 4809   1.322   2.924  15.821  0.6741 -1.1140  0.3433
  320TMC3     C 4810   1.656   3.027  16.020  0.3451 -0.0570 -0.2244
  320TMC3     O 4811   1.620   3.014  16.136  0.1234 -0.1296 -0.0064
  320TMC3     H 4812   1.577   3.146  15.792  0.7008  0.1756  1.1420
  320TMC3    H1 4813   1.532   2.815  16.057 -1.3509 -2.2459 -0.7259
  320TMC3    H2 4814   1.227   2.904  15.774  0.7460  0.5534 -0.5381
  320TMC3    C7 4815   1.286   2.763  15.995  0.1930 -0.0860 -0.2002
  320TMC3    C8 4816   1.330   3.156  15.723  0.3450 -0.2873  0.7861
  320TMC3    O1 4817   1.191   2.715  15.931  0.0709 -0.0421 -0.5437
  320TMC3    O2 4818   1.378   3.270  15.745  0.0295  0.1720  0.0082
  321TMC3    C1 4819   1.859   3.489  16.555 -0.4171  0.1990 -0.1760
  321TMC3    C2 4820   1.792   3.377  16.599  0.3956 -1.0194 -0.2316
  321TMC3    C3 4821   1.701   3.398  16.697  0.1472 -0.3429  0.2425
  321TMC3    C4 4822   1.859   3.610  16.625  0.2670  0.6510 -0.4263
  321TMC3    C5 4823   1.767   3.622  16.730 -0.1506  0.4213 -0.3350
  321TMC3    C6 4824   1.678   3.521  16.752  0.1155  0.1207  0.3761
  321TMC3     C 4825   1.903   3.483  16.416 -0.0646  0.1509  0.4361
  321TMC3     O 4826   1.982   3.567  16.386  0.0272  0.1148 -0.1863
  321TMC3     H 4827   1.810   3.283  16.549 -1.0953 -0.9058 -1.0123
  321TMC3    H1 4828   1.932   3.687  16.602  1.6480 -0.8775 -1.0979
  321TMC3    H2 4829   1.608   3.525  16.834 -0.8375  2.4232 -0.5506
  321TMC3    C7 4830   1.838   3.654  16.859  0.2910  0.0153 -0.4662
  321TMC3    C8 4831   1.659   3.287  16.782  0.1677 -0.2711 -0.0374
  321TMC3    O1 4832   1.960   3.651  16.853  0.3929 -0.1846  0.1822
  321TMC3    O2 4833   1.602   3.305  16.885 -0.1348  0.4909 -0.0587
  322MPD2     C 4834   0.593   4.151  13.556  0.1877  0.1548 -0.3706
  322MPD2    C1 4835   0.650   4.041  13.613 -0.1199 -0.0818 -0.0772
  322MPD2    C2 4836   0.699   3.947  13.528 -0.7898 -0.7338 -0.3530
  322MPD2    C3 4837   0.695   3.966  13.386  0.4828 -1.2989 -0.2768
  322MPD2    C4 4838   0.645   4.083  13.337  0.8249  0.3232 -0.2443
  322MPD2    C5 4839   0.593   4.176  13.425 -0.1343 -0.0814 -0.1554
  322MPD2     H 4840   0.750   3.861  13.569  1.5741 -0.0382 -1.8234
  322MPD2    H1 4841   0.642   4.109  13.232  1.2730 -0.1436 -0.3726
  322MPD2    H2 4842   0.540   4.220  13.620  1.5829  0.3961  0.5198
  322MPD2    H3 4843   0.555   4.274  13.402  1.9785  0.5878 -0.7913
  322MPD2     N 4844   0.744   3.864  13.301 -0.1221 -0.3667 -0.0253
  322MPD2    H5 4845   0.773   3.781  13.352  0.2175 -0.8726 -1.0480
  322MPD2    N1 4846   0.655   4.036  13.758  0.6500  0.0226 -0.0822
  322MPD2    H7 4847   0.639   4.113  13.822 -2.4563  0.2453 -1.1050
  323TMC3    C1 4848   0.737   3.949  13.966 -0.1956  0.1552  0.2582
  323TMC3    C2 4849   0.777   4.077  14.011  0.1114  0.1472 -0.5906
  323TMC3    C3 4850   0.830   4.088  14.136 -0.5008 -0.4660 -0.1396
  323TMC3    C4 4851   0.773   3.839  14.041 -0.0657  0.0182  0.2277
  323TMC3    C5 4852   0.847   3.853  14.158 -0.3268 -0.7881 -0.0249
  323TMC3    C6 4853   0.861   3.982  14.208  0.0771 -0.5212 -0.1838
  323TMC3     C 4854   0.704   3.925  13.826  0.1894  0.5306 -0.3684
  323TMC3     O 4855   0.740   3.814  13.781 -0.0626 -0.1982  0.7924
  323TMC3     H 4856   0.764   4.158  13.940 -0.2471 -0.2125 -0.9370
  323TMC3    H1 4857   0.743   3.739  14.010 -0.4700  0.0166  0.6211
  323TMC3    H2 4858   0.924   3.997  14.295  0.4591 -0.0404 -0.5432
  323TMC3    C7 4859   0.940   3.749  14.196 -0.5853  0.1274 -0.2748
  323TMC3    C8 4860   0.934   4.190  14.149  0.5868  0.0024 -0.0806
  323TMC3    O1 4861   0.942   3.653  14.123 -0.1061 -0.4832  0.4162
  323TMC3    O2 4862   1.046   4.150  14.182  0.1500  0.2966  0.2920
  324MPD2     C 4863   2.371   0.765  13.737 -0.2412 -0.6398 -0.0676
  324MPD2    C1 4864   2.286   0.669  13.777 -0.1630 -0.0680  0.6387
  324MPD2    C2 4865   2.152   0.688  13.765  0.1956  0.9130  0.2335
  324MPD2    C3 4866   2.097   0.814  13.748 -0.0531 -0.2412 -0.3464
  324MPD2    C4 4867   2.185   0.914  13.715 -0.2793 -0.8976 -0.3054
  324MPD2    C5 4868   2.319   0.889  13.716  0.4517 -0.1179 -0.6196
  324MPD2     H 4869   2.081   0.610  13.787  0.8788 -0.6819 -3.3084
  324MPD2    H1 4870   2.149   1.016  13.704 -3.1767 -1.7560  1.3859
  324MPD2    H2 4871   2.477   0.750  13.723  0.0251 -0.2676  1.5340
  324MPD2    H3 4872   2.387   0.972  13.701 -0.2839  0.2011 -2.1544
  324MPD2     N 4873   1.957   0.853  13.746  0.3385 -0.4104  0.0541
  324MPD2    H5 4874   1.936   0.950  13.728  0.3387 -0.3904  0.1637
  324MPD2    N1 4875   2.327   0.541  13.807  0.2518 -0.3016 -0.1005
  324MPD2    H7 4876   2.258   0.476  13.843  2.3588 -1.8288  1.1683
  325TMC3    C1 4877   1.719   0.817  13.749 -0.2869  0.4544  0.3154
  325TMC3    C2 4878   1.622   0.729  13.729 -0.1819 -0.7155 -0.4670
  325TMC3    C3 4879   1.499   0.770  13.719 -0.0442  0.2640 -0.0904
  325TMC3    C4 4880   1.701   0.948  13.741 -0.3674 -0.0317 -0.2518
  325TMC3    C5 4881   1.578   0.988  13.718 -0.4293 -0.2811  0.7098
  325TMC3    C6 4882   1.469   0.906  13.715  0.7500 -0.7635 -0.0877
  325TMC3     C 4883   1.855   0.763  13.756 -0.0464  0.5304 -0.2658
  325TMC3     O 4884   1.869   0.641  13.754 -0.1827 -0.0200 -0.4075
  325TMC3     H 4885   1.641   0.625  13.705  0.2369 -0.7798  0.1614
  325TMC3    H1 4886   1.780   1.021  13.753  1.6516 -1.8944 -2.1865
  325TMC3    H2 4887   1.379   0.950  13.675 -0.2982 -1.5273  1.4222
  325TMC3    C7 4888   1.562   1.130  13.730  0.5890  0.3979  0.6194
  325TMC3    C8 4889   1.398   0.671  13.684  0.0988  0.4581 -0.0808
  325TMC3    O1 4890   1.640   1.207  13.674 -0.1398  0.1980 -0.8979
  325TMC3    O2 4891   1.432   0.584  13.604 -0.2739 -0.3219  0.2123
  326MPD2     C 4892   2.888   1.667  10.783 -0.4163  0.2745  0.5292
  326MPD2    C1 4893   2.973   1.674  10.674 -0.2172  0.6403  0.3323
  326MPD2    C2 4894   3.098   1.737  10.683  0.8100  0.2793 -0.1924
  326MPD2    C3 4895   3.159   1.770  10.799 -0.4175  0.1373 -0.1578
  326MPD2    C4 4896   3.079   1.763  10.911 -0.3508  0.7622  0.2609
  326MPD2    C5 4897   2.949   1.714  10.900 -0.0581 -1.2571  0.5129
  326MPD2     H 4898   3.145   1.756  10.587 -0.1179  0.5157 -0.6044
  326MPD2    H1 4899   3.120   1.796  11.006  1.8758  0.3838 -0.5479
  326MPD2    H2 4900   2.789   1.623  10.789  0.4680 -1.5484  1.7525
  326MPD2    H3 4901   2.891   1.718  10.992  1.1621  2.1946  1.1332
  326MPD2     N 4902   3.280   1.830  10.810  0.4831 -0.5773 -0.2829
  326MPD2    H5 4903   3.310   1.853  10.905 -0.6463 -0.0611 -0.0464
  326MPD2    N1 4904   2.933   1.641  10.543  0.3595  0.9119 -0.3046
  326MPD2    H7 4905   2.990   1.670  10.464  1.2070  1.2734  0.4450
  327TMC3    C1 4906   2.819   1.555  10.369 -0.5069  0.3048  0.1376
  327TMC3    C2 4907   2.742   1.635  10.288 -0.2876 -1.1540 -0.4694
  327TMC3    C3 4908   2.790   1.655  10.162 -0.0483  0.0796 -0.4177
  327TMC3    C4 4909   2.940   1.510  10.330  0.0886 -0.6650  0.3018
  327TMC3    C5 4910   2.988   1.561  10.212 -0.2222 -0.6479  1.1759
  327TMC3    C6 4911   2.915   1.626  10.119 -0.0699 -0.1275 -0.4121
  327TMC3     C 4912   2.820   1.573  10.506  0.9791 -0.1456 -0.0213
  327TMC3     O 4913   2.716   1.545  10.569  0.4605 -0.9557 -0.0893
  327TMC3     H 4914   2.645   1.669  10.322  0.1043 -1.5321  1.0307
  327TMC3    H1 4915   2.978   1.418  10.374  0.5885  0.6563  2.5968
  327TMC3    H2 4916   2.959   1.662  10.027  0.5013  2.5713  0.9192
  327TMC3    C7 4917   3.134   1.574  10.216  0.2718  0.1824 -0.6125
  327TMC3    C8 4918   2.730   1.769  10.091  0.5699  0.0372 -0.2716
  327TMC3    O1 4919   3.184   1.639  10.126  0.5135  0.1934  0.1914
  327TMC3    O2 4920   2.774   1.799   9.980 -0.8354  0.1463 -0.7484
  328MPD2     C 4921   0.959   1.725  16.900  0.2553 -1.0469 -1.0715
  328MPD2    C1 4922   0.850   1.747  16.811 -0.2541 -0.6118  0.7838
  328MPD2    C2 4923   0.781   1.863  16.835  0.3502 -0.2658  0.5003
  328MPD2    C3 4924   0.817   1.964  16.923  0.0348 -0.1595 -0.3126
  328MPD2    C4 4925   0.939   1.950  16.986 -0.0052 -0.1136  0.4717
  328MPD2    C5 4926   1.002   1.829  16.984 -1.2520 -0.3499 -0.9911
  328MPD2     H 4927   0.685   1.869  16.785 -0.6355 -1.1482  2.2763
  328MPD2    H1 4928   0.975   2.025  17.056  1.4712  0.0546 -0.4670
  328MPD2    H2 4929   1.007   1.628  16.902 -0.4618 -1.3666  0.3936
  328MPD2    H3 4930   1.089   1.815  17.047 -1.7427  2.3247  0.2744
  328MPD2     N 4931   0.745   2.080  16.949 -0.4370 -0.0192 -0.1661
  328MPD2    H5 4932   0.797   2.147  17.005 -2.1366  0.5013  0.7796
  328MPD2    N1 4933   0.813   1.640  16.722 -0.3505 -0.4748  0.7116
  328MPD2    H7 4934   0.864   1.553  16.732  0.9928  0.0163 -1.9856
  329TMC3    C1 4935   0.703   1.498  16.572  0.1394  0.6244 -0.4742
  329TMC3    C2 4936   0.731   1.392  16.660  0.0796 -0.1358 -0.0145
  329TMC3    C3 4937   0.687   1.269  16.622  0.1383 -0.2601  0.5860
  329TMC3    C4 4938   0.631   1.481  16.457 -0.0420 -0.8954 -0.0842
  329TMC3    C5 4939   0.602   1.351  16.422  0.3296  0.0248  0.3432
  329TMC3    C6 4940   0.629   1.245  16.500 -0.5187  0.0938 -0.3086
  329TMC3     C 4941   0.717   1.633  16.625 -0.4262  0.0187 -0.1668
  329TMC3     O 4942   0.658   1.727  16.569  0.5171  0.6656 -0.1329
  329TMC3     H 4943   0.787   1.411  16.751 -1.4013 -0.1582  0.9011
  329TMC3    H1 4944   0.605   1.567  16.396  1.6570 -1.1702 -1.1787
  329TMC3    H2 4945   0.610   1.142  16.473  0.3515 -0.3175  0.6458
  329TMC3    C7 4946   0.535   1.320  16.298  0.4186 -0.4838 -0.4657
  329TMC3    C8 4947   0.698   1.157  16.717  0.2723 -0.0805 -0.0174
  329TMC3    O1 4948   0.472   1.213  16.301  0.0855  0.1664  0.4298
  329TMC3    O2 4949   0.718   1.043  16.682 -0.1417 -0.1639 -0.3004
  330TMC3    C1 4950   3.961   1.028   9.198 -0.5691 -0.8933 -0.8072
  330TMC3    C2 4951   3.849   0.959   9.158  0.4078  1.0000  0.3478
  330TMC3    C3 4952   3.868   0.851   9.076 -0.1198 -0.5887  0.0330
  330TMC3    C4 4953   4.085   0.997   9.165  0.2002  0.1141 -0.0507
  330TMC3    C5 4954   4.099   0.901   9.071 -0.1178  0.2423 -0.1383
  330TMC3    C6 4955   3.995   0.822   9.024 -0.0975 -0.2170 -0.3524
  330TMC3     C 4956   3.941   1.165   9.243 -0.6778  0.0140 -0.1271
  330TMC3     O 4957   4.027   1.214   9.311 -0.4465  0.3983 -0.2347
  330TMC3     H 4958   3.753   0.983   9.202 -1.0105 -0.3661 -2.0208
  330TMC3    H1 4959   4.171   1.051   9.204  0.9415 -0.9270 -0.2249
  330TMC3    H2 4960   4.007   0.749   8.945 -2.0458 -2.0301  1.0085
  330TMC3    C7 4961   4.236   0.858   9.029 -0.3529  0.1345 -0.3872
  330TMC3    C8 4962   3.749   0.803   9.001 -0.2072  0.2199  0.5137
  330TMC3    O1 4963   4.327   0.939   9.045 -0.3788 -0.1084  0.9364
  330TMC3    O2 4964   3.764   0.738   8.898  0.1080  0.1342  0.5433
  331MPD2     C 4965   0.939   0.076  12.516 -0.0804 -0.5174  0.6768
  331MPD2    C1 4966   1.048   0.140  12.461 -0.1434 -0.8511  0.1505
  331MPD2    C2 4967   1.140   0.056  12.402  0.0103  0.1629  0.6594
  331MPD2    C3 4968   1.137   4.640  12.419 -0.0742 -0.1714 -0.0501
  331MPD2    C4 4969   1.025   4.586  12.479  0.0229 -0.3551 -0.1939
  331MPD2    C5 4970   0.932   4.664  12.525  0.3271 -0.2436 -0.2384
  331MPD2     H 4971   1.217   0.105  12.344 -0.4365  0.5233  0.3697
  331MPD2    H1 4972   1.012   4.478  12.483 -0.6159 -0.1141  4.0456
  331MPD2    H2 4973   0.853   0.136  12.539  2.4155  2.9742  0.9010
  331MPD2    H3 4974   0.849   4.620  12.579 -0.0578  2.4536  1.3293
  331MPD2     N 4975   1.234   4.558  12.357  0.0217 -0.5849 -0.5079
  331MPD2    H5 4976   1.307   4.605  12.305 -0.2895 -0.7003 -1.0529
  331MPD2    N1 4977   1.078   0.279  12.467  0.0278  0.4353 -0.3701
  331MPD2    H7 4978   1.009   0.338  12.512  0.3214  0.5988 -0.1399
  332TMC3    C1 4979   1.382   4.389  12.311 -0.3624  0.6489 -0.6395
  332TMC3    C2 4980   1.436   4.471  12.205 -0.1710 -0.1672  0.4729
  332TMC3    C3 4981   1.561   4.452  12.160  0.1714  0.8123  0.2381
  332TMC3    C4 4982   1.458   4.278  12.351 -0.2900 -0.3700 -0.3107
  332TMC3    C5 4983   1.592   4.270  12.308 -0.0876 -0.4212  0.7329
  332TMC3    C6 4984   1.641   4.354  12.215  0.3362  0.3884  0.5293
  332TMC3     C 4985   1.256   4.424  12.376  0.0627  0.3855 -1.0563
  332TMC3     O 4986   1.211   4.348  12.466  0.3389 -0.0543  0.5155
  332TMC3     H 4987   1.370   4.545  12.161 -0.3052 -0.5018  0.1013
  332TMC3    H1 4988   1.414   4.216  12.428  0.0773 -1.4461 -0.9818
  332TMC3    H2 4989   1.746   4.361  12.189 -0.0747 -1.3237 -1.6008
  332TMC3    C7 4990   1.688   4.208  12.405  0.0711 -0.3230 -0.0664
  332TMC3    C8 4991   1.621   4.545  12.068 -0.6229  1.0416 -0.4844
  332TMC3    O1 4992   1.639   4.147  12.500 -0.1616  0.6693  0.2853
  332TMC3    O2 4993   1.742   4.533  12.054  0.1187 -0.2669 -0.1341
  333MPD2     C 4994   1.717   0.431  11.145  0.3372 -0.2216  0.9149
  333MPD2    C1 4995   1.800   0.333  11.101  0.0056 -0.2290 -0.5951
  333MPD2    C2 4996   1.777   0.204  11.152 -0.5190 -1.0947  0.5214
  333MPD2    C3 4997   1.685   0.182  11.252  0.0524  0.6436 -0.3150
  333MPD2    C4 4998   1.615   0.290  11.300  1.0559  0.1177  0.3921
  333MPD2    C5 4999   1.631   0.410  11.247  0.1204 -0.3347  0.6112
  333MPD2     H 5000   1.836   0.118  11.123 -1.5495 -1.5340 -0.2675
  333MPD2    H1 5001   1.546   0.286  11.383  0.2826  0.2574 -0.2451
  333MPD2    H2 5002   1.717   0.518  11.080 -0.8978 -0.9762 -0.0779
  333MPD2    H3 5003   1.569   0.489  11.287  1.6747  1.0213  0.3079
  333MPD2     N 5004   1.667   0.041  11.290 -0.4813 -0.1863  0.3697
  333MPD2    H5 5005   1.744   4.707  11.256  2.4185  1.7401  3.6528
  333MPD2    N1 5006   1.861   0.360  10.976 -0.0012  0.4889  0.3795
  333MPD2    H7 5007   1.850   0.452  10.935 -0.8964  0.2878  0.1707
  334TMC3    C1 5008   1.974   0.300  10.769  0.0352 -0.3740  0.6097
  334TMC3    C2 5009   2.026   0.197  10.687 -0.7814 -0.1389  0.0024
  334TMC3    C3 5010   2.096   0.239  10.581  0.1893 -0.1175 -0.2875
  334TMC3    C4 5011   1.971   0.437  10.729 -0.2969 -0.3501 -0.1348
  334TMC3    C5 5012   2.017   0.463  10.603 -0.6350  0.0310  0.4851
  334TMC3    C6 5013   2.086   0.367  10.531 -0.0923  0.2301  0.3121
  334TMC3     C 5014   1.915   0.262  10.894  1.0791  0.3054 -0.3915
  334TMC3     O 5015   1.907   0.143  10.910  0.8026  0.0099  0.3668
  334TMC3     H 5016   2.031   0.096  10.728  2.6117  0.4490  1.0796
  334TMC3    H1 5017   1.915   0.512  10.784 -0.4862 -0.5961  0.0072
  334TMC3    H2 5018   2.148   0.389  10.445 -0.8523  0.6789 -0.1275
  334TMC3    C7 5019   2.023   0.609  10.560 -0.1868  0.0706 -0.1431
  334TMC3    C8 5020   2.204   0.153  10.545 -0.3404  0.3510  0.1034
  334TMC3    O1 5021   2.004   0.694  10.642 -0.0089 -0.3748  0.1840
  334TMC3    O2 5022   2.182   0.030  10.567  0.1740 -0.0698  0.7528
  335TMC3    C1 5023   1.700   1.732  17.347 -0.4080  0.3475 -0.5401
  335TMC3    C2 5024   1.582   1.745  17.272 -0.1395 -0.2411  0.2568
  335TMC3    C3 5025   1.597   1.782  17.138  0.1158  0.2735  0.4145
  335TMC3    C4 5026   1.824   1.777  17.312  0.4407  0.5034  0.7727
  335TMC3    C5 5027   1.828   1.825  17.183  0.1214  0.1304  0.5220
  335TMC3    C6 5028   1.718   1.830  17.100 -1.1643 -0.1735  0.3970
  335TMC3     C 5029   1.675   1.705  17.491 -0.0005 -0.0977 -0.1538
  335TMC3     O 5030   1.576   1.636  17.520  0.0082  0.2115  0.8372
  335TMC3     H 5031   1.481   1.716  17.298 -0.6143 -0.7242 -2.1643
  335TMC3    H1 5032   1.906   1.773  17.384  0.5555  2.5669  0.7542
  335TMC3    H2 5033   1.727   1.856  16.995  0.8311  0.3216  0.6810
  335TMC3    C7 5034   1.936   1.912  17.131 -0.0827 -1.1070 -0.2647
  335TMC3    C8 5035   1.497   1.767  17.031  0.0621 -0.0577  0.2940
  335TMC3    O1 5036   1.958   1.918  17.013  0.0897 -0.0119 -0.2675
  335TMC3    O2 5037   1.505   1.838  16.933  0.4132 -0.2244  0.1496
  336MPD2     C 5038   1.615   4.527  16.285 -0.1551 -0.1977 -0.7765
  336MPD2    C1 5039   1.538   4.452  16.199  0.5907  0.2024  0.1978
  336MPD2    C2 5040   1.570   4.321  16.182 -0.3235  0.0141 -0.3562
  336MPD2    C3 5041   1.650   4.258  16.279  0.3980  0.3874 -0.2737
  336MPD2    C4 5042   1.708   4.324  16.377 -0.1438  0.1112 -0.5302
  336MPD2    C5 5043   1.705   4.459  16.366  0.0015 -0.3600  0.4110
  336MPD2     H 5044   1.509   4.260  16.116  1.0322 -0.4640 -1.1629
  336MPD2    H1 5045   1.774   4.275  16.448 -1.4562 -0.3605  0.3758
  336MPD2    H2 5046   1.611   4.635  16.295 -0.7219 -0.5006  2.2642
  336MPD2    H3 5047   1.774   4.511  16.432  0.0757 -1.2091  1.0007
  336MPD2     N 5048   1.667   4.115  16.279 -0.2076 -0.4599  0.0546
  336MPD2    H5 5049   1.706   4.068  16.360 -1.2758  0.7840  1.2938
  336MPD2    N1 5050   1.445   4.509  16.108 -0.5759  0.0782  0.0124
  336MPD2    H7 5051   1.393   4.451  16.043 -0.5786 -1.5285  1.4794
  337TMC3    C1 5052   1.288   4.669  16.031 -0.3608  0.8052 -0.4073
  337TMC3    C2 5053   1.231   4.586  15.934  0.0922 -0.6268 -0.4357
  337TMC3    C3 5054   1.127   4.625  15.860  0.0090  0.3235  0.0643
  337TMC3    C4 5055   1.230   0.063  16.054 -0.1891 -0.4113 -0.6919
  337TMC3    C5 5056   1.116   0.099  15.984  0.4387  0.2210 -0.1757
  337TMC3    C6 5057   1.062   0.014  15.896 -0.1975 -0.1822  0.5258
  337TMC3     C 5058   1.413   4.643  16.098 -0.1384 -0.2470  0.0216
  337TMC3     O 5059   1.456   0.018  16.160  0.2183  0.8140  0.0911
  337TMC3     H 5060   1.265   4.484  15.919  2.9887 -0.1567  2.7636
  337TMC3    H1 5061   1.275   0.133  16.122  0.1033 -0.6412 -0.6497
  337TMC3    H2 5062   0.978   0.048  15.836  0.2832  1.0709  0.5491
  337TMC3    C7 5063   1.039   0.210  16.031  0.0695 -0.2901  0.4737
  337TMC3    C8 5064   1.054   4.520  15.783 -0.2175  0.0905 -0.3651
  337TMC3    O1 5065   0.952   0.258  15.961  0.2324 -0.2046 -0.1101
  337TMC3    O2 5066   1.100   4.407  15.780 -0.3897  0.4157 -0.3271
  338MPD2     C 5067   2.143   3.742   0.583 -0.4901  0.0373 -0.0647
  338MPD2    C1 5068   2.019   3.787   0.571  0.4166  0.3253  0.6745
  338MPD2    C2 5069   1.987   3.912   0.619  0.4103 -0.4035 -0.1841
  338MPD2    C3 5070   2.071   3.988   0.707 -0.3105 -0.6006  0.1388
  338MPD2    C4 5071   2.198   3.935   0.724  0.2555  0.3930  0.0039
  338MPD2    C5 5072   2.231   3.819   0.649  0.3487 -0.4456 -0.1565
  338MPD2     H 5073   1.884   3.943   0.604  0.7936  0.2340 -1.5583
  338MPD2    H1 5074   2.274   3.986   0.782  0.4069 -1.7760  1.7324
  338MPD2    H2 5075   2.180   3.644   0.553 -1.3592 -0.1568 -0.5177
  338MPD2    H3 5076   2.330   3.775   0.655  0.6637  0.4123  0.8654
  338MPD2     N 5077   2.022   4.100   0.773  0.3256 -0.4358  0.3037
  338MPD2    H5 5078   1.931   4.135   0.745  1.1951  2.3400  0.9266
  338MPD2    N1 5079   1.913   3.715   0.518  0.4161  0.0992  0.0699
  338MPD2    H7 5080   1.823   3.759   0.505  1.2451  1.6994 -0.2414
  339TMC3    C1 5081   1.971   4.234   0.948  0.0632 -0.1549  0.4779
  339TMC3    C2 5082   1.946   4.205   1.080  0.2193 -0.2487  0.3637
  339TMC3    C3 5083   1.825   4.241   1.126 -0.8693  0.0697 -0.6835
  339TMC3    C4 5084   1.879   4.284   0.861  0.5757 -0.2990  0.2995
  339TMC3    C5 5085   1.753   4.308   0.913 -0.2547  1.1981 -0.0080
  339TMC3    C6 5086   1.730   4.297   1.047 -0.2281  0.1333  0.0712
  339TMC3     C 5087   2.079   4.152   0.888  0.0067  0.4523 -0.1680
  339TMC3     O 5088   2.165   4.109   0.959  0.2804 -0.2152 -0.3975
  339TMC3     H 5089   2.018   4.152   1.141 -1.0078 -2.6864 -0.3110
  339TMC3    H1 5090   1.906   4.300   0.757  0.5263 -1.4466  0.1055
  339TMC3    H2 5091   1.637   4.344   1.077 -0.2656 -0.8306  1.4658
  339TMC3    C7 5092   1.649   4.300   0.809  0.3114 -0.0796 -0.8906
  339TMC3    C8 5093   1.801   4.244   1.269 -0.1865 -0.3174 -0.4279
  339TMC3    O1 5094   1.686   4.317   0.695  0.2209 -0.4760 -0.3314
  339TMC3    O2 5095   1.894   4.201   1.337  0.3996  0.1049 -0.1019
  340MPD2     C 5096   1.508   1.579   9.300 -0.5974 -0.5509  0.4945
  340MPD2    C1 5097   1.514   1.474   9.389  0.9977  0.0949  0.9075
  340MPD2    C2 5098   1.548   1.489   9.523 -0.0426  0.0706 -0.3034
  340MPD2    C3 5099   1.577   1.617   9.577  0.0193  0.4088  0.0118
  340MPD2    C4 5100   1.574   1.721   9.494  0.4101  0.3112 -0.4709
  340MPD2    C5 5101   1.541   1.699   9.362  0.0921  0.1337 -0.2041
  340MPD2     H 5102   1.565   1.406   9.590 -0.2985 -0.1799 -0.5529
  340MPD2    H1 5103   1.592   1.822   9.530  0.0470  0.0951  0.3154
  340MPD2    H2 5104   1.491   1.568   9.194  0.8895 -3.0731  0.5174
  340MPD2    H3 5105   1.553   1.783   9.294  0.2359 -0.4375 -0.8938
  340MPD2     N 5106   1.621   1.640   9.709 -0.8858  0.6339 -0.2206
  340MPD2    H5 5107   1.654   1.734   9.728 -2.4869  1.0468  0.5753
  340MPD2    N1 5108   1.474   1.352   9.329 -0.0401  0.1349 -0.3905
  340MPD2    H7 5109   1.445   1.352   9.231 -2.4713 -2.3225  0.3371
  341TMC3    C1 5110   1.399   1.133   9.319  0.5126 -0.5598  0.2289
  341TMC3    C2 5111   1.339   1.028   9.384 -0.0946  0.0316  0.4387
  341TMC3    C3 5112   1.312   0.912   9.311  0.0010  0.6488 -0.7147
  341TMC3    C4 5113   1.436   1.126   9.190  0.1990 -0.4457 -0.0380
  341TMC3    C5 5114   1.415   1.012   9.124 -0.0032  0.3011 -0.3882
  341TMC3    C6 5115   1.349   0.908   9.180  0.1724  0.1785 -0.4910
  341TMC3     C 5116   1.450   1.238   9.397  0.1747 -0.0604  0.1159
  341TMC3     O 5117   1.447   1.212   9.518  0.0679 -0.1524 -0.9091
  341TMC3     H 5118   1.303   1.041   9.486  0.8247  0.3356  0.7220
  341TMC3    H1 5119   1.491   1.206   9.143 -1.6492  0.4955 -0.5870
  341TMC3    H2 5120   1.327   0.814   9.131  1.5847 -0.6086  0.3955
  341TMC3    C7 5121   1.475   0.999   8.988  0.4307 -0.2074 -0.6997
  341TMC3    C8 5122   1.241   0.801   9.367  0.0926  0.1474  0.0356
  341TMC3    O1 5123   1.572   1.072   8.969 -0.4390 -0.1630  0.1740
  341TMC3    O2 5124   1.203   0.717   9.292 -0.1277  0.6312  0.4792
  342MPD2     C 5125   4.576   4.412  16.909  0.3779 -0.9200  1.1064
  342MPD2    C1 5126   4.536   4.383  17.037 -0.2513 -0.7129  0.0525
  342MPD2    C2 5127   4.484   4.489  17.114 -0.1266 -0.7173 -0.3598
  342MPD2    C3 5128   4.477   4.620  17.065 -0.2965  0.3842 -0.1076
  342MPD2    C4 5129   4.521   4.641  16.937 -0.0028  1.0008  0.0141
  342MPD2    C5 5130   4.570   4.542  16.860 -0.0896 -0.4740 -0.0058
  342MPD2     H 5131   4.442   4.483  17.214  0.0889 -0.2895 -0.2428
  342MPD2    H1 5132   4.503   0.010  16.883  0.4021  0.8647 -0.3587
  342MPD2    H2 5133   4.611   4.335  16.841 -0.6738  0.2089 -0.7198
  342MPD2    H3 5134   4.578   4.568  16.755 -1.3961 -2.1623 -0.5146
  342MPD2     N 5135   4.433   0.008  17.138  0.4127  0.2453  0.7569
  342MPD2    H5 5136   4.431   0.100  17.095  1.2720 -0.8587 -1.6775
  342MPD2    N1 5137   4.533   4.252  17.097  0.3972 -0.0404  0.1949
  342MPD2    H7 5138   4.509   4.241  17.195  1.0070  0.5739  0.4057
  343TMC3    C1 5139   4.613   4.046  17.141 -0.0491 -0.3348  0.4956
  343TMC3    C2 5140   0.024   4.052  17.176  0.3308  0.0918 -0.2237
  343TMC3    C3 5141   0.059   4.031  17.304  0.3252 -1.1901 -0.0332
  343TMC3    C4 5142   4.521   4.040  17.236  0.0749  0.6858 -0.1246
  343TMC3    C5 5143   4.562   4.003  17.365 -0.2169 -0.3360 -0.6651
  343TMC3    C6 5144   4.694   4.001  17.395  0.3096 -0.6880 -0.1934
  343TMC3     C 5145   4.588   4.138  17.034  0.1126 -0.4318 -0.2156
  343TMC3     O 5146   4.648   4.124  16.928 -0.0422 -0.2788  0.3591
  343TMC3     H 5147   0.092   4.086  17.099  1.2086 -1.2412 -0.0241
  343TMC3    H1 5148   4.422   4.020  17.197 -1.3484  0.2254  3.6969
  343TMC3    H2 5149   0.007   3.988  17.497 -0.1660  2.3181  0.3379
  343TMC3    C7 5150   4.463   3.936  17.446  0.1301  0.7455 -0.4526
  343TMC3    C8 5151   0.196   4.071  17.337  0.1107  0.4465 -0.3861
  343TMC3    O1 5152   4.353   3.929  17.393  0.1072 -0.2486 -0.0662
  343TMC3    O2 5153   0.206   4.124  17.444  0.2506 -0.0415  0.9062
  344MPD2     C 5154   0.688   4.312  10.790  0.8368 -0.0359  0.1922
  344MPD2    C1 5155   0.624   4.258  10.678  0.6178  1.0324  0.8461
  344MPD2    C2 5156   0.642   4.332  10.559  1.4073 -0.0906  0.5251
  344MPD2    C3 5157   0.709   4.451  10.548 -0.5296 -0.6082  0.3352
  344MPD2    C4 5158   0.770   4.500  10.660  0.5393  0.4235  0.2139
  344MPD2    C5 5159   0.755   4.432  10.777  0.0837  0.6325 -0.3910
  344MPD2     H 5160   0.585   4.304  10.472 -0.3393 -0.0156  1.6527
  344MPD2    H1 5161   0.807   4.602  10.663 -1.4441  1.1840 -0.8670
  344MPD2    H2 5162   0.679   4.274  10.891  0.0534  0.1005  0.1703
  344MPD2    H3 5163   0.785   4.484  10.867  1.4626 -1.1739  0.1819
  344MPD2     N 5164   0.723   4.523  10.426  0.8481  0.5399  0.0303
  344MPD2    H5 5165   0.784   4.603  10.423 -0.3650  1.4343 -0.8358
  344MPD2    N1 5166   0.574   4.128  10.687  0.0663  0.5861  0.2847
  344MPD2    H7 5167   0.528   4.093  10.604  2.0164  3.2772 -1.9049
  345TMC3    C1 5168   0.724   4.573  10.193  0.5300  0.4242 -0.9372
  345TMC3    C2 5169   0.840   4.639  10.207 -0.0102 -0.5313 -0.1321
  345TMC3    C3 5170   0.875   0.017  10.121 -0.7251 -0.2682  0.0062
  345TMC3    C4 5171   0.636   4.603  10.086  0.0892  0.3535 -0.3198
  345TMC3    C5 5172   0.666   4.722  10.012 -0.0256  0.6639 -0.0170
  345TMC3    C6 5173   0.798   0.057  10.023  0.1100 -0.5011 -0.7949
  345TMC3     C 5174   0.685   4.484  10.299  0.0747  0.0214 -0.1069
  345TMC3     O 5175   0.628   4.389  10.261  0.1953 -0.2251  0.1792
  345TMC3     H 5176   0.904   4.616  10.291 -1.0462 -0.5758  0.6585
  345TMC3    H1 5177   0.539   4.556  10.079  0.5594 -0.8967  1.7317
  345TMC3    H2 5178   0.817   0.139   9.955  2.4942  0.5592  1.1427
  345TMC3    C7 5179   0.570   0.072   9.938  0.4865 -0.2847  1.1641
  345TMC3    C8 5180   0.971   0.111  10.179  0.4221 -0.3399  0.2500
  345TMC3    O1 5181   0.603   0.187   9.916  0.2598  0.5038  0.1484
  345TMC3    O2 5182   1.021   0.082  10.287 -0.3308 -0.1063 -0.3592
  346MPD2     C 5183   0.523   0.634  13.800  0.3622 -0.4002  0.4001
  346MPD2    C1 5184   0.535   0.742  13.718  1.1346 -0.5256 -0.2946
  346MPD2    C2 5185   0.574   0.867  13.771 -0.8691 -0.5527 -0.4427
  346MPD2    C3 5186   0.592   0.874  13.909  0.2406  0.0357  0.0866
  346MPD2    C4 5187   0.579   0.764  13.997  0.5817 -0.2469  0.4449
  346MPD2    C5 5188   0.545   0.647  13.938  0.3524 -0.3358 -0.1440
  346MPD2     H 5189   0.587   0.955  13.709  0.1373 -0.3463  0.0556
  346MPD2    H1 5190   0.591   0.765  14.105 -0.4698 -1.9800  0.5759
  346MPD2    H2 5191   0.498   0.539  13.755  1.4262 -0.9570  0.9858
  346MPD2    H3 5192   0.524   0.560  13.998  1.0509 -1.1593 -1.0984
  346MPD2     N 5193   0.619   1.007  13.953 -0.5432 -0.2760 -0.4865
  346MPD2    H5 5194   0.616   1.078  13.881  1.3139 -0.6084 -0.8912
  346MPD2    N1 5195   0.521   0.734  13.576 -0.0490 -0.6792  0.0504
  346MPD2    H7 5196   0.541   0.823  13.531 -0.1802 -0.9526 -0.5443
  347TMC3    C1 5197   0.691   1.179  14.096  0.3229 -0.5419 -0.2154
  347TMC3    C2 5198   0.786   1.225  14.008 -0.6850  0.3633 -0.0963
  347TMC3    C3 5199   0.865   1.332  14.038 -0.4266 -0.3528 -0.8233
  347TMC3    C4 5200   0.674   1.249  14.217 -0.7491 -0.2028  0.2603
  347TMC3    C5 5201   0.755   1.357  14.239 -0.2528  0.6934  0.8441
  347TMC3    C6 5202   0.852   1.402  14.146  0.3369 -0.3179  0.1957
  347TMC3     C 5203   0.648   1.042  14.088 -0.0818  0.4767  0.6927
  347TMC3     O 5204   0.626   0.978  14.189 -0.0361 -0.6746  0.3611
  347TMC3     H 5205   0.806   1.167  13.919 -2.9937  2.5676 -2.0587
  347TMC3    H1 5206   0.603   1.211  14.290  0.5012  0.7232  1.9589
  347TMC3    H2 5207   0.924   1.473  14.184  0.6595 -0.7098  0.3172
  347TMC3    C7 5208   0.740   1.407  14.366  0.1421  0.0176 -0.2927
  347TMC3    C8 5209   1.002   1.304  14.000 -0.2986 -0.0465 -0.0107
  347TMC3    O1 5210   0.624   1.390  14.396  0.2922 -0.0796  0.1868
  347TMC3    O2 5211   1.022   1.185  13.995  0.3690 -0.2306  0.2764
  348MPD2     C 5212   4.024   0.592  11.837 -0.5129 -0.0556  0.4540
  348MPD2    C1 5213   4.122   0.685  11.819  0.4638 -0.7336 -0.6358
  348MPD2    C2 5214   4.121   0.764  11.706  0.3730  0.1977  0.3653
  348MPD2    C3 5215   4.021   0.756  11.612 -0.5056  0.1888 -0.2110
  348MPD2    C4 5216   3.922   0.658  11.634  0.5216  0.2055  0.5814
  348MPD2    C5 5217   3.930   0.580  11.741  0.4995  0.1103  0.4046
  348MPD2     H 5218   4.191   0.847  11.705  1.6713 -0.9035  2.6062
  348MPD2    H1 5219   3.849   0.628  11.560  1.5453 -0.7264 -0.0585
  348MPD2    H2 5220   4.019   0.522  11.919  0.8921  1.2890  1.6834
  348MPD2    H3 5221   3.846   0.515  11.765  0.1482  1.6034  3.2035
  348MPD2     N 5222   4.021   0.849  11.503 -0.3805  0.0806  0.5212
  348MPD2    H5 5223   4.106   0.903  11.496 -1.3413  1.5737  0.4377
  348MPD2    N1 5224   4.230   0.703  11.913  0.2910 -0.1269 -0.4161
  348MPD2    H7 5225   4.317   0.744  11.882 -0.7803  3.0775  0.8227
  349TMC3    C1 5226   4.378   0.596  12.070  0.2250 -0.0433  0.1022
  349TMC3    C2 5227   4.390   0.478  12.137 -0.1154 -0.1203  0.3286
  349TMC3    C3 5228   4.510   0.411  12.113 -0.1917 -0.1824  0.5275
  349TMC3    C4 5229   4.470   0.652  11.988 -0.4127 -0.3272  0.0613
  349TMC3    C5 5230   4.592   0.594  11.972  0.3230 -0.4975 -0.2564
  349TMC3    C6 5231   4.608   0.471  12.033 -0.0508 -0.0335 -0.1829
  349TMC3     C 5232   4.241   0.639  12.039  0.5759  0.6446  0.6802
  349TMC3     O 5233   4.154   0.578  12.094  0.2015  0.0409  0.4821
  349TMC3     H 5234   4.316   0.431  12.200  0.4689 -0.0819  1.0387
  349TMC3    H1 5235   4.464   0.756  11.959  1.3826 -0.0486  0.6769
  349TMC3    H2 5236   4.705   0.424  12.024  0.2361  0.3681  0.7582
  349TMC3    C7 5237   4.656   0.620  11.844  0.6491  0.1208 -0.2244
  349TMC3    C8 5238   4.500   0.263  12.121  0.2445  0.5233  0.0737
  349TMC3    O1 5239   4.709   0.526  11.780 -0.1575  0.5872 -0.3340
  349TMC3    O2 5240   4.422   0.231  12.211 -0.0547  0.0241 -0.1389
  350MPD2     C 5241   3.101   3.709   9.827  0.5556  0.3487  0.7607
  350MPD2    C1 5242   3.207   3.617   9.825  0.6137 -0.2014 -0.2141
  350MPD2    C2 5243   3.333   3.668   9.856 -1.1030 -0.1118  0.0965
  350MPD2    C3 5244   3.360   3.804   9.887  0.2217 -0.2334  0.2704
  350MPD2    C4 5245   3.252   3.887   9.887 -0.3343 -0.3477  0.0241
  350MPD2    C5 5246   3.127   3.840   9.856 -0.4731 -0.4685 -0.1857
  350MPD2     H 5247   3.408   3.591   9.839 -0.2591  0.9899 -1.1950
  350MPD2    H1 5248   3.259   3.994   9.900 -1.1921 -0.0974 -1.4547
  350MPD2    H2 5249   3.000   3.684   9.796  0.9011  0.6481 -0.6138
  350MPD2    H3 5250   3.043   3.909   9.848 -1.2161 -1.4327 -0.7265
  350MPD2     N 5251   3.492   3.841   9.918 -0.4255 -0.4251  0.0995
  350MPD2    H5 5252   3.563   3.770   9.929 -0.8619 -0.5139  2.3716
  350MPD2    N1 5253   3.188   3.480   9.797  0.6312 -0.1022 -0.1643
  350MPD2    H7 5254   3.272   3.424   9.786  0.6520 -0.2175  0.5611
  351TMC3    C1 5255   3.067   3.284   9.740 -0.6399 -0.5725  0.2517
  351TMC3    C2 5256   3.173   3.245   9.660  0.4180  0.1180 -0.2730
  351TMC3    C3 5257   3.162   3.113   9.613  1.0867  0.5247  0.3624
  351TMC3    C4 5258   2.954   3.210   9.751  0.6839  1.0566 -0.0503
  351TMC3    C5 5259   2.955   3.080   9.712  0.0036  0.3547 -0.1460
  351TMC3    C6 5260   3.063   3.025   9.646 -0.1784 -0.1224  0.6871
  351TMC3     C 5261   3.062   3.417   9.790 -0.3305 -0.2696  0.4776
  351TMC3     O 5262   2.949   3.460   9.808 -0.2333 -0.1494 -0.5301
  351TMC3     H 5263   3.254   3.303   9.618 -1.3188  2.8479  0.1183
  351TMC3    H1 5264   2.864   3.252   9.794  0.4918 -0.8486  1.4186
  351TMC3    H2 5265   3.060   2.920   9.620 -2.2385  0.3280 -0.9414
  351TMC3    C7 5266   2.832   3.008   9.711  0.1881 -0.7238  0.0315
  351TMC3    C8 5267   3.269   3.070   9.519 -0.0582 -0.2267 -0.5930
  351TMC3    O1 5268   2.741   3.056   9.783 -0.1103 -0.3332  0.5523
  351TMC3    O2 5269   3.356   3.147   9.493  0.2424  0.7781  0.7037
  352MPD2     C 5270   0.942   0.614   1.554  0.0052  0.3674 -0.6692
  352MPD2    C1 5271   1.055   0.637   1.481 -0.7144 -1.1426 -0.4444
  352MPD2    C2 5272   1.151   0.534   1.488  0.1933 -0.9059 -0.1504
  352MPD2    C3 5273   1.121   0.411   1.548 -0.4842  0.7146  0.1795
  352MPD2    C4 5274   1.008   0.393   1.619 -0.0501 -0.3872 -0.4432
  352MPD2    C5 5275   0.918   0.493   1.618  0.2518  0.3331  0.1845
  352MPD2     H 5276   1.244   0.549   1.434  1.4073 -1.6987  1.7375
  352MPD2    H1 5277   0.986   0.293   1.654 -0.1751  0.2966  1.4045
  352MPD2    H2 5278   0.869   0.694   1.567  1.0226  1.2448 -0.3697
  352MPD2    H3 5279   0.820   0.479   1.663  0.1178 -0.1799 -0.2692
  352MPD2     N 5280   1.214   0.301   1.555  0.4686  0.1714  0.0033
  352MPD2    H5 5281   1.178   0.209   1.579  0.3672  0.2226  0.0464
  352MPD2    N1 5282   1.067   0.754   1.399 -0.8135 -0.4910  0.1360
  352MPD2    H7 5283   0.994   0.823   1.412 -0.1778  0.2061 -0.0097
  353TMC3    C1 5284   1.414   0.184   1.555 -0.2483  0.3268 -0.3800
  353TMC3    C2 5285   1.554   0.180   1.548  0.5960  0.3444  0.3103
  353TMC3    C3 5286   1.616   0.073   1.489  0.2978 -0.0526  0.3931
  353TMC3    C4 5287   1.341   0.081   1.505 -0.7527  0.2872 -0.2327
  353TMC3    C5 5288   1.408   4.705   1.442 -0.2375  0.0804 -0.0761
  353TMC3    C6 5289   1.543   4.699   1.433 -0.2194  0.6216  0.4193
  353TMC3     C 5290   1.351   0.315   1.539 -0.0844 -0.1159 -0.4704
  353TMC3     O 5291   1.417   0.422   1.541 -0.1460  0.5155  0.0576
  353TMC3     H 5292   1.610   0.265   1.585 -2.8045  1.8271  2.1438
  353TMC3    H1 5293   1.234   0.081   1.495 -0.7469 -1.2895 -0.3852
  353TMC3    H2 5294   1.586   4.607   1.395 -3.0804 -0.0685 -1.1137
  353TMC3    C7 5295   1.341   4.593   1.377  0.0003  0.0560  0.4902
  353TMC3    C8 5296   1.765   0.076   1.495  0.3709 -0.2177  0.3561
  353TMC3    O1 5297   1.236   4.557   1.427 -0.3830 -0.0376 -0.2930
  353TMC3    O2 5298   1.807   0.170   1.550 -0.0240  0.5151  0.4376
  354TMC3    C1 5299   3.191   1.754  12.725  0.4014 -0.3517 -0.2375
  354TMC3    C2 5300   3.184   1.890  12.727 -0.4922  0.4459 -0.3950
  354TMC3    C3 5301   3.251   1.955  12.629 -0.3367  0.1280  0.0027
  354TMC3    C4 5302   3.272   1.688  12.637  0.1000 -1.0248 -0.1446
  354TMC3    C5 5303   3.362   1.758  12.558  0.0066 -0.6083  0.0609
  354TMC3    C6 5304   3.350   1.891  12.554  1.1658  0.1316  0.4590
  354TMC3     C 5305   3.151   1.679  12.834  0.1863  0.2855  0.2584
  354TMC3     O 5306   3.106   1.564  12.822  0.2022  0.3554 -0.8584
  354TMC3     H 5307   3.107   1.925  12.795 -0.2350 -1.2563  0.7672
  354TMC3    H1 5308   3.301   1.589  12.671 -0.5897 -0.3655  2.3767
  354TMC3    H2 5309   3.399   1.953  12.481 -1.8107  1.6295 -0.2985
  354TMC3    C7 5310   3.495   1.704  12.548  0.2354 -0.9598  0.7784
  354TMC3    C8 5311   3.235   2.097  12.608  0.0045  0.7513  0.1143
  354TMC3    O1 5312   3.501   1.588  12.582 -0.2163 -0.3617 -0.2112
  354TMC3    O2 5313   3.284   2.148  12.506  0.2338  0.0785 -0.2524
  355MPD2     C 5314   3.489   2.643  11.800 -0.3200 -0.1774  0.8373
  355MPD2    C1 5315   3.496   2.665  11.666  0.0808  0.7642  0.0728
  355MPD2    C2 5316   3.613   2.714  11.618 -0.2282  0.3855 -0.0857
  355MPD2    C3 5317   3.726   2.730  11.692  0.3543 -0.8472 -0.0296
  355MPD2    C4 5318   3.722   2.703  11.832  0.0332 -0.3274 -0.3244
  355MPD2    C5 5319   3.599   2.664  11.881 -0.1448  0.2335  0.0887
  355MPD2     H 5320   3.604   2.746  11.515 -2.4182 -0.1662 -0.0657
  355MPD2    H1 5321   3.810   2.716  11.894 -1.1263  0.3312  1.1718
  355MPD2    H2 5322   3.391   2.632  11.844 -0.5516  1.7278  0.7784
  355MPD2    H3 5323   3.582   2.668  11.988 -1.6489 -1.5592 -0.0898
  355MPD2     N 5324   3.835   2.801  11.638  1.0779 -0.3822 -0.5431
  355MPD2    H5 5325   3.907   2.823  11.705  2.2923  0.8728 -2.2543
  355MPD2    N1 5326   3.374   2.647  11.595 -0.7003  0.3650 -1.3436
  355MPD2    H7 5327   3.309   2.586  11.643  0.7334 -1.5295 -1.8204
  356TMC3    C1 5328   3.948   2.958  11.506 -0.3596 -0.6781  0.1231
  356TMC3    C2 5329   3.994   2.988  11.383  0.5002 -0.4628  0.7478
  356TMC3    C3 5330   4.059   3.105  11.368  0.2623 -0.2552 -0.3805
  356TMC3    C4 5331   3.953   3.047  11.616  0.1843 -0.3737 -0.3817
  356TMC3    C5 5332   4.022   3.159  11.596 -0.1492 -0.3702  0.5242
  356TMC3    C6 5333   4.080   3.189  11.474  0.0361  0.2085 -0.5883
  356TMC3     C 5334   3.849   2.849  11.515 -0.2355 -0.6331 -0.9907
  356TMC3     O 5335   3.810   2.808  11.408 -0.1005  0.3436 -0.4472
  356TMC3     H 5336   3.978   2.911  11.308 -3.6469  0.1121  1.0105
  356TMC3    H1 5337   3.914   3.012  11.711 -0.3736 -0.5083 -0.6568
  356TMC3    H2 5338   4.110   3.290  11.448  0.6313  0.5528  1.4452
  356TMC3    C7 5339   4.059   3.229  11.722 -0.5942 -0.1103 -0.4107
  356TMC3    C8 5340   4.147   3.114  11.255 -0.2577  0.1210 -0.1724
  356TMC3    O1 5341   4.005   3.178  11.818  0.8593  0.1727  0.7192
  356TMC3    O2 5342   4.120   3.044  11.160 -0.2392 -0.2429  0.0398
  357MPD2     C 5343   2.891   2.279   1.618  0.3616  0.6370  0.3448
  357MPD2    C1 5344   2.969   2.382   1.664 -0.5282 -0.0601 -0.1757
  357MPD2    C2 5345   2.952   2.431   1.792  0.4259 -0.9442  0.6202
  357MPD2    C3 5346   2.868   2.351   1.876 -0.7548  0.2284  0.6332
  357MPD2    C4 5347   2.798   2.239   1.831 -0.4737 -0.4913  0.3843
  357MPD2    C5 5348   2.808   2.216   1.698  0.1949  0.3051  0.0547
  357MPD2     H 5349   3.007   2.519   1.821  3.2127 -2.4856  0.0589
  357MPD2    H1 5350   2.722   2.182   1.883 -1.1789  2.0586  2.1681
  357MPD2    H2 5351   2.899   2.251   1.513 -2.7136  0.5856  0.1269
  357MPD2    H3 5352   2.735   2.143   1.664 -0.4030  0.7075  0.4594
  357MPD2     N 5353   2.870   2.357   2.014 -0.7444  0.7807 -0.8761
  357MPD2    H5 5354   2.818   2.284   2.063 -1.4741  1.2219 -0.9923
  357MPD2    N1 5355   3.064   2.438   1.577 -0.1843 -0.2044 -0.3423
  357MPD2    H7 5356   3.069   2.393   1.486  0.3549  0.9824 -0.9074
  358TMC3    C1 5357   3.251   2.562   1.511 -0.0070  0.3436 -0.0431
  358TMC3    C2 5358   3.258   2.487   1.398 -0.4165 -0.3750  0.0794
  358TMC3    C3 5359   3.376   2.458   1.331 -0.2246 -0.6307 -0.0476
  358TMC3    C4 5360   3.367   2.630   1.555  0.0116  0.1707  0.3797
  358TMC3    C5 5361   3.484   2.593   1.489  0.3289 -0.0582 -0.0376
  358TMC3    C6 5362   3.488   2.509   1.382  0.3810 -0.3269  0.1548
  358TMC3     C 5363   3.151   2.539   1.608 -0.3454 -0.5432 -0.8759
  358TMC3     O 5364   3.142   2.622   1.698 -0.3691 -0.1157  0.4261
  358TMC3     H 5365   3.177   2.427   1.358 -0.8395 -0.6981  1.4000
  358TMC3    H1 5366   3.369   2.684   1.649  1.1043  1.2030 -0.2415
  358TMC3    H2 5367   3.581   2.517   1.326  0.6580 -0.4552  0.6009
  358TMC3    C7 5368   3.613   2.645   1.542 -0.2444 -0.5346  0.2682
  358TMC3    C8 5369   3.376   2.378   1.210 -0.4415 -0.4063 -0.7653
  358TMC3    O1 5370   3.586   2.739   1.619 -0.0339 -0.5415 -0.0248
  358TMC3    O2 5371   3.273   2.358   1.143  0.2153  0.2962 -0.5011
  359MPD2     C 5372   3.545   2.046  11.834 -0.6491  0.0311  0.7359
  359MPD2    C1 5373   3.637   1.942  11.859  0.0703 -0.7202  0.1739
  359MPD2    C2 5374   3.595   1.815  11.902 -0.0797 -0.9337 -0.6854
  359MPD2    C3 5375   3.450   1.792  11.897  0.1127  0.1698 -0.6559
  359MPD2    C4 5376   3.364   1.891  11.865  0.1278 -0.7528  0.6003
  359MPD2    C5 5377   3.412   2.015  11.845 -0.2505 -0.0044 -0.5642
  359MPD2     H 5378   3.667   1.737  11.925  0.1002  0.2748  2.7058
  359MPD2    H1 5379   3.259   1.883  11.888  0.2424 -0.9824  1.0513
  359MPD2    H2 5380   3.568   2.151  11.819 -0.7189 -0.1695 -0.7485
  359MPD2    H3 5381   3.335   2.090  11.829 -0.7822 -0.7899 -1.6325
  359MPD2     N 5382   3.398   1.663  11.922  0.3170 -0.2318  0.0660
  359MPD2    H5 5383   3.297   1.662  11.907  0.4858 -4.6250 -0.9316
  359MPD2    N1 5384   3.776   1.951  11.828  0.1105 -0.5460  0.3036
  359MPD2    H7 5385   3.828   1.867  11.853  0.0959 -0.8849 -0.7992
  360TMC3    C1 5386   3.975   2.000  11.718  0.4150 -0.2140  0.3252
  360TMC3    C2 5387   4.068   2.088  11.673  0.0014 -0.1158  0.2504
  360TMC3    C3 5388   4.191   2.028  11.648 -0.1685  0.5050 -0.1302
  360TMC3    C4 5389   3.991   1.862  11.707 -0.8198 -0.4518 -0.0968
  360TMC3    C5 5390   4.099   1.812  11.643 -0.3494 -0.1152 -0.0964
  360TMC3    C6 5391   4.204   1.893  11.625  0.0315 -0.1068 -0.2956
  360TMC3     C 5392   3.846   2.049  11.767  0.7805 -0.4590  0.0963
  360TMC3     O 5393   3.815   2.163  11.731 -0.0700  0.2339  0.3969
  360TMC3     H 5394   4.058   2.190  11.708  1.2542  0.1649 -0.2373
  360TMC3    H1 5395   3.904   1.799  11.701 -1.1358  0.1024 -1.2773
  360TMC3    H2 5396   4.281   1.850  11.561 -0.5974 -0.8177 -0.5673
  360TMC3    C7 5397   4.061   1.724  11.541 -0.4833 -0.2198  0.0980
  360TMC3    C8 5398   4.302   2.108  11.618  0.0501 -0.3019  0.3771
  360TMC3    O1 5399   4.033   1.776  11.434  0.3248  0.5031  0.2871
  360TMC3    O2 5400   4.270   2.215  11.566  0.1924 -0.2650 -0.2373
  361MPD2     C 5401   0.292   0.243  16.670  0.2016 -0.0860  0.4180
  361MPD2    C1 5402   0.355   0.349  16.722 -0.2788 -0.5632  0.0872
  361MPD2    C2 5403   0.494   0.356  16.722 -0.2264  0.4118 -0.1510
  361MPD2    C3 5404   0.574   0.240  16.696  0.5339  0.5332  0.2948
  361MPD2    C4 5405   0.505   0.128  16.653  0.1392  0.2976 -0.1616
  361MPD2    C5 5406   0.368   0.133  16.633 -0.3588 -0.3804 -0.3916
  361MPD2     H 5407   0.537   0.441  16.773  1.4062 -0.0361 -0.7866
  361MPD2    H1 5408   0.560   0.036  16.636 -1.6238 -0.8271  0.2330
  361MPD2    H2 5409   0.186   0.237  16.650  0.4013 -2.0459 -0.0402
  361MPD2    H3 5410   0.311   0.043  16.615 -2.0202  1.2595 -3.1967
  361MPD2     N 5411   0.710   0.222  16.720  0.5535 -0.0194  0.2916
  361MPD2    H5 5412   0.749   0.128  16.717  0.7424  0.0651  0.0436
  361MPD2    N1 5413   0.283   0.468  16.760 -0.3212 -0.3578 -0.2839
  361MPD2    H7 5414   0.338   0.546  16.793 -0.2210  0.7390 -3.0638
  362TMC3    C1 5415   0.092   0.586  16.833  0.1013  0.3785 -0.1014
  362TMC3    C2 5416   4.714   0.575  16.927 -0.0602  0.1862  0.8358
  362TMC3    C3 5417   4.641   0.690  16.965  0.2040 -0.4047 -0.8465
  362TMC3    C4 5418   0.103   0.697  16.754 -0.1361  0.5761  0.1603
  362TMC3    C5 5419   0.014   0.797  16.786  0.1897 -0.1160  0.0674
  362TMC3    C6 5420   4.639   0.798  16.877  0.4783 -0.6475 -0.2280
  362TMC3     C 5421   0.151   0.456  16.803  0.7149 -0.0789 -0.5275
  362TMC3     O 5422   0.083   0.359  16.821  0.1167 -0.1401 -0.3422
  362TMC3     H 5423   4.699   0.485  16.986 -0.5373  0.0530  0.5124
  362TMC3    H1 5424   0.178   0.707  16.677  0.4122 -3.5908  0.1597
  362TMC3    H2 5425   4.576   0.883  16.899  1.6903  0.5602 -1.3834
  362TMC3    C7 5426   4.719   0.904  16.690 -0.2228 -0.4930 -0.2723
  362TMC3    C8 5427   4.523   0.667  17.035 -0.1021 -0.6015 -0.1631
  362TMC3    O1 5428   4.689   1.015  16.732  0.8463  0.3779 -0.2070
  362TMC3    O2 5429   4.465   0.562  17.017  0.4583  0.4453  0.6416
  363TMC3    C1 5430   4.067   3.540   9.388 -0.8347 -0.4917  0.4109
  363TMC3    C2 5431   4.072   3.418   9.444 -0.2046  0.4153 -0.3671
  363TMC3    C3 5432   3.958   3.347   9.456  0.3029 -0.6043 -0.3999
  363TMC3    C4 5433   3.948   3.592   9.333  0.4000 -0.4698  0.0311
  363TMC3    C5 5434   3.834   3.521   9.348  0.1212 -0.4176 -0.7839
  363TMC3    C6 5435   3.836   3.397   9.414 -0.0187 -0.7436  0.1616
  363TMC3     C 5436   4.192   3.620   9.396 -0.0680  0.1244 -0.3432
  363TMC3     O 5437   4.296   3.561   9.423 -0.6674 -0.4394 -0.0161
  363TMC3     H 5438   4.162   3.378   9.489 -0.2698 -2.4740 -2.7307
  363TMC3    H1 5439   3.960   3.668   9.257 -0.6623  0.1581  0.4949
  363TMC3    H2 5440   3.747   3.339   9.433  0.0006 -0.7023  0.3860
  363TMC3    C7 5441   3.704   3.568   9.300 -0.7053  0.6962  0.0520
  363TMC3    C8 5442   3.950   3.214   9.514 -0.0659 -0.0658  0.1768
  363TMC3    O1 5443   3.622   3.484   9.287 -0.3234 -0.1425  0.0304
  363TMC3    O2 5444   3.854   3.185   9.586  0.1537  0.3705 -0.2772
  364MPD2     C 5445   2.517   2.234  10.121  0.0376  0.6275  0.0067
  364MPD2    C1 5446   2.631   2.188  10.056 -0.3249  0.1565 -0.1895
  364MPD2    C2 5447   2.672   2.057  10.063  0.3810  0.5677 -0.0176
  364MPD2    C3 5448   2.593   1.972  10.140 -0.1226 -0.2631 -0.5187
  364MPD2    C4 5449   2.489   2.018  10.213 -0.1566 -0.0779 -0.4988
  364MPD2    C5 5450   2.452   2.150  10.204  0.3883  0.3940 -0.1512
  364MPD2     H 5451   2.770   2.026  10.028  1.5272  1.9907  1.8855
  364MPD2    H1 5452   2.438   1.964  10.292 -0.3446  2.4720  1.1307
  364MPD2    H2 5453   2.492   2.339  10.120 -0.2093  0.5344 -2.2920
  364MPD2    H3 5454   2.364   2.174  10.262  0.2764 -0.2170 -0.0669
  364MPD2     N 5455   2.640   1.841  10.172  0.0783 -0.0404 -0.6520
  364MPD2    H5 5456   2.585   1.788  10.239 -1.2535  0.9062 -0.9993
  364MPD2    N1 5457   2.713   2.286   9.995 -0.4026 -0.3117 -0.3033
  364MPD2    H7 5458   2.680   2.382   9.988  2.8059  0.7498 -0.7868
  365TMC3    C1 5459   2.900   2.365   9.863 -0.0979 -0.0721  0.1233
  365TMC3    C2 5460   2.979   2.336   9.756  0.2846 -0.3402  0.0152
  365TMC3    C3 5461   3.056   2.433   9.702  0.2415  0.3673 -0.8079
  365TMC3    C4 5462   2.893   2.492   9.917 -0.2730 -0.1914 -0.0150
  365TMC3    C5 5463   2.974   2.589   9.859  0.4428  0.1178 -0.3132
  365TMC3    C6 5464   3.070   2.554   9.762  0.5082  0.0159  0.2176
  365TMC3     C 5465   2.826   2.252   9.916  0.0148  0.0332  0.2770
  365TMC3     O 5466   2.867   2.146   9.876  0.3742  0.5170 -0.2494
  365TMC3     H 5467   2.979   2.239   9.708  0.2590 -0.5132  0.3690
  365TMC3    H1 5468   2.825   2.508  10.000  0.3751 -0.3656  0.5535
  365TMC3    H2 5469   3.130   2.626   9.708  0.1521  0.6385  0.6571
  365TMC3    C7 5470   2.976   2.722   9.909 -0.6971  0.1615  0.3728
  365TMC3    C8 5471   3.123   2.407   9.577  0.0692  0.1930  0.3839
  365TMC3    O1 5472   3.054   2.800   9.859  0.7638 -0.3306 -0.1472
  365TMC3    O2 5473   3.106   2.489   9.488  0.0291 -0.1960  0.7038
  366MPD2     C 5474   0.944   3.646  15.252 -0.2064 -0.4249 -0.1897
  366MPD2    C1 5475   1.069   3.674  15.301  0.2735  0.8141 -0.1255
  366MPD2    C2 5476   1.165   3.578  15.319 -0.7514  0.4339 -0.3619
  366MPD2    C3 5477   1.134   3.449  15.274  0.1905 -0.0148 -0.1611
  366MPD2    C4 5478   1.008   3.426  15.231  1.1096 -0.6709 -0.8050
  366MPD2    C5 5479   0.909   3.519  15.222  0.0178  0.4260  0.0702
  366MPD2     H 5480   1.255   3.603  15.372 -0.9322  1.2541 -0.4466
  366MPD2    H1 5481   0.976   3.324  15.213  0.6416 -0.0839 -3.3774
  366MPD2    H2 5482   0.864   3.718  15.243  0.1022  0.0262  0.6869
  366MPD2    H3 5483   0.805   3.495  15.201 -0.1064  1.3342 -0.3133
  366MPD2     N 5484   1.235   3.345  15.296 -0.4577 -0.3532  0.8732
  366MPD2    H5 5485   1.320   3.383  15.337 -0.0251 -0.6609  0.2612
  366MPD2    N1 5486   1.092   3.812  15.332  0.3085  0.5003 -0.5541
  366MPD2    H7 5487   1.014   3.876  15.322  1.6309  2.2699  0.5502
  367TMC3    C1 5488   1.191   4.022  15.415 -0.2784 -0.1429 -0.9593
  367TMC3    C2 5489   1.278   4.061  15.511 -0.4212 -0.2761  0.8401
  367TMC3    C3 5490   1.280   4.189  15.553 -0.6267  0.2914 -0.2886
  367TMC3    C4 5491   1.124   4.107  15.335  0.8290  0.5983 -0.1286
  367TMC3    C5 5492   1.146   4.240  15.366  0.8906 -0.4765  0.2729
  367TMC3    C6 5493   1.215   4.285  15.482  0.4299 -0.1608 -0.5250
  367TMC3     C 5494   1.207   3.878  15.381 -0.4926  0.4398 -0.0120
  367TMC3     O 5495   1.315   3.834  15.419  0.5607  0.0804  0.1330
  367TMC3     H 5496   1.310   3.983  15.580  0.6004  1.3319  2.1710
  367TMC3    H1 5497   1.070   4.062  15.253  0.1197  0.6800  0.2913
  367TMC3    H2 5498   1.211   4.388  15.517 -0.9567 -0.7655  1.0989
  367TMC3    C7 5499   1.067   4.337  15.291 -0.0246 -0.3634  0.6857
  367TMC3    C8 5500   1.370   4.215  15.657  0.2780 -0.7468  0.2580
  367TMC3    O1 5501   1.019   4.437  15.345 -0.2592 -1.1496 -0.3777
  367TMC3    O2 5502   1.449   4.125  15.670 -0.1443 -0.6317  0.5222
  368MPD2     C 5503   2.324   0.559  12.995  0.1722  0.5190 -0.1287
  368MPD2    C1 5504   2.258   0.663  12.938  0.5383 -0.0105  0.2061
  368MPD2    C2 5505   2.325   0.730  12.835  0.3025 -0.1011 -0.6722
  368MPD2    C3 5506   2.454   0.702  12.797 -0.7580 -0.3767 -0.6764
  368MPD2    C4 5507   2.513   0.596  12.856 -0.6423  0.1946  0.5402
  368MPD2    C5 5508   2.458   0.523  12.958 -0.1194 -1.2467 -1.0948
  368MPD2     H 5509   2.262   0.805  12.788 -0.4318  1.1528  2.2926
  368MPD2    H1 5510   2.605   0.557  12.816 -1.2260 -1.7578  1.1314
  368MPD2    H2 5511   2.269   0.508  13.073 -0.0868 -0.7749 -1.1421
  368MPD2    H3 5512   2.517   0.451  13.012 -0.4089 -1.4726 -1.0789
  368MPD2     N 5513   2.533   0.768  12.708 -0.1857  0.3160  0.0047
  368MPD2    H5 5514   2.627   0.730  12.702 -0.2360  0.3743 -1.1336
  368MPD2    N1 5515   2.126   0.702  12.986 -0.5833 -0.2987  0.2231
  368MPD2    H7 5516   2.078   0.636  13.047 -0.3217  2.2229  3.1336
  369TMC3    C1 5517   1.926   0.811  13.020  0.0230 -0.2346 -0.0974
  369TMC3    C2 5518   1.883   0.941  13.026 -0.5133 -0.1100  0.3285
  369TMC3    C3 5519   1.753   0.968  12.994  0.7583  0.0879  0.7173
  369TMC3    C4 5520   1.840   0.712  12.976 -0.1204  0.5550  0.5309
  369TMC3    C5 5521   1.706   0.741  12.954 -0.6116  0.5008  0.3671
  369TMC3    C6 5522   1.660   0.868  12.984 -0.2353 -0.4076 -0.5913
  369TMC3     C 5523   2.060   0.817  12.965  0.0589 -0.2739 -0.1536
  369TMC3     O 5524   2.111   0.917  12.923 -0.0799  0.3980  0.0024
  369TMC3     H 5525   1.957   1.018  13.042  0.4324 -1.0793  0.6406
  369TMC3    H1 5526   1.884   0.619  12.943  0.2229  0.2621  1.8187
  369TMC3    H2 5527   1.556   0.896  12.967 -0.1868  0.5661  0.7319
  369TMC3    C7 5528   1.622   0.642  12.885 -0.1014  0.0288 -0.3871
  369TMC3    C8 5529   1.712   1.098  12.943  0.9124 -0.4022 -0.0355
  369TMC3    O1 5530   1.636   0.523  12.908  0.6788 -0.6063  0.3141
  369TMC3    O2 5531   1.595   1.106  12.912  0.3508  0.5127  0.3547
  370TMC3    C1 5532   1.632   1.374  16.135  0.0619  0.8973  0.3608
  370TMC3    C2 5533   1.571   1.303  16.229 -0.3033 -0.2756 -0.3983
  370TMC3    C3 5534   1.506   1.188  16.191 -0.3798  0.2064  0.2828
  370TMC3    C4 5535   1.632   1.336  16.002  0.2943  0.0336 -0.4937
  370TMC3    C5 5536   1.574   1.217  15.967  0.1635 -0.2376  0.1413
  370TMC3    C6 5537   1.520   1.136  16.064  0.0556 -0.3122  0.2144
  370TMC3     C 5538   1.745   1.451  16.186 -0.1107 -0.0324 -0.0162
  370TMC3     O 5539   1.775   1.453  16.304 -0.2349 -0.7237 -0.5023
  370TMC3     H 5540   1.568   1.340  16.330  1.6118 -1.3403  0.0532
  370TMC3    H1 5541   1.683   1.393  15.926  0.9853 -0.1434 -0.1643
  370TMC3    H2 5542   1.476   1.037  16.054 -1.2880  0.0492  2.3850
  370TMC3    C7 5543   1.618   1.176  15.833  0.1830  0.3262  0.7347
  370TMC3    C8 5544   1.455   1.097  16.297 -0.4150 -0.1921  0.4749
  370TMC3    O1 5545   1.641   1.257  15.742 -0.4061  0.4292 -0.4331
  370TMC3    O2 5546   1.446   0.975  16.276  0.0627 -0.1206  0.6610
  371TMC3    C1 5547   2.696   4.118  15.669  0.5833 -0.1571  0.3806
  371TMC3    C2 5548   2.610   4.218  15.685  0.4068  0.0154  0.2168
  371TMC3    C3 5549   2.620   4.318  15.602 -0.7550 -0.2647  0.1818
  371TMC3    C4 5550   2.797   4.119  15.585  0.2335  0.0587 -0.3478
  371TMC3    C5 5551   2.823   4.234  15.521 -0.5028 -0.4948 -0.6365
  371TMC3    C6 5552   2.729   4.331  15.521  0.5359  0.1460 -0.2397
  371TMC3     C 5553   2.688   4.011  15.771  0.0746 -0.4725  0.0624
  371TMC3     O 5554   2.634   4.042  15.876  0.1638  0.2519 -0.2882
  371TMC3     H 5555   2.515   4.197  15.735  0.1252 -2.4244 -1.3812
  371TMC3    H1 5556   2.877   4.047  15.594  2.3939  1.9567 -4.3770
  371TMC3    H2 5557   2.733   4.421  15.461 -0.1655  0.3559  0.0356
  371TMC3    C7 5558   2.951   4.240  15.448  0.6566  0.1989 -0.1698
  371TMC3    C8 5559   2.495   4.341  15.545  0.1867 -0.3666 -0.1593
  371TMC3    O1 5560   3.036   4.154  15.463  0.5223 -0.4800 -0.1434
  371TMC3    O2 5561   2.446   4.254  15.471  0.8290  0.5883 -0.5921
  372MPD2     C 5562   3.259   0.090  13.414 -0.1327 -0.1456 -0.2309
  372MPD2    C1 5563   3.247   4.681  13.465  0.4652 -0.3150 -0.4246
  372MPD2    C2 5564   3.117   4.623  13.460 -0.4285 -0.0547  0.3466
  372MPD2    C3 5565   3.015   4.684  13.394 -0.1360 -0.0412 -0.2076
  372MPD2    C4 5566   3.035   0.088  13.342 -0.0439 -0.4263 -0.2885
  372MPD2    C5 5567   3.154   0.152  13.359 -0.4756  0.0538 -0.5892
  372MPD2     H 5568   3.097   4.530  13.512  0.1887 -0.2611  0.2230
  372MPD2    H1 5569   2.958   0.140  13.286 -0.2015  0.8671  1.1308
  372MPD2    H2 5570   3.356   0.139  13.409  0.4315 -1.2039  0.2299
  372MPD2    H3 5571   3.169   0.250  13.314 -1.2807  0.5163  0.1586
  372MPD2     N 5572   2.896   4.606  13.380  0.0939  0.4393  0.3473
  372MPD2    H5 5573   2.898   4.508  13.408 -0.4107  0.7666  1.5389
  372MPD2    N1 5574   3.359   4.605  13.503  0.7243  0.2542 -0.1647
  372MPD2    H7 5575   3.336   4.509  13.526 -0.5090  0.4849 -0.4231
  373TMC3    C1 5576   2.663   4.574  13.351  0.4025 -0.0679  0.3296
  373TMC3    C2 5577   2.567   4.606  13.445 -0.6313  0.3365 -0.9358
  373TMC3    C3 5578   2.474   4.519  13.481  0.0643 -0.4272 -0.8492
  373TMC3    C4 5579   2.670   4.445  13.296  0.3511 -0.2656  0.0544
  373TMC3    C5 5580   2.560   4.361  13.326 -0.5691  0.3029  0.1584
  373TMC3    C6 5581   2.466   4.397  13.416  0.7648 -0.5862  0.2801
  373TMC3     C 5582   2.776   4.658  13.353 -0.0481 -0.5170  0.4739
  373TMC3     O 5583   2.745   0.051  13.332  0.5628  0.3993 -0.2505
  373TMC3     H 5584   2.586   4.695  13.504 -0.1966  0.2497 -0.9503
  373TMC3    H1 5585   2.742   4.421  13.218 -1.2531  1.1656 -1.8759
  373TMC3    H2 5586   2.395   4.326  13.457 -1.7858  0.8063 -1.6920
  373TMC3    C7 5587   2.573   4.222  13.303 -0.2524 -0.4331 -0.6334
  373TMC3    C8 5588   2.415   4.522  13.613  0.0962  0.3396  0.7087
  373TMC3    O1 5589   2.469   4.155  13.310  0.2405  0.3055 -0.2769
  373TMC3    O2 5590   2.300   4.480  13.636  0.0089 -0.1100  0.2143
  374TMC3    C1 5591   2.884   0.840   9.380 -0.9184 -0.0744  0.0306
  374TMC3    C2 5592   3.004   0.905   9.408  0.7447  0.4832  0.0575
  374TMC3    C3 5593   3.096   0.924   9.306 -0.3353 -0.8904  0.5778
  374TMC3    C4 5594   2.863   0.793   9.250 -0.0633 -0.6679 -0.0876
  374TMC3    C5 5595   2.956   0.813   9.157  0.2224  0.4437 -0.6077
  374TMC3    C6 5596   3.078   0.880   9.181  0.2394 -0.3640  0.0429
  374TMC3     C 5597   2.782   0.853   9.474  0.3445 -0.1103  0.2656
  374TMC3     O 5598   2.810   0.914   9.576  0.1817 -0.6174 -0.2474
  374TMC3     H 5599   3.013   0.950   9.506 -2.9623  1.3685  0.0088
  374TMC3    H1 5600   2.770   0.740   9.234 -0.5226 -0.2401  1.1823
  374TMC3    H2 5601   3.165   0.879   9.117  0.6633  0.8029  0.5989
  374TMC3    C7 5602   2.945   0.740   9.030  0.4297 -0.0669 -0.5658
  374TMC3    C8 5603   3.221   0.992   9.325 -0.0109 -0.0462 -0.1591
  374TMC3    O1 5604   2.858   0.652   9.028  0.6659  0.1989  0.0821
  374TMC3    O2 5605   3.282   1.037   9.227  0.4869  0.2718 -0.3289
  375MPD2     C 5606   3.177   1.792  17.082  0.5415  0.4895  0.3708
  375MPD2    C1 5607   3.124   1.825  16.961 -0.2707  0.8017  0.1847
  375MPD2    C2 5608   3.186   1.766  16.852 -0.0620 -0.1532 -0.0821
  375MPD2    C3 5609   3.304   1.690  16.859  0.7385 -0.1885  0.3824
  375MPD2    C4 5610   3.355   1.668  16.982  1.1040 -0.4951  0.1320
  375MPD2    C5 5611   3.292   1.719  17.090  0.4543 -0.3871 -0.2025
  375MPD2     H 5612   3.147   1.804  16.758 -0.5887 -0.9860 -0.1956
  375MPD2    H1 5613   3.442   1.606  16.993  0.5368 -1.7280 -2.2252
  375MPD2    H2 5614   3.137   1.822  17.178  1.4741  0.8612  0.6360
  375MPD2    H3 5615   3.332   1.698  17.188  0.3839 -0.5425 -0.2070
  375MPD2     N 5616   3.363   1.631  16.747 -0.0351  0.0473 -0.2151
  375MPD2    H5 5617   3.449   1.581  16.765  0.6855  0.5377 -2.3929
  375MPD2    N1 5618   3.009   1.905  16.933  0.3169 -0.5148  0.3674
  375MPD2    H7 5619   2.987   1.920  16.835 -1.0335 -1.4355  0.5310
  376TMC3    C1 5620   3.391   1.547  16.529 -0.5450  0.6175  0.2796
  376TMC3    C2 5621   3.525   1.531  16.561 -0.0896 -0.0188 -0.1005
  376TMC3    C3 5622   3.609   1.479  16.459 -0.1799 -1.1756 -0.1777
  376TMC3    C4 5623   3.344   1.504  16.405  0.2957 -0.3214 -0.0862
  376TMC3    C5 5624   3.426   1.438  16.316 -0.2865 -1.5724 -0.7262
  376TMC3    C6 5625   3.559   1.431  16.336 -0.2822 -0.7287 -0.4326
  376TMC3     C 5626   3.301   1.610  16.627  0.5923 -0.7358  0.4795
  376TMC3     O 5627   3.182   1.627  16.601 -0.0218  0.1489 -0.0399
  376TMC3     H 5628   3.566   1.572  16.652  2.6844  1.0022 -1.8185
  376TMC3    H1 5629   3.239   1.526  16.388 -0.5709 -2.5344  2.3711
  376TMC3    H2 5630   3.624   1.383  16.264  0.6554 -0.5543  0.2967
  376TMC3    C7 5631   3.372   1.439  16.184  0.2032  0.0742  0.6574
  376TMC3    C8 5632   3.748   1.519  16.449  0.4695  0.2816 -0.8387
  376TMC3    O1 5633   3.455   1.443  16.094 -0.3061 -0.1752  0.3232
  376TMC3    O2 5634   3.809   1.506  16.345  0.4313 -0.3047  0.2315
  377MPD2     C 5635   0.743   1.148  12.294 -0.1514 -0.0017  0.7951
  377MPD2    C1 5636   0.822   1.092  12.386 -0.5194  0.7459  0.5566
  377MPD2    C2 5637   0.763   1.019  12.490  0.4339  0.6712  0.2848
  377MPD2    C3 5638   0.629   1.020  12.511 -0.2872  0.6538 -0.1687
  377MPD2    C4 5639   0.550   1.094  12.428 -0.1617 -0.5310  0.2326
  377MPD2    C5 5640   0.605   1.151  12.315  1.3241  0.1908 -0.1662
  377MPD2     H 5641   0.826   0.965  12.560  1.5249 -0.7483 -1.8136
  377MPD2    H1 5642   0.447   1.108  12.456 -0.4361 -0.1482 -0.9598
  377MPD2    H2 5643   0.788   1.188  12.203 -1.1093  0.8321  0.6964
  377MPD2    H3 5644   0.541   1.200  12.243  1.4204 -0.8166 -0.9313
  377MPD2     N 5645   0.551   0.944  12.604  0.3861  0.0200  0.1676
  377MPD2    H5 5646   0.450   0.954  12.602  0.3392 -0.7201 -1.3649
  377MPD2    N1 5647   0.959   1.097  12.354  0.0752 -0.5839 -0.1233
  377MPD2    H7 5648   0.994   1.175  12.299  1.5441 -1.4370 -0.3801
  378TMC3    C1 5649   1.328   1.143  12.211  0.6896  0.9998 -0.0174
  378TMC3    C2 5650   1.201   1.103  12.244 -0.0206 -0.0213 -0.4596
  378TMC3    C3 5651   1.186   1.053  12.368 -0.3761  0.1811 -0.7546
  378TMC3    C4 5652   1.441   1.115  12.293 -0.2248  0.1062  0.8164
  378TMC3    C5 5653   1.415   1.050  12.409 -0.4199 -0.4748 -0.5517
  378TMC3    C6 5654   1.286   1.010  12.442 -0.1969 -0.9088  0.2564
  378TMC3     C 5655   1.351   1.205  12.078 -0.4720  0.5258 -0.4290
  378TMC3     O 5656   1.258   1.275  12.041 -0.1025  0.5618  0.3700
  378TMC3     H 5657   1.117   1.139  12.185  0.1481  0.8082 -0.1980
  378TMC3    H1 5658   1.538   1.156  12.268  0.4594 -1.2064  1.3300
  378TMC3    H2 5659   1.274   0.950  12.531  0.9805  0.0908  1.0873
  378TMC3    C7 5660   1.528   0.991  12.477  0.2527 -0.3939 -0.9314
  378TMC3    C8 5661   1.052   1.021  12.414 -0.1869 -0.5008 -0.2054
  378TMC3    O1 5662   1.503   0.948  12.589 -0.1503  0.3296 -0.3751
  378TMC3    O2 5663   1.052   0.912  12.477 -0.2406 -0.6460  0.5217
  379MPD2     C 5664   2.596   4.010  16.249 -0.5606  0.0954 -0.4267
  379MPD2    C1 5665   2.470   3.965  16.283  0.2931 -0.4771 -0.8108
  379MPD2    C2 5666   2.460   3.873  16.390  0.2857  0.6134 -0.3825
  379MPD2    C3 5667   2.577   3.834  16.454 -0.7074 -0.1516  0.2317
  379MPD2    C4 5668   2.703   3.879  16.418 -0.3772 -0.2061 -0.9795
  379MPD2    C5 5669   2.712   3.971  16.313 -0.1411  0.1497  0.6712
  379MPD2     H 5670   2.360   3.844  16.420  1.0555 -1.2777  0.3590
  379MPD2    H1 5671   2.783   3.854  16.486 -1.4219  0.9003  0.6623
  379MPD2    H2 5672   2.617   4.065  16.158 -1.6440  0.6912 -0.3235
  379MPD2    H3 5673   2.809   4.009  16.285 -0.5514  1.4292  0.9818
  379MPD2     N 5674   2.572   3.756  16.572  0.2007 -0.4701 -0.3193
  379MPD2    H5 5675   2.660   3.718  16.606 -0.7109 -0.0407  2.5316
  379MPD2    N1 5676   2.360   4.014  16.208  0.4785 -0.1030  0.4108
  379MPD2    H7 5677   2.386   4.069  16.127 -0.9819 -1.1519 -0.7754
  380TMC3    C1 5678   2.147   4.034  16.114 -0.1563 -0.4541  0.0013
  380TMC3    C2 5679   2.171   3.957  16.006  0.1535 -0.0952  0.0755
  380TMC3    C3 5680   2.114   4.001  15.891 -0.1042  0.3949 -0.1079
  380TMC3    C4 5681   2.056   4.141  16.122 -0.3644  0.3283 -0.0853
  380TMC3    C5 5682   1.987   4.168  16.009 -0.1840 -0.1211  0.4116
  380TMC3    C6 5683   2.015   4.095  15.898  0.0103  0.1133 -0.1829
  380TMC3     C 5684   2.223   4.000  16.233 -0.6494 -0.1604  0.1275
  380TMC3     O 5685   2.164   3.947  16.325  0.7164  0.2198 -0.2923
  380TMC3     H 5686   2.243   3.876  16.009  0.0250 -0.2665 -1.2862
  380TMC3    H1 5687   2.027   4.188  16.215  0.0956  0.1883  0.1301
  380TMC3    H2 5688   1.962   4.128  15.809  0.6010 -1.1183 -0.9833
  380TMC3    C7 5689   1.911   4.290  16.002 -0.8860 -0.6434  0.1249
  380TMC3    C8 5690   2.196   3.996  15.769 -0.7020  0.6405 -0.1419
  380TMC3    O1 5691   1.954   4.382  16.067 -0.2931  0.1976  0.0731
  380TMC3    O2 5692   2.152   4.057  15.676 -0.2849  0.2617  0.3969
  381TMC3    C1 5693   1.435   0.391  16.013  0.3355 -0.7824  0.3886
  381TMC3    C2 5694   1.560   0.452  15.990  0.6777 -0.2601  0.7205
  381TMC3    C3 5695   1.610   0.519  16.095 -0.2351 -0.0718 -0.4050
  381TMC3    C4 5696   1.367   0.388  16.134 -0.0702  0.4893 -0.0827
  381TMC3    C5 5697   1.431   0.453  16.236 -0.1729  0.1853  0.3995
  381TMC3    C6 5698   1.546   0.523  16.220 -0.3384 -0.7336 -0.5209
  381TMC3     C 5699   1.353   0.361  15.897  0.3950 -0.6062  1.0159
  381TMC3     O 5700   1.235   0.389  15.909 -0.5180 -0.5777 -0.5815
  381TMC3     H 5701   1.589   0.467  15.887 -3.1948 -1.7241 -0.6080
  381TMC3    H1 5702   1.267   0.348  16.144 -0.1728  0.5481 -0.8909
  381TMC3    H2 5703   1.591   0.582  16.299 -1.9169  1.5312 -1.3289
  381TMC3    C7 5704   1.395   0.405  16.367  0.3473 -1.0185 -0.0254
  381TMC3    C8 5705   1.714   0.616  16.081 -0.1725 -0.1425 -0.4115
  381TMC3    O1 5706   1.439   0.297  16.398  0.6234  0.1266  0.0100
  381TMC3    O2 5707   1.784   0.605  15.978  0.1597  0.2350  0.2261
  382MPD2     C 5708   1.269   2.707  17.368 -0.1512  0.1878 -0.2912
  382MPD2    C1 5709   1.239   2.781  17.479  0.6709 -0.2142  0.2948
  382MPD2    C2 5710   1.132   2.750  17.559 -0.5677 -0.3720  0.1166
  382MPD2    C3 5711   1.044   2.640  17.525  0.0062  0.1611  0.2171
  382MPD2    C4 5712   1.073   2.573  17.411 -0.3203 -0.0420 -0.2644
  382MPD2    C5 5713   1.182   2.609  17.328  0.3888 -0.8763 -0.0120
  382MPD2     H 5714   1.093   2.816  17.636  0.3217 -1.4764  1.5216
  382MPD2    H1 5715   1.005   2.498  17.372  0.7726 -0.9089 -0.4879
  382MPD2    H2 5716   1.351   2.723  17.298 -1.1404 -0.4501 -1.6048
  382MPD2    H3 5717   1.190   2.551  17.236  0.1280 -0.2436 -0.4305
  382MPD2     N 5718   0.940   2.591  17.608 -0.1160 -0.1418  0.1077
  382MPD2    H5 5719   0.880   2.516  17.575 -0.8252  0.8751 -0.9237
  382MPD2    N1 5720   1.315   2.892  17.509 -0.5933 -0.5529 -0.1990
  382MPD2    H7 5721   1.287   2.957  17.582  1.2350 -0.2536  0.2329
  383TMC3    C1 5722   0.783   2.592   0.092  0.2438  0.0003  0.1029
  383TMC3    C2 5723   0.712   2.486   0.040  0.1329  0.1781 -0.4039
  383TMC3    C3 5724   0.585   2.468   0.081 -0.3018  0.2305  0.0187
  383TMC3    C4 5725   0.727   2.680   0.187  0.1714  0.3595  0.1033
  383TMC3    C5 5726   0.602   2.646   0.229 -0.3157  0.1954 -0.3710
  383TMC3    C6 5727   0.529   2.538   0.184 -0.8488 -0.5027 -0.7151
  383TMC3     C 5728   0.903   2.640   0.034  1.0355  0.4900  0.3422
  383TMC3     O 5729   0.948   2.733   0.097  0.4205  0.3367  0.1434
  383TMC3     H 5730   0.770   2.414  17.679  0.4028  0.6840 -0.7691
  383TMC3    H1 5731   0.775   2.764   0.235  1.0468  0.6188 -1.1987
  383TMC3    H2 5732   0.434   2.510   0.229 -1.1775 -0.1422 -1.1889
  383TMC3    C7 5733   0.529   2.726   0.334  0.6463 -0.5969  0.1384
  383TMC3    C8 5734   0.494   2.370   0.023  0.1765  0.1870  0.1024
  383TMC3    O1 5735   0.415   2.695   0.375  0.1836 -0.1429  0.4879
  383TMC3    O2 5736   0.379   2.367   0.054  0.3314 -0.2954  0.6749
  384MPD2     C 5737   2.444   4.000  11.606 -0.0547 -0.3068 -0.1500
  384MPD2    C1 5738   2.492   3.939  11.723 -0.5420  0.3610 -0.3343
  384MPD2    C2 5739   2.576   3.827  11.709  0.3158  0.1008 -0.1543
  384MPD2    C3 5740   2.631   3.801  11.584  0.2129  0.0240  0.4916
  384MPD2    C4 5741   2.583   3.867  11.469  0.4902 -0.2859 -0.8563
  384MPD2    C5 5742   2.488   3.960  11.485 -0.0586 -0.1544 -0.1707
  384MPD2     H 5743   2.615   3.780  11.799 -0.0025 -0.1609 -0.1543
  384MPD2    H1 5744   2.627   3.853  11.371 -0.5831  3.8200 -1.9230
  384MPD2    H2 5745   2.378   4.086  11.611 -1.2121 -1.4686  4.5407
  384MPD2    H3 5746   2.451   4.013  11.398  0.5985  1.3505  0.4629
  384MPD2     N 5747   2.748   3.713  11.584  0.3819  0.1280  0.2216
  384MPD2    H5 5748   2.776   3.672  11.673  1.2229 -0.1629 -0.1793
  384MPD2    N1 5749   2.451   3.971  11.858 -0.4198 -0.2969  0.0292
  384MPD2    H7 5750   2.486   3.913  11.933  0.6079 -1.0431 -1.0056
  385TMC3    C1 5751   2.937   3.584  11.535 -0.1287  0.6852  0.2492
  385TMC3    C2 5752   2.935   3.457  11.481  0.5668 -0.3015 -0.1956
  385TMC3    C3 5753   2.951   3.354  11.567 -0.3791 -0.4039  0.3794
  385TMC3    C4 5754   2.965   3.607  11.668  0.3599  0.2732  0.1194
  385TMC3    C5 5755   2.953   3.496  11.753  0.3129  0.1592 -0.3540
  385TMC3    C6 5756   2.957   3.366  11.700  0.6543  0.8036 -0.0574
  385TMC3     C 5757   2.828   3.669  11.478 -0.0846  0.9044  1.4558
  385TMC3     O 5758   2.831   3.695  11.361  0.1857  0.4389 -0.4158
  385TMC3     H 5759   2.904   3.451  11.377 -1.8123  2.0989  0.3783
  385TMC3    H1 5760   2.960   3.707  11.708 -1.5139 -0.4608  1.7121
  385TMC3    H2 5761   2.953   3.280  11.766  2.8078 -1.7694 -3.3029
  385TMC3    C7 5762   2.850   3.522  11.852  0.7253 -0.1277 -0.0497
  385TMC3    C8 5763   2.972   3.220  11.515 -0.7216  0.1822  0.0004
  385TMC3    O1 5764   2.795   3.630  11.837 -0.2602  0.5986  0.8504
  385TMC3    O2 5765   3.045   3.156  11.584  0.6862 -0.4071 -0.5037
  386TMC3    C1 5766   2.241   1.301  11.730 -0.2306 -0.1244 -0.2688
  386TMC3    C2 5767   2.273   1.306  11.600  0.1320 -0.5757  0.7083
  386TMC3    C3 5768   2.197   1.390  11.520 -0.0800 -0.2773  0.7443
  386TMC3    C4 5769   2.147   1.384  11.790 -0.0756  0.7113  0.2999
  386TMC3    C5 5770   2.079   1.469  11.708 -0.1348  0.4476  0.0461
  386TMC3    C6 5771   2.103   1.472  11.575  0.1144 -0.4781 -0.4994
  386TMC3     C 5772   2.330   1.238  11.822  0.3822 -0.1881  0.1237
  386TMC3     O 5773   2.279   1.195  11.923  0.0386 -0.1823 -0.0729
  386TMC3     H 5774   2.346   1.237  11.557 -0.4757 -0.9713  0.2976
  386TMC3    H1 5775   2.132   1.373  11.897 -0.1690 -2.1458 -0.0080
  386TMC3    H2 5776   2.059   1.546  11.509  2.8189  2.4031  0.9667
  386TMC3    C7 5777   1.956   1.528  11.768  0.2539  0.9526 -0.0027
  386TMC3    C8 5778   2.222   1.395  11.374  0.5389  0.0458  0.2571
  386TMC3    O1 5779   1.939   1.512  11.888  0.0469 -0.3205  0.1154
  386TMC3    O2 5780   2.133   1.443  11.307  0.0292  0.1822 -0.1475
  387MPD2     C 5781   4.713   1.461   9.503 -0.0368 -0.3460 -0.4387
  387MPD2    C1 5782   0.081   1.430   9.603 -0.0055 -0.7704  0.6689
  387MPD2    C2 5783   0.083   1.303   9.656 -0.8319  0.2720 -0.1228
  387MPD2    C3 5784   0.014   1.196   9.598  0.1520  0.1519 -0.3318
  387MPD2    C4 5785   4.662   1.222   9.486 -0.4368 -0.2608 -0.4083
  387MPD2    C5 5786   4.644   1.352   9.451  0.5447 -0.3838 -0.2862
  387MPD2     H 5787   0.155   1.281   9.734 -1.2067  1.6733  0.6167
  387MPD2    H1 5788   4.602   1.154   9.426 -1.0518  0.3614 -0.4931
  387MPD2    H2 5789   4.710   1.557   9.453 -2.5213  0.3881  1.1505
  387MPD2    H3 5790   4.585   1.375   9.364 -0.5259 -2.1775 -0.0144
  387MPD2     N 5791   0.033   1.069   9.658 -0.3395 -0.5204  0.0863
  387MPD2    H5 5792   0.092   1.077   9.740 -0.3316  3.4804 -0.3280
  387MPD2    N1 5793   0.182   1.514   9.656  0.2864 -0.1069  0.1487
  387MPD2    H7 5794   0.248   1.464   9.714  0.2417 -0.9762 -0.5537
  388TMC3    C1 5795   0.311   1.703   9.693  0.9373 -0.3107  0.8476
  388TMC3    C2 5796   0.380   1.788   9.610 -0.2159 -0.2923  0.3601
  388TMC3    C3 5797   0.495   1.837   9.661 -0.5113 -0.0612 -0.3391
  388TMC3    C4 5798   0.361   1.645   9.807  0.1177  0.0439  0.2408
  388TMC3    C5 5799   0.489   1.690   9.847 -0.3642 -0.2082 -0.0249
  388TMC3    C6 5800   0.551   1.793   9.776  0.0122  1.0350  0.0723
  388TMC3     C 5801   0.194   1.650   9.628  1.2267  0.0779  0.4685
  388TMC3     O 5802   0.118   1.726   9.571  0.2400 -0.0431 -0.5920
  388TMC3     H 5803   0.332   1.825   9.520  2.5908 -0.7139 -1.3495
  388TMC3    H1 5804   0.292   1.577   9.857 -0.1345  1.9599  2.5246
  388TMC3    H2 5805   0.654   1.819   9.798  0.0498  0.2771  0.7718
  388TMC3    C7 5806   0.579   1.590   9.914  0.0050  0.4376 -0.4333
  388TMC3    C8 5807   0.536   1.960   9.599 -0.4317  0.4745  0.0753
  388TMC3    O1 5808   0.697   1.618   9.899  0.5108  0.8174  0.3669
  388TMC3    O2 5809   0.511   1.985   9.483 -0.5321  0.8623  0.4619
  389MPD2     C 5810   4.395   4.363  10.967 -1.2296  0.0313  0.0628
  389MPD2    C1 5811   4.340   4.312  10.852  0.2473 -0.0042  0.0330
  389MPD2    C2 5812   4.288   4.185  10.863 -0.3948  0.1313 -0.1049
  389MPD2    C3 5813   4.296   4.112  10.979 -1.1192 -0.8783  0.4494
  389MPD2    C4 5814   4.353   4.174  11.090 -0.3822 -0.3202  0.7147
  389MPD2    C5 5815   4.399   4.297  11.085 -0.3177  0.0918  0.6849
  389MPD2     H 5816   4.240   4.152  10.771  1.1756 -0.4140 -0.7270
  389MPD2    H1 5817   4.361   4.122  11.185  0.0951 -0.4852  0.5818
  389MPD2    H2 5818   4.438   4.462  10.966  0.6013 -0.8152 -2.5448
  389MPD2    H3 5819   4.453   4.335  11.171  1.7062 -2.2073  0.4447
  389MPD2     N 5820   4.240   3.984  10.995 -0.4730  0.3487  0.0074
  389MPD2    H5 5821   4.276   3.944  11.081 -1.4256 -0.5964 -0.0324
  389MPD2    N1 5822   4.338   4.392  10.732 -0.1762 -0.3080 -0.5450
  389MPD2    H7 5823   4.392   4.478  10.734 -0.6383 -0.0006 -1.1599
  390TMC3    C1 5824   4.146   3.780  10.929  0.5855  0.4980  0.2002
  390TMC3    C2 5825   4.194   3.729  11.042 -0.0045 -0.3958 -0.5311
  390TMC3    C3 5826   4.172   3.594  11.054 -0.3387 -0.0988 -0.0775
  390TMC3    C4 5827   4.086   3.710  10.820 -0.6877 -0.4590 -0.1496
  390TMC3    C5 5828   4.076   3.573  10.830 -0.0946 -0.7202 -0.0494
  390TMC3    C6 5829   4.121   3.517  10.951 -0.0868  0.5592  0.3556
  390TMC3     C 5830   4.166   3.921  10.897 -0.3226 -0.4036  0.7931
  390TMC3     O 5831   4.110   3.955  10.792  0.2879  0.3168 -0.8928
  390TMC3     H 5832   4.221   3.790  11.127 -0.3697 -1.3353  0.2581
  390TMC3    H1 5833   4.036   3.755  10.735 -2.0811 -0.4794  0.6621
  390TMC3    H2 5834   4.083   3.416  10.962  1.6291 -0.5631 -3.7346
  390TMC3    C7 5835   3.949   3.510  10.802  0.3528 -0.6252  0.3939
  390TMC3    C8 5836   4.098   3.578  11.179 -0.2572  0.0694 -0.1605
  390TMC3    O1 5837   3.958   3.399  10.761 -0.3850  0.9495 -0.1853
  390TMC3    O2 5838   4.152   3.630  11.275  0.1345  0.1604  0.6530
  391MPD2     C 5839   3.546   0.793  10.872  0.3594  0.6045 -0.6043
  391MPD2    C1 5840   3.659   0.865  10.839 -0.4186 -0.3218  0.4050
  391MPD2    C2 5841   3.688   0.885  10.707 -0.1200  0.1850  0.5648
  391MPD2    C3 5842   3.600   0.835  10.613 -0.2574  0.3460  0.3238
  391MPD2    C4 5843   3.482   0.769  10.649  0.6858  0.4220 -0.4369
  391MPD2    C5 5844   3.449   0.754  10.781 -0.2627 -0.3658 -0.2060
  391MPD2     H 5845   3.773   0.944  10.675 -0.3556 -0.5267 -1.3468
  391MPD2    H1 5846   3.414   0.731  10.574 -0.1924 -0.8969  1.0223
  391MPD2    H2 5847   3.526   0.770  10.976  2.2013 -1.7610 -0.7670
  391MPD2    H3 5848   3.356   0.701  10.803 -1.1511  0.6031 -1.6011
  391MPD2     N 5849   3.642   0.847  10.477 -0.3631  0.0260 -0.7623
  391MPD2    H5 5850   3.738   0.880  10.465  0.5314 -1.0000  3.5701
  391MPD2    N1 5851   3.738   0.902  10.953  0.1225 -0.1783  0.2825
  391MPD2    H7 5852   3.710   0.872  11.046 -4.5265  0.6646 -0.8210
  392TMC3    C1 5853   3.647   0.832  10.251  0.2143 -0.4589 -0.0396
  392TMC3    C2 5854   3.566   0.841  10.139  0.0492  0.2971 -0.2956
  392TMC3    C3 5855   3.597   0.938  10.048  0.3255  0.0925 -0.2297
  392TMC3    C4 5856   3.756   0.913  10.264  0.1343  0.2069 -0.2926
  392TMC3    C5 5857   3.785   1.000  10.161  0.1139 -0.3840  0.2457
  392TMC3    C6 5858   3.708   1.020  10.056 -0.7981 -0.0353  0.5745
  392TMC3     C 5859   3.569   0.808  10.366  0.1674 -0.2337  0.0725
  392TMC3     O 5860   3.462   0.748  10.345 -0.1708 -0.2928 -0.0783
  392TMC3     H 5861   3.481   0.777  10.119  0.1943  0.3178 -1.0007
  392TMC3    H1 5862   3.833   0.902  10.340  1.7843  1.3303 -1.7929
  392TMC3    H2 5863   3.713   1.112   9.999 -2.1669 -0.6813 -0.5801
  392TMC3    C7 5864   3.909   1.076  10.164 -0.3585  0.3899  0.3493
  392TMC3    C8 5865   3.522   0.944   9.924  0.2664 -0.2128  0.0633
  392TMC3    O1 5866   3.972   1.079  10.270 -0.4985  0.3158  0.3779
  392TMC3    O2 5867   3.404   0.905   9.917  0.0812 -0.0318  0.1252
  393TMC3    C1 5868   3.030   3.718  10.294  0.2828  0.4721 -0.0707
  393TMC3    C2 5869   2.922   3.658  10.343  0.0198 -0.2121  0.5786
  393TMC3    C3 5870   2.920   3.527  10.351  0.0731 -1.0728 -0.7602
  393TMC3    C4 5871   3.129   3.641  10.233  0.0487  0.0189  0.4444
  393TMC3    C5 5872   3.123   3.503  10.246 -0.0611 -0.1930 -0.9072
  393TMC3    C6 5873   3.021   3.445  10.306 -0.8624  0.1338  0.2414
  393TMC3     C 5874   2.996   3.840  10.228 -0.6630  0.0454  0.3452
  393TMC3     O 5875   2.875   3.852  10.206  0.0483  0.3660 -0.0219
  393TMC3     H 5876   2.833   3.709  10.378  1.2225  2.0197  0.3824
  393TMC3    H1 5877   3.200   3.692  10.169 -1.0994  2.4574  1.1028
  393TMC3    H2 5878   3.015   3.337  10.308 -0.8030  0.1240 -0.2237
  393TMC3    C7 5879   3.218   3.412  10.187  0.7264 -0.9934  0.2455
  393TMC3    C8 5880   2.814   3.465  10.435  0.1219 -0.4328  0.1674
  393TMC3    O1 5881   3.190   3.295  10.181  0.2782 -0.6554 -0.5765
  393TMC3    O2 5882   2.708   3.523  10.459  0.3556  0.3001  0.1073
  394TMC3    C1 5883   4.278   4.477  10.517  0.1033  0.0561  0.1362
  394TMC3    C2 5884   4.172   4.507  10.437 -0.4286  0.0384  0.4831
  394TMC3    C3 5885   4.192   4.578  10.324  0.3276  0.3265  0.0603
  394TMC3    C4 5886   4.400   4.531  10.496  0.1230 -0.2655  0.2118
  394TMC3    C5 5887   4.421   4.600  10.375  0.0687  0.1398  0.1945
  394TMC3    C6 5888   4.315   4.621  10.294 -0.2005 -0.2450  0.2339
  394TMC3     C 5889   4.262   4.374  10.622  0.4940 -0.7180  0.7113
  394TMC3     O 5890   4.167   4.295  10.617  0.2591  0.1718 -0.1120
  394TMC3     H 5891   4.074   4.468  10.460  0.9292 -2.6579  1.7330
  394TMC3    H1 5892   4.476   4.504  10.568 -1.1997 -0.7203  1.4277
  394TMC3    H2 5893   4.338   4.670  10.200 -0.3480  2.0598  1.3965
  394TMC3    C7 5894   4.553   4.627  10.328 -0.9915 -0.3230  0.0813
  394TMC3    C8 5895   4.120   4.521  10.213  0.0066 -0.3063  0.3640
  394TMC3    O1 5896   4.562   4.702  10.231  0.2709  0.4489 -0.0822
  394TMC3    O2 5897   4.009   4.555  10.182 -0.1444  0.0103 -0.6308
  395TMC3    C1 5898   4.217   1.799  14.817 -0.3548 -0.1590  0.1750
  395TMC3    C2 5899   4.123   1.847  14.725 -0.1777  0.3171 -0.1918
  395TMC3    C3 5900   4.163   1.948  14.643 -0.0780 -0.8148  0.7052
  395TMC3    C4 5901   4.351   1.838  14.811  0.1522  0.3340  0.3143
  395TMC3    C5 5902   4.383   1.941  14.727  0.2191  0.5078  0.2256
  395TMC3    C6 5903   4.293   1.997  14.639 -0.4324  0.3272 -0.3431
  395TMC3     C 5904   4.174   1.723  14.930 -0.2339  0.1190 -0.1285
  395TMC3     O 5905   4.245   1.734  15.031 -0.0247  0.9715  0.1969
  395TMC3     H 5906   4.018   1.827  14.745  0.4493 -1.8410  0.9809
  395TMC3    H1 5907   4.427   1.804  14.881 -0.0086 -0.0225  0.3161
  395TMC3    H2 5908   4.305   2.087  14.580 -2.4068  0.1626 -1.0094
  395TMC3    C7 5909   4.516   1.993  14.745  0.0558 -0.3318 -0.5472
  395TMC3    C8 5910   4.104   1.957  14.515 -0.1963  0.2002  0.2021
  395TMC3    O1 5911   4.574   1.970  14.852  0.2076  0.7462  0.3246
  395TMC3    O2 5912   4.094   2.069  14.466  0.5469  0.3455  0.0752
  396MPD2     C 5913   3.904   2.287  17.395 -0.5986  0.2008  0.0621
  396MPD2    C1 5914   3.956   2.416  17.425  0.2490  0.0409 -0.3758
  396MPD2    C2 5915   3.917   2.528  17.353  0.1496 -0.2728 -0.2113
  396MPD2    C3 5916   3.846   2.517  17.233 -0.0620 -0.1945  0.4206
  396MPD2    C4 5917   3.795   2.388  17.202  0.4209  0.6383 -0.5279
  396MPD2    C5 5918   3.832   2.280  17.274  0.5278  0.5963 -0.4268
  396MPD2     H 5919   3.960   2.624  17.379  1.2592 -1.0708  0.9126
  396MPD2    H1 5920   3.733   2.376  17.114  1.2870 -3.3309 -0.5894
  396MPD2    H2 5921   3.934   2.202  17.455  0.0256  0.9921  0.8634
  396MPD2    H3 5922   3.786   2.188  17.238  0.7750 -0.0105  0.8033
  396MPD2     N 5923   3.835   2.633  17.147 -0.0391  0.1762  0.9021
  396MPD2    H5 5924   3.876   2.716  17.188  0.4138  0.0798  0.6389
  396MPD2    N1 5925   4.041   2.419  17.539  0.0625  0.4131  0.3654
  396MPD2    H7 5926   4.057   2.329  17.584 -0.4663 -0.9556 -2.1680
  397TMC3    C1 5927   4.179   2.500   0.010 -1.2291 -0.6091  0.0756
  397TMC3    C2 5928   4.309   2.534  17.671 -0.2748 -0.1119  0.1582
  397TMC3    C3 5929   4.413   2.444  17.664 -0.2698  0.4261 -0.5154
  397TMC3    C4 5930   4.166   2.372   0.058 -0.2624 -0.4298 -0.0119
  397TMC3    C5 5931   4.276   2.287   0.066 -0.1089  0.1051 -0.4768
  397TMC3    C6 5932   4.396   2.317   0.012  0.1168 -0.3805  0.2702
  397TMC3     C 5933   4.096   2.532  17.594  0.2042  0.6503  0.1972
  397TMC3     O 5934   4.100   2.647  17.548  0.0269 -0.8456 -0.3403
  397TMC3     H 5935   4.320   2.627  17.617 -2.2160  0.2050  0.2944
  397TMC3    H1 5936   4.067   2.346   0.092  0.7275 -3.2898  0.6458
  397TMC3    H2 5937   4.477   2.246   0.004 -0.3105 -1.0234  1.6124
  397TMC3    C7 5938   4.270   2.172   0.150  1.1781 -0.1821  0.3076
  397TMC3    C8 5939   4.459   2.455  17.524 -0.1736 -0.5883 -0.7230
  397TMC3    O1 5940   4.334   2.073   0.107 -0.3939 -0.0319  0.1295
  397TMC3    O2 5941   4.386   2.410  17.441 -0.2640 -0.0881 -0.1088
  398MPD2     C 5942   1.998   3.793   0.155  0.2197  0.4695 -0.2059
  398MPD2    C1 5943   2.083   3.687   0.160  0.1404  0.0644 -0.8302
  398MPD2    C2 5944   2.215   3.705   0.190  0.0143  0.5379  0.1230
  398MPD2    C3 5945   2.262   3.827   0.219  0.1235  0.6420 -0.1580
  398MPD2    C4 5946   2.171   3.934   0.221 -0.3939  0.6310  0.1360
  398MPD2    C5 5947   2.042   3.915   0.194  0.1336  0.1433  0.2170
  398MPD2     H 5948   2.279   3.618   0.190 -1.7637 -0.7832  1.7162
  398MPD2    H1 5949   2.200   4.030   0.260  0.1195 -0.0406  1.4125
  398MPD2    H2 5950   1.892   3.787   0.136  0.2957 -1.1011 -0.1782
  398MPD2    H3 5951   1.963   3.988   0.209  0.0981  0.0042  0.7048
  398MPD2     N 5952   2.388   3.832   0.276  0.4530 -0.4152 -0.6897
  398MPD2    H5 5953   2.430   3.742   0.295  1.2020 -0.1421 -1.0546
  398MPD2    N1 5954   2.042   3.557   0.141 -0.1550 -1.1438 -0.7119
  398MPD2    H7 5955   2.117   3.488   0.148 -0.0996 -1.4265 -3.9462
  399TMC3    C1 5956   1.918   3.366   0.125 -0.2491  0.2853 -0.3584
  399TMC3    C2 5957   1.990   3.298   0.221 -0.3476  0.3542  0.8882
  399TMC3    C3 5958   1.979   3.164   0.223  0.4457  1.0061 -0.5183
  399TMC3    C4 5959   1.837   3.298   0.040 -0.1176 -0.3722  0.4036
  399TMC3    C5 5960   1.839   3.159   0.039 -0.0786 -1.3019 -0.3739
  399TMC3    C6 5961   1.921   3.093   0.124  0.1309  0.1522  0.3631
  399TMC3     C 5962   1.913   3.508   0.121 -0.1028  0.1419 -0.0125
  399TMC3     O 5963   1.815   3.569   0.082  0.4564 -0.1463  0.2470
  399TMC3     H 5964   2.041   3.347   0.303  0.1593 -0.4312  1.0484
  399TMC3    H1 5965   1.799   3.346  17.647 -0.8227 -1.0239  0.3508
  399TMC3    H2 5966   1.935   2.986   0.114  0.2433  0.0322  1.8599
  399TMC3    C7 5967   1.794   3.085  17.623 -0.0567 -0.5591 -0.3429
  399TMC3    C8 5968   2.066   3.099   0.314  0.3590  0.3218  0.2414
  399TMC3    O1 5969   1.788   3.140  17.513  0.6730  0.5800 -0.0714
  399TMC3    O2 5970   2.153   3.167   0.369  0.4602 -0.1458 -0.5026
  400TMC3    C1 5971   0.556   2.234  16.936 -0.3344 -0.7406 -0.1140
  400TMC3    C2 5972   0.429   2.261  16.885 -0.8888  0.5283  0.3464
  400TMC3    C3 5973   0.339   2.341  16.947 -0.2166 -0.3220  0.1482
  400TMC3    C4 5974   0.584   2.269  17.064 -0.0580 -0.1013  0.5409
  400TMC3    C5 5975   0.492   2.352  17.127  1.3660  0.7940  0.1547
  400TMC3    C6 5976   0.372   2.381  17.070 -0.2790  0.2148 -0.1277
  400TMC3     C 5977   0.627   2.120  16.887  0.3341 -0.3042 -0.0824
  400TMC3     O 5978   0.561   2.064  16.799 -0.0123  0.0773  0.3093
  400TMC3     H 5979   0.416   2.234  16.781 -0.5541 -0.4875  0.5694
  400TMC3    H1 5980   0.664   2.232  17.127  0.2137 -0.9241 -0.3052
  400TMC3    H2 5981   0.300   2.437  17.128 -0.7650  0.3424 -0.8471
  400TMC3    C7 5982   0.535   2.424  17.243  0.4980  0.0752 -0.3800
  400TMC3    C8 5983   0.202   2.287  16.939  0.2619 -0.9358 -0.1126
  400TMC3    O1 5984   0.659   2.416  17.260 -0.2234  0.8649  0.3784
  400TMC3    O2 5985   0.113   2.362  16.973 -0.2888  0.7272  0.0378
  401MPD2     C 5986   3.298   1.063   0.835  0.0789  0.1036 -0.0107
  401MPD2    C1 5987   3.391   0.971   0.879  0.3043  0.1056 -0.3661
  401MPD2    C2 5988   3.379   0.838   0.842 -0.9400 -0.2782 -0.5469
  401MPD2    C3 5989   3.283   0.796   0.751  0.3513 -0.2826 -0.4129
  401MPD2    C4 5990   3.195   0.890   0.707  0.0576  0.2279  0.1967
  401MPD2    C5 5991   3.199   1.019   0.758  1.0387  0.4650  0.3385
  401MPD2     H 5992   3.453   0.768   0.878 -1.4648 -0.8459 -0.5579
  401MPD2    H1 5993   3.110   0.865   0.643  0.9290 -0.4563 -0.6937
  401MPD2    H2 5994   3.304   1.169   0.859 -2.5392  0.3839 -0.5779
  401MPD2    H3 5995   3.121   1.081   0.717  2.4709  1.4030 -0.9520
  401MPD2     N 5996   3.275   0.656   0.721  0.1844 -0.2359  0.3294
  401MPD2    H5 5997   3.327   0.589   0.776 -0.2950 -0.0519  0.9971
  401MPD2    N1 5998   3.511   1.015   0.955 -0.0049  0.2104  0.0319
  401MPD2    H7 5999   3.584   0.946   0.969  0.8796  1.1908  0.2617
  402TMC3    C1 6000   3.252   0.456   0.593  0.1218  0.5961 -1.1408
  402TMC3    C2 6001   3.293   0.384   0.697 -0.9483 -0.6656 -0.4622
  402TMC3    C3 6002   3.358   0.268   0.664  0.0315 -0.1197  0.1890
  402TMC3    C4 6003   3.291   0.437   0.468  0.9498 -0.3681  1.0474
  402TMC3    C5 6004   3.375   0.336   0.439  0.8317  0.7777 -0.0861
  402TMC3    C6 6005   3.405   0.242   0.535 -0.2860  0.0969 -0.3325
  402TMC3     C 6006   3.213   0.598   0.614  0.4888 -0.2776 -0.2242
  402TMC3     O 6007   3.156   0.652   0.522 -0.2968  1.1834  0.4591
  402TMC3     H 6008   3.270   0.416   0.798 -2.4689  1.2566 -1.4247
  402TMC3    H1 6009   3.277   0.517   0.395 -0.0812 -1.7392 -0.2562
  402TMC3    H2 6010   3.466   0.157   0.505 -0.8816 -0.2595 -0.5307
  402TMC3    C7 6011   3.440   0.331   0.311  0.5880 -0.0990 -0.1330
  402TMC3    C8 6012   3.356   0.154   0.758  0.0471  0.0053  0.2593
  402TMC3    O1 6013   3.383   0.384   0.220  0.0607 -0.0497  0.0331
  402TMC3    O2 6014   3.436   0.062   0.751 -0.4549  0.0553 -0.3601
  403MPD2     C 6015   2.758   2.944  13.139 -0.0565  0.2162 -0.3555
  403MPD2    C1 6016   2.717   2.933  13.272  0.3223 -0.1357  0.1362
  403MPD2    C2 6017   2.806   2.982  13.365  1.2207  0.1347 -0.0959
  403MPD2    C3 6018   2.933   3.030  13.329  0.3088  0.0869 -0.1788
  403MPD2    C4 6019   2.970   3.024  13.197 -0.6874 -0.5707 -0.0496
  403MPD2    C5 6020   2.889   2.975  13.102 -0.3721 -0.6477 -0.4750
  403MPD2     H 6021   2.772   2.991  13.468 -0.4948 -1.4829 -0.5208
  403MPD2    H1 6022   3.063   3.053  13.150 -0.1459 -1.5858  0.4200
  403MPD2    H2 6023   2.687   2.928  13.059  1.3345 -2.2723 -1.0934
  403MPD2    H3 6024   2.923   2.985  12.999  1.0431 -0.4550  0.0147
  403MPD2     N 6025   3.015   3.086  13.428 -0.9707  0.7309  0.0526
  403MPD2    H5 6026   2.973   3.093  13.521  1.1743  0.8980  0.9992
  403MPD2    N1 6027   2.585   2.893  13.298 -0.4368 -0.5162  0.3764
  403MPD2    H7 6028   2.519   2.902  13.221  0.0406  0.2182  0.0552
  404TMC3    C1 6029   2.394   2.896  13.436  0.6069  0.2222 -0.8177
  404TMC3    C2 6030   2.360   2.938  13.564 -0.4556  1.1550  0.3926
  404TMC3    C3 6031   2.252   2.876  13.623 -0.7168 -0.0254  0.4153
  404TMC3    C4 6032   2.319   2.799  13.370  0.2667  0.6563 -0.4040
  404TMC3    C5 6033   2.209   2.747  13.437  0.2985 -0.9287  0.7161
  404TMC3    C6 6034   2.180   2.777  13.567  1.0574 -1.0297 -0.1124
  404TMC3     C 6035   2.537   2.883  13.429  0.0678  0.1235  0.2978
  404TMC3     O 6036   2.593   2.892  13.539  0.1472 -0.1712 -0.0488
  404TMC3     H 6037   2.422   3.016  13.606 -0.6752  1.2351  0.5639
  404TMC3    H1 6038   2.358   2.763  13.276 -0.4902  0.2233 -0.5512
  404TMC3    H2 6039   2.095   2.733  13.618  1.0560 -0.1894  0.5987
  404TMC3    C7 6040   2.187   2.606  13.421  0.2359  0.4191  0.2297
  404TMC3    C8 6041   2.271   2.877  13.768  0.0187  0.0196  0.5075
  404TMC3    O1 6042   2.229   2.539  13.513 -0.0633  0.2029 -0.3728
  404TMC3    O2 6043   2.167   2.877  13.840 -0.3805 -0.1252  0.1792
  405MPD2     C 6044   2.745   4.235  14.507  0.1315  0.3901  0.8544
  405MPD2    C1 6045   2.710   4.163  14.390  0.1227  0.0905 -0.1924
  405MPD2    C2 6046   2.609   4.206  14.310  0.0760  0.8386 -0.2762
  405MPD2    C3 6047   2.528   4.310  14.351  0.3461  0.5469  0.0581
  405MPD2    C4 6048   2.557   4.373  14.470 -0.4185 -0.3377 -0.1718
  405MPD2    C5 6049   2.664   4.337  14.546 -0.4785 -0.3502 -0.0356
  405MPD2     H 6050   2.584   4.151  14.220  0.1562 -1.5723  1.1889
  405MPD2    H1 6051   2.485   4.446  14.505 -0.5353 -1.1430  1.2734
  405MPD2    H2 6052   2.817   4.202  14.581 -2.9923 -2.1840  2.7329
  405MPD2    H3 6053   2.673   4.385  14.643 -1.1537  1.1674 -0.7226
  405MPD2     N 6054   2.412   4.319  14.276 -0.2438 -0.4736 -0.3575
  405MPD2    H5 6055   2.409   4.251  14.200 -0.6487 -0.8114 -0.0455
  405MPD2    N1 6056   2.777   4.048  14.372  0.4569  0.1407 -0.3603
  405MPD2    H7 6057   2.844   4.022  14.444 -0.1943  0.8928  0.5197
  406TMC3    C1 6058   1.979   4.412  14.137 -0.4725  0.4807 -0.4439
  406TMC3    C2 6059   1.966   4.287  14.093  0.2525  0.3466 -0.0427
  406TMC3    C3 6060   2.076   4.202  14.093 -0.3350  0.4415 -0.0675
  406TMC3    C4 6061   2.097   4.462  14.186 -0.9338  0.0459 -0.1738
  406TMC3    C5 6062   2.194   4.372  14.206 -0.4087 -0.2099 -0.1344
  406TMC3    C6 6063   2.182   4.240  14.170 -0.5077  0.0052 -0.2272
  406TMC3     C 6064   1.864   4.499  14.154  0.3187 -0.7136 -0.7979
  406TMC3     O 6065   1.881   4.618  14.181  0.3417 -0.3328 -0.3206
  406TMC3     H 6066   1.877   4.255  14.040 -0.1899  3.0624 -0.9695
  406TMC3    H1 6067   2.092   4.564  14.222  0.1952  1.1311 -3.0918
  406TMC3    H2 6068   2.241   4.152  14.192  0.1123  0.7059  0.8728
  406TMC3    C7 6069   2.307   4.406  14.292  0.4038 -0.2846 -0.4351
  406TMC3    C8 6070   2.067   4.071  14.037  0.2357 -0.2967 -0.3527
  406TMC3    O1 6071   2.301   4.500  14.365  0.6826 -0.1498  0.0330
  406TMC3    O2 6072   1.962   4.015  14.008  0.2259  0.7588 -0.3496
  407MPD2     C 6073   4.279   0.852   9.739 -0.1410 -0.0991  0.6203
  407MPD2    C1 6074   4.364   0.922   9.649 -0.0695  0.7234  0.2441
  407MPD2    C2 6075   4.414   1.044   9.695  0.0128  0.0262  0.1482
  407MPD2    C3 6076   4.384   1.092   9.820  0.3324 -0.5263  0.7253
  407MPD2    C4 6077   4.299   1.021   9.899 -0.2836  0.6640 -0.0395
  407MPD2    C5 6078   4.241   0.905   9.861  0.3295  0.1446  0.0804
  407MPD2     H 6079   4.482   1.093   9.627 -0.4631  1.2739  0.5825
  407MPD2    H1 6080   4.257   1.071   9.986  0.1146  0.5065  0.2455
  407MPD2    H2 6081   4.220   0.770   9.700 -2.3607  0.5113  2.6608
  407MPD2    H3 6082   4.157   0.857   9.910 -1.0968  3.3561  0.7672
  407MPD2     N 6083   4.445   1.211   9.866 -0.3644 -0.1701  0.3666
  407MPD2    H5 6084   4.492   1.268   9.797 -0.0570 -0.3591  0.4197
  407MPD2    N1 6085   4.418   0.871   9.527  0.4410  0.2264  0.0322
  407MPD2    H7 6086   4.492   0.920   9.479 -0.6956  0.7884 -1.1231
  408TMC3    C1 6087   4.483   0.711   9.364 -0.3004  0.5421 -0.3500
  408TMC3    C2 6088   4.580   0.614   9.369 -0.3333 -0.8567 -0.1471
  408TMC3    C3 6089   4.686   0.612   9.280  0.2469 -0.6075 -0.5525
  408TMC3    C4 6090   4.500   0.818   9.281  0.5064 -0.4877 -0.4045
  408TMC3    C5 6091   4.607   0.824   9.202 -0.3394 -0.0848 -0.1048
  408TMC3    C6 6092   4.698   0.720   9.194 -0.0693 -0.4512 -0.7532
  408TMC3     C 6093   4.409   0.740   9.485 -0.2075 -0.0952 -0.4142
  408TMC3     O 6094   4.375   0.640   9.548 -0.4178  0.5688  0.6549
  408TMC3     H 6095   4.562   0.539   9.445  2.7275 -0.3702  1.0718
  408TMC3    H1 6096   4.430   0.901   9.278  1.1612  0.1205  0.8653
  408TMC3    H2 6097   0.059   0.732   9.127  0.6901  2.2870  0.6947
  408TMC3    C7 6098   4.669   0.952   9.171  0.6405  0.3302 -0.0229
  408TMC3    C8 6099   0.098   0.557   9.317 -0.7360  0.4724  0.2665
  408TMC3    O1 6100   0.061   0.952   9.200 -0.5179  0.2506  0.0869
  408TMC3    O2 6101   0.103   0.435   9.331  0.1160 -0.0589  0.2223
  409MPD2     C 6102   4.053   1.749  17.467  0.1179  0.3934 -0.0567
  409MPD2    C1 6103   4.192   1.725  17.475  0.4965 -0.0454 -0.2049
  409MPD2    C2 6104   4.281   1.810  17.402 -0.4575  0.4023  0.4719
  409MPD2    C3 6105   4.232   1.921  17.336 -0.0734  0.3713  0.0186
  409MPD2    C4 6106   4.096   1.941  17.330 -0.6677 -0.2727 -0.4225
  409MPD2    C5 6107   4.011   1.860  17.393 -0.6799 -0.4625  0.1378
  409MPD2     H 6108   4.389   1.800  17.399 -0.2548  2.4596  0.9702
  409MPD2    H1 6109   4.057   2.030  17.283 -0.6283  1.2153  2.3400
  409MPD2    H2 6110   3.980   1.685  17.515 -0.8995  0.6713 -1.2459
  409MPD2    H3 6111   3.905   1.860  17.371 -0.8607  0.6327  0.9456
  409MPD2     N 6112   4.312   2.024  17.276 -0.3603  0.1192 -0.7482
  409MPD2    H5 6113   4.265   2.112  17.258 -2.9524 -1.4325 -1.5248
  409MPD2    N1 6114   4.253   1.610  17.531 -0.8089  0.2446  0.4945
  409MPD2    H7 6115   4.355   1.614  17.532 -0.6537 -2.8053 -0.1821
  410TMC3    C1 6116   4.513   2.152  17.248 -0.0204 -0.5972 -0.4603
  410TMC3    C2 6117   4.643   2.162  17.295  0.3796  0.5183 -0.0575
  410TMC3    C3 6118   4.707   2.281  17.268 -0.2871 -0.5133 -0.4709
  410TMC3    C4 6119   4.458   2.238  17.171  0.3961 -0.1218 -0.8206
  410TMC3    C5 6120   4.523   2.351  17.140 -0.1057 -0.3450 -0.3050
  410TMC3    C6 6121   4.652   2.374  17.189 -0.3243 -0.5585  0.0789
  410TMC3     C 6122   4.450   2.026  17.277  0.1910  0.0212 -0.0187
  410TMC3     O 6123   4.525   1.930  17.289 -0.1240  0.0370 -0.0367
  410TMC3     H 6124   4.694   2.089  17.356 -1.5832 -0.9350 -0.1719
  410TMC3    H1 6125   4.364   2.214  17.122  0.1541 -1.8655  0.5111
  410TMC3    H2 6126   4.715   2.459  17.164 -0.0843 -1.1243 -1.2564
  410TMC3    C7 6127   4.478   2.412  17.013 -0.5541 -0.6330  0.9906
  410TMC3    C8 6128   0.119   2.302  17.329 -0.7638  0.1665  0.1548
  410TMC3    O1 6129   4.373   2.389  16.957  0.0386  0.0380  0.2419
  410TMC3    O2 6130   0.159   2.418  17.345  0.2433  0.3235  0.0936
  411MPD2     C 6131   0.701   2.480  14.491  1.0417 -0.3292 -0.4976
  411MPD2    C1 6132   0.610   2.509  14.397 -0.7403  0.6498 -0.1856
  411MPD2    C2 6133   0.544   2.411  14.324  0.7605  0.4165 -0.6369
  411MPD2    C3 6134   0.567   2.280  14.348  0.2670 -0.1933 -0.0966
  411MPD2    C4 6135   0.660   2.246  14.440  0.2172  0.1713  0.7318
  411MPD2    C5 6136   0.716   2.339  14.519  0.3143  0.5124  0.0707
  411MPD2     H 6137   0.477   2.435  14.243 -1.3449 -1.3723  0.5415
  411MPD2    H1 6138   0.671   2.144  14.476 -0.8612 -0.1083  0.2685
  411MPD2    H2 6139   0.741   2.549  14.565  0.8430 -0.5687 -0.1664
  411MPD2    H3 6140   0.780   2.313  14.603  0.0767 -0.3306 -0.0124
  411MPD2     N 6141   0.518   2.171  14.278  0.6462  0.0618  0.1819
  411MPD2    H5 6142   0.525   2.079  14.321  2.7563 -0.5266 -1.3890
  411MPD2    N1 6143   0.593   2.646  14.364  0.4512  0.4384  0.3328
  411MPD2    H7 6144   0.638   2.709  14.430  1.1606 -0.7722  1.0072
  412TMC3    C1 6145   0.401   2.057  14.111 -0.8361 -0.2143 -0.1301
  412TMC3    C2 6146   0.375   1.952  14.196 -0.2312 -0.9230 -0.0174
  412TMC3    C3 6147   0.304   1.849  14.145 -0.7471 -0.2491  0.0405
  412TMC3    C4 6148   0.355   2.058  13.983 -0.2573 -0.4532  0.0180
  412TMC3    C5 6149   0.282   1.952  13.939  0.7123 -0.0180  0.7612
  412TMC3    C6 6150   0.261   1.846  14.016 -0.5036  0.1299  0.2174
  412TMC3     C 6151   0.457   2.186  14.156 -0.0631  0.1609  0.6099
  412TMC3     O 6152   0.403   2.282  14.097 -0.3814  0.5468 -0.1526
  412TMC3     H 6153   0.384   1.960  14.304  1.5016 -0.3645 -0.1978
  412TMC3    H1 6154   0.382   2.137  13.914  0.7504  0.7168  1.7682
  412TMC3    H2 6155   0.218   1.756  13.975  0.2328  0.3321 -1.0023
  412TMC3    C7 6156   0.148   2.007  13.920  0.8070  0.2600  0.2132
  412TMC3    C8 6157   0.210   1.808  14.239  0.2990  0.1049  0.1870
  412TMC3    O1 6158   0.056   1.925  13.926 -0.0054 -0.2600 -0.1158
  412TMC3    O2 6159   0.249   1.763  14.346 -0.5550  0.5680  0.0820
  413MPD2     C 6160   1.384   0.610  15.545 -0.7207 -0.2935  0.9122
  413MPD2    C1 6161   1.323   0.531  15.444  0.2027 -0.4318 -0.3112
  413MPD2    C2 6162   1.397   0.422  15.391 -0.0673  0.2876  0.2747
  413MPD2    C3 6163   1.529   0.403  15.423  0.1414 -0.4992  0.9341
  413MPD2    C4 6164   1.574   0.473  15.534 -0.4748  0.3765 -0.3319
  413MPD2    C5 6165   1.505   0.572  15.587  0.2097 -0.5786  0.0744
  413MPD2     H 6166   1.352   0.347  15.327 -0.0988  0.2295  0.3644
  413MPD2    H1 6167   1.668   0.442  15.577 -0.0196 -0.0850 -1.6542
  413MPD2    H2 6168   1.338   0.693  15.597  0.0515  1.9560 -2.0345
  413MPD2    H3 6169   1.554   0.607  15.677 -2.4098  1.1430  0.8105
  413MPD2     N 6170   1.602   0.301  15.362 -0.3220  0.1833 -0.7573
  413MPD2    H5 6171   1.557   0.249  15.287  1.6267 -0.1864 -1.6766
  413MPD2    N1 6172   1.190   0.553  15.411  0.1723  0.2261 -0.1441
  413MPD2    H7 6173   1.131   0.614  15.467  2.5808  0.8427  1.7167
  414TMC3    C1 6174   1.756   0.137  15.303  0.6614 -0.5583 -0.5781
  414TMC3    C2 6175   1.847   0.042  15.346 -0.3645  0.0153  0.2796
  414TMC3    C3 6176   1.887   4.669  15.254 -0.2175 -0.6884 -0.3220
  414TMC3    C4 6177   1.696   0.129  15.177 -0.0084  0.4827  0.7053
  414TMC3    C5 6178   1.727   0.019  15.098  0.4246 -0.3591 -0.0419
  414TMC3    C6 6179   1.818   4.656  15.139 -0.5678 -0.0743  0.2263
  414TMC3     C 6180   1.729   0.251  15.391 -0.7706 -0.3169 -0.2886
  414TMC3     O 6181   1.809   0.290  15.479  0.4957 -0.1921  0.0766
  414TMC3     H 6182   1.881   0.030  15.448 -0.9872  1.9466  0.7170
  414TMC3    H1 6183   1.638   0.214  15.145 -1.2906 -0.4443  0.5795
  414TMC3    H2 6184   1.853   4.578  15.072  1.2709 -1.5070  2.8499
  414TMC3    C7 6185   1.750   0.051  14.958  0.2161  0.9912  0.7188
  414TMC3    C8 6186   2.019   4.612  15.255 -0.3150 -0.0413 -0.4937
  414TMC3    O1 6187   1.860   0.016  14.920  0.5103  1.0173  0.1386
  414TMC3    O2 6188   2.043   4.504  15.199  0.6239  0.3820 -0.5293
  415TMC3    C1 6189   2.351   2.979   9.679  0.1322  0.3352  0.5443
  415TMC3    C2 6190   2.454   3.039   9.605 -0.3973  0.3868 -0.4978
  415TMC3    C3 6191   2.439   3.044   9.468  0.5073 -0.1189  0.1420
  415TMC3    C4 6192   2.236   2.929   9.616  0.3257 -0.4122  0.1381
  415TMC3    C5 6193   2.235   2.931   9.480 -0.2720  0.9400  0.1452
  415TMC3    C6 6194   2.339   2.979   9.405  0.1079  0.6509  0.0712
  415TMC3     C 6195   2.352   2.994   9.823 -0.4578 -0.0002  0.3503
  415TMC3     O 6196   2.253   2.946   9.878 -0.0929  0.5848 -0.0970
  415TMC3     H 6197   2.555   3.038   9.645  0.3395 -0.5586 -2.4213
  415TMC3    H1 6198   2.149   2.894   9.671  0.3588 -0.0791  0.4057
  415TMC3    H2 6199   2.313   2.990   9.301  0.6314  0.7846 -0.0403
  415TMC3    C7 6200   2.110   2.888   9.407 -0.3092 -0.1734 -0.4271
  415TMC3    C8 6201   2.552   3.082   9.393  0.9037  0.2865 -1.0198
  415TMC3    O1 6202   2.106   2.913   9.287  0.2121 -0.0320 -0.2847
  415TMC3    O2 6203   2.556   3.040   9.276  0.0983 -0.1323  0.3015
  416MPD2     C 6204   3.531   2.021  11.509 -0.4281 -0.4016 -0.3382
  416MPD2    C1 6205   3.401   1.984  11.473 -1.0406  0.1411 -0.2935
  416MPD2    C2 6206   3.384   1.860  11.409 -0.7761 -0.2189  0.1418
  416MPD2    C3 6207   3.488   1.778  11.378 -1.3444  1.0328 -0.4924
  416MPD2    C4 6208   3.614   1.816  11.419 -0.5069 -0.3570  0.5849
  416MPD2    C5 6209   3.639   1.941  11.480  0.1130  0.6403  0.8383
  416MPD2     H 6210   3.290   1.843  11.359 -0.3159  1.6207 -1.3544
  416MPD2    H1 6211   3.703   1.759  11.393 -0.8431  0.0494 -1.4108
  416MPD2    H2 6212   3.552   2.118  11.553  0.1356 -0.6013 -0.1698
  416MPD2    H3 6213   3.742   1.962  11.509  0.4093 -1.2569  1.1940
  416MPD2     N 6214   3.471   1.658  11.303  0.4864  0.4780  0.1173
  416MPD2    H5 6215   3.559   1.608  11.289  0.3741  0.1106  0.7278
  416MPD2    N1 6216   3.298   2.078  11.490 -0.1381  0.5199  0.2574
  416MPD2    H7 6217   3.336   2.167  11.521 -0.2904  0.9841 -0.8844
  417TMC3    C1 6218   3.101   2.188  11.448 -0.0328  0.6489  0.7692
  417TMC3    C2 6219   3.134   2.282  11.545 -0.3961  0.6970  0.4696
  417TMC3    C3 6220   3.086   2.405  11.517 -0.4346  0.1811 -0.6517
  417TMC3    C4 6221   3.031   2.200  11.334 -0.2768 -0.0628 -0.1638
  417TMC3    C5 6222   2.976   2.330  11.309  0.1695  0.5071 -0.4343
  417TMC3    C6 6223   3.008   2.433  11.400 -0.0891  0.4436 -0.4343
  417TMC3     C 6224   3.169   2.065  11.457  0.3805  0.4081  0.1798
  417TMC3     O 6225   3.105   1.966  11.417 -0.3158 -0.3320  0.0829
  417TMC3     H 6226   3.197   2.270  11.632 -0.6172 -0.0159  0.5305
  417TMC3    H1 6227   3.029   2.123  11.258 -0.1729 -0.9450  0.7285
  417TMC3    H2 6228   2.974   2.535  11.385  0.0098  0.7320  1.2969
  417TMC3    C7 6229   2.937   2.355  11.172  0.3116 -0.4519  0.3546
  417TMC3    C8 6230   3.099   2.496  11.630  0.6808  0.7010 -0.4044
  417TMC3    O1 6231   2.951   2.463  11.121  0.0941  0.1068 -0.4932
  417TMC3    O2 6232   3.191   2.480  11.711 -0.1330  0.4170  0.1840
  418TMC3    C1 6233   2.777   3.799   0.331 -0.4746  0.4942  0.0365
  418TMC3    C2 6234   2.681   3.896   0.304 -0.6383  0.8196 -0.8096
  418TMC3    C3 6235   2.575   3.907   0.383  0.7996 -0.3242  0.1686
  418TMC3    C4 6236   2.771   3.706   0.431 -1.1372  0.3581  0.2762
  418TMC3    C5 6237   2.667   3.724   0.515  0.3557  0.4667 -0.3661
  418TMC3    C6 6238   2.569   3.821   0.495  0.0439  0.8550 -0.6701
  418TMC3     C 6239   2.861   3.766   0.218  0.8030  0.4745 -0.7717
  418TMC3     O 6240   2.905   3.857   0.153  0.4464  0.0501  0.7531
  418TMC3     H 6241   2.678   3.938   0.204 -0.7393 -1.2152 -1.6610
  418TMC3    H1 6242   2.846   3.630   0.451 -0.5291  1.1441  1.0427
  418TMC3    H2 6243   2.475   3.827   0.548  1.0499  2.3839  0.9205
  418TMC3    C7 6244   2.639   3.620   0.606  0.1144 -0.6049 -0.7390
  418TMC3    C8 6245   2.455   3.942   0.312  0.0856 -0.2516  0.1509
  418TMC3    O1 6246   2.693   3.510   0.593  0.5149 -0.3023  0.4360
  418TMC3    O2 6247   2.433   4.056   0.275  0.3538  0.7613  0.3552
  419MPD2     C 6248   0.703   1.801  11.793 -0.0422  0.1938  0.0590
  419MPD2    C1 6249   0.778   1.900  11.858 -0.1452  0.4209  0.1817
  419MPD2    C2 6250   0.735   1.944  11.983 -0.2879 -0.0749  0.1962
  419MPD2    C3 6251   0.627   1.902  12.048  0.5782  0.1109 -0.5087
  419MPD2    C4 6252   0.561   1.807  11.981 -0.3881 -0.4262 -1.0769
  419MPD2    C5 6253   0.594   1.754  11.864 -0.0235 -0.3385  0.7382
  419MPD2     H 6254   0.806   2.000  12.043 -0.6238  1.0167 -0.4119
  419MPD2    H1 6255   0.474   1.766  12.032  0.5270  0.7418  1.4074
  419MPD2    H2 6256   0.740   1.752  11.703  1.3934  0.4794  0.5087
  419MPD2    H3 6257   0.546   1.667  11.821 -0.2924  1.0606 -1.8242
  419MPD2     N 6258   0.603   1.950  12.183  0.1842  0.4823 -0.0744
  419MPD2    H5 6259   0.679   2.001  12.226  0.8904 -0.2401 -0.4683
  419MPD2    N1 6260   0.904   1.956  11.818 -0.4791  0.5010  0.1743
  419MPD2    H7 6261   0.950   2.028  11.873  0.6635  0.8404 -1.2178
  420TMC3    C1 6262   0.502   1.976  12.402  0.4501 -0.0642 -1.0352
  420TMC3    C2 6263   0.418   2.073  12.459 -0.0706 -0.7335  0.5127
  420TMC3    C3 6264   0.455   2.126  12.583 -0.2155 -0.0387  0.3733
  420TMC3    C4 6265   0.616   1.934  12.473 -0.3972 -0.2340 -0.4274
  420TMC3    C5 6266   0.639   1.993  12.601  0.0181  0.5619  1.2012
  420TMC3    C6 6267   0.563   2.087  12.658 -0.4603  0.3931 -0.1324
  420TMC3     C 6268   0.484   1.929  12.260  0.3549 -0.7597  0.1107
  420TMC3     O 6269   0.369   1.913  12.221  0.3503 -0.0205  0.1494
  420TMC3     H 6270   0.340   2.114  12.396  1.8007  0.7923 -0.8330
  420TMC3    H1 6271   0.678   1.852  12.438  2.1361  0.9033  1.3164
  420TMC3    H2 6272   0.590   2.123  12.757  1.2627 -0.1169 -0.4287
  420TMC3    C7 6273   0.766   1.960  12.658 -0.1848  0.3237  0.2525
  420TMC3    C8 6274   0.396   2.258  12.613 -0.0371 -0.8040  0.5486
  420TMC3    O1 6275   0.857   1.913  12.583 -0.2098 -0.3479  0.3187
  420TMC3    O2 6276   0.345   2.319  12.518 -0.1736  0.6899  0.0227
  421TMC3    C1 6277   3.197   3.194  13.521 -0.4074 -0.9169  0.0121
  421TMC3    C2 6278   3.119   3.295  13.570  0.0338  0.1615  0.2653
  421TMC3    C3 6279   3.173   3.416  13.611 -0.6416 -0.2087 -0.5568
  421TMC3    C4 6280   3.333   3.200  13.529  0.0092 -0.1098  0.3518
  421TMC3    C5 6281   3.389   3.313  13.582 -0.0901 -0.2644  0.4781
  421TMC3    C6 6282   3.309   3.421  13.623 -0.3058  0.1288  0.2225
  421TMC3     C 6283   3.144   3.127  13.410  0.1216  0.7186 -0.8150
  421TMC3     O 6284   3.212   3.122  13.310  0.3134  0.5064 -0.9890
  421TMC3     H 6285   3.012   3.300  13.551  0.1918  2.8735  0.0027
  421TMC3    H1 6286   3.391   3.125  13.476 -0.2374 -0.6508  0.8495
  421TMC3    H2 6287   3.350   3.511  13.666 -0.7984  1.1069 -1.3394
  421TMC3    C7 6288   3.533   3.336  13.573  0.2159  0.1457  0.4067
  421TMC3    C8 6289   3.098   3.532  13.657  0.0713  0.4783  0.3439
  421TMC3    O1 6290   3.584   3.425  13.635  0.3686 -0.8045  0.5504
  421TMC3    O2 6291   3.155   3.615  13.727  0.1440  0.4179  0.3452
  422TMC3    C1 6292   0.010   0.146  12.454 -0.1923  0.9362  0.0635
  422TMC3    C2 6293   4.693   0.279  12.474 -0.5512 -0.4597 -1.2099
  422TMC3    C3 6294   4.564   0.306  12.491  0.2897 -0.4205 -0.4497
  422TMC3    C4 6295   4.641   0.041  12.462  0.4637  0.8294 -0.2713
  422TMC3    C5 6296   4.510   0.074  12.499 -0.6122  0.0255  0.1470
  422TMC3    C6 6297   4.474   0.209  12.512  0.5903 -0.2803 -0.1600
  422TMC3     C 6298   0.134   0.130  12.378  0.8390 -0.0866 -0.5897
  422TMC3     O 6299   0.182   0.234  12.338  0.2614 -0.0597  0.9119
  422TMC3     H 6300   0.046   0.355  12.467  0.6329 -1.6147 -0.8833
  422TMC3    H1 6301   4.662   4.660  12.444  1.8365  0.6561  2.4385
  422TMC3    H2 6302   4.376   0.232  12.554  1.1934  0.6535  0.7207
  422TMC3    C7 6303   4.413   4.692  12.507  0.6031 -0.5795  0.6975
  422TMC3    C8 6304   4.530   0.445  12.484 -0.1740 -0.1784 -0.4471
  422TMC3    O1 6305   4.462   4.581  12.477  0.4147 -0.2370 -0.3496
  422TMC3    O2 6306   4.628   0.520  12.477  0.2919 -0.0300  0.3644
  423MPD2     C 6307   1.535   1.180   0.758 -0.4860 -0.2803  0.5748
  423MPD2    C1 6308   1.431   1.094   0.734  0.0149  0.0078 -0.5777
  423MPD2    C2 6309   1.388   1.069   0.609  0.1563 -0.0669 -0.1556
  423MPD2    C3 6310   1.443   1.128   0.501  0.0551 -0.7893  0.9250
  423MPD2    C4 6311   1.543   1.221   0.528  0.1507  0.0585  0.0563
  423MPD2    C5 6312   1.582   1.245   0.649 -0.7885 -0.2193 -0.1251
  423MPD2     H 6313   1.312   0.992   0.597 -1.3771  1.7506 -2.2729
  423MPD2    H1 6314   1.587   1.284   0.451 -0.4752 -0.6533 -0.8789
  423MPD2    H2 6315   1.563   1.212   0.858  0.0456  1.4572 -0.1398
  423MPD2    H3 6316   1.667   1.312   0.663 -0.7340 -0.0755 -1.1505
  423MPD2     N 6317   1.411   1.093   0.366 -0.2797  0.0701 -0.2589
  423MPD2    H5 6318   1.468   1.127   0.290 -0.3000  1.0328  0.1626
  423MPD2    N1 6319   1.349   1.034   0.834  0.3358 -0.5064 -0.2752
  423MPD2    H7 6320   1.271   0.989   0.788  0.3083  0.5970 -1.3033
  424TMC3    C1 6321   1.262   0.983   1.031  0.0861  0.5216  0.0606
  424TMC3    C2 6322   1.278   0.921   1.158 -0.1095  0.0878  0.0153
  424TMC3    C3 6323   1.171   0.906   1.237  0.6845 -0.9329 -0.3476
  424TMC3    C4 6324   1.141   1.028   0.987  1.0501  0.4806 -0.0044
  424TMC3    C5 6325   1.036   0.999   1.066  0.1840  0.8211 -0.2252
  424TMC3    C6 6326   1.043   0.939   1.190  0.6499  0.4847 -0.3341
  424TMC3     C 6327   1.380   1.039   0.969  0.0623  0.8664  0.1661
  424TMC3     O 6328   1.486   1.054   1.028 -0.9768  0.0775 -0.0561
  424TMC3     H 6329   1.380   0.904   1.190  0.3280 -1.4556 -2.1746
  424TMC3    H1 6330   1.133   1.090   0.899 -1.7879 -1.5735 -1.1835
  424TMC3    H2 6331   0.952   0.911   1.243 -0.2465  3.0522 -0.4618
  424TMC3    C7 6332   0.907   1.009   1.004 -0.1933 -0.0951  0.2276
  424TMC3    C8 6333   1.182   0.789   1.329 -0.6652  0.5212  0.4087
  424TMC3    O1 6334   0.909   1.015   0.880  0.9899 -0.2851 -0.3021
  424TMC3    O2 6335   1.287   0.728   1.314 -0.3668  0.0871  0.7615
  425MPD2     C 6336   0.405   0.448  17.076 -0.0084  0.5059  0.4981
  425MPD2    C1 6337   0.351   0.321  17.068  0.4638  0.2860 -0.1736
  425MPD2    C2 6338   0.219   0.302  17.105 -0.6418  0.2582 -0.4732
  425MPD2    C3 6339   0.149   0.402  17.161 -0.2738 -0.3295 -0.3146
  425MPD2    C4 6340   0.201   0.529  17.173  0.4279  1.3332  0.0227
  425MPD2    C5 6341   0.325   0.551  17.121  0.3254 -0.9694 -0.3511
  425MPD2     H 6342   0.169   0.205  17.106 -1.5831  0.7619  0.7951
  425MPD2    H1 6343   0.146   0.612  17.215  0.8633  0.6256  2.0041
  425MPD2    H2 6344   0.510   0.464  17.057  0.3557 -2.6163 -0.0817
  425MPD2    H3 6345   0.378   0.645  17.123 -0.8885 -0.2607 -1.7606
  425MPD2     N 6346   0.017   0.369  17.190  0.0755  0.1462 -0.4455
  425MPD2    H5 6347   4.708   0.281  17.150 -0.1363 -0.1032  0.2654
  425MPD2    N1 6348   0.446   0.214  17.047 -0.2781  0.8443 -0.2952
  425MPD2    H7 6349   0.543   0.240  17.062 -0.8554  1.8374  1.6354
  426TMC3    C1 6350   0.533   4.716  17.001 -0.1702 -0.0843 -0.5876
  426TMC3    C2 6351   0.519   4.607  16.926 -0.8244 -0.0903  0.0951
  426TMC3    C3 6352   0.632   4.523  16.933 -0.8418 -0.5001  0.0341
  426TMC3    C4 6353   0.640   0.017  17.086 -0.3975 -0.2096 -0.6378
  426TMC3    C5 6354   0.742   4.656  17.087  0.1370 -0.4136 -0.2050
  426TMC3    C6 6355   0.742   4.545  17.008  0.2659  0.1642 -0.3307
  426TMC3     C 6356   0.417   0.080  17.019 -0.0112 -0.0439 -0.1291
  426TMC3     O 6357   0.304   0.034  17.013  0.1055  0.3276 -0.3824
  426TMC3     H 6358   0.430   4.577  16.871 -1.4088 -1.6353  1.8378
  426TMC3    H1 6359   0.640   0.107  17.147  1.2007 -1.0405  0.5638
  426TMC3    H2 6360   0.822   4.473  17.020 -1.5764 -1.9683 -0.9780
  426TMC3    C7 6361   0.820   4.650  17.213 -0.1545 -0.0264  0.5200
  426TMC3    C8 6362   0.616   4.404  16.862  0.1694 -0.3474 -0.2524
  426TMC3    O1 6363   0.914   4.577  17.216  0.5391 -0.1088 -0.2943
  426TMC3    O2 6364   0.715   4.351  16.818 -0.7090  0.4168  0.1587
  427MPD2     C 6365   4.136   2.515  14.548  0.0781  0.1037 -0.4558
  427MPD2    C1 6366   4.084   2.460  14.665  0.6366 -0.5519 -0.5979
  427MPD2    C2 6367   3.955   2.483  14.703 -0.4377 -0.3822 -0.0062
  427MPD2    C3 6368   3.871   2.559  14.624 -0.1330 -0.1221  0.4225
  427MPD2    C4 6369   3.926   2.611  14.507  0.4316 -0.6369 -0.1486
  427MPD2    C5 6370   4.052   2.589  14.470  0.4573 -0.2928  0.2418
  427MPD2     H 6371   3.919   2.441  14.797 -1.0846  0.7616  0.2633
  427MPD2    H1 6372   3.867   2.673  14.441 -1.3267 -1.3979  0.7048
  427MPD2    H2 6373   4.237   2.492  14.516  0.3868  1.0029 -0.1461
  427MPD2    H3 6374   4.084   2.632  14.376  1.3400 -2.8331 -0.6231
  427MPD2     N 6375   3.737   2.588  14.651 -0.2138 -0.2636  0.1154
  427MPD2    H5 6376   3.685   2.624  14.572  0.5383  1.1168  0.2582
  427MPD2    N1 6377   4.172   2.397  14.760  0.0668 -0.4141 -0.0347
  427MPD2    H7 6378   4.135   2.369  14.850  0.8908  0.3391  0.5352
  428TMC3    C1 6379   4.364   2.301  14.865  0.1445  0.3248  0.0973
  428TMC3    C2 6380   4.289   2.247  14.961  0.3730  0.0911 -0.1925
  428TMC3    C3 6381   4.356   2.216  15.076 -0.4699 -0.7127  0.1096
  428TMC3    C4 6382   4.503   2.303  14.868  0.6922 -0.1064 -0.0604
  428TMC3    C5 6383   4.568   2.276  14.988  0.1746 -0.1651  0.5218
  428TMC3    C6 6384   4.492   2.225  15.091  0.3575 -0.3797  0.6143
  428TMC3     C 6385   4.301   2.348  14.739  0.0531 -0.6405  1.0035
  428TMC3     O 6386   4.371   2.344  14.634  0.1243 -0.0667 -0.4433
  428TMC3     H 6387   4.183   2.227  14.949  0.3115  0.8906 -0.9959
  428TMC3    H1 6388   4.559   2.341  14.784 -0.2262 -0.6924 -0.9335
  428TMC3    H2 6389   4.537   2.189  15.182  1.7842  0.2913  0.1671
  428TMC3    C7 6390   4.714   2.282  15.004 -0.6414  0.2450  0.1889
  428TMC3    C8 6391   4.282   2.175  15.183  0.3125  0.2258 -0.9366
  428TMC3    O1 6392   0.030   2.222  15.102  0.4579 -0.4346  0.1928
  428TMC3    O2 6393   4.190   2.094  15.161  0.0617  0.6838  0.5298
  429MPD2     C 6394   4.184   2.511   0.481 -0.1024  0.4729 -0.3064
  429MPD2    C1 6395   4.318   2.474   0.483  0.2428  0.6245 -0.1839
  429MPD2    C2 6396   4.403   2.540   0.400 -0.4958 -0.1765 -0.2433
  429MPD2    C3 6397   4.364   2.638   0.318 -0.3352 -0.3849 -0.2309
  429MPD2    C4 6398   4.235   2.683   0.326  0.4030  0.2348  0.0222
  429MPD2    C5 6399   4.147   2.626   0.416  0.0870  0.3118  0.4601
  429MPD2     H 6400   4.506   2.507   0.388  0.1059  0.9727  1.6303
  429MPD2    H1 6401   4.186   2.766   0.277 -0.3002  0.0119  0.3411
  429MPD2    H2 6402   4.102   2.462   0.532  0.3912  2.2567  2.2074
  429MPD2    H3 6403   4.046   2.665   0.420  0.1416  0.4927  0.0523
  429MPD2     N 6404   4.461   2.691   0.231  0.1000 -0.1946 -0.0074
  429MPD2    H5 6405   4.550   2.642   0.235 -0.4402 -1.0761  1.4384
  429MPD2    N1 6406   4.365   2.359   0.554 -0.2673 -0.3887  0.0765
  429MPD2    H7 6407   4.455   2.320   0.527  0.1485  0.6792 -0.0490
  430TMC3    C1 6408   4.550   2.813   0.045 -0.3272 -0.5967  0.5554
  430TMC3    C2 6409   4.535   2.901  17.635 -0.0359 -0.3095  0.7031
  430TMC3    C3 6410   4.648   2.948  17.581  0.2971 -0.2209  0.3511
  430TMC3    C4 6411   4.677   2.779   0.090 -0.3381 -0.3593 -0.5477
  430TMC3    C5 6412   0.061   2.831   0.028 -0.4796 -0.1552  0.2225
  430TMC3    C6 6413   0.053   2.916  17.613 -0.3078  0.3133 -0.9404
  430TMC3     C 6414   4.435   2.786   0.131  0.2038 -0.1463  0.6098
  430TMC3     O 6415   4.332   2.855   0.106 -0.5303 -0.1470  0.4060
  430TMC3     H 6416   4.436   2.942  17.622 -0.6172 -1.1167  2.5278
  430TMC3    H1 6417   4.693   2.702   0.164  0.2630 -1.5769 -1.9323
  430TMC3    H2 6418   0.139   2.945  17.552 -0.4276 -0.1075 -1.3132
  430TMC3    C7 6419   0.151   2.722   0.004 -0.5247  0.3259 -0.4968
  430TMC3    C8 6420   4.633   3.038  17.469  0.4235 -0.3757 -0.3366
  430TMC3    O1 6421   0.104   2.615  17.664 -0.0723  0.1550 -0.1085
  430TMC3    O2 6422   0.005   3.107  17.443 -0.3864  0.0287 -0.4119
  431MPD2     C 6423   1.805   2.029  12.220  1.1623  0.4746 -0.0975
  431MPD2    C1 6424   1.676   2.061  12.265  0.4902 -0.0394  0.1020
  431MPD2    C2 6425   1.567   2.052  12.179  0.0753  0.8565 -0.2580
  431MPD2    C3 6426   1.586   2.011  12.052 -0.6724  0.4189 -0.1772
  431MPD2    C4 6427   1.707   1.973  12.003 -0.1045 -0.5177 -0.1562
  431MPD2    C5 6428   1.817   1.977  12.093  0.1762  0.3768  0.6575
  431MPD2     H 6429   1.472   2.091  12.215 -1.0409 -1.1717 -0.9934
  431MPD2    H1 6430   1.718   1.939  11.901 -2.4533 -2.6402  0.3019
  431MPD2    H2 6431   1.891   2.042  12.283  2.5213  0.7772 -2.0176
  431MPD2    H3 6432   1.917   1.966  12.052 -0.4016 -2.8506  0.1032
  431MPD2     N 6433   1.490   2.028  11.957  0.1669 -0.1046  0.1019
  431MPD2    H5 6434   1.526   2.004  11.865 -0.1351  1.0306 -0.3132
  431MPD2    N1 6435   1.654   2.125  12.388  0.3385  0.2407  0.0892
  431MPD2    H7 6436   1.569   2.180  12.398  0.4179  0.1265  1.4965
  432TMC3    C1 6437   1.290   2.050  11.848  0.5711  0.3603 -0.0924
  432TMC3    C2 6438   1.365   2.064  11.734 -0.4567  0.2839  0.0960
  432TMC3    C3 6439   1.298   2.035  11.616 -1.3419  0.2646 -0.0484
  432TMC3    C4 6440   1.167   1.992  11.846  0.0668  0.1698 -0.1774
  432TMC3    C5 6441   1.111   1.947  11.728 -0.9437 -0.2170 -0.4113
  432TMC3    C6 6442   1.173   1.971  11.613 -0.3034  0.2360  0.1836
  432TMC3     C 6443   1.357   2.060  11.978  0.5165  0.6063 -0.1802
  432TMC3     O 6444   1.291   2.061  12.081  0.1667 -0.6164 -0.0965
  432TMC3     H 6445   1.455   2.124  11.729  1.4824 -2.8091 -1.8768
  432TMC3    H1 6446   1.124   1.986  11.946  0.4366  1.1119  0.0375
  432TMC3    H2 6447   1.136   1.939  11.517 -3.2233  2.2477  0.6128
  432TMC3    C7 6448   0.984   1.901  11.716 -0.4090  0.1109 -0.5003
  432TMC3    C8 6449   1.356   2.066  11.482 -0.1199  0.1457  0.5483
  432TMC3    O1 6450   0.955   1.808  11.642  0.3840 -0.6734  0.0093
  432TMC3    O2 6451   1.318   1.996  11.391 -0.0920 -0.2286 -0.0798
  433MPD2     C 6452   4.511   1.323  10.641 -0.4425 -0.6706 -0.3536
  433MPD2    C1 6453   4.553   1.219  10.717  1.3307 -0.3796 -0.3049
  433MPD2    C2 6454   4.616   1.246  10.840 -0.4328 -0.0033  0.4449
  433MPD2    C3 6455   4.644   1.382  10.867 -0.2673  0.0528  1.0121
  433MPD2    C4 6456   4.615   1.480  10.779  0.5199  0.2426  0.6800
  433MPD2    C5 6457   4.561   1.449  10.660 -0.4489 -0.4391  0.3959
  433MPD2     H 6458   4.640   1.175  10.918  1.9421  1.0316  0.6355
  433MPD2    H1 6459   4.640   1.583  10.801 -1.9651  0.8275  0.6939
  433MPD2    H2 6460   4.442   1.306  10.559 -1.6115 -0.7863  0.6535
  433MPD2    H3 6461   4.528   1.536  10.603  0.1384 -0.1267  0.5341
  433MPD2     N 6462   4.714   1.407  10.992 -0.7496  0.4482  0.2954
  433MPD2    H5 6463   0.003   1.326  11.051 -0.1796  0.0245 -0.4112
  433MPD2    N1 6464   4.523   1.086  10.674 -0.0908  0.3268 -0.0328
  433MPD2    H7 6465   4.507   1.074  10.575  1.4542  0.5189 -0.3074
  434TMC3    C1 6466   4.508   0.854  10.662  0.1014 -0.1630 -0.5744
  434TMC3    C2 6467   4.574   0.739  10.692  0.1882 -0.4676 -0.5749
  434TMC3    C3 6468   4.532   0.617  10.642 -0.2181 -0.3380  0.2132
  434TMC3    C4 6469   4.407   0.849  10.579 -0.3275  0.1217  0.1587
  434TMC3    C5 6470   4.371   0.736  10.521 -0.3123 -0.0202 -1.4283
  434TMC3    C6 6471   4.433   0.615  10.556 -0.6722  0.2329  0.0518
  434TMC3     C 6472   4.536   0.969  10.746  0.2208 -0.4209 -0.0960
  434TMC3     O 6473   4.579   0.947  10.859 -0.3069  0.0434 -0.3003
  434TMC3     H 6474   4.650   0.749  10.768 -0.3204 -0.1845 -0.1036
  434TMC3    H1 6475   4.368   0.947  10.550  1.2681  0.9016  0.6500
  434TMC3    H2 6476   4.402   0.518  10.519  1.2148 -0.0663 -0.7167
  434TMC3    C7 6477   4.267   0.737  10.417  0.5599  0.7825  0.1916
  434TMC3    C8 6478   4.583   0.493  10.689 -0.1885 -0.0417 -0.4603
  434TMC3    O1 6479   4.176   0.821  10.431  0.1015 -0.2300 -0.3527
  434TMC3    O2 6480   4.515   0.395  10.670  0.4379 -0.4058  0.1151
  435MPD2     C 6481   1.756   1.449  15.259  0.3182  0.0267  0.2108
  435MPD2    C1 6482   1.745   1.445  15.396  0.3715  0.0727  0.3222
  435MPD2    C2 6483   1.847   1.380  15.470  0.1282  0.4567 -0.6095
  435MPD2    C3 6484   1.956   1.334  15.408  0.1431 -0.4840 -0.3982
  435MPD2    C4 6485   1.970   1.333  15.272 -0.6322  0.1496 -0.0017
  435MPD2    C5 6486   1.869   1.387  15.199  0.3322 -0.3553 -0.0528
  435MPD2     H 6487   1.838   1.377  15.579 -1.6875 -1.5204 -0.7880
  435MPD2    H1 6488   2.060   1.299  15.221  0.4922  0.4026  1.8069
  435MPD2    H2 6489   1.680   1.504  15.203  0.6235  1.8179  1.5521
  435MPD2    H3 6490   1.879   1.395  15.092 -0.4015  2.1369  0.0592
  435MPD2     N 6491   2.045   1.267  15.491  0.6196  0.4262 -0.1144
  435MPD2    H5 6492   2.030   1.268  15.592 -0.4047  0.6433 -0.2694
  435MPD2    N1 6493   1.635   1.492  15.467 -0.0825  0.7538  0.1523
  435MPD2    H7 6494   1.653   1.491  15.567 -0.8383 -1.6817  0.2751
  436TMC3    C1 6495   1.395   1.539  15.763  0.2358 -0.1633  0.0015
  436TMC3    C2 6496   1.469   1.563  15.647  0.5388 -0.0301 -0.2832
  436TMC3    C3 6497   1.420   1.516  15.526  0.4486  0.5447 -0.1562
  436TMC3    C4 6498   1.277   1.475  15.762 -0.1357  1.2051  0.5607
  436TMC3    C5 6499   1.234   1.429  15.639  0.2234  0.1085  0.0500
  436TMC3    C6 6500   1.298   1.456  15.519  0.6200  0.3311 -0.6972
  436TMC3     C 6501   1.451   1.604  15.880  0.2999 -0.2165 -0.0008
  436TMC3     O 6502   1.577   1.610  15.879  0.1756 -1.1703 -0.1854
  436TMC3     H 6503   1.553   1.631  15.659 -0.3607  0.7848  1.3440
  436TMC3    H1 6504   1.220   1.446  15.849  0.0382 -1.9944 -0.3878
  436TMC3    H2 6505   1.271   1.412  15.423 -2.2378 -0.2216  0.3554
  436TMC3    C7 6506   1.124   1.331  15.647 -0.5694 -0.0329 -0.6440
  436TMC3    C8 6507   1.511   1.520  15.412  0.1171  0.1358 -0.6906
  436TMC3    O1 6508   1.077   1.294  15.753  0.2397 -0.3188 -0.2658
  436TMC3    O2 6509   1.469   1.483  15.299  0.2849 -0.1325  0.0778
  437TMC3    C1 6510   0.864   3.141  11.736  0.6729 -0.0731 -0.0458
  437TMC3    C2 6511   0.840   3.043  11.639 -0.6326 -0.7471 -0.5327
  437TMC3    C3 6512   0.835   2.915  11.679  0.2652 -0.3168  1.0327
  437TMC3    C4 6513   0.888   3.116  11.867 -0.2744 -0.1243 -0.7444
  437TMC3    C5 6514   0.897   2.987  11.899 -0.1123 -0.2490 -0.4983
  437TMC3    C6 6515   0.860   2.886  11.809  0.0882  0.3633 -0.4029
  437TMC3     C 6516   0.849   3.276  11.697 -0.1250  0.2798  0.7784
  437TMC3     O 6517   0.906   3.301  11.589 -0.0579  0.2193  0.1837
  437TMC3     H 6518   0.833   3.061  11.532 -2.5136  0.3727 -0.2050
  437TMC3    H1 6519   0.901   3.196  11.939 -0.7200 -0.5459 -0.1992
  437TMC3    H2 6520   0.859   2.785  11.849 -0.0398 -0.7527 -3.2255
  437TMC3    C7 6521   0.903   2.963  12.039  0.5495  0.2109 -1.1200
  437TMC3    C8 6522   0.872   2.804  11.587 -0.4992  0.2960 -0.4359
  437TMC3    O1 6523   0.857   2.859  12.084 -0.5984 -0.5008 -0.0823
  437TMC3    O2 6524   0.862   2.688  11.629  0.1987 -0.0982  0.3934
  438MPD2     C 6525   2.883   4.006  16.671 -0.2946 -0.2125  0.6118
  438MPD2    C1 6526   2.973   3.930  16.738 -0.3913  0.0954 -0.5538
  438MPD2    C2 6527   2.949   3.890  16.866 -0.7243  0.2751 -0.7898
  438MPD2    C3 6528   2.822   3.909  16.920 -0.3521  0.4930  0.1534
  438MPD2    C4 6529   2.733   3.984  16.847 -0.0427 -0.2152 -0.0588
  438MPD2    C5 6530   2.760   4.038  16.725 -0.7132 -0.0583 -0.4583
  438MPD2     H 6531   3.023   3.829  16.917 -2.3561  0.9236  2.2939
  438MPD2    H1 6532   2.630   3.998  16.879  0.3878  2.7035  0.0847
  438MPD2    H2 6533   2.897   4.031  16.567  1.2158  0.0767  0.8821
  438MPD2    H3 6534   2.687   4.101  16.675 -1.3452  0.8433  1.5747
  438MPD2     N 6535   2.785   3.867  17.049  0.4120  0.3028 -0.5023
  438MPD2    H5 6536   2.702   3.905  17.093  0.3292 -2.7275  1.9378
  438MPD2    N1 6537   3.097   3.890  16.683 -0.2610  0.0643 -0.1124
  438MPD2    H7 6538   3.161   3.852  16.752 -0.3677  0.1738  0.0456
  439TMC3    C1 6539   3.251   3.795  16.520  0.1296 -0.3963  0.3791
  439TMC3    C2 6540   3.286   3.785  16.389 -0.8233  0.5861 -0.2330
  439TMC3    C3 6541   3.396   3.714  16.355  0.9384  0.0677  0.2435
  439TMC3    C4 6542   3.332   3.736  16.616 -0.2139  0.2229  0.6590
  439TMC3    C5 6543   3.447   3.667  16.574 -0.4555  0.2089  0.3895
  439TMC3    C6 6544   3.481   3.653  16.444  0.1741 -0.3590  1.2672
  439TMC3     C 6545   3.127   3.875  16.550 -0.7552 -0.8096 -0.5188
  439TMC3     O 6546   3.050   3.902  16.456  0.3949  0.4091 -0.0086
  439TMC3     H 6547   3.215   3.815  16.312  0.4672 -0.9648 -2.0136
  439TMC3    H1 6548   3.310   3.725  16.721 -1.5140 -1.7712  0.1801
  439TMC3    H2 6549   3.570   3.601  16.412 -0.9506 -0.9441 -0.9027
  439TMC3    C7 6550   3.462   3.534  16.641 -0.0094  0.0789  0.2583
  439TMC3    C8 6551   3.404   3.638  16.225  0.3008  0.6542  0.2513
  439TMC3    O1 6552   3.457   3.432  16.574 -0.3043  0.3408 -0.5468
  439TMC3    O2 6553   3.460   3.527  16.226 -0.0491 -0.0582 -0.5305
  440MPD2     C 6554   2.102   4.154  14.478 -0.2212 -0.1606 -0.3703
  440MPD2    C1 6555   2.119   4.269  14.560 -0.6846 -0.5853  0.2152
  440MPD2    C2 6556   2.233   4.280  14.639 -0.1123 -0.3527  0.2887
  440MPD2    C3 6557   2.320   4.170  14.655  0.3664  0.3894  0.3984
  440MPD2    C4 6558   2.295   4.052  14.591 -0.1848 -0.7571  0.1030
  440MPD2    C5 6559   2.196   4.052  14.488 -0.4996  0.6261  0.3066
  440MPD2     H 6560   2.259   4.375  14.683  2.0781  0.0549 -1.8448
  440MPD2    H1 6561   2.368   3.973  14.585  3.4123  2.4062  2.0179
  440MPD2    H2 6562   2.014   4.139  14.417 -1.1629 -1.4960  1.2929
  440MPD2    H3 6563   2.210   3.963  14.429 -0.6199  0.3218  0.7375
  440MPD2     N 6564   2.427   4.175  14.748 -0.3235 -0.6689  0.9794
  440MPD2    H5 6565   2.488   4.094  14.742  1.1458  0.3703  1.9360
  440MPD2    N1 6566   2.024   4.377  14.549 -0.6263 -0.1541  0.3546
  440MPD2    H7 6567   2.051   4.461  14.598 -0.0823  0.7017 -1.4349
  441TMC3    C1 6568   2.577   4.229  14.933  0.5042 -0.3005  0.2131
  441TMC3    C2 6569   2.623   4.335  15.007 -0.4327 -0.3409  0.1577
  441TMC3    C3 6570   2.669   4.326  15.132  0.3923 -0.8361 -0.2769
  441TMC3    C4 6571   2.568   4.101  14.992 -0.6470 -0.1328  0.5055
  441TMC3    C5 6572   2.584   4.100  15.131 -0.2518 -0.6214 -0.1576
  441TMC3    C6 6573   2.641   4.204  15.195 -0.5276 -0.0422 -0.8074
  441TMC3     C 6574   2.463   4.275  14.842  0.2837 -0.1090  0.2802
  441TMC3     O 6575   2.413   4.386  14.859  0.4445  0.2748  0.0845
  441TMC3     H 6576   2.630   4.434  14.962  1.5094  0.0437  1.3336
  441TMC3    H1 6577   2.494   4.035  14.946 -0.0913  0.1170 -0.7553
  441TMC3    H2 6578   2.637   4.204  15.303  0.2134 -1.0775 -0.7836
  441TMC3    C7 6579   2.537   3.982  15.203  0.3402 -0.3781 -0.0802
  441TMC3    C8 6580   2.641   4.439  15.203 -0.4106  0.4828  0.0070
  441TMC3    O1 6581   2.551   3.870  15.153  1.1107  0.1760  0.0965
  441TMC3    O2 6582   2.734   4.504  15.244 -0.5350 -0.5884 -0.2911
  442MPD2     C 6583   0.046   0.341  16.342  0.2425 -0.0285  0.3510
  442MPD2    C1 6584   0.003   0.272  16.455  0.2923  0.1194 -0.4314
  442MPD2    C2 6585   0.032   0.141  16.472 -0.0185 -0.3443  0.7772
  442MPD2    C3 6586   0.116   0.085  16.373 -0.4953 -0.2764 -1.0921
  442MPD2    C4 6587   0.178   0.166  16.278  1.0166 -0.5835  0.1518
  442MPD2    C5 6588   0.137   0.294  16.259 -0.2454 -0.4296 -0.1856
  442MPD2     H 6589   4.715   0.089  16.558 -0.2986 -2.8476 -0.8674
  442MPD2    H1 6590   0.249   0.126  16.207  1.8636 -0.7967  1.1218
  442MPD2    H2 6591   0.011   0.441  16.321 -2.5660 -1.3855 -1.4041
  442MPD2    H3 6592   0.170   0.357  16.177  1.7191 -3.0228 -1.3731
  442MPD2     N 6593   0.169   4.673  16.360 -1.1723  0.4887 -0.3918
  442MPD2    H5 6594   0.240   4.665  16.288 -0.7155  2.7586 -0.2080
  442MPD2    N1 6595   4.627   0.326  16.535 -0.0214  0.1576  0.5401
  442MPD2    H7 6596   4.569   0.263  16.589 -1.5464  0.5753 -0.5918
  443TMC3    C1 6597   4.478   0.473  16.626 -0.1981  0.4428  0.5039
  443TMC3    C2 6598   4.394   0.576  16.589 -0.3088 -0.3948 -0.1213
  443TMC3    C3 6599   4.273   0.585  16.643  0.4565 -1.3421  0.2589
  443TMC3    C4 6600   4.449   0.385  16.725 -0.5113  0.4250  0.2890
  443TMC3    C5 6601   4.333   0.404  16.786 -0.1819  0.0144 -0.5013
  443TMC3    C6 6602   4.248   0.509  16.753 -0.1055 -0.0031 -0.7164
  443TMC3     C 6603   4.587   0.454  16.537 -0.5891  0.7844 -0.2919
  443TMC3     O 6604   4.635   0.552  16.485 -0.1481 -0.0086 -0.2515
  443TMC3     H 6605   4.428   0.641  16.509  0.3807 -0.4764  0.1079
  443TMC3    H1 6606   4.518   0.306  16.752 -0.6251 -0.2685 -1.3980
  443TMC3    H2 6607   4.144   0.514  16.786  0.0517 -2.4377  0.1493
  443TMC3    C7 6608   4.295   0.318  16.895  0.8637  0.1105  0.0747
  443TMC3    C8 6609   4.179   0.686  16.606  0.4139 -0.2754 -0.0257
  443TMC3    O1 6610   4.360   0.214  16.909 -0.2864  0.5143 -1.1630
  443TMC3    O2 6611   4.151   0.759  16.699 -0.0809  0.3362 -0.0264
  444MPD2     C 6612   0.484   4.147  17.325  0.0884  0.0857  0.4649
  444MPD2    C1 6613   0.435   4.055  17.245 -1.0234 -0.0988 -0.5043
  444MPD2    C2 6614   0.520   3.998  17.148  0.2218 -0.0955 -0.3866
  444MPD2    C3 6615   0.655   4.023  17.149 -0.1735 -1.0916  0.0947
  444MPD2    C4 6616   0.706   4.107  17.245  0.1298 -0.0647  0.3528
  444MPD2    C5 6617   0.617   4.171  17.328  0.6850 -0.2391  0.1178
  444MPD2     H 6618   0.476   3.928  17.078  0.2699  0.7227 -1.2344
  444MPD2    H1 6619   0.806   4.147  17.234  0.5331 -1.1801 -0.0396
  444MPD2    H2 6620   0.431   4.194  17.407 -1.3084  0.8015 -0.8514
  444MPD2    H3 6621   0.661   4.236  17.404  0.0950 -0.4206  0.6100
  444MPD2     N 6622   0.730   3.947  17.066  0.4526 -0.2253  0.5150
  444MPD2    H5 6623   0.688   3.867  17.019 -0.0894  0.4380 -0.1335
  444MPD2    N1 6624   0.295   4.034  17.242  0.3135  0.0456 -0.7224
  444MPD2    H7 6625   0.261   3.981  17.162  2.5823 -3.7668  0.8373
  445TMC3    C1 6626   0.919   3.834  17.027 -0.5126 -0.2509  0.2567
  445TMC3    C2 6627   0.885   3.734  17.112 -0.8983 -0.0224  0.1908
  445TMC3    C3 6628   0.957   3.618  17.102  0.0262  0.5890 -0.0800
  445TMC3    C4 6629   1.026   3.833  16.942  0.6573  0.4800  0.0530
  445TMC3    C5 6630   1.102   3.723  16.940  0.0834 -0.7552  0.2321
  445TMC3    C6 6631   1.069   3.606  17.014  1.3638  0.1675 -1.0232
  445TMC3     C 6632   0.868   3.964  17.042  0.5508  0.0906 -0.3331
  445TMC3     O 6633   0.935   4.064  17.050  0.1329  0.0360 -0.2713
  445TMC3     H 6634   0.796   3.734  17.174 -1.2106  1.0168 -0.2528
  445TMC3    H1 6635   1.052   3.919  16.881 -1.7410  0.4521 -0.9753
  445TMC3    H2 6636   1.135   3.521  17.021  1.8369  0.6784  0.5435
  445TMC3    C7 6637   1.203   3.707  16.835 -0.3057 -0.6732 -0.2678
  445TMC3    C8 6638   0.931   3.512  17.200  0.0783 -0.1666  0.3011
  445TMC3    O1 6639   1.232   3.807  16.770  0.1246  0.2202  0.2643
  445TMC3    O2 6640   0.857   3.531  17.295  0.0007 -0.3036 -0.4219
  446MPD2     C 6641   4.554   0.439  11.157 -0.1816  0.2095 -0.9454
  446MPD2    C1 6642   4.496   0.522  11.059  0.8761  0.0446 -0.0920
  446MPD2    C2 6643   4.554   0.643  11.040 -0.4315  0.5045 -0.1627
  446MPD2    C3 6644   4.669   0.683  11.100  0.1370  0.3786 -0.4367
  446MPD2    C4 6645   4.717   0.600  11.209 -0.0905 -0.2812 -0.1484
  446MPD2    C5 6646   4.662   0.479  11.231 -0.0195  1.0555  0.3540
  446MPD2     H 6647   4.512   0.713  10.969 -2.0723 -0.5503 -0.2404
  446MPD2    H1 6648   0.078   0.634  11.267  0.7850 -1.0957 -0.9377
  446MPD2    H2 6649   4.519   0.337  11.171  1.5233 -0.1161  0.9799
  446MPD2    H3 6650   4.699   0.409  11.305 -1.0285 -0.2972 -0.4147
  446MPD2     N 6651   0.015   0.795  11.043 -0.3931 -0.9947  0.0669
  446MPD2    H5 6652   4.696   0.833  10.959 -0.8513  0.5532  0.9874
  446MPD2    N1 6653   4.380   0.488  10.980 -0.1361  0.9260 -0.2171
  446MPD2    H7 6654   4.322   0.561  10.941 -1.3530  0.1223  0.0920
  447TMC3    C1 6655   0.189   0.962  11.015 -0.0356 -0.1665 -0.4972
  447TMC3    C2 6656   0.177   0.966  10.874  0.0365 -0.1109 -0.1655
  447TMC3    C3 6657   0.274   1.033  10.807  0.3672 -0.3291 -0.0875
  447TMC3    C4 6658   0.288   1.025  11.083  0.0630  0.1925  0.2245
  447TMC3    C5 6659   0.378   1.091  10.998  0.4927 -0.5253  0.2848
  447TMC3    C6 6660   0.369   1.110  10.865  0.3767 -0.2172  0.7662
  447TMC3     C 6661   0.124   0.858  11.098 -0.2643  0.3341  0.3630
  447TMC3     O 6662   0.172   0.835  11.211 -0.0398 -0.1269 -0.0755
  447TMC3     H 6663   0.087   0.937  10.821 -0.6422 -1.4351  1.7073
  447TMC3    H1 6664   0.284   1.030  11.191  1.0175 -3.3756  0.4030
  447TMC3    H2 6665   0.436   1.174  10.809  1.2021 -0.4033  1.5415
  447TMC3    C7 6666   0.509   1.127  11.052 -0.3028  0.5690  0.4605
  447TMC3    C8 6667   0.233   1.060  10.667 -0.5741  0.0020 -0.1750
  447TMC3    O1 6668   0.600   1.135  10.971 -0.2374  0.1603  1.2219
  447TMC3    O2 6669   0.116   1.072  10.634  0.3405  0.5597 -0.0071
  448TMC3    C1 6670   3.019   0.658  16.385  0.2984 -0.1347  0.2714
  448TMC3    C2 6671   3.118   0.578  16.348 -0.2432  0.5258 -0.0922
  448TMC3    C3 6672   3.220   0.567  16.435 -0.1959 -0.6948 -0.9011
  448TMC3    C4 6673   3.015   0.723  16.504  0.9800  0.4930  0.4830
  448TMC3    C5 6674   3.106   0.687  16.600  0.7702 -0.1429 -0.1181
  448TMC3    C6 6675   3.219   0.616  16.561  0.0470 -0.4638 -0.1447
  448TMC3     C 6676   2.902   0.689  16.297 -0.5709 -0.1288 -0.2688
  448TMC3     O 6677   2.809   0.754  16.341 -0.1009  0.6230  0.3992
  448TMC3     H 6678   3.109   0.502  16.271  2.2563 -1.0095  1.1248
  448TMC3    H1 6679   2.933   0.792  16.524 -0.0217 -1.0980  1.8108
  448TMC3    H2 6680   3.302   0.610  16.631 -0.1217 -1.6486 -0.0406
  448TMC3    C7 6681   3.092   0.750  16.726 -0.2519 -0.7991  0.1200
  448TMC3    C8 6682   3.310   0.457  16.417  0.4610 -0.2587  0.6634
  448TMC3    O1 6683   3.057   0.866  16.731  0.1123  0.2778 -0.3901
  448TMC3    O2 6684   3.347   0.400  16.518  0.1945 -0.5017  0.0246
  449MPD2     C 6685   0.127   3.947  13.478  0.5507  0.2227  0.1629
  449MPD2    C1 6686   0.016   3.881  13.433  0.0827 -0.1976 -0.3788
  449MPD2    C2 6687   0.010   3.734  13.450  0.0721 -0.2887  0.2102
  449MPD2    C3 6688   0.123   3.667  13.513 -0.4609 -0.9156 -0.1907
  449MPD2    C4 6689   0.236   3.744  13.554  0.1573 -0.2333  0.0894
  449MPD2    C5 6690   0.227   3.880  13.542  0.1217  0.7597 -0.2766
  449MPD2     H 6691   4.649   3.674  13.419 -1.9580  2.5482  0.2905
  449MPD2    H1 6692   0.320   3.696  13.603  0.8635 -0.1966 -1.0753
  449MPD2    H2 6693   0.121   4.055  13.467  1.6287  0.5683  2.8143
  449MPD2    H3 6694   0.318   3.933  13.568  1.3846 -1.3005 -0.4913
  449MPD2     N 6695   0.098   3.527  13.526 -0.0098  0.0232  0.1782
  449MPD2    H5 6696   0.009   3.494  13.490  1.1235 -0.3656 -2.2486
  449MPD2    N1 6697   4.636   3.939  13.366  0.2635  0.5737  0.3783
  449MPD2    H7 6698   4.557   3.884  13.336 -0.9846  2.1923  0.7242
  450TMC3    C1 6699   4.518   4.083  13.233  0.1967 -0.0763  0.1152
  450TMC3    C2 6700   4.556   4.080  13.100 -0.0166  0.1806 -0.2469
  450TMC3    C3 6701   4.490   4.010  13.012 -0.8055  0.1681  0.5312
  450TMC3    C4 6702   4.412   4.009  13.272 -0.3449  0.1429 -0.2300
  450TMC3    C5 6703   4.339   3.932  13.180 -0.1207  0.2772 -0.3368
  450TMC3    C6 6704   4.374   3.943  13.046 -0.0394 -0.1348 -0.1122
  450TMC3     C 6705   4.635   4.061  13.312  0.5351 -0.2192  0.1658
  450TMC3     O 6706   0.012   4.129  13.291  0.3703 -0.3822 -0.1106
  450TMC3     H 6707   4.635   4.146  13.066  0.4175 -1.4110 -2.3183
  450TMC3    H1 6708   4.384   4.009  13.376  0.3366  0.3541 -0.0460
  450TMC3    H2 6709   4.321   3.878  12.977 -0.4697  1.3542 -1.1672
  450TMC3    C7 6710   4.330   3.797  13.231  0.6786 -0.5984  0.1725
  450TMC3    C8 6711   4.541   4.001  12.879  0.5714 -0.1896  0.0810
  450TMC3    O1 6712   4.427   3.780  13.303 -0.0816 -0.3082 -0.7036
  450TMC3    O2 6713   4.464   3.944  12.805  0.3746  0.0039  0.2755
  451MPD2     C 6714   0.880   3.484   0.760  0.0093  0.0003  0.2365
  451MPD2    C1 6715   0.819   3.448   0.877  0.1262 -0.6355 -0.1820
  451MPD2    C2 6716   0.789   3.313   0.895 -0.3324  0.1084  0.5684
  451MPD2    C3 6717   0.816   3.211   0.800  0.5467 -0.2790  0.1670
  451MPD2    C4 6718   0.888   3.255   0.694  0.1084 -0.3792  1.1720
  451MPD2    C5 6719   0.907   3.385   0.676  0.6512  0.1822  0.4677
  451MPD2     H 6720   0.762   3.279   0.994  2.4731 -0.9990  0.9433
  451MPD2    H1 6721   0.925   3.185   0.620 -0.4995  0.0684  0.4419
  451MPD2    H2 6722   0.921   3.582   0.741  2.3913  0.0059  5.4558
  451MPD2    H3 6723   0.959   3.415   0.585  0.5496  1.5966  0.8695
  451MPD2     N 6724   0.778   3.077   0.803 -0.5262 -0.0027  0.0552
  451MPD2    H5 6725   0.822   3.028   0.725  2.3800  1.1167  0.9725
  451MPD2    N1 6726   0.803   3.550   0.971 -0.1508 -0.5509  0.5596
  451MPD2    H7 6727   0.844   3.641   0.952  0.4323 -1.0430 -0.4986
  452TMC3    C1 6728   0.662   2.876   0.861 -0.2355 -0.0775  0.2228
  452TMC3    C2 6729   0.622   2.800   0.963 -0.2112 -0.4953  0.2636
  452TMC3    C3 6730   0.612   2.666   0.943  0.0001  0.6486  0.2959
  452TMC3    C4 6731   0.702   2.825   0.740 -0.5718  0.1902  0.2290
  452TMC3    C5 6732   0.684   2.693   0.722 -0.0324  0.3852 -0.1023
  452TMC3    C6 6733   0.636   2.609   0.822  0.2348 -0.2147 -0.1631
  452TMC3     C 6734   0.695   3.015   0.896  0.1895  0.6827  0.5054
  452TMC3     O 6735   0.643   3.059   0.995 -0.1042 -0.3070 -0.1051
  452TMC3     H 6736   0.590   2.838   1.060 -0.8663 -0.3358 -0.0176
  452TMC3    H1 6737   0.743   2.880   0.656  0.2990 -0.4359  0.2434
  452TMC3    H2 6738   0.624   2.502   0.813 -0.4547 -0.6279  5.4707
  452TMC3    C7 6739   0.726   2.636   0.594 -0.1574 -0.0480 -0.5187
  452TMC3    C8 6740   0.556   2.581   1.051  0.2284  0.3261 -0.3479
  452TMC3    O1 6741   0.806   2.692   0.519  0.5763 -0.1691  0.3951
  452TMC3    O2 6742   0.572   2.614   1.168 -0.2987 -0.2340  0.3567
  453TMC3    C1 6743   2.167   4.692  11.717  0.5781 -0.3656  0.0161
  453TMC3    C2 6744   2.075   4.625  11.795 -0.4251 -0.1029 -0.0236
  453TMC3    C3 6745   1.961   4.598  11.731  0.0801 -1.1760 -0.0732
  453TMC3    C4 6746   2.136   0.033  11.597 -0.3659 -0.1107  0.0211
  453TMC3    C5 6747   2.012   0.002  11.546 -0.2223 -0.0306 -0.8527
  453TMC3    C6 6748   1.925   4.643  11.606  0.1083  0.1457 -0.4781
  453TMC3     C 6749   2.292   4.719  11.785 -0.1242 -0.8213  0.1615
  453TMC3     O 6750   2.361   0.085  11.743  0.4310  0.8152  0.7626
  453TMC3     H 6751   2.088   4.598  11.899 -0.4774 -1.4419 -0.3697
  453TMC3    H1 6752   2.206   0.089  11.538 -1.6125 -0.7554 -2.0619
  453TMC3    H2 6753   1.822   4.630  11.573 -0.1261  0.1237  0.2777
  453TMC3    C7 6754   2.006   4.696  11.402  1.0686  0.4491 -0.0379
  453TMC3    C8 6755   1.962   4.452  11.721  0.1730  0.3752  0.3148
  453TMC3    O1 6756   1.924   4.607  11.381 -0.0062 -0.3759  0.0733
  453TMC3    O2 6757   2.016   4.391  11.810  0.0609  0.3769 -0.3604
  454MPD2     C 6758   1.354   3.994  16.233 -0.5694  0.4153 -0.0679
  454MPD2    C1 6759   1.284   3.878  16.187 -0.5599 -0.3837  0.6997
  454MPD2    C2 6760   1.219   3.791  16.273 -0.5627 -0.7865  0.3500
  454MPD2    C3 6761   1.202   3.839  16.404  0.0419  0.3201  0.3836
  454MPD2    C4 6762   1.266   3.956  16.450  0.0979 -0.1729  0.2231
  454MPD2    C5 6763   1.340   4.028  16.362 -0.2436 -0.1882 -0.5794
  454MPD2     H 6764   1.174   3.698  16.241 -0.6330 -0.1311 -1.4873
  454MPD2    H1 6765   1.250   3.995  16.550  1.3809 -3.3138  1.6595
  454MPD2    H2 6766   1.386   4.074  16.167 -0.8654  0.2424 -0.4200
  454MPD2    H3 6767   1.387   4.117  16.402  1.3022 -0.9081 -0.7565
  454MPD2     N 6768   1.115   3.781  16.500  0.5090 -0.5611 -0.3373
  454MPD2    H5 6769   1.121   3.821  16.594 -2.7506 -0.2155 -0.3031
  454MPD2    N1 6770   1.273   3.850  16.051  0.5727  0.1970 -0.6066
  454MPD2    H7 6771   1.218   3.767  16.031  0.0071  0.2504  0.7715
  455TMC3    C1 6772   0.927   3.661  16.572  0.3623 -0.5051  0.2130
  455TMC3    C2 6773   0.877   3.781  16.605 -0.0811 -0.8121  0.2433
  455TMC3    C3 6774   0.738   3.798  16.602 -0.7606  0.6706  0.0073
  455TMC3    C4 6775   0.843   3.549  16.549 -0.1633  0.1037  0.9393
  455TMC3    C5 6776   0.706   3.562  16.552  0.7975  0.3381  0.0681
  455TMC3    C6 6777   0.652   3.687  16.578  0.3041 -0.7445  0.3323
  455TMC3     C 6778   1.048   3.659  16.489 -0.1766  0.3118 -0.3375
  455TMC3     O 6779   1.048   3.589  16.392 -0.0133  0.2707 -0.0158
  455TMC3     H 6780   0.935   3.862  16.649  0.2048 -0.9736  0.1576
  455TMC3    H1 6781   0.900   3.461  16.521 -1.5992 -0.9967  1.4815
  455TMC3    H2 6782   0.548   3.702  16.553  0.7996  2.9502  0.5400
  455TMC3    C7 6783   0.641   3.480  16.454  0.0757  0.3566 -0.1153
  455TMC3    C8 6784   0.681   3.923  16.634 -0.9949 -0.3972  0.4731
  455TMC3    O1 6785   0.537   3.519  16.411  0.2980 -0.3678  0.1456
  455TMC3    O2 6786   0.756   4.021  16.644  0.9107  0.0174 -0.2838
  456MPD2     C 6787   3.855   3.776  16.194 -0.3598 -0.3346 -0.1242
  456MPD2    C1 6788   3.926   3.806  16.309  0.4658 -0.7434 -0.1701
  456MPD2    C2 6789   3.889   3.919  16.377  0.4075  0.3969  0.0749
  456MPD2    C3 6790   3.806   4.016  16.328 -0.3403  0.3285 -0.1132
  456MPD2    C4 6791   3.754   3.996  16.203  0.2186  0.0370  0.6812
  456MPD2    C5 6792   3.772   3.873  16.138  0.8562 -0.0368  0.1885
  456MPD2     H 6793   3.947   3.934  16.467  0.4899  1.3702 -0.1365
  456MPD2    H1 6794   3.690   4.064  16.148  0.0673  0.3199  1.2034
  456MPD2    H2 6795   3.876   3.681  16.146  0.5062 -0.0400 -0.3317
  456MPD2    H3 6796   3.735   3.846  16.039 -0.9632  0.0410  0.8357
  456MPD2     N 6797   3.795   4.139  16.398  0.1763 -0.0953  0.0362
  456MPD2    H5 6798   3.861   4.145  16.475 -1.0257 -0.5941  1.1031
  456MPD2    N1 6799   4.026   3.713  16.351 -0.3991  0.0680 -0.0719
  456MPD2    H7 6800   4.045   3.632  16.292 -0.5384 -0.1192  0.1424
  457TMC3    C1 6801   3.761   4.372  16.442 -0.4558  0.6761  0.0370
  457TMC3    C2 6802   3.718   4.496  16.397  1.1634 -0.4248 -0.3173
  457TMC3    C3 6803   3.689   4.597  16.486  0.4857 -0.4780 -0.4265
  457TMC3    C4 6804   3.786   4.350  16.579  0.2114 -0.3169  0.5209
  457TMC3    C5 6805   3.770   4.462  16.659  0.3279  0.7069 -0.0237
  457TMC3    C6 6806   3.724   4.585  16.619 -0.0212 -0.1015  0.2712
  457TMC3     C 6807   3.736   4.256  16.355  0.1191 -0.2863 -0.4430
  457TMC3     O 6808   3.666   4.271  16.255 -0.2075 -0.4146 -0.3915
  457TMC3     H 6809   3.708   4.516  16.291 -1.1377 -0.5613 -0.1285
  457TMC3    H1 6810   3.804   4.250  16.616 -0.2326 -1.2005 -1.6402
  457TMC3    H2 6811   3.690   4.663  16.687 -0.2789 -0.8424  1.0029
  457TMC3    C7 6812   3.789   4.442  16.808  0.4524 -0.0282  0.4001
  457TMC3    C8 6813   3.630   4.722  16.443  0.1479  0.7075 -0.0820
  457TMC3    O1 6814   3.790   4.325  16.854 -0.2946 -0.2887  0.1457
  457TMC3    O2 6815   3.608   0.063  16.545 -0.1661 -0.1850  0.0031
  458MPD2     C 6816   1.014   3.111  12.514  0.0498 -0.6413 -0.5582
  458MPD2    C1 6817   1.107   3.171  12.432 -0.2502  0.4787 -0.0213
  458MPD2    C2 6818   1.101   3.148  12.290 -0.5786 -0.1473 -0.6144
  458MPD2    C3 6819   0.996   3.072  12.243  0.9672  0.0935  0.1331
  458MPD2    C4 6820   0.901   3.022  12.324 -0.5306  0.5068  0.1780
  458MPD2    C5 6821   0.917   3.038  12.458  0.5347  0.1514  0.3132
  458MPD2     H 6822   1.168   3.198  12.222 -0.2806 -0.5746 -0.6346
  458MPD2    H1 6823   0.811   2.973  12.291 -0.3049  0.7170 -0.7698
  458MPD2    H2 6824   1.018   3.124  12.622 -3.0544  0.5708 -0.6021
  458MPD2    H3 6825   0.845   2.990  12.523  0.4442 -1.7053 -1.1513
  458MPD2     N 6826   0.985   3.050  12.107  0.3287  0.1105  0.0254
  458MPD2    H5 6827   1.058   3.098  12.055  0.8364 -0.4604  0.2152
  458MPD2    N1 6828   1.214   3.250  12.491  0.3696  0.2021  0.0924
  458MPD2    H7 6829   1.205   3.294  12.582 -0.6984 -0.5500  0.3445
  459TMC3    C1 6830   1.417   3.362  12.506  0.7202  0.1370  0.2500
  459TMC3    C2 6831   1.493   3.463  12.448  0.1485 -0.0006  0.3199
  459TMC3    C3 6832   1.600   3.505  12.521 -0.1398 -0.1454 -0.1730
  459TMC3    C4 6833   1.452   3.297  12.625  0.0776  0.0087  0.3811
  459TMC3    C5 6834   1.572   3.328  12.677 -0.0046 -0.3851 -0.2743
  459TMC3    C6 6835   1.639   3.434  12.637 -0.1006  0.8605  0.3036
  459TMC3     C 6836   1.322   3.302  12.417 -0.0936 -0.2732 -0.3568
  459TMC3     O 6837   1.337   3.327  12.298 -0.0162 -0.2983  0.3140
  459TMC3     H 6838   1.465   3.513  12.356  1.8546 -0.4075 -0.4111
  459TMC3    H1 6839   1.393   3.216  12.665  0.9884 -0.6485  0.3963
  459TMC3    H2 6840   1.740   3.449  12.673  0.7821 -1.5080 -1.1930
  459TMC3    C7 6841   1.619   3.245  12.785  0.6840  0.4857 -0.3965
  459TMC3    C8 6842   1.692   3.604  12.465 -0.1848 -0.0561  0.3240
  459TMC3    O1 6843   1.528   3.177  12.837 -0.2027  0.2285  0.4720
  459TMC3    O2 6844   1.800   3.631  12.512 -0.1543  0.7962  0.2956
  460MPD2     C 6845   0.478   1.132  10.398 -0.2240  0.4438 -0.2579
  460MPD2    C1 6846   0.356   1.132  10.461  0.3571 -0.2070 -0.3504
  460MPD2    C2 6847   0.251   1.201  10.399  0.1248  0.5174  0.7522
  460MPD2    C3 6848   0.271   1.271  10.281 -0.4633 -0.1912  0.1036
  460MPD2    C4 6849   0.396   1.277  10.228 -0.0671  0.0821  0.0957
  460MPD2    C5 6850   0.493   1.195  10.282  0.5368  0.1766  0.0264
  460MPD2     H 6851   0.148   1.198  10.434 -0.3190  1.5812 -0.4461
  460MPD2    H1 6852   0.411   1.335  10.138  1.5063  0.4922  0.6216
  460MPD2    H2 6853   0.567   1.090  10.444 -1.0240 -1.3865 -0.3934
  460MPD2    H3 6854   0.591   1.195  10.235  0.2115 -2.1687 -0.6158
  460MPD2     N 6855   0.158   1.339  10.224  0.4144 -0.0672  0.3662
  460MPD2    H5 6856   0.068   1.340  10.271  0.1899 -0.7662 -0.0421
  460MPD2    N1 6857   0.345   1.084  10.591  0.4475 -0.2579 -0.6848
  460MPD2    H7 6858   0.432   1.054  10.633 -0.1627 -0.9149  0.1113
  461TMC3    C1 6859   0.027   1.459  10.070 -0.2980  0.1095 -0.6209
  461TMC3    C2 6860   4.651   1.365  10.089 -0.6557 -0.1735  0.8649
  461TMC3    C3 6861   4.543   1.365  10.003 -0.9563 -0.0005 -0.6839
  461TMC3    C4 6862   0.022   1.553   9.969 -0.3088 -0.5826  0.7744
  461TMC3    C5 6863   4.635   1.545   9.877 -0.5421 -0.3029 -1.0640
  461TMC3    C6 6864   4.535   1.454   9.898 -0.3222  0.4170  0.2820
  461TMC3     C 6865   0.162   1.417  10.110  1.0508  0.4677  0.0563
  461TMC3     O 6866   0.252   1.423  10.025  0.0314 -0.3877 -0.5584
  461TMC3     H 6867   4.655   1.291  10.168  0.3144  0.1227  1.0927
  461TMC3    H1 6868   0.105   1.619   9.950  0.0045 -1.1880  0.0650
  461TMC3    H2 6869   4.446   1.463   9.838 -0.4165 -1.9725  0.0770
  461TMC3    C7 6870   4.609   1.661   9.800  0.3468 -0.2629  0.0381
  461TMC3    C8 6871   4.466   1.246  10.002 -1.1798  0.4513  0.2264
  461TMC3    O1 6872   4.660   1.759   9.848 -0.1103  0.4002  0.2440
  461TMC3    O2 6873   4.458   1.173  10.098  0.0532  0.7285  0.8752
  462TMC3    C1 6874   0.767   1.427   0.006 -0.2592 -0.0603 -0.0644
  462TMC3    C2 6875   0.789   1.396  17.571 -0.0797 -0.0348  0.1938
  462TMC3    C3 6876   0.713   1.301  17.518  0.4592  0.6561 -0.4070
  462TMC3    C4 6877   0.696   1.346   0.089 -0.0175 -0.4113 -0.7150
  462TMC3    C5 6878   0.638   1.232   0.038 -0.3798  0.2238 -0.4570
  462TMC3    C6 6879   0.642   1.209  17.597 -0.3298  0.0024  0.3344
  462TMC3     C 6880   0.840   1.552   0.045  0.4683 -0.0199 -0.6280
  462TMC3     O 6881   0.904   1.597  17.650  0.2995 -0.0840  0.2622
  462TMC3     H 6882   0.832   1.461  17.495  0.2443 -0.1834  0.2502
  462TMC3    H1 6883   0.666   1.386   0.185 -0.4226  1.1234 -1.4863
  462TMC3    H2 6884   0.580   1.133  17.552 -1.2370 -0.6170  2.6426
  462TMC3    C7 6885   0.534   1.169   0.112 -0.7037  0.1454  0.3258
  462TMC3    C8 6886   0.713   1.281  17.372  0.2507  0.7389 -0.5357
  462TMC3    O1 6887   0.466   1.081   0.058  0.3413  0.2874  0.4719
  462TMC3    O2 6888   0.744   1.374  17.303  0.2416 -0.6741 -0.1951
  463MPD2     C 6889   0.632   1.665   1.972  0.4762 -0.4677 -0.3626
  463MPD2    C1 6890   0.594   1.627   1.842  0.2151 -0.4062  0.3048
  463MPD2    C2 6891   0.606   1.727   1.747 -0.0175 -0.0739  0.0786
  463MPD2    C3 6892   0.670   1.845   1.774 -0.0456 -0.0061 -0.6864
  463MPD2    C4 6893   0.704   1.879   1.903  0.0065 -0.2078  1.0304
  463MPD2    C5 6894   0.693   1.786   2.001 -0.0948 -0.3030  0.9753
  463MPD2     H 6895   0.581   1.701   1.645 -1.2776 -1.0332  0.6348
  463MPD2    H1 6896   0.754   1.969   1.935 -0.2625 -0.3691  1.8938
  463MPD2    H2 6897   0.614   1.602   2.059  0.1816 -1.1760 -0.9332
  463MPD2    H3 6898   0.715   1.805   2.106 -0.8161  0.4444  0.9952
  463MPD2     N 6899   0.700   1.944   1.676 -0.6217  0.3813  0.2896
  463MPD2    H5 6900   0.750   2.022   1.715 -2.0975  1.2162  0.5145
  463MPD2    N1 6901   0.549   1.498   1.803 -0.1640  0.2427  0.5136
  463MPD2    H7 6902   0.507   1.499   1.710 -0.6943  1.6553  0.7562
  464TMC3    C1 6903   0.529   1.264   1.810 -0.0659 -0.6660  0.2343
  464TMC3    C2 6904   0.467   1.272   1.685 -0.2407  0.0311 -0.3279
  464TMC3    C3 6905   0.470   1.163   1.603  0.3930 -0.3725  0.3109
  464TMC3    C4 6906   0.595   1.149   1.839 -0.1966 -0.3121 -0.3253
  464TMC3    C5 6907   0.600   1.044   1.749 -0.1623  0.0290  0.3794
  464TMC3    C6 6908   0.551   1.055   1.623 -0.0194  0.1604  0.2659
  464TMC3     C 6909   0.572   1.379   1.876 -0.4228  0.4061 -0.2457
  464TMC3     O 6910   0.635   1.364   1.981  0.4784 -0.2138  0.1773
  464TMC3     H 6911   0.397   1.352   1.662 -0.0691  0.8813  2.0569
  464TMC3    H1 6912   0.645   1.140   1.935 -1.5078  2.4078  0.6183
  464TMC3    H2 6913   0.554   0.967   1.560  0.1326 -0.7234  1.5115
  464TMC3    C7 6914   0.656   0.919   1.791  0.0646 -0.4090  0.3177
  464TMC3    C8 6915   0.350   1.135   1.523 -0.2545  0.6856 -0.4089
  464TMC3    O1 6916   0.750   0.926   1.868 -0.0963  0.3510 -0.2942
  464TMC3    O2 6917   0.377   1.083   1.413 -0.0125 -1.2269  0.4591
  465MPD2     C 6918   2.919   4.520  16.515 -0.3757 -0.1981 -0.5117
  465MPD2    C1 6919   2.847   4.463  16.621 -0.7735  0.2779  0.0876
  465MPD2    C2 6920   2.728   4.396  16.586 -0.1139  0.0665 -0.8148
  465MPD2    C3 6921   2.682   4.387  16.453  0.3797  0.0520  0.3560
  465MPD2    C4 6922   2.750   4.459  16.354  0.0730  0.1736 -0.5406
  465MPD2    C5 6923   2.868   4.526  16.387  0.1685 -0.3823 -0.2159
  465MPD2     H 6924   2.661   4.347  16.656  0.8191  0.6229  0.4726
  465MPD2    H1 6925   2.734   4.461  16.246  1.2898  0.7621 -0.7064
  465MPD2    H2 6926   3.017   4.565  16.524  0.3137 -1.7856  0.0094
  465MPD2    H3 6927   2.936   4.570  16.315  0.1248 -0.7108 -0.4564
  465MPD2     N 6928   2.556   4.318  16.432  0.0718  0.1632  0.1588
  465MPD2    H5 6929   2.527   4.260  16.511  0.7928 -0.3639  0.0390
  465MPD2    N1 6930   2.884   4.464  16.761 -0.4497 -0.0752  0.3947
  465MPD2    H7 6931   2.843   4.391  16.818 -1.1493 -1.2961 -1.6844
  466TMC3    C1 6932   2.261   4.264  16.609  0.0720  0.4348  0.6188
  466TMC3    C2 6933   2.167   4.364  16.596  0.0590 -0.1056  0.1673
  466TMC3    C3 6934   2.151   4.430  16.476 -0.0358 -0.5445  0.3078
  466TMC3    C4 6935   2.329   4.224  16.501 -0.3635  0.2143  0.9443
  466TMC3    C5 6936   2.323   4.298  16.386  0.7473 -0.4689 -0.6147
  466TMC3    C6 6937   2.237   4.403  16.374  0.3923 -0.0915  0.2260
  466TMC3     C 6938   2.356   4.285  16.711  0.0477  0.3732 -0.5031
  466TMC3     O 6939   2.441   4.197  16.717  0.1864  0.4399  0.9741
  466TMC3     H 6940   2.102   4.385  16.680 -0.9551 -1.4012 -0.2911
  466TMC3    H1 6941   2.400   4.142  16.503 -0.9473 -0.3465 -0.8207
  466TMC3    H2 6942   2.232   4.469  16.289 -1.1431  0.5242  0.7931
  466TMC3    C7 6943   2.458   4.343  16.341 -0.2195  0.5385  0.1737
  466TMC3    C8 6944   2.081   4.561  16.488 -0.2901  0.0851 -0.0990
  466TMC3    O1 6945   2.462   4.423  16.251  0.1879 -0.6371 -0.0483
  466TMC3    O2 6946   2.025   4.579  16.593  0.1340 -0.0760  0.0397
  467TMC3    C1 6947   3.376   2.836  13.330 -0.2694  0.0984 -0.0352
  467TMC3    C2 6948   3.409   2.917  13.226 -0.2218  0.1407  0.0329
  467TMC3    C3 6949   3.340   2.902  13.105  0.2780 -0.4999  0.3655
  467TMC3    C4 6950   3.271   2.751  13.329 -0.2356 -0.6033  0.0212
  467TMC3    C5 6951   3.196   2.752  13.208 -0.2402 -0.0948 -0.0450
  467TMC3    C6 6952   3.226   2.825  13.098 -0.1544  0.2410 -0.3661
  467TMC3     C 6953   3.466   2.822  13.441  0.3573  0.1755  0.1608
  467TMC3     O 6954   3.507   2.929  13.488  0.3509 -1.3862 -0.2684
  467TMC3     H 6955   3.501   2.974  13.227 -0.2647  0.2359 -0.9307
  467TMC3    H1 6956   3.255   2.685  13.414 -0.9804  2.9665  2.6394
  467TMC3    H2 6957   3.149   2.823  13.022 -1.0872  0.4959  0.5719
  467TMC3    C7 6958   3.068   2.678  13.199  0.0456 -0.5847  0.3469
  467TMC3    C8 6959   3.372   2.998  13.006  0.1076 -0.9821 -0.0000
  467TMC3    O1 6960   3.039   2.653  13.080 -0.5041 -0.4903  0.0895
  467TMC3    O2 6961   3.417   3.105  13.047 -0.5824 -0.0555  0.0085
  468MPD2     C 6962   2.023   0.985  10.212  0.3371  0.3119  0.3065
  468MPD2    C1 6963   2.045   0.991  10.347 -0.1322 -0.3699  0.3222
  468MPD2    C2 6964   2.040   0.873  10.418 -0.1517  0.7574 -0.8088
  468MPD2    C3 6965   2.034   0.751  10.353  0.3795  0.2870  0.0068
  468MPD2    C4 6966   2.028   0.741  10.216  0.4303 -0.7267 -0.3050
  468MPD2    C5 6967   2.025   0.861  10.152 -0.1697 -0.2536  0.2164
  468MPD2     H 6968   2.037   0.879  10.526  0.7516  1.7776 -0.8458
  468MPD2    H1 6969   2.022   0.647  10.161 -0.4415 -0.6108 -0.4174
  468MPD2    H2 6970   2.020   1.066  10.140  1.1077  1.9184  2.0760
  468MPD2    H3 6971   2.014   0.860  10.044 -0.1576  0.1857  0.2112
  468MPD2     N 6972   2.028   0.627  10.424  0.3491  0.5015  0.0605
  468MPD2    H5 6973   2.027   0.542  10.370 -1.3833  0.5364  0.0307
  468MPD2    N1 6974   2.057   1.111  10.415  0.2711 -0.6782 -0.4491
  468MPD2    H7 6975   2.046   1.096  10.515  3.5922  0.4126  0.0824
  469TMC3    C1 6976   2.110   1.334  10.449  0.4049 -0.2487 -0.7656
  469TMC3    C2 6977   2.208   1.290  10.535  0.0014 -0.3967 -0.5063
  469TMC3    C3 6978   2.207   1.350  10.657  0.1821 -0.3299 -0.8098
  469TMC3    C4 6979   2.027   1.437  10.485  0.1808  0.2040  0.5298
  469TMC3    C5 6980   2.037   1.501  10.606 -0.6450  0.2600  0.1891
  469TMC3    C6 6981   2.129   1.457  10.696 -0.1677  0.1285 -0.8138
  469TMC3     C 6982   2.058   1.233  10.359  0.0159 -0.2020  0.3123
  469TMC3     O 6983   2.054   1.268  10.242  0.4799 -0.0777 -0.3651
  469TMC3     H 6984   2.263   1.203  10.503  2.3460  0.9566 -0.1750
  469TMC3    H1 6985   1.960   1.468  10.406  2.3885 -1.8733 -2.2253
  469TMC3    H2 6986   2.155   1.516  10.784 -0.7910 -0.2028 -0.4092
  469TMC3    C7 6987   1.933   1.594  10.640  0.1194  0.6897  0.3186
  469TMC3    C8 6988   2.319   1.323  10.744  0.0406  0.7213  0.0069
  469TMC3    O1 6989   1.847   1.609  10.553  0.0998  0.1164  0.3839
  469TMC3    O2 6990   2.413   1.267  10.691 -0.5618 -0.0789 -0.6978
  470TMC3    C1 6991   4.720   2.513   1.291  0.2581  0.1640  0.3980
  470TMC3    C2 6992   4.640   2.606   1.227  0.0520  0.1775  0.4021
  470TMC3    C3 6993   4.697   2.731   1.221 -0.0763 -0.3228 -0.0846
  470TMC3    C4 6994   0.119   2.532   1.337  0.2722  0.7652  0.2819
  470TMC3    C5 6995   0.171   2.661   1.320 -0.1901 -0.4193 -0.0759
  470TMC3    C6 6996   0.094   2.761   1.282 -0.1172 -0.0489 -0.2032
  470TMC3     C 6997   4.683   2.375   1.284  0.5957 -0.6715 -0.2780
  470TMC3     O 6998   4.636   2.345   1.174  0.6812  0.0265 -0.4368
  470TMC3     H 6999   4.546   2.578   1.179  0.0470  2.6063 -1.0112
  470TMC3    H1 7000   0.181   2.452   1.377 -0.6032 -0.8061 -1.5080
  470TMC3    H2 7001   0.126   2.864   1.286 -0.4717  0.0477  0.1066
  470TMC3    C7 7002   0.280   2.698   1.403 -0.2701 -0.1659 -0.0863
  470TMC3    C8 7003   4.599   2.843   1.215 -0.7609  0.3780 -0.4545
  470TMC3    O1 7004   0.339   2.800   1.372  0.4606 -0.3076  0.5318
  470TMC3    O2 7005   4.624   2.947   1.275 -0.1800 -0.0808  0.2503
  471MPD2     C 7006   4.451   3.174  17.014  0.7108  0.7241  0.0440
  471MPD2    C1 7007   4.581   3.164  17.060  0.2881 -0.6117  0.7282
  471MPD2    C2 7008   4.605   3.120  17.188  0.3209  0.1437 -0.8835
  471MPD2    C3 7009   4.498   3.076  17.268 -0.3437  0.0033 -0.0609
  471MPD2    C4 7010   4.369   3.087  17.221  0.5199  0.6486  0.3867
  471MPD2    C5 7011   4.350   3.137  17.097 -0.2806  0.0659  0.4337
  471MPD2     H 7012   4.708   3.108  17.219  0.2939  2.1871  0.0302
  471MPD2    H1 7013   4.281   3.053  17.274 -0.5547  1.6353 -0.7459
  471MPD2    H2 7014   4.434   3.218  16.917 -2.3017 -1.7277 -0.5305
  471MPD2    H3 7015   4.249   3.136  17.060  1.0569 -1.5213 -3.0890
  471MPD2     N 7016   4.518   3.020  17.395 -0.5610  0.0679 -0.4007
  471MPD2    H5 7017   4.436   2.974  17.434  0.2778 -0.7187  0.4262
  471MPD2    N1 7018   4.694   3.192  16.988 -0.0549  0.3848  0.4327
  471MPD2    H7 7019   0.059   3.187  17.036 -1.1624  0.2494  2.4540
  472TMC3    C1 7020   0.097   3.185  16.782 -0.0395 -0.2906 -0.9840
  472TMC3    C2 7021   0.091   3.207  16.644 -0.0671  0.4225 -0.3826
  472TMC3    C3 7022   0.159   3.122  16.566 -0.3906 -0.2466  0.1522
  472TMC3    C4 7023   0.157   3.074  16.834 -0.7399 -0.6039  0.2784
  472TMC3    C5 7024   0.218   2.991  16.750  0.2124 -0.1886 -0.0455
  472TMC3    C6 7025   0.224   3.015  16.620 -0.2382 -1.0033 -0.4475
  472TMC3     C 7026   4.690   3.205  16.844 -0.5437  0.7953 -0.3615
  472TMC3     O 7027   4.606   3.169  16.766 -0.3725 -0.5367 -0.2236
  472TMC3     H 7028   0.031   3.286  16.601 -0.3437  0.9235  0.9369
  472TMC3    H1 7029   0.127   3.035  16.930 -2.5780  1.7499  0.6613
  472TMC3    H2 7030   0.262   2.941  16.550 -1.5413  1.1358 -3.4140
  472TMC3    C7 7031   0.181   2.855  16.777  0.2536  0.6068  0.0817
  472TMC3    C8 7032   0.083   3.067  16.454  1.3253 -0.9990 -0.0303
  472TMC3    O1 7033   0.212   2.803  16.882  0.0611  0.0305  0.4708
  472TMC3    O2 7034   0.134   2.980  16.385 -0.1989 -0.2089  0.4838
  473MPD2     C 7035   4.701   0.667  13.971 -1.0024 -0.1086  0.0648
  473MPD2    C1 7036   0.007   0.752  13.871 -0.0609 -0.0269 -0.3244
  473MPD2    C2 7037   0.064   0.874  13.901  0.3535 -0.1456  0.6667
  473MPD2    C3 7038   0.114   0.893  14.023 -0.7282  1.3069 -0.1474
  473MPD2    C4 7039   0.084   0.807  14.126  0.2258  0.3301 -0.4106
  473MPD2    C5 7040   0.015   0.699  14.098 -0.2390 -1.2768 -0.1534
  473MPD2     H 7041   0.067   0.949  13.822 -0.9723 -0.8450 -0.0386
  473MPD2    H1 7042   0.126   0.812  14.226 -1.1167 -0.2659  0.1824
  473MPD2    H2 7043   4.662   0.566  13.961 -0.4486 -0.6564  3.2245
  473MPD2    H3 7044   0.006   0.626  14.178  1.0605 -1.6453 -0.3387
  473MPD2     N 7045   0.185   1.014  14.062 -0.2356 -0.2472 -0.2313
  473MPD2    H5 7046   0.216   1.016  14.158  1.1917  0.5210 -0.7134
  473MPD2    N1 7047   4.673   0.733  13.740 -0.8283 -0.1953 -0.6009
  473MPD2    H7 7048   4.688   0.805  13.671 -1.0612  0.2904 -0.1416
  474TMC3    C1 7049   0.299   1.220  14.048  0.3973 -0.1442  0.0659
  474TMC3    C2 7050   0.391   1.296  13.974 -0.4624 -0.1240  0.2542
  474TMC3    C3 7051   0.441   1.409  14.034 -0.4755  0.1483 -0.4049
  474TMC3    C4 7052   0.260   1.258  14.174  0.2428 -0.0018  0.9176
  474TMC3    C5 7053   0.309   1.374  14.224 -0.4966  0.2295 -0.4909
  474TMC3    C6 7054   0.392   1.457  14.158  0.0676 -0.3329 -0.4668
  474TMC3     C 7055   0.219   1.121  13.981 -0.1813 -0.5847  0.4360
  474TMC3     O 7056   0.214   1.130  13.859 -0.1283 -0.2004 -0.8212
  474TMC3     H 7057   0.413   1.267  13.872 -0.7810  1.1186 -0.1669
  474TMC3    H1 7058   0.185   1.205  14.232  1.9280 -2.4217  0.8545
  474TMC3    H2 7059   0.427   1.536  14.224 -3.6341  0.6206  0.3303
  474TMC3    C7 7060   0.250   1.425  14.342  0.2017  0.1716  0.3191
  474TMC3    C8 7061   0.513   1.502  13.946 -0.0209  0.1899  0.1723
  474TMC3    O1 7062   0.130   1.411  14.350 -0.1704 -0.4871 -0.0091
  474TMC3    O2 7063   0.526   1.468  13.830  0.0253 -0.2611  0.3921
  475MPD2     C 7064   3.707   3.289  10.050 -0.7675 -0.4148 -0.0372
  475MPD2    C1 7065   3.701   3.423  10.066  0.4907  0.0646  1.0363
  475MPD2    C2 7066   3.575   3.476  10.097 -0.1983  0.2469  0.2588
  475MPD2    C3 7067   3.463   3.403  10.123  0.8820 -0.2967 -0.6287
  475MPD2    C4 7068   3.477   3.264  10.111  0.3051 -1.0758  0.1546
  475MPD2    C5 7069   3.592   3.208  10.066  0.3459  0.4939 -0.3709
  475MPD2     H 7070   3.544   3.580  10.100 -1.1710 -0.0400  0.1891
  475MPD2    H1 7071   3.394   3.196  10.130 -0.3590 -0.5000 -0.7014
  475MPD2    H2 7072   3.800   3.244  10.020 -1.3183 -2.1010  0.8301
  475MPD2    H3 7073   3.601   3.102  10.046 -2.0325  0.2338 -0.1209
  475MPD2     N 7074   3.340   3.472  10.148 -0.0291  0.2836 -0.1768
  475MPD2    H5 7075   3.348   3.568  10.178 -1.8045  0.5959 -0.6662
  475MPD2    N1 7076   3.809   3.501  10.025  0.3732  0.4948 -0.1801
  475MPD2    H7 7077   3.887   3.456   9.978 -0.6064 -1.5309  0.1195
  476TMC3    C1 7078   3.733   3.739  10.064 -0.4263  0.0938  0.4929
  476TMC3    C2 7079   3.722   3.847   9.996 -0.3433 -0.0534 -0.0099
  476TMC3    C3 7080   3.644   3.953  10.038 -0.0921  0.3912  0.4612
  476TMC3    C4 7081   3.707   3.746  10.201 -0.5722 -0.2238 -0.0265
  476TMC3    C5 7082   3.648   3.855  10.251 -0.2376 -0.2808  0.3322
  476TMC3    C6 7083   3.611   3.952  10.167 -0.3551 -0.0183  0.4805
  476TMC3     C 7084   3.825   3.640  10.016  0.3931 -0.2031  0.0909
  476TMC3     O 7085   3.921   3.695   9.960 -0.2756 -0.0986 -0.0935
  476TMC3     H 7086   3.748   3.852   9.891  0.4042 -1.2002  0.1291
  476TMC3    H1 7087   3.698   3.655  10.259 -1.1033 -0.1055  0.0739
  476TMC3    H2 7088   3.544   4.032  10.196 -0.2946 -0.4381  1.7946
  476TMC3    C7 7089   3.540   3.806  10.331 -0.3914 -0.1701 -0.3619
  476TMC3    C8 7090   3.521   3.969   9.971 -0.1159  0.4105  0.1662
  476TMC3    O1 7091   3.468   3.709  10.290 -0.1489 -0.2477  1.2348
  476TMC3    O2 7092   3.463   4.074   9.991  0.0600 -0.6436 -0.5407
  477MPD2     C 7093   0.903   0.435  11.799  0.0200 -0.2295  0.2218
  477MPD2    C1 7094   0.831   0.343  11.718 -0.5324  0.4609  0.1053
  477MPD2    C2 7095   0.802   0.224  11.789 -0.1030 -0.2893  0.0270
  477MPD2    C3 7096   0.854   0.189  11.915  0.1270  0.1361  0.0612
  477MPD2    C4 7097   0.923   0.283  11.987  0.2449  0.3680 -0.3585
  477MPD2    C5 7098   0.955   0.403  11.924  0.1191  0.1325 -0.0998
  477MPD2     H 7099   0.747   0.143  11.744 -0.0913 -0.9796  1.2460
  477MPD2    H1 7100   0.950   0.260  12.089  0.6566  1.7943 -0.1495
  477MPD2    H2 7101   0.929   0.530  11.754  1.4206 -1.3715 -1.3342
  477MPD2    H3 7102   1.006   0.479  11.982  0.7290  0.7922 -1.5010
  477MPD2     N 7103   0.841   0.059  11.966  1.1033  0.0520  0.3023
  477MPD2    H5 7104   0.809   4.704  11.910  0.1725  0.3653  0.3849
  477MPD2    N1 7105   0.773   0.391  11.599 -0.2229  0.1307 -0.0527
  477MPD2    H7 7106   0.793   0.485  11.565 -2.8007  1.2930  1.6124
  478TMC3    C1 7107   0.612   0.393  11.432 -0.0304 -0.5840  0.2034
  478TMC3    C2 7108   0.572   0.508  11.484 -0.5761  0.0353 -0.2180
  478TMC3    C3 7109   0.459   0.567  11.440 -0.2237  0.7232 -0.1690
  478TMC3    C4 7110   0.550   0.334  11.332  0.3394  0.2281  0.4283
  478TMC3    C5 7111   0.449   0.405  11.275  0.3259  0.3168 -0.4664
  478TMC3    C6 7112   0.396   0.520  11.333  0.2309 -0.0902  0.7943
  478TMC3     C 7113   0.692   0.311  11.526  0.2207  0.0678  0.6219
  478TMC3     O 7114   0.667   0.191  11.540 -0.0526 -0.1950  0.0200
  478TMC3     H 7115   0.615   0.548  11.575 -1.0794  0.2185 -0.0591
  478TMC3    H1 7116   0.609   0.248  11.302  0.4393 -0.0345  1.3956
  478TMC3    H2 7117   0.303   0.562  11.297  1.3221  0.0231 -1.8943
  478TMC3    C7 7118   0.359   0.325  11.191  0.0732  0.2834  0.1366
  478TMC3    C8 7119   0.379   0.642  11.542 -0.0201 -0.4650 -0.3132
  478TMC3    O1 7120   0.347   0.209  11.236  0.0363 -0.1042 -0.0608
  478TMC3    O2 7121   0.423   0.638  11.658 -0.2569  0.3613  0.3283
  479MPD2     C 7122   0.258   2.421  14.776 -0.5780 -0.3110  0.0658
  479MPD2    C1 7123   0.197   2.377  14.891 -0.1651 -0.0106 -0.0635
  479MPD2    C2 7124   0.268   2.393  15.005  0.2254  0.3000  0.0693
  479MPD2    C3 7125   0.390   2.459  15.006 -0.0214  0.4342  0.3554
  479MPD2    C4 7126   0.451   2.499  14.888 -0.1294 -0.0768  0.0788
  479MPD2    C5 7127   0.385   2.472  14.778  0.3430  0.2246  0.0899
  479MPD2     H 7128   0.222   2.363  15.099 -0.6395  1.3098 -0.0350
  479MPD2    H1 7129   0.550   2.542  14.879 -1.0601  1.6765 -1.8233
  479MPD2    H2 7130   0.202   2.411  14.684  0.5086 -1.7844 -0.4429
  479MPD2    H3 7131   0.432   2.499  14.684 -2.3384  3.1591 -0.3801
  479MPD2     N 7132   0.460   2.477  15.130  0.4019 -0.2999 -0.9156
  479MPD2    H5 7133   0.561   2.477  15.124  0.3678  1.1111 -1.2837
  479MPD2    N1 7134   0.062   2.337  14.895 -0.3224  0.3075 -0.6542
  479MPD2    H7 7135   0.015   2.370  14.811  0.5114 -2.2120 -2.0877
  480TMC3    C1 7136   0.078   2.502  15.424 -0.7415 -0.4537  0.2059
  480TMC3    C2 7137   0.008   2.603  15.357 -0.6688  0.7085 -0.6691
  480TMC3    C3 7138   0.069   2.667  15.255 -0.3394  0.4299  0.4405
  480TMC3    C4 7139   0.198   2.462  15.390 -0.0538 -0.5360 -0.8454
  480TMC3    C5 7140   0.256   2.512  15.277  0.3200 -0.2281 -0.7140
  480TMC3    C6 7141   0.191   2.610  15.199 -0.0933  0.8173 -0.3941
  480TMC3     C 7142   0.008   2.425  15.524  0.3296  0.3625 -0.2701
  480TMC3     O 7143   4.714   2.305  15.515  0.9389  0.2603 -0.1605
  480TMC3     H 7144   4.627   2.618  15.378 -0.6905 -0.9024  0.4158
  480TMC3    H1 7145   0.251   2.395  15.457  1.7487  1.7115 -0.0408
  480TMC3    H2 7146   0.233   2.645  15.105 -1.0686  1.2423 -0.6770
  480TMC3    C7 7147   0.397   2.478  15.254  0.2994  0.6201 -0.6596
  480TMC3    C8 7148   4.698   2.720  15.155 -0.4515 -0.3605  0.7410
  480TMC3    O1 7149   0.455   2.484  15.357  0.4228 -0.4573  0.1289
  480TMC3    O2 7150   4.584   2.676  15.160  0.4249 -0.4193 -1.2705
  481MPD2     C 7151   1.133   2.071  13.930  0.2160 -0.3937  0.3118
  481MPD2    C1 7152   1.101   1.934  13.930 -0.2479  0.7901  0.2506
  481MPD2    C2 7153   1.151   1.851  14.028  0.4720  0.0544 -0.4792
  481MPD2    C3 7154   1.232   1.911  14.119  0.0675  0.7925  0.4157
  481MPD2    C4 7155   1.255   2.049  14.126 -0.9727 -0.5167  0.0373
  481MPD2    C5 7156   1.201   2.134  14.032  0.5334  0.3613 -0.1379
  481MPD2     H 7157   1.127   1.746  14.021  0.0793  0.1332 -0.2729
  481MPD2    H1 7158   1.310   2.092  14.209 -1.4196 -1.2738  0.7353
  481MPD2    H2 7159   1.087   2.131  13.853 -0.8912  0.8887  1.9672
  481MPD2    H3 7160   1.209   2.242  14.039  1.8623  0.4468 -3.1231
  481MPD2     N 7161   1.298   1.831  14.215 -0.2700  0.7784  0.4670
  481MPD2    H5 7162   1.377   1.872  14.264  0.6893  1.2125 -1.4620
  481MPD2    N1 7163   1.026   1.878  13.821  0.4173  0.2112  0.0435
  481MPD2    H7 7164   1.016   1.938  13.740 -1.1391 -0.5135 -0.3010
  482TMC3    C1 7165   0.910   1.722  13.687  0.5528 -0.0352 -0.3991
  482TMC3    C2 7166   0.804   1.635  13.662 -0.0801 -0.0633 -0.3466
  482TMC3    C3 7167   0.740   1.624  13.543  0.3547  0.3348 -0.3901
  482TMC3    C4 7168   0.954   1.791  13.578 -0.0209  0.1455  0.6652
  482TMC3    C5 7169   0.897   1.775  13.455  0.2944  0.2635 -0.0545
  482TMC3    C6 7170   0.786   1.690  13.437  0.4709  0.1247  0.0250
  482TMC3     C 7171   0.962   1.758  13.821 -1.1004 -0.4267  1.2369
  482TMC3     O 7172   0.947   1.677  13.908 -0.2425  0.2109 -0.4725
  482TMC3     H 7173   0.789   1.566  13.744 -1.7202  0.9655  0.2188
  482TMC3    H1 7174   1.052   1.836  13.583  0.4971 -1.2279  3.1174
  482TMC3    H2 7175   0.743   1.661  13.341 -0.1576  1.4753 -0.0915
  482TMC3    C7 7176   0.966   1.844  13.349 -0.1488 -0.5049  0.4441
  482TMC3    C8 7177   0.674   1.502  13.508 -0.5561 -0.1929 -0.0792
  482TMC3    O1 7178   1.086   1.873  13.372  0.7292  0.3233  0.1314
  482TMC3    O2 7179   0.705   1.397  13.561 -1.5886 -0.1406 -0.1678
  483TMC3    C1 7180   3.679   1.157   1.028 -0.4240 -0.2230 -0.3298
  483TMC3    C2 7181   3.741   1.270   0.986 -0.2088 -0.2571  0.3431
  483TMC3    C3 7182   3.875   1.281   1.025 -0.3301 -0.8375  0.2786
  483TMC3    C4 7183   3.734   1.060   1.112  0.7052 -0.1008 -0.1271
  483TMC3    C5 7184   3.862   1.086   1.157  0.7948  0.1415 -1.0176
  483TMC3    C6 7185   3.928   1.193   1.109 -0.8436 -0.8528  0.8582
  483TMC3     C 7186   3.544   1.145   0.989 -0.4196 -0.5194 -0.7139
  483TMC3     O 7187   3.492   1.250   0.962  0.2501  0.1294 -0.0174
  483TMC3     H 7188   3.695   1.312   0.897 -0.5802 -1.5117 -0.0563
  483TMC3    H1 7189   3.679   0.972   1.142  1.9722 -1.4168 -1.5981
  483TMC3    H2 7190   4.034   1.201   1.129 -0.6299 -0.4238 -0.4491
  483TMC3    C7 7191   3.941   0.975   1.197 -0.1488  0.4602  0.3275
  483TMC3    C8 7192   3.961   1.323   0.918 -0.1494  0.0446 -0.3729
  483TMC3    O1 7193   3.910   0.860   1.164 -0.0304 -0.4770  0.2179
  483TMC3    O2 7194   4.079   1.295   0.923 -0.1166 -0.7505 -0.0147
  484MPD2     C 7195   1.584   3.881  12.246 -0.4435 -0.4169  0.3475
  484MPD2    C1 7196   1.674   3.798  12.311 -0.6993  0.5706  0.6409
  484MPD2    C2 7197   1.810   3.825  12.295  0.4843 -0.3118 -0.3559
  484MPD2    C3 7198   1.852   3.933  12.218  0.0799 -0.0501 -0.3736
  484MPD2    C4 7199   1.755   4.018  12.157  0.8681  0.2644  0.7688
  484MPD2    C5 7200   1.624   3.988  12.172 -0.4374  0.0631  0.1273
  484MPD2     H 7201   1.884   3.761  12.343  0.5278 -0.8906 -1.1905
  484MPD2    H1 7202   1.777   4.110  12.105  0.5185  1.1218  2.1471
  484MPD2    H2 7203   1.478   3.878  12.265 -0.4945  0.9073  0.2807
  484MPD2    H3 7204   1.548   4.055  12.133 -2.3537 -2.1198  0.1570
  484MPD2     N 7205   1.988   3.955  12.180 -0.3719  0.4130 -0.9680
  484MPD2    H5 7206   2.012   4.035  12.122  1.7310  1.1286  0.8688
  484MPD2    N1 7207   1.621   3.690  12.385 -0.4077  0.2528  0.0050
  484MPD2    H7 7208   1.520   3.679  12.386 -0.1310 -2.3531 -0.1453
  485TMC3    C1 7209   2.215   3.940  12.181 -0.1225 -0.2161  0.3005
  485TMC3    C2 7210   2.327   3.873  12.236 -0.8119  0.2651 -0.0664
  485TMC3    C3 7211   2.444   3.922  12.200  0.1471  0.0559  0.1670
  485TMC3    C4 7212   2.219   4.022  12.073 -0.2706 -0.5181 -0.1933
  485TMC3    C5 7213   2.345   4.063  12.040  0.1590  0.1053  0.3044
  485TMC3    C6 7214   2.457   4.022  12.110  0.7469 -0.1718  0.2574
  485TMC3     C 7215   2.093   3.878  12.220 -0.0390 -0.0089 -0.6223
  485TMC3     O 7216   2.103   3.777  12.288  0.6072 -0.4888 -1.0712
  485TMC3     H 7217   2.311   3.797  12.312 -0.7058 -0.0658 -0.3748
  485TMC3    H1 7218   2.130   4.030  12.012 -0.2284  0.2257 -0.1551
  485TMC3    H2 7219   2.557   4.057  12.092  0.0382  0.0808 -3.0884
  485TMC3    C7 7220   2.363   4.071  11.893  0.1532  0.8723 -0.1338
  485TMC3    C8 7221   2.539   3.820  12.161  0.1761  0.7788  0.1857
  485TMC3    O1 7222   2.291   4.138  11.822 -0.0205  0.3132 -0.3370
  485TMC3    O2 7223   2.615   3.851  12.067  1.1697  0.0545  0.2793
  486MPD2     C 7224   4.198   2.859  12.920  0.1937 -0.3251  0.3839
  486MPD2    C1 7225   4.134   2.770  12.837  0.3557  0.0825 -0.2559
  486MPD2    C2 7226   4.066   2.817  12.730  0.4059 -0.2771  0.3195
  486MPD2    C3 7227   4.051   2.949  12.703 -0.1844 -0.5199  0.4678
  486MPD2    C4 7228   4.102   3.038  12.795 -1.0595  0.2610  0.2028
  486MPD2    C5 7229   4.180   2.991  12.901 -0.2402 -0.4308  0.1283
  486MPD2     H 7230   4.010   2.758  12.658  1.8184  2.4886 -3.0567
  486MPD2    H1 7231   4.097   3.145  12.781 -1.1380  0.4851  1.9947
  486MPD2    H2 7232   4.263   2.833  13.003 -0.0078 -2.1185 -0.0298
  486MPD2    H3 7233   4.222   3.061  12.973  0.9959 -0.9217 -0.1190
  486MPD2     N 7234   3.981   2.997  12.587  0.2174 -0.1746 -0.2015
  486MPD2    H5 7235   3.954   2.916  12.532 -0.4348 -1.0988  1.4687
  486MPD2    N1 7236   4.157   2.631  12.872  0.2665  0.2696  0.0193
  486MPD2    H7 7237   4.197   2.616  12.964  0.2455 -0.4757 -0.0882
  487TMC3    C1 7238   4.159   2.390  12.831  0.2150 -0.6002  0.9241
  487TMC3    C2 7239   4.124   2.299  12.741 -0.3273 -0.2587 -0.1060
  487TMC3    C3 7240   4.105   2.170  12.768 -0.9112  0.1195 -0.1768
  487TMC3    C4 7241   4.174   2.357  12.964 -0.2989  0.3791 -0.0247
  487TMC3    C5 7242   4.143   2.227  12.993 -0.2955 -0.2896 -0.2332
  487TMC3    C6 7243   4.118   2.126  12.900 -0.1364  0.2731 -0.1049
  487TMC3     C 7244   4.122   2.529  12.786  0.0243 -0.9099 -0.4998
  487TMC3     O 7245   4.073   2.541  12.674 -0.4319  0.8749 -0.0363
  487TMC3     H 7246   4.103   2.335  12.641  4.3505 -0.5727 -1.1549
  487TMC3    H1 7247   4.168   2.427  13.047 -1.3776 -1.6724  1.6389
  487TMC3    H2 7248   4.079   2.027  12.920  1.1523 -0.1347  0.3561
  487TMC3    C7 7249   4.121   2.197  13.130 -1.2197  0.5174 -0.3715
  487TMC3    C8 7250   4.008   2.098  12.693 -0.4341 -0.4157 -0.2932
  487TMC3    O1 7251   4.189   2.251  13.220  0.4520  0.4231  0.0855
  487TMC3    O2 7252   3.934   2.162  12.617 -0.1195 -0.0716  0.1146
  488MPD2     C 7253   4.423   4.235  16.562  0.1003 -0.3232  0.1682
  488MPD2    C1 7254   4.378   4.362  16.595  0.3051  0.0990 -0.0588
  488MPD2    C2 7255   4.310   4.375  16.712  0.5750 -0.4104  0.7178
  488MPD2    C3 7256   4.285   4.271  16.801  0.8573 -0.4581  0.1675
  488MPD2    C4 7257   4.338   4.145  16.768 -0.2366 -0.5103 -0.3364
  488MPD2    C5 7258   4.402   4.133  16.650  0.4118 -0.5386  0.0215
  488MPD2     H 7259   4.270   4.474  16.732  1.2732 -0.0394  0.2653
  488MPD2    H1 7260   4.337   4.060  16.835 -1.8265  0.9469  1.5146
  488MPD2    H2 7261   4.468   4.199  16.470  0.0938  0.7949 -0.2693
  488MPD2    H3 7262   4.442   4.038  16.617  0.1753 -0.2535 -1.0907
  488MPD2     N 7263   4.225   4.301  16.923 -0.2756 -0.1816  0.4558
  488MPD2    H5 7264   4.192   4.397  16.929  0.2244  0.0574 -0.4742
  488MPD2    N1 7265   4.398   4.477  16.510 -0.0701  0.3864  0.4718
  488MPD2    H7 7266   4.382   4.570  16.548 -0.0558 -0.3456  2.2855
  489TMC3    C1 7267   4.118   4.266  17.128  0.1044  0.0397  0.1936
  489TMC3    C2 7268   4.058   4.384  17.101 -0.2969 -0.1745  0.4702
  489TMC3    C3 7269   4.057   4.486  17.194 -0.6697 -0.3749 -0.2996
  489TMC3    C4 7270   4.159   4.247  17.259  0.2998  1.2287  0.2642
  489TMC3    C5 7271   4.140   4.345  17.350 -0.1062 -0.2785 -0.6655
  489TMC3    C6 7272   4.096   4.472  17.322 -0.0009  0.0686 -0.0749
  489TMC3     C 7273   4.199   4.208  17.023  0.0211 -0.1406  1.0999
  489TMC3     O 7274   4.232   4.092  17.041  0.5542 -0.1433  0.6162
  489TMC3     H 7275   4.013   4.398  17.003 -1.1900  0.7145  1.0129
  489TMC3    H1 7276   4.206   4.153  17.286 -1.3231  0.7732  1.5417
  489TMC3    H2 7277   4.094   4.551  17.396 -2.0953 -0.9116  0.9052
  489TMC3    C7 7278   4.212   4.338  17.475  0.1320  0.6064 -0.1314
  489TMC3    C8 7279   4.060   4.618  17.132  0.3048 -0.0706 -0.3400
  489TMC3    O1 7280   4.248   4.441  17.527 -0.1827  0.0784 -0.1356
  489TMC3    O2 7281   4.110   4.612  17.019 -0.3545 -0.0694 -0.0323
  490MPD2     C 7282   0.240   3.501  17.119  0.0939  0.4233 -0.2295
  490MPD2    C1 7283   0.183   3.555  17.240 -0.5824 -0.0727  0.2700
  490MPD2    C2 7284   0.267   3.635  17.315  0.0436 -0.4839  0.6807
  490MPD2    C3 7285   0.397   3.660  17.272  0.0757 -0.2514 -0.1321
  490MPD2    C4 7286   0.449   3.609  17.158 -0.1408  0.1630 -0.2818
  490MPD2    C5 7287   0.366   3.531  17.083 -1.1022  0.4442 -0.7199
  490MPD2     H 7288   0.223   3.673  17.406 -4.0298 -0.4706 -1.3120
  490MPD2    H1 7289   0.549   3.633  17.122 -0.0397 -0.7473 -0.6137
  490MPD2    H2 7290   0.178   3.445  17.050  1.1989 -0.9540 -0.0978
  490MPD2    H3 7291   0.399   3.481  16.993 -0.5525  0.4468 -0.5203
  490MPD2     N 7292   0.486   3.747  17.335  0.4822 -0.4112 -0.2757
  490MPD2    H5 7293   0.574   3.764  17.286  1.1871 -2.3479  0.3356
  490MPD2    N1 7294   0.060   3.514  17.290  0.1483 -0.0001 -0.1148
  490MPD2    H7 7295   0.037   3.548  17.382 -0.7088 -0.1345 -0.2789
  491TMC3    C1 7296   4.557   3.455  17.301  0.0901  0.3524 -0.5844
  491TMC3    C2 7297   4.575   3.403  17.425  0.2717  0.3150 -0.0980
  491TMC3    C3 7298   4.460   3.369  17.490  0.4539 -0.2796 -0.0208
  491TMC3    C4 7299   4.431   3.473  17.249  0.3753 -0.0402 -0.9651
  491TMC3    C5 7300   4.319   3.436  17.320  0.0189  0.2757 -0.4347
  491TMC3    C6 7301   4.335   3.377  17.444 -0.2664  0.0955 -0.7078
  491TMC3     C 7302   4.667   3.485  17.219 -0.2506  0.7448  0.0362
  491TMC3     O 7303   4.652   3.499  17.100  0.1766  0.1982  0.0209
  491TMC3     H 7304   4.674   3.374  17.459  0.6884  1.4521 -0.3496
  491TMC3    H1 7305   4.409   3.501  17.147  1.5455 -0.9156 -1.4602
  491TMC3    H2 7306   4.248   3.355  17.504  0.5527 -0.5137  0.2585
  491TMC3    C7 7307   4.195   3.411  17.253 -0.0833  0.5237 -0.1874
  491TMC3    C8 7308   4.485   3.292  17.612  0.5513  0.0691  0.1392
  491TMC3    O1 7309   4.120   3.319  17.293 -0.1201 -0.1189 -0.3119
  491TMC3    O2 7310   4.397   3.213  17.641  0.0998 -0.0830 -0.2381
  492MPD2     C 7311   0.681   3.479  11.260 -0.1264 -0.1111  0.2036
  492MPD2    C1 7312   0.567   3.513  11.185  0.0704 -0.1538 -0.3943
  492MPD2    C2 7313   0.444   3.478  11.239  0.9525 -0.1892  0.0253
  492MPD2    C3 7314   0.443   3.424  11.366 -1.1221 -0.5763 -0.3398
  492MPD2    C4 7315   0.556   3.400  11.439  0.0782  0.1499  0.5503
  492MPD2    C5 7316   0.677   3.428  11.387 -0.0398  0.1950 -0.5010
  492MPD2     H 7317   0.348   3.505  11.196  1.1590 -2.2821 -1.7523
  492MPD2    H1 7318   0.544   3.358  11.538 -0.7431 -1.1482 -0.1021
  492MPD2    H2 7319   0.778   3.504  11.219 -0.2864  1.3302  0.6891
  492MPD2    H3 7320   0.767   3.411  11.446 -0.4387 -1.5228 -0.3955
  492MPD2     N 7321   0.321   3.375  11.423 -0.3359  0.2228  0.5586
  492MPD2    H5 7322   0.338   3.333  11.513  2.5358 -0.7507 -0.4390
  492MPD2    N1 7323   0.579   3.577  11.065  0.7188  0.1098  0.1246
  492MPD2    H7 7324   0.670   3.622  11.055  0.7526 -0.1736 -0.7963
  493TMC3    C1 7325   0.511   3.672  10.853 -0.1554  0.2098 -0.2654
  493TMC3    C2 7326   0.561   3.801  10.873 -0.5189  0.2234 -0.4467
  493TMC3    C3 7327   0.538   3.899  10.777  0.2048  0.2425 -0.1101
  493TMC3    C4 7328   0.449   3.638  10.737 -1.0457 -0.4768  0.1442
  493TMC3    C5 7329   0.448   3.732  10.636  0.0402 -0.7155 -0.9369
  493TMC3    C6 7330   0.484   3.863  10.651 -0.9241 -0.1233  0.0900
  493TMC3     C 7331   0.486   3.586  10.973  0.4721  0.8753 -0.1021
  493TMC3     O 7332   0.383   3.520  10.972  0.2275  0.2270  0.8328
  493TMC3     H 7333   0.610   3.836  10.963 -1.4373  1.8948 -0.5989
  493TMC3    H1 7334   0.397   3.543  10.727 -3.6099  1.0156 -0.8262
  493TMC3    H2 7335   0.472   3.931  10.567 -1.3643  0.2662  0.4696
  493TMC3    C7 7336   0.383   3.688  10.512  0.1040 -0.1948  0.4629
  493TMC3    C8 7337   0.584   4.041  10.794  0.7624  0.6236 -0.0642
  493TMC3    O1 7338   0.338   3.776  10.439 -0.1210 -0.4204 -0.5937
  493TMC3    O2 7339   0.629   4.052  10.908  0.2916  0.0982  0.4082
  494TMC3    C1 7340   0.673   0.777   0.438 -0.4269 -0.2370  0.6582
  494TMC3    C2 7341   0.778   0.717   0.505  0.1775 -0.3088 -0.2757
  494TMC3    C3 7342   0.902   0.746   0.459  0.2932 -0.1507 -0.0876
  494TMC3    C4 7343   0.679   0.847   0.320 -0.2768  0.5308 -0.0662
  494TMC3    C5 7344   0.812   0.864   0.284  0.8075 -0.6464  0.3913
  494TMC3    C6 7345   0.924   0.819   0.343  0.1506 -0.2751 -0.0279
  494TMC3     C 7346   0.542   0.772   0.506  0.5661  0.4311  0.0018
  494TMC3     O 7347   0.538   0.777   0.630  0.1576  0.0370 -0.1612
  494TMC3     H 7348   0.752   0.641   0.578 -0.2868  0.1707  0.0522
  494TMC3    H1 7349   0.592   0.883   0.266 -0.4961 -1.8687 -1.3063
  494TMC3    H2 7350   1.012   0.813   0.280  0.3860  0.4428  0.2381
  494TMC3    C7 7351   0.833   0.933   0.163 -0.4015 -0.3434  0.2585
  494TMC3    C8 7352   1.002   0.649   0.503 -0.4876  0.3226  0.1838
  494TMC3    O1 7353   0.756   0.923   0.069  0.3915  0.4476  0.3210
  494TMC3    O2 7354   0.969   0.548   0.564 -0.2646 -0.6743  0.7426
  495TMC3    C1 7355   0.443   2.827  14.284 -0.3712 -0.0715  0.2919
  495TMC3    C2 7356   0.354   2.864  14.187  0.5820 -0.0487 -0.3027
  495TMC3    C3 7357   0.239   2.928  14.222  0.6365  0.4283  0.0627
  495TMC3    C4 7358   0.419   2.854  14.411 -0.0575  0.3032 -0.3081
  495TMC3    C5 7359   0.308   2.926  14.446  0.0517 -0.8204  0.0899
  495TMC3    C6 7360   0.219   2.966  14.352  0.0017 -0.2706 -0.0119
  495TMC3     C 7361   0.504   2.693  14.266  0.2783 -0.2527 -0.4379
  495TMC3     O 7362   0.469   2.644  14.160  0.2535 -0.4368  0.2783
  495TMC3     H 7363   0.371   2.832  14.085  2.5886 -3.7792  1.1734
  495TMC3    H1 7364   0.476   2.807  14.491 -1.1982 -0.6003 -0.0315
  495TMC3    H2 7365   0.130   3.021  14.380  0.8175  1.9278 -1.7801
  495TMC3    C7 7366   0.250   2.900  14.582  0.1875 -0.2869 -0.5441
  495TMC3    C8 7367   0.113   2.867  14.169  0.6711  1.0844  0.0931
  495TMC3    O1 7368   0.320   2.836  14.662 -0.1436  0.2813 -0.2640
  495TMC3    O2 7369   0.011   2.896  14.226  0.1662  0.4570 -0.5792
  496MPD2     C 7370   1.953   2.623  14.927  0.4726  0.5866 -0.0279
  496MPD2    C1 7371   2.004   2.563  15.044  0.5541 -0.2465  0.0489
  496MPD2    C2 7372   1.931   2.576  15.162 -0.1636  0.5916  0.4344
  496MPD2    C3 7373   1.802   2.624  15.167 -1.0063 -0.3909  0.0101
  496MPD2    C4 7374   1.751   2.674  15.050 -0.3998  0.1245  0.4812
  496MPD2    C5 7375   1.825   2.668  14.936 -0.6047 -0.2753 -1.1577
  496MPD2     H 7376   1.970   2.543  15.258  3.2492  0.8961 -0.8279
  496MPD2    H1 7377   1.651   2.716  15.038  0.9085  3.0744 -0.1389
  496MPD2    H2 7378   2.001   2.617  14.830 -0.1164  1.1922 -0.3540
  496MPD2    H3 7379   1.765   2.691  14.848 -2.8011  0.9459  0.6670
  496MPD2     N 7380   1.714   2.625  15.280  0.2172 -0.6975 -0.1027
  496MPD2    H5 7381   1.617   2.649  15.262 -0.0998 -1.7391  0.2061
  496MPD2    N1 7382   2.128   2.498  15.037  0.1264 -0.3829 -0.1262
  496MPD2    H7 7383   2.163   2.497  14.942 -0.1305  0.0144 -0.2244
  497TMC3    C1 7384   1.632   2.570  15.498 -0.4837  0.0636  0.4359
  497TMC3    C2 7385   1.513   2.572  15.439 -0.5563 -0.4217 -0.0014
  497TMC3    C3 7386   1.408   2.526  15.508 -0.2916  0.0638 -0.4253
  497TMC3    C4 7387   1.657   2.538  15.628  0.7221  0.0486 -0.2389
  497TMC3    C5 7388   1.547   2.496  15.699  0.2346 -0.5480 -0.5350
  497TMC3    C6 7389   1.422   2.481  15.637 -0.2469 -0.4517  0.0250
  497TMC3     C 7390   1.746   2.588  15.410 -0.2252  0.1068 -0.1231
  497TMC3     O 7391   1.861   2.574  15.456  0.8838  0.1843 -0.2792
  497TMC3     H 7392   1.489   2.599  15.337  1.9228 -1.3777 -0.8321
  497TMC3    H1 7393   1.753   2.542  15.677  0.5139 -1.1797  0.2848
  497TMC3    H2 7394   1.334   2.437  15.684 -0.1519 -0.8093 -0.1295
  497TMC3    C7 7395   1.544   2.489  15.846 -0.6445 -1.1173 -0.1892
  497TMC3    C8 7396   1.275   2.530  15.449 -0.3549  0.2883 -0.0097
  497TMC3    O1 7397   1.462   2.421  15.907  0.3292 -0.4529  0.2305
  497TMC3    O2 7398   1.253   2.595  15.349 -0.1797  0.3032  0.2465
  498MPD2     C 7399   3.019   3.277   9.328 -0.0765 -0.4980 -0.2301
  498MPD2    C1 7400   2.942   3.373   9.400 -0.2771  0.3996 -0.7258
  498MPD2    C2 7401   2.815   3.332   9.443 -0.3220 -0.9233 -0.5359
  498MPD2    C3 7402   2.760   3.212   9.401  0.5337  0.0874 -1.2023
  498MPD2    C4 7403   2.832   3.130   9.320 -0.7446  0.4963  0.7443
  498MPD2    C5 7404   2.962   3.158   9.288  0.4045  0.4375  0.3464
  498MPD2     H 7405   2.761   3.408   9.498  1.6133 -0.9057  1.3319
  498MPD2    H1 7406   2.798   3.034   9.283  3.8963 -0.8317 -0.0851
  498MPD2    H2 7407   3.118   3.303   9.292 -0.5385  1.7156  0.1214
  498MPD2    H3 7408   3.023   3.087   9.234 -0.6690 -1.4519  1.6175
  498MPD2     N 7409   2.633   3.171   9.454  0.8213  0.0523 -0.1156
  498MPD2    H5 7410   2.598   3.225   9.533  1.0501  0.2490 -0.1494
  498MPD2    N1 7411   2.992   3.500   9.443  0.0577 -0.1722  0.1558
  498MPD2    H7 7412   2.929   3.558   9.497 -1.7243 -2.0382  0.0658
  499TMC3    C1 7413   3.139   3.685   9.463 -0.6031  0.1602  0.0420
  499TMC3    C2 7414   3.261   3.728   9.471 -0.2909  0.5024 -0.3712
  499TMC3    C3 7415   3.287   3.860   9.506 -0.4439  0.0130 -0.2965
  499TMC3    C4 7416   3.027   3.769   9.487  0.1072  0.8581  0.9007
  499TMC3    C5 7417   3.056   3.903   9.500  0.3679  0.5150  0.4722
  499TMC3    C6 7418   3.185   3.945   9.515  1.3365  0.2497  0.5557
  499TMC3     C 7419   3.114   3.551   9.407  0.1337  0.1297 -0.0639
  499TMC3     O 7420   3.202   3.505   9.333  0.3813 -0.0852 -0.2462
  499TMC3     H 7421   3.343   3.664   9.441 -0.3340  1.2921 -2.1338
  499TMC3    H1 7422   2.924   3.746   9.463  0.8976 -0.2045 -1.4140
  499TMC3    H2 7423   3.200   4.047   9.548  3.1655 -0.0766  0.7280
  499TMC3    C7 7424   2.952   4.005   9.482 -0.0506  0.2622  0.4618
  499TMC3    C8 7425   3.416   3.913   9.525  0.6244  0.4481  0.3867
  499TMC3    O1 7426   2.987   4.119   9.466 -0.2320  0.0707 -0.3372
  499TMC3    O2 7427   3.419   4.033   9.540  0.4650  0.1418 -0.4297
  500MPD2     C 7428   3.975   0.105  10.490 -0.4349  0.3034  0.1958
  500MPD2    C1 7429   3.978   0.149  10.359  0.6012 -0.1461 -0.2185
  500MPD2    C2 7430   3.859   0.146  10.288 -0.6008 -0.0724  0.1754
  500MPD2    C3 7431   3.742   0.111  10.343  0.2529  0.0806  0.1874
  500MPD2    C4 7432   3.747   0.051  10.469 -0.3429  0.0518  0.6924
  500MPD2    C5 7433   3.861   0.049  10.541 -0.1383 -0.5238  0.5975
  500MPD2     H 7434   3.864   0.199  10.193  2.3663 -0.7633 -0.0484
  500MPD2    H1 7435   3.661   0.002  10.514 -0.2347 -0.8411 -0.0554
  500MPD2    H2 7436   4.068   0.103  10.547 -1.8866 -2.2285  2.4269
  500MPD2    H3 7437   3.862   0.005  10.640 -1.0847  0.1754  0.9202
  500MPD2     N 7438   3.614   0.108  10.281 -0.1207  0.3634  0.4293
  500MPD2    H5 7439   3.533   0.084  10.337  1.0387  0.3989  2.1194
  500MPD2    N1 7440   4.098   0.192  10.303  0.1722  0.1426  0.3041
  500MPD2    H7 7441   4.092   0.205  10.202  0.0371  2.0785  0.5652
  501TMC3    C1 7442   4.320   0.255  10.259 -0.4653 -0.3189  0.1103
  501TMC3    C2 7443   4.287   0.255  10.127  0.3150  0.1494  0.1773
  501TMC3    C3 7444   4.379   0.290  10.036 -0.0725  0.0963 -0.0052
  501TMC3    C4 7445   4.447   0.277  10.309  0.0047 -0.3811  0.4321
  501TMC3    C5 7446   4.541   0.306  10.214  0.0810 -0.0818  0.0519
  501TMC3    C6 7447   4.510   0.309  10.079 -0.0972  0.7893 -0.3881
  501TMC3     C 7448   4.222   0.219  10.361 -0.7607  0.5963 -0.0436
  501TMC3     O 7449   4.266   0.213  10.477  0.0402 -0.0941  0.3868
  501TMC3     H 7450   4.186   0.235  10.093  1.2398 -1.1785 -1.8145
  501TMC3    H1 7451   4.463   0.286  10.416  2.8060  1.3776 -0.1387
  501TMC3    H2 7452   4.595   0.334  10.017 -0.0893  0.2585 -0.5841
  501TMC3    C7 7453   4.677   0.340  10.256  0.1015 -0.0701  0.2243
  501TMC3    C8 7454   4.360   0.341   9.908 -0.7720  0.2773 -0.5425
  501TMC3    O1 7455   0.035   0.364  10.169 -0.0672 -0.5682  0.1780
  501TMC3    O2 7456   4.449   0.323   9.827 -0.2424  0.0689  1.0519
  502TMC3    C1 7457   4.035   3.216  15.013 -0.3907 -0.5192 -0.5590
  502TMC3    C2 7458   4.050   3.348  15.009 -0.4422 -0.4107  0.0432
  502TMC3    C3 7459   3.933   3.428  15.016  0.0925 -0.2954  0.1186
  502TMC3    C4 7460   3.910   3.156  14.982 -0.6099 -0.2423  0.1271
  502TMC3    C5 7461   3.800   3.239  14.983 -1.1983  0.1001 -0.8669
  502TMC3    C6 7462   3.806   3.374  14.997 -0.4677  0.3810  0.0041
  502TMC3     C 7463   4.089   3.172  15.146  0.2590  0.4462 -0.2279
  502TMC3     O 7464   4.193   3.224  15.181 -0.0761 -0.0769 -0.8226
  502TMC3     H 7465   4.148   3.386  15.035 -0.9190  0.7879  0.0681
  502TMC3    H1 7466   3.900   3.049  14.987  1.2585 -0.3564  1.3720
  502TMC3    H2 7467   3.724   3.444  15.004 -2.4763 -1.8247 -1.4402
  502TMC3    C7 7468   3.692   3.173  15.058 -0.4424 -0.2360  0.6377
  502TMC3    C8 7469   3.956   3.564  15.053  0.5528  0.3013 -0.7199
  502TMC3    O1 7470   3.731   3.084  15.131  0.7012  0.1016 -0.3019
  502TMC3    O2 7471   4.068   3.605  15.020 -0.2896 -0.2786  0.2883
  503MPD2     C 7472   1.313   4.471  16.616  0.2730 -0.8576 -0.0934
  503MPD2    C1 7473   1.293   4.503  16.745  0.0318 -0.4837  0.1119
  503MPD2    C2 7474   1.330   4.422  16.845  0.0080  0.2602 -0.3763
  503MPD2    C3 7475   1.409   4.311  16.824 -0.3037 -0.0805 -0.0841
  503MPD2    C4 7476   1.434   4.282  16.691  0.1955 -0.0376  0.4658
  503MPD2    C5 7477   1.393   4.362  16.595  0.0090 -0.4441  0.1995
  503MPD2     H 7478   1.297   4.448  16.945 -1.0217 -0.5375 -0.5001
  503MPD2    H1 7479   1.504   4.205  16.661  0.1656 -0.2038  0.8203
  503MPD2    H2 7480   1.286   4.528  16.528  3.4298  0.0399 -0.4960
  503MPD2    H3 7481   1.429   4.332  16.497 -1.2308 -1.9822  0.2109
  503MPD2     N 7482   1.453   4.230  16.928  0.6457 -0.3381 -0.7541
  503MPD2    H5 7483   1.428   4.270  17.018  1.6620 -1.8848  0.2023
  503MPD2    N1 7484   1.222   4.618  16.787  0.4029 -0.2907  0.6289
  503MPD2    H7 7485   1.216   4.628  16.888 -1.1072 -0.3635  0.5488
  504TMC3    C1 7486   1.598   4.081  17.055 -0.0479 -0.0647  0.0584
  504TMC3    C2 7487   1.519   4.105  17.165 -0.3200  0.2422 -0.6520
  504TMC3    C3 7488   1.573   4.086  17.289 -0.1652 -0.2772  0.1047
  504TMC3    C4 7489   1.735   4.058  17.061  0.2393  0.7751 -0.1499
  504TMC3    C5 7490   1.783   4.036  17.187 -0.3964  0.1955  0.1834
  504TMC3    C6 7491   1.705   4.055  17.294  0.2015  0.4097  0.1565
  504TMC3     C 7492   1.535   4.116  16.926 -0.4221  0.0937  0.2451
  504TMC3     O 7493   1.591   4.063  16.830 -0.2999  0.5090 -0.2932
  504TMC3     H 7494   1.412   4.121  17.162 -0.6389 -1.6455  0.7176
  504TMC3    H1 7495   1.794   4.042  16.971  0.6319  0.9303  0.0825
  504TMC3    H2 7496   1.751   4.052  17.392 -0.7695  0.0890  0.5998
  504TMC3    C7 7497   1.920   3.986  17.183 -0.7664  0.1232 -0.7693
  504TMC3    C8 7498   1.482   4.035  17.386 -0.4018 -0.2879  0.3458
  504TMC3    O1 7499   1.979   4.019  17.083  0.1893 -0.5218 -0.0994
  504TMC3    O2 7500   1.371   4.091  17.386  0.0193 -0.6787 -0.0990
  505MPD2     C 7501   1.487   3.191  10.052 -0.7634  0.4837 -0.4740
  505MPD2    C1 7502   1.486   3.059  10.089 -0.0511 -0.2501 -0.1174
  505MPD2    C2 7503   1.579   3.019  10.191 -0.5712 -0.4689  0.0628
  505MPD2    C3 7504   1.676   3.108  10.243 -0.0278  0.7906  0.2570
  505MPD2    C4 7505   1.658   3.239  10.210 -0.2920  0.4840  0.1981
  505MPD2    C5 7506   1.560   3.285  10.125  0.1681  0.1541 -0.2833
  505MPD2     H 7507   1.590   2.917  10.225  1.5323  0.6044  2.5478
  505MPD2    H1 7508   1.735   3.314  10.231  0.7561 -0.3355 -0.7552
  505MPD2    H2 7509   1.433   3.233   9.968 -1.4658 -0.0827 -0.2987
  505MPD2    H3 7510   1.563   3.384  10.081 -0.5309  0.1651 -0.3144
  505MPD2     N 7511   1.765   3.052  10.338 -0.1468  0.4426  0.3658
  505MPD2    H5 7512   1.760   2.954  10.365 -0.8025  1.2653  3.2338
  505MPD2    N1 7513   1.401   2.962  10.027  0.4738 -0.1293 -0.2766
  505MPD2    H7 7514   1.345   2.992   9.948 -0.8494 -1.5681  0.1080
  506TMC3    C1 7515   1.327   2.750   9.947  0.1687  0.2693  0.0280
  506TMC3    C2 7516   1.353   2.791   9.820  0.2393  0.1212  0.6523
  506TMC3    C3 7517   1.386   2.691   9.733  0.6173 -0.6710  0.1767
  506TMC3    C4 7518   1.328   2.622   9.983 -0.3756  0.2220 -0.1270
  506TMC3    C5 7519   1.380   2.529   9.900 -0.2761 -0.0607  1.1833
  506TMC3    C6 7520   1.411   2.557   9.770 -0.0008  0.5011 -0.1123
  506TMC3     C 7521   1.382   2.832  10.058 -0.0632 -0.1946 -0.1752
  506TMC3     O 7522   1.421   2.775  10.158 -0.0321  0.1033 -0.8923
  506TMC3     H 7523   1.338   2.894   9.789  0.3767  0.1619  0.7197
  506TMC3    H1 7524   1.318   2.592  10.086  0.0578  1.7857  0.3611
  506TMC3    H2 7525   1.456   2.488   9.699 -0.8634  0.4589 -0.6119
  506TMC3    C7 7526   1.460   2.428   9.959  0.5962  0.4885 -0.4281
  506TMC3    C8 7527   1.441   2.740   9.606  0.1686  0.0192 -0.2568
  506TMC3    O1 7528   1.471   2.316   9.908 -0.0330 -0.0345 -0.5379
  506TMC3    O2 7529   1.382   2.830   9.545  0.0661  0.7167 -0.5684
  507TMC3    C1 7530   2.760   3.639  14.394 -0.3713 -0.1999  0.2497
  507TMC3    C2 7531   2.742   3.564  14.286  0.7533 -0.5075  0.0951
  507TMC3    C3 7532   2.744   3.634  14.168  0.5893  0.1489  0.2044
  507TMC3    C4 7533   2.813   3.767  14.397  0.3882 -0.8497  0.5931
  507TMC3    C5 7534   2.823   3.830  14.277 -0.5661  0.0775 -0.1683
  507TMC3    C6 7535   2.784   3.765  14.165  0.2206  0.1039  0.5048
  507TMC3     C 7536   2.643   3.635  14.479 -0.4963  0.0804  0.3132
  507TMC3     O 7537   2.647   3.690  14.588  0.0222  0.1344  0.7288
  507TMC3     H 7538   2.720   3.459  14.300  1.1940 -0.7676 -1.1972
  507TMC3    H1 7539   2.820   3.828  14.487 -2.4975 -0.4446  0.5513
  507TMC3    H2 7540   2.793   3.807  14.066 -1.2913 -1.1005 -0.1430
  507TMC3    C7 7541   2.758   3.959  14.262 -0.0689 -0.1418 -0.7178
  507TMC3    C8 7542   2.620   3.602  14.096 -0.1000  0.4426 -0.1761
  507TMC3    O1 7543   2.684   3.962  14.161 -0.3821 -0.9239  0.0919
  507TMC3    O2 7544   2.578   3.484  14.094  0.5224 -0.0650  0.0164
  508MPD2     C 7545   3.034   1.397  16.060  0.1293  0.7514 -0.0302
  508MPD2    C1 7546   3.164   1.434  16.056  0.8483 -0.4562  1.8976
  508MPD2    C2 7547   3.210   1.488  15.939 -0.3325 -0.1284 -0.5018
  508MPD2    C3 7548   3.137   1.494  15.830 -0.3986 -0.2197  0.2758
  508MPD2    C4 7549   3.011   1.443  15.827  0.0746 -0.0259 -0.0073
  508MPD2    C5 7550   2.961   1.392  15.945 -0.9136  0.1721 -0.0943
  508MPD2     H 7551   3.306   1.539  15.947 -0.1948 -0.9837  3.0988
  508MPD2    H1 7552   2.943   1.440  15.742 -0.7756  0.9731  0.6474
  508MPD2    H2 7553   2.992   1.352  16.149  1.0030 -0.6112 -0.3088
  508MPD2    H3 7554   2.863   1.346  15.944 -1.3558  1.0619  1.9874
  508MPD2     N 7555   3.184   1.556  15.710 -0.4775 -0.3549  0.0541
  508MPD2    H5 7556   3.272   1.605  15.722 -0.7107  0.3147 -0.9422
  508MPD2    N1 7557   3.234   1.418  16.173  0.0950  0.4290 -0.5595
  508MPD2    H7 7558   3.181   1.382  16.252 -2.7943  0.6730 -2.4213
  509TMC3    C1 7559   3.160   1.850  15.381 -1.4096 -0.8445 -0.0860
  509TMC3    C2 7560   3.297   1.871  15.381  0.1206  0.2943  0.2531
  509TMC3    C3 7561   3.368   1.778  15.450 -0.2066 -0.7636 -0.0615
  509TMC3    C4 7562   3.097   1.739  15.417 -0.6869 -0.0491  0.1073
  509TMC3    C5 7563   3.176   1.652  15.491 -0.6187  0.2217  0.5631
  509TMC3    C6 7564   3.312   1.660  15.498 -0.5348 -0.2385 -0.0693
  509TMC3     C 7565   3.077   1.955  15.323  0.3617 -0.6716 -0.5079
  509TMC3     O 7566   2.960   1.942  15.350 -0.1240  0.0581 -0.6161
  509TMC3     H 7567   3.341   1.967  15.354 -3.7140  1.8827 -0.4723
  509TMC3    H1 7568   2.991   1.717  15.412 -1.0169  1.5499 -0.0918
  509TMC3    H2 7569   3.371   1.580  15.541  1.9630  0.6144 -1.9348
  509TMC3    C7 7570   3.112   1.570  15.589  0.8497  0.2136  0.0977
  509TMC3    C8 7571   3.511   1.781  15.437 -0.2456 -0.1180  0.0591
  509TMC3    O1 7572   3.007   1.527  15.548 -0.2425 -0.1454  0.1593
  509TMC3    O2 7573   3.567   1.676  15.415 -0.4817 -0.2775  0.6961
  510MPD2     C 7574   1.359   2.944  14.572  0.7550  0.4031 -0.3706
  510MPD2    C1 7575   1.419   2.917  14.693 -0.1524  0.7925  0.2439
  510MPD2    C2 7576   1.554   2.893  14.695  0.2766  0.5243  0.2980
  510MPD2    C3 7577   1.634   2.894  14.583 -0.1121  0.1675 -0.4854
  510MPD2    C4 7578   1.569   2.924  14.464 -0.7633 -0.3032 -0.0726
  510MPD2    C5 7579   1.436   2.935  14.454 -0.0505  0.8929  0.1248
  510MPD2     H 7580   1.606   2.876  14.789  0.9652 -1.4667 -0.4712
  510MPD2    H1 7581   1.635   2.947  14.380  1.9903 -3.3773  1.2915
  510MPD2    H2 7582   1.252   2.947  14.559  0.4820  0.3205  1.8455
  510MPD2    H3 7583   1.385   2.956  14.361 -0.4468 -0.6706 -0.0146
  510MPD2     N 7584   1.774   2.866  14.599 -0.6103 -0.7036 -0.2073
  510MPD2    H5 7585   1.815   2.835  14.686 -0.1412  1.7359  0.4437
  510MPD2    N1 7586   1.337   2.896  14.807  0.6477 -0.0035  0.4127
  510MPD2    H7 7587   1.238   2.873  14.799  0.6208  0.1787  0.2335
  511TMC3    C1 7588   1.276   2.785  14.993 -0.1099  0.5451 -0.1588
  511TMC3    C2 7589   1.159   2.849  15.019  0.1062 -0.5072 -0.5545
  511TMC3    C3 7590   1.056   2.775  15.062  0.2228  0.2926  0.6107
  511TMC3    C4 7591   1.293   2.650  15.008  0.2464  0.3433 -0.1597
  511TMC3    C5 7592   1.190   2.583  15.058 -0.3976 -0.5842  1.0995
  511TMC3    C6 7593   1.065   2.639  15.086 -0.3171 -0.0460 -0.7833
  511TMC3     C 7594   1.383   2.861  14.929 -0.5133  0.7270 -0.2903
  511TMC3     O 7595   1.494   2.872  14.982 -0.0992  0.1870 -0.1020
  511TMC3     H 7596   1.159   2.952  14.985 -0.4536 -0.1749  0.4399
  511TMC3    H1 7597   1.394   2.612  14.996  0.0589  0.0597 -0.8558
  511TMC3    H2 7598   0.981   2.581  15.120  1.3052 -0.3985  2.6247
  511TMC3    C7 7599   1.208   2.447  15.031  0.1281 -0.7547  0.0450
  511TMC3    C8 7600   0.942   2.852  15.123 -0.6005 -0.0465 -0.3567
  511TMC3    O1 7601   1.311   2.408  14.980  0.5046 -0.6111 -0.1915
  511TMC3    O2 7602   0.860   2.792  15.194 -0.0965  0.4812  0.4134
  512TMC3    C1 7603   4.613   2.547  12.789  0.5385 -0.2271  0.1578
  512TMC3    C2 7604   4.715   2.484  12.861 -0.3962  0.1097 -0.1695
  512TMC3    C3 7605   0.011   2.348  12.858  0.0721  0.4093 -0.4430
  512TMC3    C4 7606   4.518   2.475  12.727  0.4552  0.1277  0.9121
  512TMC3    C5 7607   4.547   2.345  12.712 -0.6699 -0.4772 -0.0162
  512TMC3    C6 7608   4.651   2.272  12.774  0.3085  0.6480  0.1689
  512TMC3     C 7609   4.598   2.692  12.817 -0.2549  0.4423  0.3453
  512TMC3     O 7610   4.685   2.739  12.884 -0.2915  0.2393  0.2707
  512TMC3     H 7611   0.061   2.544  12.918 -0.7573  2.1159 -1.8577
  512TMC3    H1 7612   4.426   2.509  12.682  0.4532 -1.4225 -0.2779
  512TMC3    H2 7613   4.685   2.171  12.754  2.4308  1.0185  1.9753
  512TMC3    C7 7614   4.465   2.272  12.616 -0.7487 -0.0332  0.2708
  512TMC3    C8 7615   0.092   2.282  12.957  0.3806  0.1496 -0.1689
  512TMC3    O1 7616   4.395   2.334  12.538 -0.6487  0.5187 -0.1343
  512TMC3    O2 7617   0.101   2.161  12.946  0.2434  0.3070 -0.3401
  513MPD2     C 7618   1.979   2.708  12.765 -0.1317 -0.2813 -0.0938
  513MPD2    C1 7619   2.006   2.592  12.694  0.1335 -0.2748  0.2482
  513MPD2    C2 7620   2.094   2.496  12.754 -0.3315 -0.2511 -0.6051
  513MPD2    C3 7621   2.151   2.515  12.882  0.3431 -0.3610  0.1652
  513MPD2    C4 7622   2.124   2.631  12.952  0.1986 -0.5273  0.1666
  513MPD2    C5 7623   2.035   2.723  12.895  0.1016 -0.1467 -0.6366
  513MPD2     H 7624   2.119   2.401  12.708  1.8840  0.2849 -0.4997
  513MPD2    H1 7625   2.165   2.648  13.051 -0.3982 -1.6374  0.6060
  513MPD2    H2 7626   1.904   2.779  12.732 -0.6786 -0.8367 -0.0579
  513MPD2    H3 7627   2.014   2.804  12.963 -0.6184 -0.2469 -0.7471
  513MPD2     N 7628   2.230   2.410  12.924  0.1828 -0.0212 -0.1436
  513MPD2    H5 7629   2.204   2.326  12.874 -3.2736 -0.3710  2.2088
  513MPD2    N1 7630   1.964   2.594  12.562  0.7040  0.6762 -0.1696
  513MPD2    H7 7631   1.930   2.682  12.525  0.2014 -0.2726 -1.9702
  514TMC3    C1 7632   1.941   2.506  12.339 -0.6365  0.4801  0.4929
  514TMC3    C2 7633   2.001   2.615  12.279  0.3804  0.0595 -0.0049
  514TMC3    C3 7634   2.050   2.593  12.153  0.6569  0.1795  0.2733
  514TMC3    C4 7635   1.932   2.383  12.287 -0.3777  0.7668 -0.1731
  514TMC3    C5 7636   2.008   2.370  12.172 -0.5758  0.9024  0.5895
  514TMC3    C6 7637   2.069   2.468  12.100 -0.1584  0.4676  0.2927
  514TMC3     C 7638   1.967   2.490  12.482 -0.1366  0.0470 -0.1350
  514TMC3     O 7639   2.003   2.375  12.510  0.3998  0.2279 -0.5062
  514TMC3     H 7640   1.994   2.716  12.315 -0.2932 -0.3016  0.8731
  514TMC3    H1 7641   1.877   2.305  12.337  0.0513  0.8760  0.4631
  514TMC3    H2 7642   2.126   2.446  12.011  0.9993  1.1387  0.8675
  514TMC3    C7 7643   2.080   2.244  12.184  0.2884  0.1413  0.5829
  514TMC3    C8 7644   2.107   2.709  12.080  0.4615  0.1454 -0.3701
  514TMC3    O1 7645   2.134   2.214  12.079  0.4645  0.5663 -0.2053
  514TMC3    O2 7646   2.156   2.802  12.141 -0.2034  0.1114 -0.0058
  515MPD2     C 7647   4.502   4.145  15.041  0.5286  0.4129 -0.4535
  515MPD2    C1 7648   4.579   4.190  14.935 -0.0247  0.7413 -0.4001
  515MPD2    C2 7649   4.691   4.261  14.960 -0.5326  0.1851  0.1579
  515MPD2    C3 7650   0.007   4.277  15.088  1.0054  0.4991  0.3434
  515MPD2    C4 7651   4.665   4.214  15.193  0.2860 -0.5924  0.0973
  515MPD2    C5 7652   4.553   4.153  15.165  0.3487  0.1471  0.2729
  515MPD2     H 7653   0.024   4.299  14.875  0.0174  0.1391  0.5002
  515MPD2    H1 7654   4.691   4.217  15.298  0.1855  1.1085  0.0803
  515MPD2    H2 7655   4.402   4.106  15.030  1.2204 -0.2366 -4.1461
  515MPD2    H3 7656   4.494   4.132  15.254  1.0844 -1.9064  0.2691
  515MPD2     N 7657   0.124   4.352  15.124  0.3926  0.6284  0.2705
  515MPD2    H5 7658   0.156   4.353  15.221 -2.1448 -0.9373  1.1375
  515MPD2    N1 7659   4.545   4.169  14.799 -0.1384  0.0103 -0.4590
  515MPD2    H7 7660   4.614   4.203  14.733  2.4067 -1.1762  1.5820
  516TMC3    C1 7661   4.453   4.041  14.619  0.8298 -0.5486 -0.2889
  516TMC3    C2 7662   4.463   4.148  14.528  0.0894 -0.1508 -0.1597
  516TMC3    C3 7663   4.418   4.128  14.402  0.3686  0.0520  0.1612
  516TMC3    C4 7664   4.401   3.924  14.582 -0.0911  0.1846 -0.0548
  516TMC3    C5 7665   4.368   3.900  14.455  0.0634 -0.0124 -0.2093
  516TMC3    C6 7666   4.375   4.006  14.364  0.1363  0.5922  1.2442
  516TMC3     C 7667   4.443   4.082  14.754 -0.3500 -0.1059  1.1643
  516TMC3     O 7668   4.355   4.024  14.819 -0.5955  0.0600  0.6019
  516TMC3     H 7669   4.492   4.250  14.551 -2.5465  0.4559  0.5121
  516TMC3    H1 7670   4.380   3.849  14.658 -0.1257 -1.9044 -2.1568
  516TMC3    H2 7671   4.353   3.983  14.260  0.8719 -1.1590  1.4849
  516TMC3    C7 7672   4.320   3.766  14.415  0.1470  0.3653 -0.0657
  516TMC3    C8 7673   4.401   4.238  14.302  0.1494 -0.2637 -0.5026
  516TMC3    O1 7674   4.237   3.763  14.325 -0.7181 -0.1078 -0.7248
  516TMC3    O2 7675   4.409   4.204  14.185 -0.1910  0.0244 -0.3586
  517MPD2     C 7676   4.098   0.573   0.017 -0.5307 -0.0004 -0.2120
  517MPD2    C1 7677   4.238   0.589  17.688  0.5585  0.0981 -0.4110
  517MPD2    C2 7678   4.308   0.690   0.054  0.5879  1.3239 -0.6463
  517MPD2    C3 7679   4.235   0.776   0.132 -0.2864 -0.2937 -0.4024
  517MPD2    C4 7680   4.102   0.762   0.150  0.2064  0.5816 -0.0219
  517MPD2    C5 7681   4.032   0.663   0.092 -0.4942  0.1673 -0.2579
  517MPD2     H 7682   4.414   0.701   0.040  1.2202 -3.2267  0.4776
  517MPD2    H1 7683   4.054   0.821   0.228 -0.2066 -0.3179  0.4128
  517MPD2    H2 7684   4.037   0.497  17.667 -0.1146  0.2146 -1.1157
  517MPD2    H3 7685   3.931   0.640   0.124 -0.7978 -0.0250 -1.3575
  517MPD2     N 7686   4.292   0.886   0.206 -0.1702  0.0053  0.5783
  517MPD2    H5 7687   4.242   0.934   0.280 -1.6157 -2.6738  1.3452
  517MPD2    N1 7688   4.307   0.502  17.606 -0.2779  0.3485  0.3098
  517MPD2    H7 7689   4.401   0.521  17.572  0.8858 -3.6212  1.4161
  518TMC3    C1 7690   4.349   0.342  17.436  0.3776 -0.8285  0.1787
  518TMC3    C2 7691   4.339   0.210  17.397  0.0213 -0.2000 -0.7737
  518TMC3    C3 7692   4.413   0.166  17.295 -0.6958 -0.4903 -0.0928
  518TMC3    C4 7693   4.446   0.418  17.380 -0.2557 -0.1659  0.2631
  518TMC3    C5 7694   4.525   0.363  17.288  1.2358 -0.4077  0.4343
  518TMC3    C6 7695   4.516   0.236  17.241 -0.2090  0.0212  0.5026
  518TMC3     C 7696   4.256   0.391  17.542 -0.1751  0.6923 -0.0960
  518TMC3     O 7697   4.155   0.327  17.573  0.6150  0.5392  0.3738
  518TMC3     H 7698   4.254   0.151  17.431 -1.4938  0.5794 -3.1944
  518TMC3    H1 7699   4.451   0.524  17.401 -1.5497 -0.0322 -0.0603
  518TMC3    H2 7700   4.589   0.195  17.172 -0.3409 -1.1567  1.0791
  518TMC3    C7 7701   4.651   0.441  17.267  0.9235  0.0779  0.2655
  518TMC3    C8 7702   4.409   0.021  17.264  0.0271 -0.2517 -0.1432
  518TMC3    O1 7703   4.673   0.540  17.336 -0.5885  0.2257  0.2984
  518TMC3    O2 7704   4.376   4.666  17.350 -0.3139  0.0283 -0.1936
  519MPD2     C 7705   1.672   3.705  14.139 -0.5082  0.0327  0.2242
  519MPD2    C1 7706   1.615   3.752  14.023 -0.4925 -0.3550  0.2371
  519MPD2    C2 7707   1.657   3.708  13.902  0.0786 -0.3624  0.4286
  519MPD2    C3 7708   1.760   3.623  13.891  0.1028  0.1482  0.7659
  519MPD2    C4 7709   1.822   3.578  14.011  0.1705 -0.9069  0.0092
  519MPD2    C5 7710   1.780   3.619  14.131 -0.0880 -0.8930 -0.7350
  519MPD2     H 7711   1.610   3.751  13.814  1.8916 -1.4647 -1.0629
  519MPD2    H1 7712   1.905   3.511  13.993 -0.1125 -1.5794  1.2835
  519MPD2    H2 7713   1.635   3.727  14.238 -0.2491 -1.2911  0.6145
  519MPD2    H3 7714   1.815   3.568  14.220  1.2120 -0.7018 -1.1320
  519MPD2     N 7715   1.796   3.569  13.762  0.3498 -0.3802 -0.1689
  519MPD2    H5 7716   1.878   3.510  13.759  1.8829  1.6831  1.1407
  519MPD2    N1 7717   1.491   3.823  14.027  0.8148  0.6362  0.6845
  519MPD2    H7 7718   1.446   3.837  14.117  0.6982  0.2954  0.6768
  520TMC3    C1 7719   1.815   3.579  13.518 -0.1185  0.6330  0.6508
  520TMC3    C2 7720   1.767   3.605  13.394 -0.1610 -0.1328 -0.1737
  520TMC3    C3 7721   1.835   3.548  13.289  0.0603  0.2372 -0.0169
  520TMC3    C4 7722   1.926   3.504  13.535 -0.4711  0.2350  0.3530
  520TMC3    C5 7723   1.997   3.452  13.424  0.6019 -0.2887  0.0044
  520TMC3    C6 7724   1.951   3.474  13.294  0.3000  0.0620 -0.7212
  520TMC3     C 7725   1.739   3.613  13.640  0.8053 -0.3249  0.4788
  520TMC3     O 7726   1.644   3.685  13.608 -0.4478 -0.4375  0.1049
  520TMC3     H 7727   1.670   3.652  13.379 -2.0968 -4.7041 -2.2125
  520TMC3    H1 7728   1.968   3.501  13.635  1.7714 -1.5326 -0.6302
  520TMC3    H2 7729   1.987   3.422  13.207  2.0951  1.3628 -0.7451
  520TMC3    C7 7730   2.104   3.363  13.461 -0.3614  0.8823  0.1776
  520TMC3    C8 7731   1.769   3.547  13.152  0.2765  0.3427 -0.6276
  520TMC3    O1 7732   2.102   3.318  13.575 -0.1567 -0.1193  0.0994
  520TMC3    O2 7733   1.839   3.524  13.055 -0.3416  0.0119  0.1121
  521MPD2     C 7734   2.075   2.190  17.320 -0.8988 -0.1560 -0.9977
  521MPD2    C1 7735   2.064   2.100  17.218 -0.8066 -0.4450 -0.5849
  521MPD2    C2 7736   2.164   2.090  17.128  0.2114  0.2002 -0.3332
  521MPD2    C3 7737   2.281   2.161  17.146  0.4158 -0.1486  0.0544
  521MPD2    C4 7738   2.286   2.254  17.245  0.8435 -0.1854  0.1678
  521MPD2    C5 7739   2.177   2.277  17.326 -0.4021  0.2599  0.0141
  521MPD2     H 7740   2.148   2.019  17.048  0.5274  1.2927 -1.3540
  521MPD2    H1 7741   2.365   2.323  17.272  1.4899 -0.7971 -0.1450
  521MPD2    H2 7742   1.992   2.185  17.390 -0.7658 -0.8188 -0.8862
  521MPD2    H3 7743   2.183   2.351  17.405 -0.8478  0.6282 -0.2914
  521MPD2     N 7744   2.394   2.132  17.061 -0.2458 -0.5000 -0.0041
  521MPD2    H5 7745   2.377   2.073  16.979 -0.7722 -0.4500  0.0704
  521MPD2    N1 7746   1.973   1.998  17.234  0.0360 -0.2515 -0.2891
  521MPD2    H7 7747   1.921   1.989  17.320  0.7914  1.3777  0.3356
  522TMC3    C1 7748   2.624   2.139  17.001  0.5568 -0.5850 -0.1426
  522TMC3    C2 7749   2.739   2.099  17.059 -0.1737 -0.0869  0.1890
  522TMC3    C3 7750   2.841   2.078  16.978  0.3854  0.7467 -0.4178
  522TMC3    C4 7751   2.609   2.178  16.869  0.0641  0.4572  0.0088
  522TMC3    C5 7752   2.716   2.168  16.790 -0.3716  0.4778 -0.1080
  522TMC3    C6 7753   2.833   2.119  16.845  0.1289 -0.2948 -0.1609
  522TMC3     C 7754   2.525   2.182  17.091  0.5565 -0.2927 -0.0808
  522TMC3     O 7755   2.567   2.239  17.196  0.0216 -0.3565  0.4630
  522TMC3     H 7756   2.752   2.091  17.166  0.5788  0.8936  0.1669
  522TMC3    H1 7757   2.521   2.235  16.841 -0.3144 -0.3202 -0.3804
  522TMC3    H2 7758   2.912   2.110  16.770  0.3383 -4.4173  0.5770
  522TMC3    C7 7759   2.710   2.193  16.649  0.2829 -0.2934 -0.3500
  522TMC3    C8 7760   2.943   1.986  17.024 -0.2946  0.0260  0.5155
  522TMC3    O1 7761   2.812   2.181  16.582 -0.4704 -0.8357 -0.1701
  522TMC3    O2 7762   2.956   1.990  17.143  0.3698 -0.1104 -0.3874
  523MPD2     C 7763   4.408   1.685   9.492  0.0112 -0.0149  0.3133
  523MPD2    C1 7764   4.475   1.728   9.604 -0.5800 -0.0032  0.3315
  523MPD2    C2 7765   4.499   1.869   9.622  0.1027  0.2822  0.3728
  523MPD2    C3 7766   4.445   1.961   9.531  0.4692  0.2207  0.3846
  523MPD2    C4 7767   4.361   1.909   9.434 -0.0459  0.2367  0.0162
  523MPD2    C5 7768   4.352   1.775   9.415 -0.6095  0.1678  0.2223
  523MPD2     H 7769   4.557   1.906   9.706  0.0021 -1.2193  1.1240
  523MPD2    H1 7770   4.300   1.975   9.372 -2.1246 -2.0908 -0.3961
  523MPD2    H2 7771   4.397   1.579   9.469 -0.1885 -0.1375  0.9934
  523MPD2    H3 7772   4.285   1.745   9.336 -0.0910 -2.1486  0.6845
  523MPD2     N 7773   4.462   2.106   9.542 -0.1324 -0.4740  0.0531
  523MPD2    H5 7774   4.399   2.153   9.478 -1.5050 -2.2935  0.0696
  523MPD2    N1 7775   4.535   1.633   9.692 -0.4722  0.2281 -0.4816
  523MPD2    H7 7776   4.522   1.534   9.671 -0.1268 -0.1355  1.0083
  524TMC3    C1 7777   4.545   2.323   9.611 -0.2446  0.5233  0.0272
  524TMC3    C2 7778   4.653   2.401   9.633  0.3590  0.1381  0.1647
  524TMC3    C3 7779   4.644   2.534   9.610 -0.4781  0.3778  0.5469
  524TMC3    C4 7780   4.414   2.372   9.585  0.5637  0.8151 -0.3940
  524TMC3    C5 7781   4.411   2.508   9.565  0.7970  0.1846 -0.5696
  524TMC3    C6 7782   4.521   2.597   9.577 -0.8232  0.7413  0.3791
  524TMC3     C 7783   4.555   2.174   9.621 -1.2578  0.6250  0.3488
  524TMC3     O 7784   4.646   2.120   9.683  0.3017  0.5858  0.1658
  524TMC3     H 7785   0.024   2.350   9.652  0.4340  0.4175  0.5484
  524TMC3    H1 7786   4.328   2.306   9.586  1.1654  0.0724  1.7680
  524TMC3    H2 7787   4.502   2.704   9.575 -1.3719  0.6432  0.4735
  524TMC3    C7 7788   4.284   2.563   9.524 -0.2491 -0.0447 -0.4720
  524TMC3    C8 7789   0.031   2.619   9.646 -0.2104 -0.1318 -0.1301
  524TMC3    O1 7790   4.193   2.479   9.526 -0.1847  0.5361 -0.0192
  524TMC3    O2 7791   0.013   2.735   9.625 -0.0640 -0.3036  0.0407
  525MPD2     C 7792   3.025   3.407  14.127  0.7505  0.4125  0.0436
  525MPD2    C1 7793   3.100   3.445  14.235  0.0242 -0.3006 -0.1829
  525MPD2    C2 7794   3.154   3.570  14.242 -0.3174 -0.3995  0.5019
  525MPD2    C3 7795   3.129   3.669  14.150 -0.6143  0.1856  0.2937
  525MPD2    C4 7796   3.062   3.627  14.039  0.2386 -0.6269  0.2732
  525MPD2    C5 7797   3.007   3.501  14.028 -0.1033 -0.0888  0.2295
  525MPD2     H 7798   3.208   3.590  14.333  0.3174  1.9473 -0.4077
  525MPD2    H1 7799   3.055   3.687  13.949  0.0120  0.5763  1.0989
  525MPD2    H2 7800   2.980   3.311  14.105  0.0781  0.7615 -0.1151
  525MPD2    H3 7801   2.941   3.469  13.948  0.1085  0.4737 -0.1709
  525MPD2     N 7802   3.173   3.802  14.174  0.9121  0.3458 -0.0690
  525MPD2    H5 7803   3.140   3.873  14.109 -1.3955  0.7588  1.5684
  525MPD2    N1 7804   3.123   3.352  14.341  0.2276 -0.1914 -0.2023
  525MPD2    H7 7805   3.195   3.370  14.410  1.6063  2.2903 -2.3155
  526TMC3    C1 7806   3.096   3.161  14.478 -0.8632 -0.2130  0.7301
  526TMC3    C2 7807   3.001   3.105  14.560  0.3997  0.0272  0.5984
  526TMC3    C3 7808   3.041   3.023  14.661 -0.7707  0.1047  0.0767
  526TMC3    C4 7809   3.227   3.132  14.482  1.1728 -0.6173  0.3116
  526TMC3    C5 7810   3.263   3.048  14.586  0.4587  0.4823  0.8695
  526TMC3    C6 7811   3.173   3.006  14.683 -0.3973  0.3749 -1.0973
  526TMC3     C 7812   3.039   3.247  14.374  0.7452  1.1741 -0.3014
  526TMC3     O 7813   2.936   3.212  14.321 -0.2059  0.1134 -0.4923
  526TMC3     H 7814   2.897   3.128  14.542  1.0626  2.1329 -0.5617
  526TMC3    H1 7815   3.293   3.157  14.399  2.0581  1.7442  1.7169
  526TMC3    H2 7816   3.211   2.944  14.762 -2.6698  0.8427  0.3724
  526TMC3    C7 7817   3.403   3.047  14.634 -0.2576 -0.7179 -0.1438
  526TMC3    C8 7818   2.963   3.020  14.785 -0.7148 -0.3033  0.3882
  526TMC3    O1 7819   3.432   3.011  14.749 -0.5079  0.3047  0.6018
  526TMC3    O2 7820   3.027   3.007  14.889  0.2420  0.2774  0.2633
  527MPD2     C 7821   0.412   1.072   0.953 -0.2775  0.1050 -0.0197
  527MPD2    C1 7822   0.451   1.139   1.067  0.1059 -0.3004  0.0313
  527MPD2    C2 7823   0.581   1.128   1.112  0.6307 -0.6206  0.3848
  527MPD2    C3 7824   0.674   1.051   1.043  0.0707 -0.4023 -0.3103
  527MPD2    C4 7825   0.637   0.986   0.925  0.6789  0.3117 -0.6421
  527MPD2    C5 7826   0.498   0.982   0.894 -0.7695 -0.1833  0.6138
  527MPD2     H 7827   0.613   1.185   1.198 -0.3806  0.6785 -0.0960
  527MPD2    H1 7828   0.705   0.913   0.885 -1.4862 -1.8161 -0.4471
  527MPD2    H2 7829   0.316   1.078   0.904 -0.0354  0.2712 -0.4793
  527MPD2    H3 7830   0.455   0.928   0.810 -0.9233  1.3377 -0.2839
  527MPD2     N 7831   0.801   1.029   1.090 -0.3352  0.2905 -0.0955
  527MPD2    H5 7832   0.817   1.053   1.187 -0.0100 -1.7072  0.3406
  527MPD2    N1 7833   0.364   1.233   1.134  0.0991 -0.5201  0.3647
  527MPD2    H7 7834   0.413   1.289   1.203  1.8168 -0.4736 -0.9171
  528TMC3    C1 7835   0.164   1.363   1.191  0.6134  0.0268 -0.6840
  528TMC3    C2 7836   0.220   1.413   1.307  0.4305  0.8807 -0.1825
  528TMC3    C3 7837   0.137   1.489   1.391 -0.0926  0.0439  0.6228
  528TMC3    C4 7838   0.034   1.392   1.155  0.0614  0.4979 -0.3384
  528TMC3    C5 7839   4.686   1.462   1.241  1.5140 -0.2817  0.4693
  528TMC3    C6 7840   0.005   1.511   1.360  0.4195  0.1722  1.2538
  528TMC3     C 7841   0.229   1.256   1.109 -0.2191 -0.5868 -0.3272
  528TMC3     O 7842   0.161   1.205   1.021 -0.2416  0.0129  0.0164
  528TMC3     H 7843   0.323   1.388   1.329  0.6108  1.3403 -0.5040
  528TMC3    H1 7844   4.718   1.325   1.079  0.1291  0.2855 -0.1847
  528TMC3    H2 7845   4.664   1.581   1.412  1.0537  0.4440  1.6738
  528TMC3    C7 7846   4.562   1.512   1.195 -0.4244  0.8779  0.3095
  528TMC3    C8 7847   0.187   1.555   1.506 -0.2083 -0.2236  0.3667
  528TMC3    O1 7848   4.486   1.553   1.281 -0.3590  0.2405 -0.1401
  528TMC3    O2 7849   0.310   1.582   1.512 -0.1758 -0.4815 -0.0705
  529MPD2     C 7850   2.943   0.267   0.488  0.7260 -0.3497  0.2394
  529MPD2    C1 7851   3.035   0.172   0.451 -0.5101 -0.2862 -0.0560
  529MPD2    C2 7852   3.099   0.171   0.325 -0.2285  0.3700 -0.1603
  529MPD2    C3 7853   3.071   0.277   0.236 -0.4632 -0.7532  0.7433
  529MPD2    C4 7854   2.980   0.367   0.272  0.2281 -1.1903 -0.0336
  529MPD2    C5 7855   2.913   0.363   0.397  1.1314  0.4621  0.7254
  529MPD2     H 7856   3.178   0.104   0.292 -3.6765 -2.5114 -2.6125
  529MPD2    H1 7857   2.958   0.455   0.212 -3.6570 -2.0707  0.1159
  529MPD2    H2 7858   2.904   0.257   0.588 -0.4116 -2.4587 -0.4157
  529MPD2    H3 7859   2.828   0.429   0.414 -0.0052 -1.2606  1.6510
  529MPD2     N 7860   3.114   0.277   0.097  0.3661  0.0235  0.6570
  529MPD2    H5 7861   3.080   0.355   0.042  0.9222 -0.6751 -0.6791
  529MPD2    N1 7862   3.067   0.061   0.532 -0.1134 -0.1271 -1.0920
  529MPD2    H7 7863   3.140   4.720   0.507  0.0878 -0.0566 -0.6789
  530TMC3    C1 7864   3.029   4.621   0.695  0.0596  0.1957  0.0028
  530TMC3    C2 7865   3.018   4.606   0.828 -0.4838 -0.2517  0.6089
  530TMC3    C3 7866   3.062   4.488   0.875 -0.0537  0.2503 -0.1382
  530TMC3    C4 7867   3.072   4.514   0.611 -0.1298  0.1556  0.2466
  530TMC3    C5 7868   3.107   4.395   0.669 -1.0212 -0.1104  0.1963
  530TMC3    C6 7869   3.109   4.383   0.801  0.3383 -0.4551 -0.0487
  530TMC3     C 7870   3.001   0.028   0.650 -0.5714 -0.1452 -0.6159
  530TMC3     O 7871   2.925   0.092   0.718  0.3980 -0.5316  0.5395
  530TMC3     H 7872   2.993   4.685   0.897 -0.4130 -0.5980  1.0359
  530TMC3    H1 7873   3.055   4.520   0.504 -1.2718 -1.9002  0.3161
  530TMC3    H2 7874   3.133   4.291   0.853  1.3502 -0.1137  0.0757
  530TMC3    C7 7875   3.112   4.280   0.580  0.5904  1.0825  0.3346
  530TMC3    C8 7876   3.089   4.491   1.020 -0.5287 -0.8598 -0.5195
  530TMC3    O1 7877   3.108   4.301   0.464 -0.0079  0.3285  0.0984
  530TMC3    O2 7878   3.017   4.565   1.090 -0.0534  0.0715  0.3023
  531MPD2     C 7879   2.425   1.980  12.468  0.1771  0.1481 -0.3833
  531MPD2    C1 7880   2.333   2.035  12.547 -0.2275 -0.2287  0.0399
  531MPD2    C2 7881   2.226   2.102  12.494 -0.8729 -0.0216  0.1201
  531MPD2    C3 7882   2.211   2.120  12.361 -0.1298 -0.2576  1.2632
  531MPD2    C4 7883   2.308   2.069  12.277 -0.0279 -0.6709  0.0754
  531MPD2    C5 7884   2.410   1.997  12.334  0.0806 -0.3492 -0.4295
  531MPD2     H 7885   2.144   2.141  12.554 -1.9950  0.6422 -1.8295
  531MPD2    H1 7886   2.309   2.079  12.169  0.3069 -0.9616  0.0545
  531MPD2    H2 7887   2.511   1.927  12.507 -0.7389 -0.9564  0.1637
  531MPD2    H3 7888   2.487   1.959  12.268  1.4854  1.1258  0.3693
  531MPD2     N 7889   2.107   2.206  12.316  0.4460  0.5600 -0.3472
  531MPD2    H5 7890   2.050   2.252  12.387  2.3654 -0.2151  1.6993
  531MPD2    N1 7891   2.352   2.027  12.688 -0.3414  0.7861  0.5368
  531MPD2    H7 7892   2.419   1.958  12.721 -1.5406 -0.2313  0.8437
  532TMC3    C1 7893   2.322   2.086  12.920  0.7355 -0.4702 -0.6315
  532TMC3    C2 7894   2.254   2.172  12.998  0.7541  0.4804  0.0127
  532TMC3    C3 7895   2.325   2.263  13.074  0.4013 -0.0064  0.0037
  532TMC3    C4 7896   2.447   2.047  12.953  0.8318  0.1091  0.4126
  532TMC3    C5 7897   2.503   2.114  13.057 -0.1762 -0.4881 -0.4745
  532TMC3    C6 7898   2.448   2.227  13.115 -0.0173 -0.2547  0.3447
  532TMC3     C 7899   2.282   2.107  12.779  0.2180 -0.3408  0.1233
  532TMC3     O 7900   2.197   2.194  12.763  0.4581 -0.3503 -0.5420
  532TMC3     H 7901   2.149   2.195  12.983  0.2385 -3.0283 -1.8266
  532TMC3    H1 7902   2.508   1.982  12.893 -0.6091  0.7600 -1.7624
  532TMC3    H2 7903   2.507   2.293  13.179  0.3200 -0.5727  0.3639
  532TMC3    C7 7904   2.588   2.035  13.136 -0.3086 -0.3975 -0.1397
  532TMC3    C8 7905   2.292   2.403  13.047  1.5288  0.6129 -0.5489
  532TMC3    O1 7906   2.676   2.088  13.200 -0.4301  0.4125  0.9090
  532TMC3    O2 7907   2.345   2.487  13.116  0.4024 -0.0576  0.4307
  533TMC3    C1 7908   3.255   3.985  14.287  0.1623  0.3825  0.3143
  533TMC3    C2 7909   3.378   4.035  14.324 -0.2197 -0.0481 -0.1515
  533TMC3    C3 7910   3.379   4.142  14.408  0.5352  0.4767 -0.3717
  533TMC3    C4 7911   3.137   4.030  14.344  0.2944 -0.6532  0.5685
  533TMC3    C5 7912   3.146   4.116  14.449 -0.0969 -0.5268  1.3961
  533TMC3    C6 7913   3.267   4.180  14.474  0.8175  0.1451  0.5049
  533TMC3     C 7914   3.263   3.841  14.268 -0.7431  0.6190 -0.0355
  533TMC3     O 7915   3.337   3.778  14.345 -0.5286 -0.1342  0.1314
  533TMC3     H 7916   3.465   3.991  14.278  0.9183  0.1209  1.8319
  533TMC3    H1 7917   3.041   3.984  14.326  0.3661  0.2799 -2.1667
  533TMC3    H2 7918   3.270   4.250  14.557  0.0477 -0.3692  0.9660
  533TMC3    C7 7919   3.059   4.085  14.560 -0.2039 -1.2890  0.4477
  533TMC3    C8 7920   3.508   4.185  14.460 -0.1708  0.0426 -0.1469
  533TMC3    O1 7921   2.983   3.993  14.536 -0.4666 -0.9396 -0.1093
  533TMC3    O2 7922   3.520   4.237  14.567  0.0612  0.3751  0.3898
  534MPD2     C 7923   0.677   0.636   1.876  0.4761 -0.0016  0.6791
  534MPD2    C1 7924   0.583   0.678   1.788  0.2599  0.2467 -0.5527
  534MPD2    C2 7925   0.480   0.588   1.753  0.1500 -0.4483 -0.9331
  534MPD2    C3 7926   0.481   0.452   1.787 -0.1152 -0.0611  0.6157
  534MPD2    C4 7927   0.590   0.412   1.869  0.6189  0.4839 -0.3390
  534MPD2    C5 7928   0.681   0.505   1.914  0.0327 -0.2946 -0.2783
  534MPD2     H 7929   0.401   0.634   1.695 -1.4365 -1.2465  0.5506
  534MPD2    H1 7930   0.602   0.305   1.881 -0.2617  0.7462  3.0668
  534MPD2    H2 7931   0.767   0.688   1.903  0.7282  0.2481 -0.6080
  534MPD2    H3 7932   0.761   0.472   1.979  1.4600  0.5471 -1.6031
  534MPD2     N 7933   0.387   0.362   1.749 -0.3898 -0.5064  0.6541
  534MPD2    H5 7934   0.404   0.265   1.775 -1.3833 -1.1427 -1.0664
  534MPD2    N1 7935   0.576   0.811   1.751 -0.6461 -0.4577 -0.0086
  534MPD2    H7 7936   0.497   0.829   1.690 -0.0492 -0.8508 -0.8889
  535TMC3    C1 7937   0.239   0.281   1.599  0.2484  0.5105  0.5208
  535TMC3    C2 7938   0.109   0.277   1.571 -0.0918 -0.3165 -0.2022
  535TMC3    C3 7939   0.080   0.177   1.481 -0.4922 -0.2856  0.1770
  535TMC3    C4 7940   0.341   0.206   1.534 -0.1546 -0.3508  0.2528
  535TMC3    C5 7941   0.297   0.117   1.432  0.9809 -0.0744 -0.3380
  535TMC3    C6 7942   0.165   0.102   1.403  0.0508 -0.1941  0.4091
  535TMC3     C 7943   0.272   0.390   1.684  0.5200  0.4336 -0.5324
  535TMC3     O 7944   0.203   0.493   1.684  0.1931  0.1638 -0.4743
  535TMC3     H 7945   0.037   0.319   1.640  0.0362 -0.4074 -0.0162
  535TMC3    H1 7946   0.443   0.242   1.543 -0.7529  2.0630 -2.4615
  535TMC3    H2 7947   0.138   0.023   1.334  3.2545 -1.3583  0.4738
  535TMC3    C7 7948   0.392   0.056   1.337 -0.3631 -0.9014 -0.2134
  535TMC3    C8 7949   4.665   0.151   1.451 -0.1869  0.0688  0.0514
  535TMC3    O1 7950   0.355   4.722   1.235  0.3120  0.5676  0.5058
  535TMC3    O2 7951   4.638   0.041   1.404  0.5730  0.1845 -0.2403
  536MPD2     C 7952   3.841   2.560  16.396 -0.0072  0.4631 -0.1242
  536MPD2    C1 7953   3.781   2.679  16.424 -0.3392  0.7747  0.3337
  536MPD2    C2 7954   3.726   2.750  16.317 -0.8261  0.6514  0.3985
  536MPD2    C3 7955   3.737   2.707  16.181  0.7549  0.3803 -0.4604
  536MPD2    C4 7956   3.808   2.590  16.157 -0.4959 -0.7172  0.5961
  536MPD2    C5 7957   3.864   2.522  16.265  0.4319 -0.2215 -0.7030
  536MPD2     H 7958   3.664   2.836  16.338 -1.5381  0.2711 -0.1356
  536MPD2    H1 7959   3.836   2.540  16.064  0.8658  0.6784  0.2600
  536MPD2    H2 7960   3.867   2.482  16.468  0.9951  2.1784  1.3780
  536MPD2    H3 7961   3.910   2.425  16.248  0.5265 -0.3499  0.2916
  536MPD2     N 7962   3.672   2.780  16.069 -0.4748  0.3567 -0.1998
  536MPD2    H5 7963   3.678   2.737  15.977 -0.8246 -2.1580  0.9374
  536MPD2    N1 7964   3.767   2.717  16.559  0.1008 -0.2789  0.2100
  536MPD2    H7 7965   3.795   2.648  16.627 -1.1090 -0.1369  0.8391
  537TMC3    C1 7966   3.732   2.860  16.744 -0.6568  0.0070  1.0007
  537TMC3    C2 7967   3.787   2.974  16.788 -0.4329  0.0791 -0.0967
  537TMC3    C3 7968   3.849   2.969  16.912 -0.1401 -0.5182  0.0917
  537TMC3    C4 7969   3.726   2.747  16.822  0.4110 -0.4793  0.1906
  537TMC3    C5 7970   3.784   2.757  16.946  0.6946  0.1694 -0.6324
  537TMC3    C6 7971   3.847   2.863  16.994 -0.4532  0.1411 -0.2120
  537TMC3     C 7972   3.728   2.843  16.601 -0.6535  0.0440 -0.0024
  537TMC3     O 7973   3.696   2.945  16.537  0.3994 -0.0888 -0.3387
  537TMC3     H 7974   3.805   3.049  16.711 -0.3109  0.3362  0.1827
  537TMC3    H1 7975   3.670   2.662  16.784 -0.5155 -0.0160  0.5149
  537TMC3    H2 7976   3.884   2.864  17.096 -1.6939  1.0368  0.2435
  537TMC3    C7 7977   3.767   2.633  17.024 -0.2338  0.7433 -0.7140
  537TMC3    C8 7978   3.921   3.077  16.955 -0.5648 -0.0501  0.1671
  537TMC3    O1 7979   3.715   2.550  16.957  0.2357  0.2661 -0.3462
  537TMC3    O2 7980   3.998   3.057  17.049  0.7850  0.1900  0.1015
  538TMC3    C1 7981   0.457   1.438  10.875  0.0317 -0.1824 -0.4028
  538TMC3    C2 7982   0.578   1.397  10.829  0.3484 -0.4766  0.5064
  538TMC3    C3 7983   0.602   1.393  10.698 -0.0995 -0.9491 -0.5399
  538TMC3    C4 7984   0.371   1.486  10.785  0.5276  0.1066 -0.0010
  538TMC3    C5 7985   0.400   1.480  10.647 -0.1856 -0.0556  0.1098
  538TMC3    C6 7986   0.518   1.430  10.602  0.1697  0.4555 -0.0271
  538TMC3     C 7987   0.445   1.497  11.010  0.5460  0.1666  0.9728
  538TMC3     O 7988   0.331   1.524  11.050 -0.2578 -0.1146 -0.1832
  538TMC3     H 7989   0.656   1.355  10.891 -0.0794  1.7364  2.5448
  538TMC3    H1 7990   0.279   1.534  10.815  0.4944 -1.2384  2.0676
  538TMC3    H2 7991   0.548   1.412  10.500  1.1852  1.1568  0.1423
  538TMC3    C7 7992   0.306   1.522  10.549 -0.1081 -0.0173 -0.1620
  538TMC3    C8 7993   0.727   1.339  10.663  0.6223 -0.0130 -0.3916
  538TMC3    O1 7994   0.189   1.489  10.569 -0.6840  0.2189 -0.1575
  538TMC3    O2 7995   0.779   1.254  10.731  0.0426 -0.1830 -0.0431
  539MPD2     C 7996   0.234   0.847  11.697 -0.2423  0.0066 -0.0525
  539MPD2    C1 7997   0.260   0.857  11.562  0.1682  0.8174 -0.5540
  539MPD2    C2 7998   0.239   0.981  11.509 -0.8290  0.1154  0.1412
  539MPD2    C3 7999   0.185   1.093  11.578 -0.1443  0.2978 -0.1247
  539MPD2    C4 8000   0.153   1.073  11.706 -0.0784 -0.0877  0.3517
  539MPD2    C5 8001   0.175   0.953  11.768  0.1145  0.5383  0.4744
  539MPD2     H 8002   0.263   0.991  11.404 -0.3595 -0.1626  0.2258
  539MPD2    H1 8003   0.101   1.152  11.760  0.7384 -0.3329  1.5083
  539MPD2    H2 8004   0.251   0.758  11.756  0.0731 -0.4108 -0.7752
  539MPD2    H3 8005   0.159   0.936  11.874 -1.0095 -2.2864 -0.1466
  539MPD2     N 8006   0.182   1.221  11.531  0.6279 -0.1203  0.2404
  539MPD2    H5 8007   0.144   1.295  11.590 -0.4126 -1.0529  0.7280
  539MPD2    N1 8008   0.310   0.750  11.489  0.0486  0.3673 -0.3915
  539MPD2    H7 8009   0.312   0.759  11.388  0.4564  1.9818 -0.2409
  540TMC3    C1 8010   0.152   1.390  11.365  0.2056 -0.5473 -0.2471
  540TMC3    C2 8011   0.099   1.389  11.238  0.5864  0.0337 -0.0791
  540TMC3    C3 8012   0.068   1.509  11.187  0.5788  0.0469 -0.1637
  540TMC3    C4 8013   0.183   1.498  11.440  0.0340 -0.2519  0.1710
  540TMC3    C5 8014   0.142   1.624  11.384  0.6644 -0.3274 -0.3322
  540TMC3    C6 8015   0.084   1.624  11.261  0.7234 -0.0629 -0.3099
  540TMC3     C 8016   0.208   1.259  11.404  0.2348 -0.9662 -0.4803
  540TMC3     O 8017   0.255   1.202  11.313 -0.2887  0.5689 -0.1883
  540TMC3     H 8018   0.083   1.291  11.195 -1.2441  0.4499 -0.3482
  540TMC3    H1 8019   0.238   1.494  11.533 -0.4455  0.2724  0.4826
  540TMC3    H2 8020   0.038   1.714  11.221  0.7563  0.0354 -0.1254
  540TMC3    C7 8021   0.101   1.727  11.481  0.1868 -0.2389  0.0712
  540TMC3    C8 8022   0.012   1.529  11.052  1.0898  0.3462  0.5364
  540TMC3    O1 8023   0.049   1.686  11.581 -0.0057  0.6485 -0.1483
  540TMC3    O2 8024   4.706   1.644  11.014  0.2109 -0.3933  0.1760
  541MPD2     C 8025   3.057   2.307  12.846 -0.3678  0.5342 -0.2507
  541MPD2    C1 8026   3.111   2.280  12.727 -0.8295  0.0019 -0.4414
  541MPD2    C2 8027   3.134   2.376  12.639  0.1273  0.2530 -0.1865
  541MPD2    C3 8028   3.088   2.502  12.664  0.4245  0.1488  0.5684
  541MPD2    C4 8029   3.025   2.534  12.785 -0.2086  0.1086 -0.4591
  541MPD2    C5 8030   3.013   2.434  12.871 -0.8796  0.0828  0.2912
  541MPD2     H 8031   3.195   2.366  12.550 -0.2098  0.3738 -0.4320
  541MPD2    H1 8032   2.991   2.631  12.821 -0.1879  0.0782 -0.3578
  541MPD2    H2 8033   3.042   2.231  12.921  0.7821  0.5787  0.0245
  541MPD2    H3 8034   2.958   2.461  12.960 -0.1507  2.5203 -0.0074
  541MPD2     N 8035   3.120   2.603  12.572  0.3170 -0.6361  0.7595
  541MPD2    H5 8036   3.182   2.570  12.498  2.2052  2.4535  0.9488
  541MPD2    N1 8037   3.162   2.149  12.707  0.5996 -0.5250 -0.2468
  541MPD2    H7 8038   3.149   2.088  12.787 -1.7214  1.5637  0.9586
  542TMC3    C1 8039   3.100   2.815  12.463  0.2830  0.3386  1.0011
  542TMC3    C2 8040   3.124   2.755  12.340  0.4120 -0.8343 -0.0831
  542TMC3    C3 8041   3.155   2.833  12.234 -0.4255  0.3801 -0.6783
  542TMC3    C4 8042   3.080   2.949  12.472 -0.5886  0.3228  0.4746
  542TMC3    C5 8043   3.108   3.016  12.358  0.1020  0.0252 -0.4301
  542TMC3    C6 8044   3.145   2.969  12.243 -0.2242 -0.6522  0.2053
  542TMC3     C 8045   3.088   2.738  12.587  0.0237 -0.1013  0.6419
  542TMC3     O 8046   3.041   2.800  12.680  0.3372  0.1359  0.2168
  542TMC3     H 8047   3.118   2.647  12.334 -3.0235 -0.7245  0.9501
  542TMC3    H1 8048   3.033   3.001  12.554 -3.5081  0.8569 -1.5400
  542TMC3    H2 8049   3.175   3.026  12.156  0.3336 -2.7114 -0.9467
  542TMC3    C7 8050   3.081   3.156  12.357  0.2655 -1.2432 -0.4367
  542TMC3    C8 8051   3.123   2.777  12.102 -0.1499  0.0426  0.6202
  542TMC3    O1 8052   3.038   3.199  12.252  0.6587  0.4112 -0.6870
  542TMC3    O2 8053   3.136   2.652  12.098 -0.4655 -0.5389 -0.0601
  543TMC3    C1 8054   2.792   3.746  17.248 -0.2063 -0.1685  0.2191
  543TMC3    C2 8055   2.824   3.625  17.293 -0.3366  0.1335  0.4348
  543TMC3    C3 8056   2.775   3.595  17.414 -0.3914 -0.2329 -0.2342
  543TMC3    C4 8057   2.712   3.831  17.305 -0.4139  0.2535  0.2887
  543TMC3    C5 8058   2.663   3.801  17.434 -0.5626  0.3744 -0.0411
  543TMC3    C6 8059   2.697   3.678  17.481  0.3117 -0.0806  0.5774
  543TMC3     C 8060   2.856   3.776  17.122  0.4090 -0.1287 -0.3917
  543TMC3     O 8061   2.929   3.687  17.084 -0.4421  0.1330 -0.1516
  543TMC3     H 8062   2.886   3.553  17.241 -0.0321 -0.2147  1.2949
  543TMC3    H1 8063   2.704   3.934  17.272 -0.3405  0.4154  0.7800
  543TMC3    H2 8064   2.651   3.643  17.573  2.1440  2.0490  2.3156
  543TMC3    C7 8065   2.584   3.880  17.520  0.2884  0.7819 -0.2773
  543TMC3    C8 8066   2.797   3.460  17.461  0.0876  0.0109  0.6340
  543TMC3    O1 8067   2.546   3.831  17.627 -0.2646 -0.0523  0.0349
  543TMC3    O2 8068   2.888   3.393  17.411  0.4499  0.3286 -0.3169
  544MPD2     C 8069   2.678   3.011  17.682  0.5365 -0.5131 -0.2343
  544MPD2    C1 8070   2.744   3.031  17.563  0.2915  0.2974  0.0681
  544MPD2    C2 8071   2.753   3.165  17.517 -0.0559  0.7853 -0.2791
  544MPD2    C3 8072   2.701   3.272  17.595 -0.1307  0.1522  0.2722
  544MPD2    C4 8073   2.638   3.243   0.020 -0.6071 -0.5565  0.2025
  544MPD2    C5 8074   2.628   3.112   0.058  0.0227  0.6660  0.0156
  544MPD2     H 8075   2.798   3.181  17.420  0.0193 -0.0526 -0.3820
  544MPD2    H1 8076   2.593   3.321   0.080 -0.8500  0.6493 -1.5668
  544MPD2    H2 8077   2.654   2.910   0.016  2.4570 -1.0224 -0.4007
  544MPD2    H3 8078   2.567   3.103   0.148  1.1905  0.1312  0.7576
  544MPD2     N 8079   2.703   3.409  17.556  0.3068  0.0101 -0.2356
  544MPD2    H5 8080   2.647   3.476  17.608 -0.4553  0.4961 -1.6870
  544MPD2    N1 8081   2.776   2.917  17.490  0.3602 -0.2396 -0.1175
  544MPD2    H7 8082   2.738   2.829  17.522  0.1008  0.4546  1.5031
  545TMC3    C1 8083   2.824   2.785  17.317  0.5721 -0.1358 -0.7273
  545TMC3    C2 8084   2.764   2.784  17.194  0.4805  0.4112  0.1975
  545TMC3    C3 8085   2.695   2.668  17.162 -0.2599 -0.7650  0.4341
  545TMC3    C4 8086   2.822   2.677  17.398 -0.7589 -0.4569 -0.8200
  545TMC3    C5 8087   2.750   2.568  17.364  0.1826 -0.3268 -0.0782
  545TMC3    C6 8088   2.677   2.564  17.246 -0.1399 -0.2707 -0.6448
  545TMC3     C 8089   2.849   2.913  17.377 -0.2671 -0.4463  0.3484
  545TMC3     O 8090   2.889   3.008  17.308  0.7858 -0.0757  0.9888
  545TMC3     H 8091   2.766   2.869  17.126 -2.1472 -0.2467 -0.6952
  545TMC3    H1 8092   2.888   2.666  17.483  0.1243  2.8851 -1.0577
  545TMC3    H2 8093   2.632   2.470  17.219 -1.0125 -0.4403  1.4844
  545TMC3    C7 8094   2.707   2.466  17.455  0.5425 -0.0575 -0.4714
  545TMC3    C8 8095   2.631   2.663  17.030 -0.6081  0.7334 -0.1975
  545TMC3    O1 8096   2.593   2.421  17.432  0.3792 -0.7645  0.0441
  545TMC3    O2 8097   2.690   2.717  16.935 -0.4105  0.6220  0.1064
  546MPD2     C 8098   4.349   3.558   0.080 -0.7787 -0.5352 -0.2235
  546MPD2    C1 8099   4.269   3.624  17.684 -0.2331 -0.8398 -0.0406
  546MPD2    C2 8100   4.321   3.715  17.603 -0.6172 -0.2884  0.3119
  546MPD2    C3 8101   4.451   3.762  17.617  0.1383  0.1075  0.2299
  546MPD2    C4 8102   4.525   3.699   0.023 -0.9776  0.5452  0.1183
  546MPD2    C5 8103   4.472   3.603   0.098 -0.2498 -0.6086  0.3447
  546MPD2     H 8104   4.265   3.757  17.519 -1.0520 -0.0030  0.7456
  546MPD2    H1 8105   4.628   3.730   0.038 -1.0633  0.8732  0.0147
  546MPD2    H2 8106   4.318   3.480   0.149 -0.9555 -0.5823 -0.3564
  546MPD2    H3 8107   4.538   3.570   0.179  1.4122  0.3346 -0.6239
  546MPD2     N 8108   4.521   3.867  17.544  0.3884 -0.3495  0.1797
  546MPD2    H5 8109   4.620   3.873  17.566  0.3081  1.0106  0.1709
  546MPD2    N1 8110   4.145   3.567  17.647 -0.0125 -0.3518  0.8938
  546MPD2    H7 8111   4.131   3.473  17.683  0.5033 -0.4495  0.8398
  547TMC3    C1 8112   3.939   3.535  17.529  0.5724  0.0447 -0.4499
  547TMC3    C2 8113   3.864   3.557  17.413  0.0394 -0.3044 -0.2503
  547TMC3    C3 8114   3.777   3.470  17.366 -0.7834  0.4570  0.3738
  547TMC3    C4 8115   3.914   3.422  17.606  0.0945 -0.0797  0.3912
  547TMC3    C5 8116   3.827   3.333  17.552 -0.1859 -0.6977  0.5096
  547TMC3    C6 8117   3.762   3.355  17.435 -0.5372  0.0559  0.2825
  547TMC3     C 8118   4.050   3.628  17.567 -0.1487 -0.2241  0.8636
  547TMC3     O 8119   4.046   3.743  17.524 -0.1195 -0.0824 -0.0543
  547TMC3     H 8120   3.879   3.645  17.351 -1.0478  0.1715  0.1596
  547TMC3    H1 8121   3.963   3.398   0.004  0.9474  0.8503  0.1798
  547TMC3    H2 8122   3.686   3.286  17.398  0.0035 -0.7369  0.6550
  547TMC3    C7 8123   3.790   3.214  17.620 -0.0084 -0.1548  0.0747
  547TMC3    C8 8124   3.740   3.489  17.225 -0.5326 -1.0760 -0.2142
  547TMC3    O1 8125   3.745   3.234   0.032  0.2223 -0.1912 -0.3870
  547TMC3    O2 8126   3.745   3.605  17.176 -0.0055  0.1436 -0.1915
  548MPD2     C 8127   4.203   4.532  12.001  0.1384  0.8001 -0.4109
  548MPD2    C1 8128   4.175   4.406  12.050 -1.1371 -0.0176  0.0813
  548MPD2    C2 8129   4.264   4.309  12.021  0.3804 -0.0349  0.2374
  548MPD2    C3 8130   4.378   4.328  11.944 -0.0002 -0.6601  0.1085
  548MPD2    C4 8131   4.403   4.449  11.894  0.0190  0.0009 -0.2525
  548MPD2    C5 8132   4.318   4.547  11.930  0.4775 -0.3930  0.1946
  548MPD2     H 8133   4.246   4.208  12.057  1.7314 -0.0824  0.7810
  548MPD2    H1 8134   4.482   4.477  11.825 -0.6796  1.3531 -0.5126
  548MPD2    H2 8135   4.144   4.616  12.036 -1.1866 -0.6409  0.8086
  548MPD2    H3 8136   4.343   4.649  11.903  0.1712 -0.6956 -1.1963
  548MPD2     N 8137   4.451   4.214  11.903 -0.5302 -0.4147  0.3340
  548MPD2    H5 8138   4.409   4.129  11.938 -0.8232 -0.9536 -1.3412
  548MPD2    N1 8139   4.058   4.377  12.127  0.0367 -0.2809 -0.1047
  548MPD2    H7 8140   4.008   4.461  12.154  2.1131  0.8802  0.1528
  549TMC3    C1 8141   3.894   4.279  12.250  0.0370  0.1600 -0.2192
  549TMC3    C2 8142   3.831   4.397  12.276 -0.1630 -0.5472  0.3926
  549TMC3    C3 8143   3.712   4.383  12.348  0.0108 -0.0200 -0.0541
  549TMC3    C4 8144   3.860   4.164  12.305 -0.1907 -0.0907 -0.2395
  549TMC3    C5 8145   3.745   4.155  12.377 -0.4257 -1.0436  0.4917
  549TMC3    C6 8146   3.672   4.266  12.400  0.9214 -0.2858  0.3938
  549TMC3     C 8147   4.010   4.262  12.175  0.2895 -0.2679  0.1386
  549TMC3     O 8148   4.065   4.151  12.173 -0.1223 -0.2625 -0.0573
  549TMC3     H 8149   3.856   4.494  12.233 -1.2360 -0.7601 -0.7072
  549TMC3    H1 8150   3.921   4.074  12.303 -1.0996 -0.7840  2.5292
  549TMC3    H2 8151   3.584   4.262  12.463  0.4467  0.9689 -0.1800
  549TMC3    C7 8152   3.658   4.043  12.345  0.1928  0.9965 -0.6016
  549TMC3    C8 8153   3.619   4.494  12.361 -0.1721  1.2620 -0.3507
  549TMC3    O1 8154   3.544   4.084  12.328 -0.1962 -0.4250  0.4872
  549TMC3    O2 8155   3.512   4.464  12.399 -0.3686 -0.4429 -0.0050
  550TMC3    C1 8156   2.442   2.383  11.819  0.5816 -0.3725  0.1520
  550TMC3    C2 8157   2.433   2.394  11.951 -0.7912  0.0860 -0.1852
  550TMC3    C3 8158   2.485   2.505  12.005  0.2699 -0.7654  0.2970
  550TMC3    C4 8159   2.479   2.484  11.728 -0.6987  0.2538  0.0790
  550TMC3    C5 8160   2.516   2.601  11.785 -0.0350  0.0221 -0.8877
  550TMC3    C6 8161   2.521   2.610  11.925 -0.7152 -0.6107 -0.5385
  550TMC3     C 8162   2.416   2.254  11.755 -0.1730 -0.0664  0.3069
  550TMC3     O 8163   2.434   2.155  11.822  0.3268  0.3870  0.7841
  550TMC3     H 8164   2.409   2.310  12.015  2.1280  0.6439  1.6072
  550TMC3    H1 8165   2.462   2.468  11.623 -0.9890 -0.6320  0.2671
  550TMC3    H2 8166   2.558   2.704  11.964 -1.4268  0.1843 -1.7823
  550TMC3    C7 8167   2.507   2.726  11.711  0.1788  0.5358  0.7083
  550TMC3    C8 8168   2.458   2.543  12.136 -0.1780  0.2893  1.1244
  550TMC3    O1 8169   2.553   2.827  11.766  0.4149  0.2811  0.3627
  550TMC3    O2 8170   2.419   2.659  12.148  0.6208 -0.1469 -0.2317
  551TMC3    C1 8171   0.288   4.445  13.227 -0.2612  0.2240  0.1403
  551TMC3    C2 8172   0.414   4.445  13.171 -0.5521 -0.3868  0.2669
  551TMC3    C3 8173   0.522   4.515  13.219 -0.0838  0.1165 -0.3937
  551TMC3    C4 8174   0.274   4.531  13.338 -0.0500  0.3432  0.1711
  551TMC3    C5 8175   0.392   4.587  13.381 -0.2414  0.4495  0.0917
  551TMC3    C6 8176   0.517   4.580  13.337  0.1157 -0.6597  0.2239
  551TMC3     C 8177   0.178   4.422  13.131  0.1753  0.1054 -0.2997
  551TMC3     O 8178   0.204   4.353  13.036 -0.1586 -0.4272  0.3311
  551TMC3     H 8179   0.436   4.402  13.074 -0.4177 -1.1060  0.6180
  551TMC3    H1 8180   0.185   4.542  13.398 -1.1065 -0.6393 -1.2093
  551TMC3    H2 8181   0.598   4.643  13.372 -1.9742  0.6897  2.6237
  551TMC3    C7 8182   0.389   4.652  13.508 -0.0411 -0.8162  0.0709
  551TMC3    C8 8183   0.603   4.575  13.113  0.0268 -0.2310 -0.3585
  551TMC3    O1 8184   0.472   4.618  13.589  0.1094 -0.1548 -0.3311
  551TMC3    O2 8185   0.673   4.503  13.043 -0.0590  0.6722  0.2506
  552MPD2     C 8186   2.747   2.183  13.518 -0.4276 -0.1177  0.0116
  552MPD2    C1 8187   2.699   2.107  13.624 -0.0954  0.4217 -0.3155
  552MPD2    C2 8188   2.770   2.088  13.736  0.0201  0.2182 -0.2131
  552MPD2    C3 8189   2.896   2.147  13.748  0.6776 -0.8190 -0.3368
  552MPD2    C4 8190   2.956   2.198  13.639  0.2118  0.1614  0.3834
  552MPD2    C5 8191   2.879   2.225  13.527 -0.5957 -0.1426  0.2648
  552MPD2     H 8192   2.721   2.038  13.819  1.0975 -0.0466  0.2675
  552MPD2    H1 8193   3.060   2.226  13.636  1.4366 -4.3169  0.6313
  552MPD2    H2 8194   2.692   2.196  13.426  0.0241  1.7920  0.0327
  552MPD2    H3 8195   2.934   2.275  13.447  1.5096 -0.8527  1.2610
  552MPD2     N 8196   2.973   2.148  13.869  0.1360  0.4597 -0.6082
  552MPD2    H5 8197   3.065   2.190  13.859  0.1840  0.5789  0.3682
  552MPD2    N1 8198   2.578   2.032  13.613 -0.3153 -0.5083 -0.2132
  552MPD2    H7 8199   2.561   1.952  13.673 -0.1506 -0.9291 -0.7308
  553TMC3    C1 8200   2.401   1.922  13.481  0.1774  0.5074 -0.0863
  553TMC3    C2 8201   2.295   1.943  13.403  0.2142 -0.1521 -0.4589
  553TMC3    C3 8202   2.224   1.826  13.374 -0.4771  0.2469  0.2695
  553TMC3    C4 8203   2.451   1.803  13.526 -0.4608  0.1375 -0.4028
  553TMC3    C5 8204   2.374   1.697  13.500 -1.1252  0.3200  0.0407
  553TMC3    C6 8205   2.260   1.710  13.427  0.8037  0.1163  0.1229
  553TMC3     C 8206   2.493   2.043  13.507  0.6859 -0.3729 -0.2860
  553TMC3     O 8207   2.451   2.141  13.449 -0.0446  0.0163  0.4487
  553TMC3     H 8208   2.286   2.042  13.360  3.7715 -0.5024 -1.9733
  553TMC3    H1 8209   2.537   1.800  13.592 -1.5272 -1.8222  0.8907
  553TMC3    H2 8210   2.202   1.621  13.409  3.3907 -1.3965 -0.7663
  553TMC3    C7 8211   2.449   1.572  13.500  0.1188  0.3887  0.0326
  553TMC3    C8 8212   2.184   1.812  13.233  0.3484 -0.0665 -0.3204
  553TMC3    O1 8213   2.566   1.573  13.537  0.0249  0.5319 -0.3128
  553TMC3    O2 8214   2.174   1.912  13.164 -0.1909 -0.1372  0.2226
  554TMC3    C1 8215   3.969   0.937  11.292 -0.1226 -0.0757 -0.6162
  554TMC3    C2 8216   3.888   0.918  11.184  0.1508  0.7201 -0.6383
  554TMC3    C3 8217   3.932   0.984  11.070 -0.5131 -0.4746  0.4224
  554TMC3    C4 8218   4.073   1.019  11.299 -0.2182  0.5628 -1.0092
  554TMC3    C5 8219   4.114   1.086  11.190 -0.0459 -0.3990  0.0373
  554TMC3    C6 8220   4.042   1.071  11.075  0.7113 -0.2441  0.0067
  554TMC3     C 8221   3.919   0.864  11.411 -0.1500 -0.6218 -0.6405
  554TMC3     O 8222   3.807   0.819  11.403  0.1222  0.2276 -0.3179
  554TMC3     H 8223   3.811   0.842  11.178 -0.5621  1.6888 -3.8219
  554TMC3    H1 8224   4.128   1.039  11.391  0.3199 -0.6401 -1.0597
  554TMC3    H2 8225   4.043   1.139  10.990  1.2447 -1.3034 -0.8478
  554TMC3    C7 8226   4.180   1.213  11.215  0.3889 -1.0139 -0.4059
  554TMC3    C8 8227   3.857   0.972  10.942 -0.2544 -0.3577  0.5156
  554TMC3    O1 8228   4.189   1.256  11.327  0.4073 -0.2502 -0.1262
  554TMC3    O2 8229   3.914   1.002  10.841 -0.0373 -0.1362 -0.3294
  555TMC3    C1 8230   3.022   0.214  14.766  0.6419 -0.2933 -0.4124
  555TMC3    C2 8231   2.952   0.330  14.787 -0.5012  0.1460  0.3951
  555TMC3    C3 8232   2.942   0.372  14.916 -0.0765 -0.5667  0.2117
  555TMC3    C4 8233   3.088   0.139  14.861  0.6469  0.3177  0.1199
  555TMC3    C5 8234   3.054   0.180  14.990  0.2877  0.1949  0.4591
  555TMC3    C6 8235   2.981   0.288  15.019  0.3532 -0.4132 -0.1072
  555TMC3     C 8236   3.064   0.179  14.632  0.4434 -0.0473  0.2166
  555TMC3     O 8237   3.168   0.110  14.618 -0.1152  0.3464 -0.2508
  555TMC3     H 8238   2.919   0.404  14.715 -0.8884  1.4592  1.9271
  555TMC3    H1 8239   3.137   0.046  14.833 -1.2820 -1.1791  1.7393
  555TMC3    H2 8240   2.948   0.309  15.120  0.7501 -0.2134 -0.0173
  555TMC3    C7 8241   3.073   0.082  15.093  0.2555  0.2646  0.1002
  555TMC3    C8 8242   2.854   0.490  14.935 -0.0607 -1.1924  0.5649
  555TMC3    O1 8243   2.992   0.091  15.183 -0.0292  0.5231 -0.0242
  555TMC3    O2 8244   2.769   0.510  14.849 -0.2880  0.2402  0.5395
  556MPD2     C 8245   1.487   2.558  10.618 -0.0998  0.1805  0.0538
  556MPD2    C1 8246   1.415   2.465  10.687  0.6051  0.4859  0.0000
  556MPD2    C2 8247   1.346   2.367  10.615 -0.3165 -0.2225  0.6615
  556MPD2    C3 8248   1.340   2.359  10.488  0.0834  0.3574  0.1351
  556MPD2    C4 8249   1.417   2.449  10.418  0.2092  0.1139  0.0047
  556MPD2    C5 8250   1.495   2.544  10.484  0.3291 -0.4645 -0.3367
  556MPD2     H 8251   1.301   2.280  10.661  0.0209 -0.0040  1.3981
  556MPD2    H1 8252   1.414   2.452  10.309 -0.7791 -0.8022  0.0117
  556MPD2    H2 8253   1.535   2.642  10.667 -0.2224 -0.5169  1.3770
  556MPD2    H3 8254   1.553   2.615  10.427 -0.3567  0.1427 -0.2753
  556MPD2     N 8255   1.268   2.256  10.425  0.1950 -0.4664  0.5402
  556MPD2    H5 8256   1.221   2.189  10.485 -0.7716  0.0637  0.3760
  556MPD2    N1 8257   1.394   2.474  10.820  0.0014  0.5729 -0.1709
  556MPD2    H7 8258   1.340   2.394  10.853  0.4065 -0.1748 -1.3194
  557TMC3    C1 8259   1.209   2.105  10.256  0.3249  0.0543  0.0205
  557TMC3    C2 8260   1.227   2.066  10.124 -0.1747 -0.4457 -0.3713
  557TMC3    C3 8261   1.209   1.932  10.098  0.2779  0.3809 -0.1811
  557TMC3    C4 8262   1.168   2.015  10.347  0.0024  0.3782 -0.4280
  557TMC3    C5 8263   1.175   1.886  10.318 -0.6738 -0.7748 -0.2047
  557TMC3    C6 8264   1.189   1.837  10.192 -0.4650  0.6397  0.6467
  557TMC3     C 8265   1.260   2.235  10.289  0.3380 -0.6052  0.5683
  557TMC3     O 8266   1.279   2.314  10.197 -0.1951  0.3057 -0.3403
  557TMC3     H 8267   1.246   2.139  10.047 -0.6885  0.0935  0.0139
  557TMC3    H1 8268   1.166   2.037  10.453 -1.3415 -1.5754 -0.0591
  557TMC3    H2 8269   1.205   1.732  10.171 -0.9736  0.4179  1.3650
  557TMC3    C7 8270   1.105   1.792  10.408  0.1873  0.2697  0.3873
  557TMC3    C8 8271   1.230   1.884   9.969  0.7519 -0.0088 -0.6338
  557TMC3    O1 8272   1.007   1.829  10.466 -0.0784 -0.4556  0.6386
  557TMC3    O2 8273   1.287   1.960   9.891  0.1877  0.1214 -0.0979
  558TMC3    C1 8274   3.456   0.139  10.096  0.4895  0.3297 -0.3726
  558TMC3    C2 8275   3.357   0.076  10.169  0.0104  0.3520  0.2466
  558TMC3    C3 8276   3.233   0.090  10.116  0.8088  0.6492 -0.5219
  558TMC3    C4 8277   3.439   0.211   9.981 -0.1303 -0.2205 -0.8605
  558TMC3    C5 8278   3.310   0.209   9.934  0.4056 -0.1447  0.6513
  558TMC3    C6 8279   3.207   0.148   9.996  0.1029 -0.1013 -0.3626
  558TMC3     C 8280   3.598   0.141  10.145 -0.5885 -0.2467  0.0663
  558TMC3     O 8281   3.688   0.164  10.065 -0.7138 -0.2047  0.0932
  558TMC3     H 8282   3.387   0.019  10.256  1.0749  1.4136  0.5634
  558TMC3    H1 8283   3.522   0.258   9.929  2.0836 -1.7497  1.2832
  558TMC3    H2 8284   3.107   0.154   9.955  0.9395  1.0178 -2.2121
  558TMC3    C7 8285   3.307   0.238   9.789 -0.6001 -0.1660 -0.0373
  558TMC3    C8 8286   3.120   0.016  10.181 -0.3902  0.2809 -0.3966
  558TMC3    O1 8287   3.410   0.284   9.736 -0.0290  0.3006 -0.2033
  558TMC3    O2 8288   3.007   0.027  10.130  0.5307  0.2092  0.3323
  559MPD2     C 8289   3.677   0.482  10.228 -0.5200  0.0971 -0.0867
  559MPD2    C1 8290   3.608   0.456  10.345 -0.8620  0.0991  0.3158
  559MPD2    C2 8291   3.677   0.456  10.463 -0.4901 -0.8707 -0.5132
  559MPD2    C3 8292   3.817   0.466  10.463  0.3185  0.5366 -0.6870
  559MPD2    C4 8293   3.885   0.491  10.342  0.7966  0.0642 -0.6285
  559MPD2    C5 8294   3.811   0.487  10.228  0.5429 -0.2106 -0.0191
  559MPD2     H 8295   3.625   0.435  10.556 -1.1894 -0.3083 -0.7730
  559MPD2    H1 8296   3.993   0.503  10.340  0.8484 -0.0838  1.0580
  559MPD2    H2 8297   3.615   0.490  10.139  0.8570  0.4067 -1.0272
  559MPD2    H3 8298   3.856   0.495  10.129 -0.7025  0.3231 -0.5500
  559MPD2     N 8299   3.890   0.461  10.585  0.8039  0.0840 -0.1723
  559MPD2    H5 8300   3.838   0.443  10.671  1.0431 -0.8764 -0.2301
  559MPD2    N1 8301   3.463   0.449  10.340  0.0608 -0.0739  0.1080
  559MPD2    H7 8302   3.417   0.473  10.253 -0.3492 -1.3616 -0.0329
  560TMC3    C1 8303   4.048   0.400  10.734 -0.2024 -0.1016  0.7944
  560TMC3    C2 8304   3.961   0.297  10.772  0.4432 -0.8391 -0.3432
  560TMC3    C3 8305   4.004   0.221  10.871 -0.0178 -0.1679  0.2226
  560TMC3    C4 8306   4.173   0.429  10.793 -0.2126  0.1386  0.0065
  560TMC3    C5 8307   4.197   0.355  10.900  0.9017 -0.1645 -0.2781
  560TMC3    C6 8308   4.121   0.251  10.939 -0.0994 -0.0917  0.2675
  560TMC3     C 8309   4.026   0.458  10.602  0.3036  0.1141  0.0062
  560TMC3     O 8310   4.121   0.485  10.531  0.1200  0.5018  0.3241
  560TMC3     H 8311   3.862   0.279  10.731 -0.5226  1.3977  1.0024
  560TMC3    H1 8312   4.241   0.497  10.745 -2.5054  3.3707  1.2878
  560TMC3    H2 8313   4.142   0.190  11.027 -2.1554 -1.1247  0.0571
  560TMC3    C7 8314   4.322   0.364  10.970 -0.3669  0.0142  0.4527
  560TMC3    C8 8315   3.914   0.114  10.917  0.6311  0.5805 -0.3649
  560TMC3    O1 8316   4.353   0.257  11.024 -0.6057 -0.2428 -0.0920
  560TMC3    O2 8317   3.792   0.130  10.891  0.2229  0.2373 -0.2239
  561TMC3    C1 8318   1.687   4.374  11.341 -0.6870  0.3595  0.3923
  561TMC3    C2 8319   1.665   4.324  11.465  0.0595 -0.1942 -0.2305
  561TMC3    C3 8320   1.605   4.401  11.556 -0.1460  0.1687 -0.2961
  561TMC3    C4 8321   1.658   4.502  11.315  0.0652 -0.3782  0.5423
  561TMC3    C5 8322   1.600   4.578  11.414 -0.3996 -0.5558  0.7005
  561TMC3    C6 8323   1.573   4.532  11.541 -0.1121  0.0923  1.1553
  561TMC3     C 8324   1.757   4.300  11.240 -0.4188  0.1505  0.0338
  561TMC3     O 8325   1.839   4.366  11.173  0.1327 -0.1630  0.6205
  561TMC3     H 8326   1.680   4.217  11.478  0.1736 -0.2061 -0.4617
  561TMC3    H1 8327   1.681   4.536  11.215  0.6725  0.6068  1.0203
  561TMC3    H2 8328   1.523   4.595  11.614  0.2200  0.4402  1.0860
  561TMC3    C7 8329   1.589   4.722  11.387 -0.2453  0.5439 -0.2587
  561TMC3    C8 8330   1.579   4.334  11.682  0.6414 -0.8731  0.1840
  561TMC3    O1 8331   1.502   0.063  11.438 -0.4086 -0.1157  0.6929
  561TMC3    O2 8332   1.658   4.251  11.717 -0.2047  0.4601  0.6086
  562TMC3    C1 8333   2.714   1.112  15.906  1.0761 -0.0606 -0.3451
  562TMC3    C2 8334   2.605   1.192  15.899 -0.5799 -0.5819  0.5475
  562TMC3    C3 8335   2.560   1.220  15.770  0.5287 -0.0038  0.6498
  562TMC3    C4 8336   2.765   1.055  15.797  0.0659 -0.4080 -0.6387
  562TMC3    C5 8337   2.718   1.081  15.674 -0.4487 -0.0826 -0.0942
  562TMC3    C6 8338   2.611   1.164  15.658 -0.3956 -0.4331  0.0028
  562TMC3     C 8339   2.772   1.108  16.034 -0.1315  0.3228 -0.8181
  562TMC3     O 8340   2.706   1.153  16.127  0.0477 -0.7053  0.1006
  562TMC3     H 8341   2.546   1.228  15.983 -0.2625  0.0306  0.5007
  562TMC3    H1 8342   2.845   0.986  15.820  1.1495  1.1718  0.3382
  562TMC3    H2 8343   2.576   1.192  15.559  0.3993 -2.6701 -0.9193
  562TMC3    C7 8344   2.716   0.960  15.589 -0.1897  0.1288 -0.0253
  562TMC3    C8 8345   2.453   1.320  15.748  0.0314  0.1741 -0.2917
  562TMC3    O1 8346   2.616   0.937  15.523  0.3162  0.4093  0.0292
  562TMC3    O2 8347   2.367   1.326  15.833 -0.1362 -0.1644 -0.2330
  563MPD2     C 8348   0.301   2.542  15.817 -0.0266 -0.0439 -0.0074
  563MPD2    C1 8349   0.355   2.551  15.941 -0.1542  0.5729  0.3674
  563MPD2    C2 8350   0.457   2.464  15.980 -0.0725 -0.1700 -0.8149
  563MPD2    C3 8351   0.509   2.374  15.892 -0.4188  0.5281  0.0959
  563MPD2    C4 8352   0.451   2.369  15.768 -0.6597 -0.4798 -0.3050
  563MPD2    C5 8353   0.348   2.452  15.726 -0.2667 -0.7179 -0.2938
  563MPD2     H 8354   0.511   2.472  16.074 -3.4497  3.7495  0.8029
  563MPD2    H1 8355   0.488   2.304  15.690 -1.4828 -0.2662 -0.8827
  563MPD2    H2 8356   0.211   2.592  15.783 -0.0121  0.1767  0.2796
  563MPD2    H3 8357   0.300   2.441  15.629  0.5677  1.6870 -0.9800
  563MPD2     N 8358   0.617   2.298  15.938 -0.0495 -0.0300  0.0735
  563MPD2    H5 8359   0.664   2.332  16.021  0.9256 -1.2780  0.0341
  563MPD2    N1 8360   0.303   2.649  16.036 -0.2179 -0.5250 -0.0780
  563MPD2    H7 8361   0.225   2.704  16.001  0.5725  1.3175  1.0698
  564TMC3    C1 8362   0.263   2.682  16.264 -0.8155  0.3758  0.4368
  564TMC3    C2 8363   0.136   2.643  16.230  0.1267  0.6211 -0.1390
  564TMC3    C3 8364   0.074   2.563  16.325  0.3758 -0.0107  0.2625
  564TMC3    C4 8365   0.323   2.660  16.382  0.3022  0.6554  0.5438
  564TMC3    C5 8366   0.261   2.589  16.474  0.1450  0.1270 -0.5079
  564TMC3    C6 8367   0.128   2.556  16.452  0.1261 -0.3799 -0.9400
  564TMC3     C 8368   0.355   2.666  16.162  0.1722  0.2944  0.2633
  564TMC3     O 8369   0.468   2.635  16.198 -0.0527  0.3939 -0.0908
  564TMC3     H 8370   0.091   2.674  16.136 -0.9061 -0.5564 -0.0185
  564TMC3    H1 8371   0.422   2.701  16.392  1.0771 -0.7999 -1.1096
  564TMC3    H2 8372   0.073   2.506  16.532  1.0197  0.7331  0.3683
  564TMC3    C7 8373   0.346   2.469  16.526  0.5002  0.3968 -0.5590
  564TMC3    C8 8374   0.030   2.436  16.283  0.7387 -0.0847 -0.0506
  564TMC3    O1 8375   0.456   2.487  16.571  0.3503 -0.1148  0.3977
  564TMC3    O2 8376   0.001   2.366  16.380 -0.5101  0.1918 -1.0087
  565TMC3    C1 8377   0.723   3.533   9.688 -0.7189  0.4738  0.2201
  565TMC3    C2 8378   0.812   3.436   9.741  0.6781  0.6106  0.0440
  565TMC3    C3 8379   0.759   3.308   9.757  0.3609 -0.2206 -0.3362
  565TMC3    C4 8380   0.594   3.510   9.646 -0.0443  0.1836 -0.1557
  565TMC3    C5 8381   0.553   3.381   9.664  0.2636  0.2557  0.3089
  565TMC3    C6 8382   0.630   3.276   9.707 -0.0036 -0.7249  0.6808
  565TMC3     C 8383   0.759   3.678   9.693  0.1822  0.3089 -0.0187
  565TMC3     O 8384   0.688   3.750   9.627 -0.3097 -0.5970 -0.2469
  565TMC3     H 8385   0.907   3.467   9.784  1.3547  0.9054 -1.6652
  565TMC3    H1 8386   0.525   3.588   9.616 -1.5498 -0.1092  2.5538
  565TMC3    H2 8387   0.589   3.179   9.732 -1.2204 -0.6379 -0.9176
  565TMC3    C7 8388   0.418   3.341   9.615  0.0091 -0.3200 -0.0724
  565TMC3    C8 8389   0.833   3.213   9.851 -0.0416  0.3353  0.2635
  565TMC3    O1 8390   0.388   3.221   9.599  0.1015  0.7760  0.2218
  565TMC3    O2 8391   0.903   3.263   9.939 -0.5195  0.3093  0.2432
  566MPD2     C 8392   2.494   4.596  14.104  0.3152  0.1205 -0.3621
  566MPD2    C1 8393   2.613   4.565  14.054 -0.0827 -0.2664 -0.1018
  566MPD2    C2 8394   2.620   4.532  13.921 -0.1910 -0.1289  0.3273
  566MPD2    C3 8395   2.504   4.537  13.842  0.0261  0.2387 -0.3897
  566MPD2    C4 8396   2.383   4.571  13.898 -0.3975 -0.4375 -0.0534
  566MPD2    C5 8397   2.377   4.586  14.032 -0.6380 -0.0401  0.2128
  566MPD2     H 8398   2.705   4.488  13.870 -1.0565  0.1082 -1.3326
  566MPD2    H1 8399   2.291   4.575  13.842 -1.4635  0.4371  1.7440
  566MPD2    H2 8400   2.474   4.622  14.207 -2.3556 -2.4445 -0.2456
  566MPD2    H3 8401   2.280   4.612  14.074 -0.8490 -1.4133  0.6077
  566MPD2     N 8402   2.517   4.523  13.702 -0.0402  0.6913 -0.4876
  566MPD2    H5 8403   2.613   4.513  13.672  0.5133  1.2733  1.0968
  566MPD2    N1 8404   2.726   4.569  14.143  0.4600 -0.3914 -0.4497
  566MPD2    H7 8405   2.704   4.586  14.240 -1.9470  1.2328 -1.2809
  567TMC3    C1 8406   2.952   4.524  14.205  0.2182  0.2557  0.2214
  567TMC3    C2 8407   3.086   4.547  14.169  0.3715 -0.4670 -0.2486
  567TMC3    C3 8408   3.190   4.538  14.257  0.3731  0.7611 -0.6607
  567TMC3    C4 8409   2.920   4.490  14.334 -0.3406  0.5841 -0.2880
  567TMC3    C5 8410   3.024   4.505  14.425 -0.2844  0.3165 -0.5895
  567TMC3    C6 8411   3.159   4.516  14.391  0.6441 -0.1243 -0.2533
  567TMC3     C 8412   2.852   4.540  14.101 -1.1306  0.5331 -0.1545
  567TMC3     O 8413   2.892   4.527  13.985 -0.6086  0.5103 -0.1870
  567TMC3     H 8414   3.116   4.565  14.066 -1.6279  0.7850 -0.5982
  567TMC3    H1 8415   2.815   4.491  14.361 -0.5112 -0.0182 -0.9203
  567TMC3    H2 8416   3.239   4.511  14.465 -0.2143  0.6268  0.7246
  567TMC3    C7 8417   2.992   4.524  14.566 -0.9517 -0.2463  0.2437
  567TMC3    C8 8418   3.320   4.518  14.198 -0.1769 -0.2185  0.3639
  567TMC3    O1 8419   3.080   4.513  14.650 -0.7212 -0.3163  0.4668
  567TMC3    O2 8420   3.327   4.478  14.082  0.0597 -0.1695 -0.0110
  568MPD2     C 8421   4.582   0.868  16.349  0.3037 -0.6179 -0.6755
  568MPD2    C1 8422   4.640   0.931  16.453 -0.0438 -0.1298 -0.1529
  568MPD2    C2 8423   4.659   1.067  16.450 -0.8621  0.0235 -0.0153
  568MPD2    C3 8424   4.601   1.147  16.351  0.5416 -0.2267  0.4905
  568MPD2    C4 8425   4.541   1.073  16.246 -0.0838  0.2816  0.0574
  568MPD2    C5 8426   4.540   0.938  16.243  0.2931  0.0000 -0.1829
  568MPD2     H 8427   4.712   1.120  16.529 -0.1582  1.7429 -1.6222
  568MPD2    H1 8428   4.494   1.116  16.158 -1.0849  2.9263  1.8752
  568MPD2    H2 8429   4.567   0.761  16.353 -3.0159 -0.0857  1.0199
  568MPD2    H3 8430   4.479   0.895  16.164  1.8578  0.1542 -1.4750
  568MPD2     N 8431   4.610   1.287  16.355 -0.2804  0.3946 -1.0026
  568MPD2    H5 8432   4.663   1.326  16.432 -0.3392 -0.9940 -0.2702
  568MPD2    N1 8433   4.690   0.854  16.564  0.7221  0.0331 -0.1586
  568MPD2    H7 8434   4.686   0.752  16.559  1.4785  0.1607 -2.9791
  569TMC3    C1 8435   4.595   1.510  16.297 -0.4001  0.0182  0.1266
  569TMC3    C2 8436   4.609   1.535  16.431  0.3013 -0.4189  0.1409
  569TMC3    C3 8437   4.652   1.659  16.461  0.7206 -0.4135  0.3656
  569TMC3    C4 8438   4.623   1.599  16.194 -0.2588 -0.4477 -0.1882
  569TMC3    C5 8439   4.676   1.716  16.241 -0.8043 -0.0325 -0.2282
  569TMC3    C6 8440   4.690   1.745  16.373 -0.1783 -0.1226 -0.1914
  569TMC3     C 8441   4.580   1.376  16.256  0.3288  0.1685 -0.4203
  569TMC3     O 8442   4.558   1.359  16.134 -0.2509  0.1381 -0.1035
  569TMC3     H 8443   4.579   1.470  16.512 -2.8027 -0.4352 -1.0509
  569TMC3    H1 8444   4.592   1.577  16.093 -1.5827  1.1286 -0.1178
  569TMC3    H2 8445   0.012   1.837  16.407  0.4392 -0.2675 -0.6095
  569TMC3    C7 8446   4.699   1.817  16.145  0.3944 -0.3651 -0.4255
  569TMC3    C8 8447   4.613   1.718  16.585  0.2254  0.3313  0.2736
  569TMC3    O1 8448   4.717   1.770  16.038  0.3436  0.3750 -0.5342
  569TMC3    O2 8449   4.522   1.668  16.650 -0.0705 -0.3360 -0.0943
  570TMC3    C1 8450   4.485   4.603  16.321  0.8252  0.5838 -0.3977
  570TMC3    C2 8451   4.576   4.614  16.217  0.9623 -0.2475  0.8080
  570TMC3    C3 8452   4.581   0.011  16.154 -0.0587 -0.3615 -0.0682
  570TMC3    C4 8453   4.402   4.709  16.355 -0.1079 -0.0759 -0.4802
  570TMC3    C5 8454   4.401   0.094  16.275  0.0139  0.0284 -0.6069
  570TMC3    C6 8455   4.492   0.108  16.170 -0.2186  0.2025 -0.0599
  570TMC3     C 8456   4.463   4.473  16.389 -0.2838 -0.0291 -0.2356
  570TMC3     O 8457   4.494   4.373  16.324 -0.4672 -0.6218 -0.2071
  570TMC3     H 8458   4.652   4.539  16.201  0.9722 -0.4751  1.9355
  570TMC3    H1 8459   4.324   4.706  16.430  1.2108 -0.6721  0.8944
  570TMC3    H2 8460   4.500   0.194  16.105  1.8854  0.6718  0.8350
  570TMC3    C7 8461   4.331   0.212  16.324  0.1936  0.3841 -0.1055
  570TMC3    C8 8462   4.685   0.044  16.065 -0.2159 -0.1265 -0.1185
  570TMC3    O1 8463   4.317   0.233  16.445 -0.2426  0.0236  0.0522
  570TMC3    O2 8464   4.696   0.157  16.023  0.5727  0.0949  0.3694
  571MPD2     C 8465   2.384   1.600  17.218  0.9236 -0.2785 -0.0577
  571MPD2    C1 8466   2.268   1.602  17.297  0.0133  0.5109  0.3330
  571MPD2    C2 8467   2.239   1.699  17.397  0.2881  0.2354 -0.3484
  571MPD2    C3 8468   2.312   1.818  17.387 -0.2142  0.2371  0.6760
  571MPD2    C4 8469   2.423   1.824  17.305  0.2397  0.1046 -0.1247
  571MPD2    C5 8470   2.458   1.713  17.225  0.3155 -0.7672  0.6718
  571MPD2     H 8471   2.151   1.690  17.459  1.4985 -0.1759  1.3417
  571MPD2    H1 8472   2.481   1.915  17.304  2.1922 -1.1389 -1.3213
  571MPD2    H2 8473   2.414   1.525  17.147 -0.1981  1.0933 -1.9796
  571MPD2    H3 8474   2.548   1.728  17.167  1.3639 -3.0060  1.7109
  571MPD2     N 8475   2.288   1.934  17.466 -0.8539 -0.5258 -0.2760
  571MPD2    H5 8476   2.355   2.010  17.464  2.3024 -3.3700 -1.6232
  571MPD2    N1 8477   2.188   1.487  17.291 -0.7018  0.3440 -0.5948
  571MPD2    H7 8478   2.214   1.422  17.217 -0.5498 -0.0304 -0.2166
  572TMC3    C1 8479   2.189   2.053  17.653 -0.2831  0.5685 -0.5672
  572TMC3    C2 8480   2.108   2.039   0.068 -0.7060  0.4372  0.3934
  572TMC3    C3 8481   2.123   2.119   0.171  0.6412  0.1577  0.3388
  572TMC3    C4 8482   2.275   2.160  17.644 -0.3936 -0.4249 -0.3683
  572TMC3    C5 8483   2.282   2.251   0.054 -0.3684  0.7014 -0.8531
  572TMC3    C6 8484   2.207   2.233   0.169  0.1644  0.4723  0.0578
  572TMC3     C 8485   2.179   1.949  17.557 -0.2712  0.4246 -0.0162
  572TMC3     O 8486   2.078   1.883  17.562 -0.2242 -0.0453  0.0703
  572TMC3     H 8487   2.053   1.948   0.090  1.5144 -1.2550 -0.9530
  572TMC3    H1 8488   2.324   2.173  17.549 -1.1078  1.3473 -0.4869
  572TMC3    H2 8489   2.220   2.309   0.246  1.4340 -0.3218  0.6311
  572TMC3    C7 8490   2.293   2.387   0.016  0.2750  0.0903 -0.0100
  572TMC3    C8 8491   2.064   2.091   0.297 -0.2331  0.2539  0.1081
  572TMC3    O1 8492   2.247   2.423  17.606  0.3033  0.5349  0.2108
  572TMC3    O2 8493   2.066   1.977   0.332 -0.2894 -0.2547 -0.5234
  573MPD2     C 8494   3.608   2.120   1.126 -0.2798  0.2002 -0.2520
  573MPD2    C1 8495   3.517   2.212   1.099  0.1959  0.3497  0.0314
  573MPD2    C2 8496   3.459   2.204   0.969 -0.4947  0.2115  0.2643
  573MPD2    C3 8497   3.505   2.112   0.878 -0.5211 -0.1745 -0.0589
  573MPD2    C4 8498   3.607   2.027   0.908  0.3997  0.5730 -0.0660
  573MPD2    C5 8499   3.646   2.028   1.034 -0.8883  0.1006 -0.6912
  573MPD2     H 8500   3.374   2.270   0.952 -1.0866 -0.5564  0.2596
  573MPD2    H1 8501   3.628   1.937   0.850  0.0090  1.0668 -0.9592
  573MPD2    H2 8502   3.652   2.098   1.223 -0.1309  0.2446 -0.3094
  573MPD2    H3 8503   3.716   1.952   1.069  0.4615  0.4022 -2.7841
  573MPD2     N 8504   3.451   2.091   0.743  0.4214 -0.0490  0.3438
  573MPD2    H5 8505   3.504   2.033   0.678  1.7166  1.5308 -0.0049
  573MPD2    N1 8506   3.490   2.306   1.199  0.1549  0.1834  0.8031
  573MPD2    H7 8507   3.553   2.318   1.278  0.1971  0.2258  0.7632
  574TMC3    C1 8508   3.310   2.127   0.561 -0.6721  0.1752  0.1107
  574TMC3    C2 8509   3.187   2.168   0.518  0.4089 -0.1210 -0.1918
  574TMC3    C3 8510   3.163   2.153   0.388 -0.3611 -0.4252 -0.3708
  574TMC3    C4 8511   3.409   2.082   0.477 -0.2656  0.6342  0.0235
  574TMC3    C5 8512   3.384   2.083   0.343  0.3162  0.3792  0.0488
  574TMC3    C6 8513   3.256   2.108   0.294  0.0990  0.5285 -0.2783
  574TMC3     C 8514   3.332   2.146   0.702 -0.1871 -0.7227 -0.4339
  574TMC3     O 8515   3.240   2.196   0.772  0.1672 -0.5161  0.2975
  574TMC3     H 8516   3.112   2.199   0.590 -1.3804 -3.1752 -0.7375
  574TMC3    H1 8517   3.509   2.060   0.513 -1.4650 -0.5177  2.6033
  574TMC3    H2 8518   3.234   2.111   0.188 -1.0368 -1.6662 -0.1075
  574TMC3    C7 8519   3.485   2.035   0.246  0.2504 -0.5076 -0.6108
  574TMC3    C8 8520   3.025   2.166   0.349  0.0545 -0.2585 -0.0528
  574TMC3    O1 8521   3.602   2.036   0.283 -0.1596  0.1098  0.2200
  574TMC3    O2 8522   2.941   2.157   0.442  0.0350 -0.0010 -0.2256
  575TMC3    C1 8523   1.355   2.952  10.520  0.1993 -0.0506 -0.3094
  575TMC3    C2 8524   1.297   2.857  10.607  0.8724  0.0515 -0.3216
  575TMC3    C3 8525   1.190   2.792  10.560  0.0628 -1.3966 -0.0270
  575TMC3    C4 8526   1.296   2.986  10.398 -0.3016  0.0844 -0.9801
  575TMC3    C5 8527   1.188   2.918  10.362 -0.6192 -0.6777 -0.9580
  575TMC3    C6 8528   1.131   2.826  10.442 -0.3489  0.2462  0.2288
  575TMC3     C 8529   1.450   3.044  10.572 -0.3199 -0.4213 -0.1340
  575TMC3     O 8530   1.502   3.005  10.677  0.4002  0.4557  0.3760
  575TMC3     H 8531   1.333   2.829  10.705  0.5842 -1.2882 -0.6051
  575TMC3    H1 8532   1.340   3.054  10.326  0.0638  0.3225 -0.5320
  575TMC3    H2 8533   1.026   2.804  10.430 -1.0407  1.9313  3.2379
  575TMC3    C7 8534   1.113   2.961  10.248 -0.4184  0.5167  0.3845
  575TMC3    C8 8535   1.107   2.719  10.642 -0.2957  0.1080  0.2833
  575TMC3    O1 8536   1.139   3.072  10.205  0.0352  0.1819 -0.6838
  575TMC3    O2 8537   1.092   2.758  10.756 -0.3659  0.3806 -0.4267
  576MPD2     C 8538   0.480   4.503  12.672  0.7267  0.0222 -0.4252
  576MPD2    C1 8539   0.500   4.595  12.576  1.0174  0.6366 -0.5173
  576MPD2    C2 8540   0.446   4.719  12.593 -0.0253 -0.3704 -0.4489
  576MPD2    C3 8541   0.366   0.033  12.704 -0.0932 -1.3121 -0.2561
  576MPD2    C4 8542   0.336   4.659  12.799 -0.2805  0.4238  0.0872
  576MPD2    C5 8543   0.391   4.530  12.782 -0.0433 -0.2572 -0.2674
  576MPD2     H 8544   0.476   0.070  12.520  1.0441 -1.1943 -0.8541
  576MPD2    H1 8545   0.291   4.686  12.894  0.6541 -3.9538  1.7915
  576MPD2    H2 8546   0.530   4.407  12.667  1.1474  0.2143  0.0325
  576MPD2    H3 8547   0.379   4.456  12.861 -1.1192  0.6270  0.3837
  576MPD2     N 8548   0.319   0.163  12.707 -0.7335 -0.2137  0.5839
  576MPD2    H5 8549   0.349   0.222  12.630 -1.2515 -1.0081 -0.2186
  576MPD2    N1 8550   0.576   4.569  12.456  0.0900  0.5048  0.1802
  576MPD2    H7 8551   0.574   4.646  12.390 -1.3981  1.6825  1.5800
  577TMC3    C1 8552   0.720   4.480  12.295 -0.3431 -0.5525  0.6854
  577TMC3    C2 8553   0.825   4.391  12.271  0.1335 -0.2446  0.7638
  577TMC3    C3 8554   0.911   4.425  12.167 -0.4534  0.2195  0.0919
  577TMC3    C4 8555   0.698   4.590  12.217 -0.1898 -0.1471  0.2522
  577TMC3    C5 8556   0.786   4.620  12.119  0.1317 -0.2592  0.5463
  577TMC3    C6 8557   0.897   4.542  12.099  0.3977 -0.0262  0.4099
  577TMC3     C 8558   0.650   4.464  12.422  0.8372  0.4129 -0.1376
  577TMC3     O 8559   0.672   4.366  12.498  0.1366 -0.2912  0.1085
  577TMC3     H 8560   0.841   4.303  12.333  0.6502  0.6692  1.9230
  577TMC3    H1 8561   0.612   4.654  12.235 -0.9358 -1.2675  0.6968
  577TMC3    H2 8562   0.971   4.581  12.031  0.2652 -0.1300  0.2035
  577TMC3    C7 8563   0.809   0.035  12.098 -0.0897  0.2774 -0.3592
  577TMC3    C8 8564   1.011   4.324  12.134 -0.2774 -0.7150  0.1347
  577TMC3    O1 8565   0.770   0.114  12.181  0.3841 -0.4595  0.4103
  577TMC3    O2 8566   1.018   4.224  12.204  0.0632 -0.1693 -0.0859
  578MPD2     C 8567   3.174   0.138   1.083  0.5400  0.0062 -0.1578
  578MPD2    C1 8568   3.273   0.117   0.992  0.3343 -0.0575 -0.5312
  578MPD2    C2 8569   3.388   0.054   1.036  0.0883  0.1375 -0.0411
  578MPD2    C3 8570   3.406   0.012   1.170 -0.2982 -0.4129  0.0441
  578MPD2    C4 8571   3.301   0.036   1.260 -0.2758  0.4792  0.0600
  578MPD2    C5 8572   3.180   0.094   1.211  1.0877  0.2144 -0.1417
  578MPD2     H 8573   3.475   0.038   0.973 -0.3180 -1.8136 -0.0945
  578MPD2    H1 8574   3.297   4.723   1.362  0.0872 -0.6683 -0.3257
  578MPD2    H2 8575   3.083   0.187   1.049 -0.0226 -2.0885 -1.6787
  578MPD2    H3 8576   3.095   0.110   1.276  0.6692  3.1715 -1.3932
  578MPD2     N 8577   3.531   4.673   1.201  0.1206  0.6855  0.7536
  578MPD2    H5 8578   3.585   4.641   1.121 -1.3103  3.0628 -1.1548
  578MPD2    N1 8579   3.262   0.170   0.857 -0.3155 -0.0992 -0.0716
  578MPD2    H7 8580   3.176   0.220   0.838 -0.1837  1.4265  3.4039
  579TMC3    C1 8581   3.713   4.628   1.333  0.5347  0.1645  0.2021
  579TMC3    C2 8582   3.794   4.703   1.414  0.2812  0.7740  0.4212
  579TMC3    C3 8583   3.929   4.712   1.380  1.2258 -0.0886 -0.1614
  579TMC3    C4 8584   3.760   4.557   1.227 -0.0098  0.6523  0.7063
  579TMC3    C5 8585   3.895   4.566   1.199 -0.0093  0.0670 -0.1499
  579TMC3    C6 8586   3.978   4.650   1.269  0.2706 -0.2010 -0.4489
  579TMC3     C 8587   3.572   4.659   1.335  0.2014  0.3211 -0.2029
  579TMC3     O 8588   3.524   4.701   1.439  0.3347  0.0283  0.3174
  579TMC3     H 8589   3.757   0.048   1.489 -1.6700  0.4365 -0.2310
  579TMC3    H1 8590   3.694   4.491   1.173  0.3910  0.3943  0.5309
  579TMC3    H2 8591   4.073   4.676   1.225 -0.1275 -0.2102 -1.3180
  579TMC3    C7 8592   3.964   4.475   1.109 -0.7780 -0.4548 -0.3483
  579TMC3    C8 8593   3.992   0.111   1.406  0.1900  0.0061 -0.5383
  579TMC3    O1 8594   4.086   4.473   1.113 -0.0604  1.2872 -0.3814
  579TMC3    O2 8595   3.920   0.208   1.423  0.0661 -0.0216 -0.4407
  580TMC3    C1 8596   3.394   3.690  11.564 -0.1584  0.5275  0.0258
  580TMC3    C2 8597   3.398   3.643  11.436  0.1040  0.3936  0.0254
  580TMC3    C3 8598   3.364   3.513  11.414  1.1530  1.0335  0.3965
  580TMC3    C4 8599   3.357   3.605  11.670 -0.4274  0.2994  0.5030
  580TMC3    C5 8600   3.327   3.475  11.642  0.3166 -0.1838  0.2061
  580TMC3    C6 8601   3.340   3.424  11.516  1.3870 -0.0418  0.5794
  580TMC3     C 8602   3.516   3.778  11.593 -0.3629 -1.0536 -0.3414
  580TMC3     O 8603   3.530   3.880  11.524  0.1086 -0.2459 -0.2912
  580TMC3     H 8604   3.404   3.705  11.348  1.1841 -0.2309 -0.3422
  580TMC3    H1 8605   3.351   3.642  11.772 -2.3889  1.3609  0.0069
  580TMC3    H2 8606   3.304   3.324  11.492  0.7211  0.2471  0.3963
  580TMC3    C7 8607   3.375   3.386  11.744 -0.1887 -0.0177 -0.3801
  580TMC3    C8 8608   3.393   3.455  11.279 -0.1466 -0.5052  0.3640
  580TMC3    O1 8609   3.460   3.433  11.817 -0.0570 -0.1099  0.3223
  580TMC3    O2 8610   3.333   3.352  11.257 -0.4272 -0.2101  0.5358
  581MPD2     C 8611   1.957   3.226  14.816 -0.2581  0.1633  0.1827
  581MPD2    C1 8612   1.819   3.221  14.823  0.1053  0.4690  0.4841
  581MPD2    C2 8613   1.761   3.234  14.704  0.3040  0.6963  0.6536
  581MPD2    C3 8614   1.833   3.246  14.584  0.1802 -0.3390  0.5355
  581MPD2    C4 8615   1.974   3.255  14.582 -0.7909  0.4581 -0.1942
  581MPD2    C5 8616   2.029   3.261  14.707 -0.0790 -0.3087  0.7750
  581MPD2     H 8617   1.653   3.232  14.700  0.3390  0.3417 -0.1357
  581MPD2    H1 8618   2.034   3.265  14.493 -0.6389  2.4970  0.1271
  581MPD2    H2 8619   2.015   3.220  14.907 -0.6547  2.5449  0.6065
  581MPD2    H3 8620   2.136   3.270  14.726  0.0515  1.9320 -0.9288
  581MPD2     N 8621   1.763   3.264  14.459 -0.3833 -0.5907  0.7857
  581MPD2    H5 8622   1.662   3.274  14.463 -0.3103  1.9119 -2.9107
  581MPD2    N1 8623   1.751   3.205  14.947  0.4643  0.4195  0.4628
  581MPD2    H7 8624   1.818   3.201  15.023 -0.4086  0.6671  1.2505
  582TMC3    C1 8625   1.565   3.173  15.103  0.2647 -0.3149  0.4574
  582TMC3    C2 8626   1.642   3.213  15.210  0.5282 -0.6745 -0.5100
  582TMC3    C3 8627   1.582   3.225  15.332 -0.4160  0.6457 -0.5081
  582TMC3    C4 8628   1.423   3.159  15.117 -0.2509  0.4705 -0.0627
  582TMC3    C5 8629   1.371   3.170  15.241 -0.2857 -0.3196 -0.0534
  582TMC3    C6 8630   1.448   3.203  15.347 -0.3301 -1.0973  0.4060
  582TMC3     C 8631   1.619   3.180  14.968 -0.1311 -0.3596  0.4090
  582TMC3     O 8632   1.533   3.184  14.883  0.6478 -0.3157  0.2145
  582TMC3     H 8633   1.746   3.207  15.181  0.9446  1.6501  0.5247
  582TMC3    H1 8634   1.366   3.128  15.030 -1.9136 -0.2412  1.2810
  582TMC3    H2 8635   1.401   3.213  15.444 -0.1468 -0.1039  0.3965
  582TMC3    C7 8636   1.235   3.217  15.249  0.0311 -0.6449 -0.2965
  582TMC3    C8 8637   1.656   3.262  15.447  0.1056  0.0122  0.5085
  582TMC3    O1 8638   1.158   3.164  15.169  0.1464 -0.9568 -0.0378
  582TMC3    O2 8639   1.613   3.225  15.557 -0.7144  0.2901 -0.3269
  583MPD2     C 8640   1.323   0.368  16.654 -0.2511  0.4023 -0.2060
  583MPD2    C1 8641   1.301   0.487  16.586 -0.4375 -0.5395 -0.3126
  583MPD2    C2 8642   1.232   0.592  16.646  0.3825  0.6496  0.1219
  583MPD2    C3 8643   1.188   0.585  16.779 -0.2670 -0.3811  0.1023
  583MPD2    C4 8644   1.238   0.483  16.856 -0.8468  0.1883  0.3865
  583MPD2    C5 8645   1.298   0.374  16.795  0.0389 -0.2259 -0.1548
  583MPD2     H 8646   1.207   0.682  16.592 -2.1181  0.6122  1.2495
  583MPD2    H1 8647   1.231   0.485  16.964 -1.0447 -2.8951  0.4230
  583MPD2    H2 8648   1.365   0.277  16.611 -2.1218 -0.3684 -0.3921
  583MPD2    H3 8649   1.346   0.298  16.855  1.7238 -1.3948 -2.9693
  583MPD2     N 8650   1.117   0.693  16.836  0.9151  0.7380  0.5320
  583MPD2    H5 8651   1.120   0.777  16.778  0.2593  0.0644 -0.4915
  583MPD2    N1 8652   1.350   0.505  16.451 -0.2823 -0.2623 -0.0036
  583MPD2    H7 8653   1.325   0.591  16.403  0.8419  1.3193  2.2741
  584TMC3    C1 8654   1.053   0.835  17.005 -0.0260  0.0573 -0.6971
  584TMC3    C2 8655   1.052   0.944  16.926 -0.1284  0.5149 -0.5191
  584TMC3    C3 8656   1.050   1.066  16.993 -0.8178  0.0439 -0.0624
  584TMC3    C4 8657   1.056   0.852  17.143 -0.0634 -0.0480 -0.8978
  584TMC3    C5 8658   1.058   0.970  17.203  0.1845  0.1244  0.1214
  584TMC3    C6 8659   1.048   1.082  17.127 -0.0432  0.0562  0.5097
  584TMC3     C 8660   1.065   0.699  16.959  0.2321  0.2047  1.0370
  584TMC3     O 8661   1.052   0.602  17.032  0.0762 -0.0267  0.3254
  584TMC3     H 8662   1.044   0.940  16.818 -0.2097  1.6591 -0.5565
  584TMC3    H1 8663   1.055   0.763  17.205 -1.3051 -0.1140 -1.0230
  584TMC3    H2 8664   1.025   1.175  17.178 -0.4279  0.3095 -0.1347
  584TMC3    C7 8665   1.044   0.978  17.352 -0.4018 -0.0526  0.4620
  584TMC3    C8 8666   1.082   1.184  16.912 -0.1495  0.4295  0.2109
  584TMC3    O1 8667   1.039   0.872  17.412  0.0423  1.0994  0.0635
  584TMC3    O2 8668   1.063   1.172  16.789 -0.6155  0.4906  0.4947
  585MPD2     C 8669   0.441   4.387   0.430  0.4542 -0.5705 -0.1135
  585MPD2    C1 8670   0.580   4.381   0.395 -0.6143 -0.1467  0.9253
  585MPD2    C2 8671   0.618   4.296   0.291  0.2534  0.4847 -0.0747
  585MPD2    C3 8672   0.522   4.224   0.220  0.1854 -0.1147 -0.1384
  585MPD2    C4 8673   0.387   4.226   0.254 -0.1620  0.3486 -0.5838
  585MPD2    C5 8674   0.359   4.305   0.359  0.2555  0.0954  0.4977
  585MPD2     H 8675   0.723   4.296   0.268  0.1507 -0.5110 -0.5348
  585MPD2    H1 8676   0.308   4.166   0.212  0.0128 -0.8328  0.7876
  585MPD2    H2 8677   0.399   4.452   0.505 -2.2293 -1.3617 -0.9401
  585MPD2    H3 8678   0.257   4.297   0.393 -0.3786 -0.2052 -1.4786
  585MPD2     N 8679   0.556   4.129   0.122  0.0594  0.2480 -0.6685
  585MPD2    H5 8680   0.477   4.079   0.082 -0.6144  1.4291 -0.8435
  585MPD2    N1 8681   0.676   4.463   0.457  0.4329 -0.0144  0.2403
  585MPD2    H7 8682   0.773   4.458   0.425  0.4918 -0.0515  0.4239
  586TMC3    C1 8683   0.691   4.008  17.673 -0.4608  0.1845  0.6343
  586TMC3    C2 8684   0.813   3.971  17.635  0.3334  0.2934  0.1049
  586TMC3    C3 8685   0.817   3.891  17.522 -0.2960  0.7805  0.4934
  586TMC3    C4 8686   0.572   3.967  17.612  1.0696  0.5120  0.0294
  586TMC3    C5 8687   0.584   3.881  17.502 -0.5398  0.1408  0.0837
  586TMC3    C6 8688   0.707   3.843  17.460 -0.4588 -0.6930 -0.1421
  586TMC3     C 8689   0.683   4.093   0.097 -0.0267 -0.4239 -0.1553
  586TMC3     O 8690   0.791   4.135   0.144 -0.3967  0.3650 -0.2071
  586TMC3     H 8691   0.903   3.991  17.693  0.9861 -0.3138 -0.7001
  586TMC3    H1 8692   0.470   3.996  17.632  0.0662 -1.2700 -2.4175
  586TMC3    H2 8693   0.725   3.777  17.376  0.0637 -2.2524  1.1915
  586TMC3    C7 8694   0.467   3.809  17.452  1.2162 -0.2285 -0.0338
  586TMC3    C8 8695   0.935   3.806  17.505 -0.6258  0.0450 -0.3891
  586TMC3    O1 8696   0.366   3.828  17.520 -0.2106 -0.4694 -0.0784
  586TMC3    O2 8697   0.961   3.730  17.599 -0.3845  0.1223  0.1154
  587TMC3    C1 8698   2.984   2.596  16.812  0.4483 -0.4079 -0.5838
  587TMC3    C2 8699   3.013   2.725  16.847  0.1108 -0.1518 -0.1817
  587TMC3    C3 8700   3.057   2.746  16.974  0.3749 -0.0653 -0.6316
  587TMC3    C4 8701   3.002   2.492  16.902 -0.3697  0.4068 -0.2067
  587TMC3    C5 8702   3.062   2.516  17.022 -0.2156 -0.5167 -0.2754
  587TMC3    C6 8703   3.091   2.645  17.058  0.2050 -0.0167  0.0369
  587TMC3     C 8704   2.921   2.569  16.682 -0.2418 -0.5472 -0.1909
  587TMC3     O 8705   2.940   2.464  16.626  0.0389  0.4249  0.2476
  587TMC3     H 8706   3.009   2.807  16.776 -1.7777  2.8361  3.4017
  587TMC3    H1 8707   2.973   2.389  16.881  2.6832 -0.5601  0.2464
  587TMC3    H2 8708   3.143   2.669  17.150  3.3942 -0.2312 -1.6891
  587TMC3    C7 8709   3.100   2.408  17.112  0.2187  0.4612  0.1058
  587TMC3    C8 8710   3.107   2.874  17.008  0.1300  0.1960  0.4436
  587TMC3    O1 8711   3.035   2.305  17.105 -0.4160 -0.3368  0.5995
  587TMC3    O2 8712   3.180   2.881  17.103 -0.1171  0.0466 -0.2123
  588TMC3    C1 8713   0.115   0.858   9.656  1.4441 -0.3607 -0.7677
  588TMC3    C2 8714   0.098   0.729   9.638 -0.1696  0.5178  0.1435
  588TMC3    C3 8715   0.197   0.643   9.684  0.6183 -0.0861  0.4231
  588TMC3    C4 8716   0.231   0.914   9.713  0.2466 -0.0254 -0.3852
  588TMC3    C5 8717   0.324   0.830   9.756 -0.5735  0.1545  0.2137
  588TMC3    C6 8718   0.306   0.696   9.750  0.0790 -0.3179  0.6452
  588TMC3     C 8719   0.025   0.950   9.599  0.2387 -0.1612 -0.3861
  588TMC3     O 8720   4.688   0.924   9.497 -0.1452 -0.6161  1.0978
  588TMC3     H 8721   0.010   0.691   9.588  1.4981 -1.2120 -1.4496
  588TMC3    H1 8722   0.254   1.020   9.711  0.7663 -0.1609 -1.3607
  588TMC3    H2 8723   0.381   0.631   9.793 -0.0299  0.4040  1.9323
  588TMC3    C7 8724   0.446   0.894   9.811  0.1724 -0.7004 -0.0114
  588TMC3    C8 8725   0.157   0.507   9.691 -0.4768 -0.1282  0.0046
  588TMC3    O1 8726   0.544   0.825   9.835  0.3486 -0.3536  0.3472
  588TMC3    O2 8727   0.040   0.481   9.659  0.1691  0.1717 -0.6879
  589TMC3    C1 8728   4.183   3.605   1.382  0.2243  0.5184 -0.1594
  589TMC3    C2 8729   4.283   3.693   1.412  0.1429 -0.5942 -0.0398
  589TMC3    C3 8730   4.408   3.660   1.375 -0.6931 -0.0626  0.0839
  589TMC3    C4 8731   4.192   3.489   1.326  0.5186 -0.2421  0.0256
  589TMC3    C5 8732   4.326   3.456   1.307 -0.1775  0.8602 -0.3318
  589TMC3    C6 8733   4.436   3.535   1.322 -0.1265 -0.3715 -0.0830
  589TMC3     C 8734   4.046   3.650   1.395  0.7367  0.3778  0.0417
  589TMC3     O 8735   3.955   3.607   1.327  0.0489 -0.7111 -0.1708
  589TMC3     H 8736   4.265   3.788   1.461  0.8155  0.4756 -1.8622
  589TMC3    H1 8737   4.111   3.420   1.305 -0.7336  2.0107 -2.5091
  589TMC3    H2 8738   4.535   3.491   1.324  1.1819  2.6310  0.8683
  589TMC3    C7 8739   4.353   3.321   1.249  0.0762 -0.3117  0.2729
  589TMC3    C8 8740   4.507   3.749   1.424  0.0004 -0.0262 -0.5973
  589TMC3    O1 8741   4.471   3.307   1.226 -0.1537  0.6493  0.2430
  589TMC3    O2 8742   4.471   3.832   1.508  0.2722  0.2418 -0.0208
  590MPD2     C 8743   3.969   1.654  16.710 -0.3530  1.1291  0.0142
  590MPD2    C1 8744   3.923   1.632  16.583 -0.3979 -0.4398  0.2559
  590MPD2    C2 8745   3.994   1.681  16.479 -0.0695  0.0306  1.1282
  590MPD2    C3 8746   4.107   1.765  16.494 -0.1072 -0.0769 -0.2512
  590MPD2    C4 8747   4.142   1.804  16.622 -1.2268 -0.5400 -0.5201
  590MPD2    C5 8748   4.072   1.747  16.727 -0.7777 -0.1123  0.1940
  590MPD2     H 8749   3.961   1.655  16.379 -1.6338 -3.4931  2.5913
  590MPD2    H1 8750   4.223   1.871  16.651 -2.8752  0.8971  0.7578
  590MPD2    H2 8751   3.918   1.611  16.795  0.0134  1.1550  0.2491
  590MPD2    H3 8752   4.103   1.769  16.828 -0.6691 -1.9021  0.5541
  590MPD2     N 8753   4.169   1.815  16.371  0.0963 -0.4060  0.5367
  590MPD2    H5 8754   4.130   1.788  16.282  0.9779  0.1451 -0.0159
  590MPD2    N1 8755   3.803   1.553  16.569  0.5631  0.3297 -0.8872
  590MPD2    H7 8756   3.755   1.527  16.654  3.7222  1.0067  1.0984
  591TMC3    C1 8757   4.306   1.940  16.227  0.4877  1.5280 -0.7081
  591TMC3    C2 8758   4.328   1.835  16.143 -0.3554  0.0458 -0.7488
  591TMC3    C3 8759   4.376   1.855  16.017  0.1530 -0.5641  0.5231
  591TMC3    C4 8760   4.341   2.066  16.191 -0.2396 -0.3814  0.5207
  591TMC3    C5 8761   4.400   2.086  16.073 -0.2153  0.5413 -0.2445
  591TMC3    C6 8762   4.418   1.987  15.980  0.3991  0.0423 -0.4062
  591TMC3     C 8763   4.270   1.908  16.368 -0.3656 -0.2091 -0.0243
  591TMC3     O 8764   4.320   1.981  16.450 -0.3456 -0.1079  0.0180
  591TMC3     H 8765   4.285   1.741  16.175  1.4375 -0.7373 -0.6536
  591TMC3    H1 8766   4.338   2.142  16.268 -0.1967  0.8158 -0.6647
  591TMC3    H2 8767   4.454   2.016  15.882  0.1402  0.4941 -0.3656
  591TMC3    C7 8768   4.397   2.226  16.045  0.2154 -0.3319  0.0195
  591TMC3    C8 8769   4.389   1.741  15.921  0.2577  0.3795  0.3469
  591TMC3    O1 8770   4.358   2.297  16.135  0.1649  0.5185  0.2960
  591TMC3    O2 8771   4.359   1.632  15.976  0.6052 -0.0780  0.2058
  592MPD2     C 8772   4.505   3.368  10.968 -0.2781 -0.2148 -0.4836
  592MPD2    C1 8773   4.489   3.426  11.088 -0.6292 -0.0264 -0.4370
  592MPD2    C2 8774   4.403   3.363  11.177 -0.1411 -0.1125  0.2452
  592MPD2    C3 8775   4.333   3.250  11.156 -0.0657  0.4959 -0.8584
  592MPD2    C4 8776   4.349   3.187  11.029 -0.4820  0.9925 -0.0024
  592MPD2    C5 8777   4.430   3.254  10.939 -0.1479 -0.2850  0.1769
  592MPD2     H 8778   4.389   3.407  11.275 -1.1839 -0.9341  0.4692
  592MPD2    H1 8779   4.288   3.106  10.992 -0.1346  0.3103  0.9080
  592MPD2    H2 8780   4.581   3.406  10.901 -1.0820 -1.4416 -2.0950
  592MPD2    H3 8781   4.439   3.211  10.840  0.6129  2.9822 -1.1692
  592MPD2     N 8782   4.236   3.220  11.260 -0.3804 -0.2964  0.2449
  592MPD2    H5 8783   4.227   3.281  11.341  0.2299 -0.5335  0.4931
  592MPD2    N1 8784   4.579   3.535  11.122 -0.2939 -0.4314 -0.2314
  592MPD2    H7 8785   4.646   3.565  11.052  0.8182  0.1676  1.1017
  593TMC3    C1 8786   4.719   3.672  11.259 -0.1776 -0.2822 -0.1019
  593TMC3    C2 8787   0.033   3.703  11.385 -0.5457 -0.0778  0.3680
  593TMC3    C3 8788   0.154   3.764  11.402 -0.6845 -1.0196  0.2958
  593TMC3    C4 8789   0.073   3.703  11.150  0.0077 -0.5906  0.1027
  593TMC3    C5 8790   0.199   3.758  11.172  0.1773  0.2400  0.0260
  593TMC3    C6 8791   0.245   3.787  11.300  0.3255 -0.1683 -0.3320
  593TMC3     C 8792   4.596   3.585  11.247 -0.4195  0.2839 -0.3580
  593TMC3     O 8793   4.531   3.564  11.350  0.1200 -0.5021  0.3464
  593TMC3     H 8794   4.693   3.682  11.471  0.1647  2.1884  1.4507
  593TMC3    H1 8795   0.035   3.698  11.048 -0.9463  0.4494  0.4206
  593TMC3    H2 8796   0.332   3.852  11.302 -0.7670  1.2689  0.7267
  593TMC3    C7 8797   0.253   3.850  11.072  0.0045  0.5677 -0.7177
  593TMC3    C8 8798   0.151   3.856  11.506 -0.1489  0.2507 -0.1472
  593TMC3    O1 8799   0.341   3.928  11.105  0.5968  0.5686 -0.1685
  593TMC3    O2 8800   0.045   3.867  11.568 -0.0857  0.2750 -0.3012
  594MPD2     C 8801   3.570   2.109  13.859  0.4234  0.1857 -0.0505
  594MPD2    C1 8802   3.537   2.171  13.975  0.2400  0.6763  0.1565
  594MPD2    C2 8803   3.634   2.269  14.013 -0.1251 -0.1483 -0.0690
  594MPD2    C3 8804   3.752   2.296  13.950  0.4576  0.4273 -0.4809
  594MPD2    C4 8805   3.776   2.221  13.836 -0.1757  0.2714 -0.4299
  594MPD2    C5 8806   3.687   2.128  13.786 -0.0561 -0.4481  0.1785
  594MPD2     H 8807   3.602   2.334  14.093 -2.3916 -0.9468 -0.3333
  594MPD2    H1 8808   3.860   2.233  13.769  0.1605  0.4983  0.0259
  594MPD2    H2 8809   3.516   2.016  13.839  0.8812 -0.1063  0.0667
  594MPD2    H3 8810   3.703   2.077  13.691 -0.0339  1.3122 -0.7724
  594MPD2     N 8811   3.826   2.403  13.999 -0.0122 -0.1570  0.9846
  594MPD2    H5 8812   3.789   2.451  14.080 -1.0352 -1.6443  1.3936
  594MPD2    N1 8813   3.408   2.136  14.028 -0.6291 -0.4008 -0.0700
  594MPD2    H7 8814   3.360   2.071  13.966 -0.3989  0.1619 -0.8222
  595TMC3    C1 8815   4.176   2.706  14.060  0.1548  0.2151  0.2068
  595TMC3    C2 8816   4.127   2.590  13.998 -0.5184  0.5337 -0.4312
  595TMC3    C3 8817   3.996   2.562  14.011  0.0183  0.0702 -0.2185
  595TMC3    C4 8818   4.100   2.788  14.142 -0.1283 -0.7305  0.7110
  595TMC3    C5 8819   3.963   2.755  14.138 -0.4779 -0.0704 -0.0871
  595TMC3    C6 8820   3.905   2.646  14.073 -0.0615 -0.1445 -0.0198
  595TMC3     C 8821   4.318   2.725  14.073  0.1970  0.0731 -0.2843
  595TMC3     O 8822   4.357   2.800  14.161  0.1305 -0.1630 -0.2524
  595TMC3     H 8823   4.199   2.520  13.956 -2.0301 -1.1222 -0.2508
  595TMC3    H1 8824   4.148   2.852  14.214  1.4515 -1.1031 -0.0070
  595TMC3    H2 8825   3.800   2.621  14.080 -0.4314  1.0297 -1.2965
  595TMC3    C7 8826   3.863   2.823  14.216  1.0724 -0.2100 -0.4490
  595TMC3    C8 8827   3.950   2.440  13.953 -0.3766  0.4653 -0.4345
  595TMC3    O1 8828   3.751   2.819  14.180  0.3082  0.0371 -1.0839
  595TMC3    O2 8829   4.022   2.375  13.874  0.1112  0.1431  0.3429
  596MPD2     C 8830   2.097   0.376  16.644  0.2492  0.6229 -0.3240
  596MPD2    C1 8831   2.031   0.474  16.562 -0.2040  1.1218 -0.4600
  596MPD2    C2 8832   2.025   0.450  16.428  0.3802  0.4853  1.3997
  596MPD2    C3 8833   2.091   0.342  16.364 -0.4075  0.7171  0.1830
  596MPD2    C4 8834   2.158   0.245  16.442  0.2938 -0.1089 -0.0711
  596MPD2    C5 8835   2.156   0.269  16.582  0.5265  0.3029  0.0312
  596MPD2     H 8836   1.975   0.526  16.369  0.6871 -1.2041 -1.0617
  596MPD2    H1 8837   2.211   0.156  16.410 -1.3545  0.1640 -3.5116
  596MPD2    H2 8838   2.105   0.393  16.751 -1.8137 -1.2180  0.1226
  596MPD2    H3 8839   2.201   0.184  16.632 -2.0124 -0.9722  0.1844
  596MPD2     N 8840   2.089   0.320  16.225  0.2182  0.0675 -0.1756
  596MPD2    H5 8841   2.128   0.229  16.202 -1.2649 -0.8735  0.9616
  596MPD2    N1 8842   1.997   0.598  16.615  0.3052 -0.1268  0.8073
  596MPD2    H7 8843   1.991   0.679  16.553 -3.3948 -1.2010 -0.2373
  597TMC3    C1 8844   1.956   0.771  16.762  0.6601  0.6342  0.4230
  597TMC3    C2 8845   1.992   0.861  16.670 -0.6692  0.3099  0.0472
  597TMC3    C3 8846   1.934   0.984  16.670  0.0442  0.4433  0.5195
  597TMC3    C4 8847   1.880   0.800  16.869  0.0930 -0.2682 -0.5088
  597TMC3    C5 8848   1.828   0.925  16.871 -0.0675 -0.6277  0.2705
  597TMC3    C6 8849   1.843   1.016  16.769  0.1684 -0.1096 -0.3305
  597TMC3     C 8850   1.980   0.626  16.748 -0.1155 -1.0096 -0.2747
  597TMC3     O 8851   1.964   0.539  16.838  0.5331 -0.2469 -0.0241
  597TMC3     H 8852   2.075   0.844  16.602 -0.7679 -0.2792  0.0782
  597TMC3    H1 8853   1.857   0.730  16.948  0.3554 -1.8918 -1.8826
  597TMC3    H2 8854   1.809   1.119  16.780 -1.5772 -0.9373  2.0335
  597TMC3    C7 8855   1.755   0.966  16.994 -0.0436  0.1746 -0.4997
  597TMC3    C8 8856   2.003   1.101  16.601 -0.4708 -0.0533 -0.1850
  597TMC3    O1 8857   1.699   0.874  17.049 -1.0098 -0.1913  0.4287
  597TMC3    O2 8858   1.998   1.216  16.646  0.0188  0.5444  0.0279
  598TMC3    C1 8859   0.651   1.788  15.479 -0.6585  0.5468  0.0997
  598TMC3    C2 8860   0.533   1.728  15.434  0.6435  0.6788  0.7285
  598TMC3    C3 8861   0.522   1.712  15.302  0.1597  0.1746 -0.8018
  598TMC3    C4 8862   0.756   1.834  15.401 -0.2067  0.8613  0.3044
  598TMC3    C5 8863   0.734   1.805  15.267 -0.0365 -0.5460  0.5044
  598TMC3    C6 8864   0.629   1.745  15.213  0.4297  1.3601 -0.4707
  598TMC3     C 8865   0.677   1.799  15.623 -1.0059 -0.0129  0.0723
  598TMC3     O 8866   0.793   1.790  15.663  0.1658  0.5552 -0.4655
  598TMC3     H 8867   0.451   1.706  15.501  2.1980 -0.7742  2.1596
  598TMC3    H1 8868   0.851   1.870  15.440  0.7263  1.8067 -2.8469
  598TMC3    H2 8869   0.627   1.727  15.106 -1.2713 -1.2742 -0.0125
  598TMC3    C7 8870   0.837   1.838  15.178  0.3358  0.1209 -0.0571
  598TMC3    C8 8871   0.401   1.669  15.245 -0.3228 -0.6636 -0.2415
  598TMC3    O1 8872   0.865   1.763  15.084  0.8108 -0.7230 -0.5680
  598TMC3    O2 8873   0.401   1.663  15.124 -0.1282 -0.0287 -0.6904
  599MPD2     C 8874   0.951   4.394  16.103 -0.3850  0.4959 -0.2923
  599MPD2    C1 8875   0.867   4.298  16.057 -0.8903 -0.5909  0.6673
  599MPD2    C2 8876   0.738   4.306  16.094 -0.1001 -0.1177 -0.1008
  599MPD2    C3 8877   0.681   4.409  16.163 -0.2474  0.1082  0.0877
  599MPD2    C4 8878   0.764   4.505  16.213  0.7629 -0.0297 -0.6270
  599MPD2    C5 8879   0.899   4.489  16.187 -0.2134 -1.1439 -0.6136
  599MPD2     H 8880   0.676   4.221  16.064  0.4957 -0.1130 -1.3581
  599MPD2    H1 8881   0.720   4.586  16.269  0.7513  0.0317 -0.7251
  599MPD2    H2 8882   1.057   4.376  16.090 -0.8263 -0.2935 -2.8076
  599MPD2    H3 8883   0.973   4.553  16.234 -0.7485 -0.3836 -0.7922
  599MPD2     N 8884   0.537   4.413  16.192  0.2992  0.0199  0.7496
  599MPD2    H5 8885   0.508   4.495  16.245  1.8490  1.0806 -0.0553
  599MPD2    N1 8886   0.928   4.196  15.984  0.4464  0.2302 -0.1019
  599MPD2    H7 8887   1.030   4.201  15.980  0.5024 -1.4295 -0.6315
  600TMC3    C1 8888   0.326   4.317  16.243 -0.5669  0.1608 -0.8712
  600TMC3    C2 8889   0.268   4.202  16.287  0.0545  0.1927  0.9733
  600TMC3    C3 8890   0.180   4.220  16.396 -0.8388  0.8915 -0.2572
  600TMC3    C4 8891   0.286   4.440  16.285  0.3588  0.4150 -1.0291
  600TMC3    C5 8892   0.198   4.447  16.387  0.1684 -0.0628 -0.3142
  600TMC3    C6 8893   0.138   4.337  16.444  0.5455  0.3459 -0.2596
  600TMC3     C 8894   0.438   4.322  16.160  0.0587 -0.6873 -0.1689
  600TMC3     O 8895   0.442   4.234  16.077  0.4519  0.3105 -0.0607
  600TMC3     H 8896   0.276   4.111  16.227 -0.0146  1.7059 -1.3231
  600TMC3    H1 8897   0.331   4.526  16.235 -0.6772  1.6376  0.1692
  600TMC3    H2 8898   0.065   4.338  16.523  1.8845  0.8483  0.9679
  600TMC3    C7 8899   0.139   4.575  16.439 -0.4026 -0.3905  0.1443
  600TMC3    C8 8900   0.121   4.095  16.447  0.3716  0.0684 -0.4694
  600TMC3    O1 8901   0.060   4.582  16.529  0.3918 -0.0492  0.0978
  600TMC3    O2 8902   0.017   4.101  16.510  0.3230 -0.5215 -0.2677
  601MPD2     C 8903   2.363   2.882   0.153  0.0592  0.2315 -0.1723
  601MPD2    C1 8904   2.285   2.822   0.057 -0.0747  0.1960 -0.1071
  601MPD2    C2 8905   2.271   2.684   0.054 -1.1740  0.4685  0.0984
  601MPD2    C3 8906   2.349   2.596   0.129 -0.0540 -0.3052 -0.1718
  601MPD2    C4 8907   2.422   2.660   0.225  0.0318 -0.5048  0.0490
  601MPD2    C5 8908   2.424   2.800   0.239  0.2641 -0.3139  0.0109
  601MPD2     H 8909   2.212   2.638  17.672 -1.4357  1.3088 -0.1984
  601MPD2    H1 8910   2.477   2.610   0.304 -0.9152 -1.3272  0.1882
  601MPD2    H2 8911   2.384   2.988   0.167 -0.1305  0.5385 -2.1277
  601MPD2    H3 8912   2.467   2.843   0.329 -1.2980 -1.9123  1.4952
  601MPD2     N 8913   2.345   2.460   0.124  0.1867  0.0847 -0.0412
  601MPD2    H5 8914   2.388   2.412   0.202  3.1693 -0.9454 -2.2826
  601MPD2    N1 8915   2.214   2.888  17.648  0.5260 -0.0011 -0.4222
  601MPD2    H7 8916   2.169   2.834  17.576 -1.7050  0.4262  0.6581
  602TMC3    C1 8917   2.155   3.073  17.514  0.3744 -0.4309 -0.5368
  602TMC3    C2 8918   2.127   3.212  17.517 -0.2744 -0.4503  0.0873
  602TMC3    C3 8919   2.091   3.274  17.397  0.5268 -0.3192  0.4741
  602TMC3    C4 8920   2.128   3.003  17.399 -0.1452 -0.0331  0.3517
  602TMC3    C5 8921   2.075   3.065  17.293 -0.1109 -0.1963 -0.3910
  602TMC3    C6 8922   2.062   3.200  17.287 -0.1433 -0.0771  0.6545
  602TMC3     C 8923   2.220   3.020  17.635 -0.1234 -0.3428  0.5337
  602TMC3     O 8924   2.254   3.102   0.024  0.2805 -0.0670  0.1309
  602TMC3     H 8925   2.139   3.273  17.605 -0.7213 -0.0953 -0.1025
  602TMC3    H1 8926   2.142   2.895  17.398  0.0051 -0.0228  0.8693
  602TMC3    H2 8927   2.031   3.248  17.194 -0.0748 -1.4555 -0.0732
  602TMC3    C7 8928   2.025   2.979  17.190  0.1425 -0.2598  1.2553
  602TMC3    C8 8929   2.042   3.406  17.414 -0.0475  0.5029  0.1951
  602TMC3    O1 8930   2.090   2.885  17.152  0.1456 -0.2125  0.0072
  602TMC3    O2 8931   2.047   3.463  17.522 -0.4533 -0.2194  0.0787
  603TMC3    C1 8932   0.648   2.564  10.664 -0.3258  1.0507 -0.4307
  603TMC3    C2 8933   0.650   2.580  10.802  0.3064  0.6498  0.6584
  603TMC3    C3 8934   0.679   2.703  10.852  0.6737 -0.8096 -0.5182
  603TMC3    C4 8935   0.680   2.674  10.586  0.3660 -0.3156  0.1335
  603TMC3    C5 8936   0.729   2.788  10.645 -0.2561 -0.1877 -0.8195
  603TMC3    C6 8937   0.735   2.803  10.779  0.1511  0.3810 -0.0713
  603TMC3     C 8938   0.592   2.439  10.600 -0.0228  0.1442 -0.2582
  603TMC3     O 8939   0.547   2.454  10.488 -0.2465 -0.5673 -0.1281
  603TMC3     H 8940   0.618   2.505  10.873 -1.3320  0.6445 -0.0914
  603TMC3    H1 8941   0.668   2.658  10.479 -3.0676  0.9986  0.3329
  603TMC3    H2 8942   0.741   2.907  10.810 -1.7300  0.5945 -0.4213
  603TMC3    C7 8943   0.759   2.901  10.555 -0.2437  0.4228  0.2243
  603TMC3    C8 8944   0.634   2.731  10.985 -0.0500  0.4653  0.3532
  603TMC3    O1 8945   0.858   2.970  10.588  0.2530 -0.4421 -0.0064
  603TMC3    O2 8946   0.556   2.647  11.035  0.5171 -0.3326  0.4745
  604MPD2     C 8947   1.443   1.809  16.349 -0.3519 -0.7174 -0.5920
  604MPD2    C1 8948   1.311   1.790  16.308 -0.2250  0.0738  0.3092
  604MPD2    C2 8949   1.287   1.727  16.183  0.3295 -0.0398 -0.6982
  604MPD2    C3 8950   1.390   1.681  16.107  0.1187  0.3377  0.2460
  604MPD2    C4 8951   1.513   1.716  16.146 -0.5579  0.1355  0.3078
  604MPD2    C5 8952   1.545   1.776  16.262  0.2019 -1.0074  0.0891
  604MPD2     H 8953   1.189   1.712  16.139  0.7245  1.7851 -2.2082
  604MPD2    H1 8954   1.600   1.706  16.082 -1.0571  1.0922 -0.5176
  604MPD2    H2 8955   1.464   1.848  16.448  0.2592  0.2788 -1.1174
  604MPD2    H3 8956   1.649   1.787  16.291  0.4935 -1.5368 -0.7712
  604MPD2     N 8957   1.358   1.633  15.978 -0.1461  0.4296  0.2610
  604MPD2    H5 8958   1.261   1.617  15.951  0.2241  0.7850 -1.2921
  604MPD2    N1 8959   1.209   1.842  16.393 -0.3653 -0.1648  0.3985
  604MPD2    H7 8960   1.238   1.891  16.477  3.6422  0.1342 -1.1659
  605TMC3    C1 8961   1.000   1.839  16.495 -0.5064  0.2343 -0.5298
  605TMC3    C2 8962   1.086   1.873  16.597 -0.5092 -0.4102 -0.0960
  605TMC3    C3 8963   1.084   1.999  16.655 -0.3080 -0.0069 -0.0369
  605TMC3    C4 8964   0.897   1.920  16.472  0.2642  0.1271  0.3075
  605TMC3    C5 8965   0.888   2.044  16.535  0.0716 -0.1354 -0.2820
  605TMC3    C6 8966   0.978   2.081  16.627 -0.9869  0.2479  0.0702
  605TMC3     C 8967   1.076   1.809  16.378 -1.1149  0.3481  0.2051
  605TMC3     O 8968   1.015   1.763  16.283  0.7017  0.3404 -0.1730
  605TMC3     H 8969   1.153   1.794  16.631  0.8112 -0.7120 -3.4438
  605TMC3    H1 8970   0.833   1.895  16.389 -0.7676 -1.5543  1.5908
  605TMC3    H2 8971   0.970   2.180  16.671  0.4302 -0.6202  2.2898
  605TMC3    C7 8972   0.769   2.120  16.534  0.5794  0.0791 -0.3003
  605TMC3    C8 8973   1.218   2.055  16.660  0.1905 -0.5184  0.7925
  605TMC3    O1 8974   0.769   2.236  16.572 -0.0396  0.4536 -0.0002
  605TMC3    O2 8975   1.309   1.976  16.634  0.3186 -0.5539  0.1413
  606TMC3    C1 8976   3.287   4.492  16.459  0.3953 -0.0148 -0.6216
  606TMC3    C2 8977   3.342   4.474  16.581  0.0010  0.2490 -0.3494
  606TMC3    C3 8978   3.361   4.586  16.663 -0.4813  0.2960  0.4829
  606TMC3    C4 8979   3.255   4.609  16.412  0.1477 -0.7191  0.1200
  606TMC3    C5 8980   3.265   4.718  16.494 -0.3340 -0.2018  0.0624
  606TMC3    C6 8981   3.315   4.711  16.621  0.0874  0.0627  0.3222
  606TMC3     C 8982   3.267   4.371  16.390 -0.8810 -0.3411 -0.3858
  606TMC3     O 8983   3.321   4.270  16.425 -0.8390  0.0551 -0.3607
  606TMC3     H 8984   3.391   4.384  16.615 -2.9369 -1.6046 -1.0568
  606TMC3    H1 8985   3.221   4.619  16.309  2.5211 -1.5582 -0.7550
  606TMC3    H2 8986   3.330   0.073  16.686  2.4654  1.4687 -2.0380
  606TMC3    C7 8987   3.167   0.098  16.471 -0.9802  0.5293 -0.3967
  606TMC3    C8 8988   3.394   4.583  16.801  0.1482  0.7403 -0.0425
  606TMC3    O1 8989   3.121   0.102  16.357 -0.3657  0.7736  0.3466
  606TMC3    O2 8990   3.427   4.685  16.854  0.1537  0.4261 -0.2121
  607MPD2     C 8991   4.340   2.927  11.532 -0.0684  0.8363  0.4374
  607MPD2    C1 8992   4.381   3.011  11.629  0.1333  0.4680  0.5407
  607MPD2    C2 8993   4.321   3.007  11.751 -0.1837 -0.3253 -0.2626
  607MPD2    C3 8994   4.245   2.900  11.784 -0.4158  0.7116 -0.1163
  607MPD2    C4 8995   4.225   2.806  11.693 -0.3154 -0.1082 -0.4578
  607MPD2    C5 8996   4.259   2.828  11.565  0.0380  0.1668 -0.7045
  607MPD2     H 8997   4.356   3.081  11.822 -1.8438  0.0752  0.1343
  607MPD2    H1 8998   4.180   2.709  11.716  0.8201 -0.2843  0.9943
  607MPD2    H2 8999   4.376   2.942  11.431 -0.7750 -2.7676 -0.3703
  607MPD2    H3 9000   4.237   2.752  11.491  3.8538  0.9431 -2.6240
  607MPD2     N 9001   4.241   2.874  11.923  0.0096  0.3339 -0.2985
  607MPD2    H5 9002   4.265   2.955  11.979  0.4919 -1.1840  1.6713
  607MPD2    N1 9003   4.452   3.133  11.607 -0.1902  0.3985  0.5366
  607MPD2    H7 9004   4.467   3.198  11.683 -0.2415 -2.4755  3.0012
  608TMC3    C1 9005   4.601   3.272  11.504  0.8457 -0.6445 -0.4623
  608TMC3    C2 9006   4.608   3.329  11.628  0.1264  0.6142 -0.3957
  608TMC3    C3 9007   4.723   3.400  11.657 -0.5734  0.0975  0.1104
  608TMC3    C4 9008   4.706   3.280  11.415  0.2382 -0.2512  0.4240
  608TMC3    C5 9009   0.093   3.350  11.454 -0.4108 -0.4371 -0.3668
  608TMC3    C6 9010   0.104   3.410  11.574 -0.0032  0.2347 -0.0386
  608TMC3     C 9011   4.522   3.157  11.493 -0.4320  0.2268 -0.4759
  608TMC3     O 9012   4.542   3.092  11.391  0.0182  0.1632  0.7343
  608TMC3     H 9013   4.521   3.346  11.691  0.5019 -0.0194  0.2836
  608TMC3    H1 9014   4.708   3.227  11.320 -1.2481 -1.7249  1.2194
  608TMC3    H2 9015   0.183   3.480  11.597  1.8039 -1.8333  0.0451
  608TMC3    C7 9016   0.197   3.369  11.362 -0.4349 -0.1543 -0.2974
  608TMC3    C8 9017   0.025   3.414  11.805 -0.1944 -0.2723  0.0395
  608TMC3    O1 9018   0.168   3.358  11.244 -0.4123  0.6518  0.2722
  608TMC3    O2 9019   0.105   3.498  11.843 -0.2852  0.5784  0.0911
  609TMC3    C1 9020   2.872   2.548   9.077  0.2053  0.1162 -0.0641
  609TMC3    C2 9021   2.938   2.666   9.107 -0.2694  0.3618  0.0757
  609TMC3    C3 9022   3.064   2.685   9.068 -0.2738 -0.0719 -0.6905
  609TMC3    C4 9023   2.939   2.446   9.014  0.1241  0.2793  0.0839
  609TMC3    C5 9024   3.076   2.462   8.998 -0.3729 -0.5815 -0.0685
  609TMC3    C6 9025   3.140   2.579   9.029 -0.4478  0.0502  0.3136
  609TMC3     C 9026   2.725   2.551   9.075 -0.0466  0.1550 -0.1883
  609TMC3     O 9027   2.658   2.621   9.151 -0.1983 -0.2334 -0.2117
  609TMC3     H 9028   2.878   2.744   9.153 -1.8252 -1.5940  1.3282
  609TMC3    H1 9029   2.886   2.353   8.995 -0.4234  0.6404 -0.1781
  609TMC3    H2 9030   3.247   2.592   9.017 -0.7562  1.5340 -0.8708
  609TMC3    C7 9031   3.160   2.351   8.954  0.1006  0.9587 -0.3489
  609TMC3    C8 9032   3.133   2.806   9.106  0.5098  0.8876  0.4281
  609TMC3    O1 9033   3.277   2.375   8.958 -0.2555 -0.5658 -0.0940
  609TMC3    O2 9034   3.093   2.854   9.214 -0.3677  0.4412  0.6400
  610TMC3    C1 9035   0.141   3.133  12.560 -0.5520  0.5859 -0.6306
  610TMC3    C2 9036   0.154   3.177  12.428 -0.5453 -0.5754  0.2210
  610TMC3    C3 9037   0.154   3.072  12.336  0.3264 -0.6349 -0.2678
  610TMC3    C4 9038   0.144   3.007  12.602  0.3965  0.1018  0.7958
  610TMC3    C5 9039   0.155   2.908  12.509  0.2993 -0.1433 -0.1295
  610TMC3    C6 9040   0.152   2.940  12.378  0.8219  0.6527 -0.3204
  610TMC3     C 9041   0.105   3.231  12.658 -0.0791 -0.9997 -0.0348
  610TMC3     O 9042   0.033   3.322  12.627  0.1436  0.1274  0.0000
  610TMC3     H 9043   0.154   3.282  12.400  0.6945 -0.1030  1.9716
  610TMC3    H1 9044   0.119   2.987  12.706 -2.4987 -3.0159 -0.4965
  610TMC3    H2 9045   0.148   2.859  12.306  0.9995 -0.0250  0.4297
  610TMC3    C7 9046   0.210   2.778  12.538  0.3871  0.6186  0.1824
  610TMC3    C8 9047   0.174   3.098  12.195  0.7169  0.1460  0.5156
  610TMC3    O1 9048   0.224   2.690  12.456  0.5165 -0.1151  0.5064
  610TMC3    O2 9049   0.240   3.198  12.166  0.6036 -0.0222  0.0264
  611MPD2     C 9050   4.614   2.549  10.065 -0.0136 -1.0773 -0.1248
  611MPD2    C1 9051   4.536   2.631   9.986  0.3265 -1.0732 -0.6005
  611MPD2    C2 9052   4.589   2.751   9.944 -0.6209 -0.1876 -0.0642
  611MPD2    C3 9053   4.722   2.777   9.974 -0.3196 -0.2363  0.1588
  611MPD2    C4 9054   0.072   2.686  10.047  0.0917  0.0147 -0.3264
  611MPD2    C5 9055   0.020   2.567  10.088 -0.3478 -0.3642 -0.8383
  611MPD2     H 9056   4.528   2.832   9.905  0.9785  1.0787  0.0851
  611MPD2    H1 9057   0.180   2.698  10.057  0.3648 -1.6878 -1.2712
  611MPD2    H2 9058   4.568   2.460  10.107 -0.9256  0.5766  2.3242
  611MPD2    H3 9059   0.081   2.495  10.143 -1.2196  0.0554  0.6900
  611MPD2     N 9060   0.077   2.879   9.913  0.6638 -0.2455 -1.1290
  611MPD2    H5 9061   0.178   2.872   9.921  0.6713 -0.5709 -1.5193
  611MPD2    N1 9062   4.405   2.590   9.964  0.4376 -0.2186 -0.1083
  611MPD2    H7 9063   4.374   2.497   9.989  0.5556  0.3550  2.2320
  612TMC3    C1 9064   0.110   3.115   9.877 -1.0490  0.4909  0.0543
  612TMC3    C2 9065   0.232   3.115   9.936  0.1262 -0.6610 -0.5564
  612TMC3    C3 9066   0.288   3.243   9.957 -0.7161  0.1330 -0.5531
  612TMC3    C4 9067   0.048   3.230   9.844  0.3605  0.9552  0.1461
  612TMC3    C5 9068   0.098   3.355   9.870 -0.8011 -0.6139 -0.5765
  612TMC3    C6 9069   0.227   3.360   9.917 -0.6916 -0.4228 -0.2479
  612TMC3     C 9070   0.020   2.999   9.875 -0.2964 -0.5847 -0.0565
  612TMC3     O 9071   4.622   3.027   9.869  0.0951 -0.0626  0.5059
  612TMC3     H 9072   0.276   3.024   9.975 -0.6425 -1.9800 -2.7236
  612TMC3    H1 9073   4.674   3.227   9.795  0.4065 -1.3938  0.2355
  612TMC3    H2 9074   0.273   3.457   9.935 -2.5784  0.0192  2.2294
  612TMC3    C7 9075   0.011   3.469   9.837  0.9640 -0.5213  0.1509
  612TMC3    C8 9076   0.421   3.256  10.023  0.5701 -0.0351  0.2103
  612TMC3    O1 9077   4.626   3.433   9.802  0.3464  0.0840  0.0807
  612TMC3    O2 9078   0.468   3.367  10.016  0.7726 -0.1713 -0.6200
  613MPD2     C 9079   3.422   1.135  15.926  0.0753 -0.2032  1.1048
  613MPD2    C1 9080   3.343   1.073  15.832  0.8781 -0.3239 -0.4361
  613MPD2    C2 9081   3.343   0.939  15.817  0.2089  0.4100 -0.1457
  613MPD2    C3 9082   3.436   0.856  15.874 -0.3998  0.2744 -0.2110
  613MPD2    C4 9083   3.529   0.921  15.955  0.2829  0.2419 -0.5483
  613MPD2    C5 9084   3.515   1.051  15.989 -0.0854  0.9217  1.3053
  613MPD2     H 9085   3.272   0.904  15.743  0.2408 -0.1518  0.0898
  613MPD2    H1 9086   3.608   0.864  16.003 -2.8113 -2.7934  0.9170
  613MPD2    H2 9087   3.426   1.242  15.941 -3.2741 -0.0172  0.6540
  613MPD2    H3 9088   3.592   1.087  16.056  2.2886  4.4021 -3.3265
  613MPD2     N 9089   3.455   0.717  15.844 -0.9393  0.3896 -1.1733
  613MPD2    H5 9090   3.542   0.671  15.869 -0.0420  1.6843 -1.8833
  613MPD2    N1 9091   3.268   1.162  15.749  0.3727 -0.3080  0.2557
  613MPD2    H7 9092   3.304   1.257  15.737 -0.9822  0.2357  0.5646
  614TMC3    C1 9093   3.136   1.205  15.560 -0.1835  0.1726 -0.4314
  614TMC3    C2 9094   3.254   1.215  15.483 -0.3683  0.2131 -0.5868
  614TMC3    C3 9095   3.251   1.197  15.351  0.5340 -0.6138  0.6818
  614TMC3    C4 9096   3.014   1.202  15.498 -0.2794 -0.2102 -0.4857
  614TMC3    C5 9097   3.012   1.188  15.361 -0.1631 -0.0808 -0.1245
  614TMC3    C6 9098   3.131   1.181  15.290  1.0358 -0.6994  0.6734
  614TMC3     C 9099   3.148   1.130  15.685 -0.7729 -0.5548  0.2831
  614TMC3     O 9100   3.068   1.041  15.709  0.2515 -0.2123  0.2890
  614TMC3     H 9101   3.350   1.233  15.530  1.5779 -3.0411 -3.2866
  614TMC3    H1 9102   2.932   1.188  15.568  1.4331 -0.1754  1.5373
  614TMC3    H2 9103   3.134   1.168  15.182 -1.8416 -3.8402  0.9511
  614TMC3    C7 9104   2.901   1.125  15.301 -0.3877 -0.5478 -0.6074
  614TMC3    C8 9105   3.349   1.088  15.310 -0.4286  0.4488  0.0170
  614TMC3    O1 9106   2.788   1.159  15.330 -0.2656 -0.6538 -0.5287
  614TMC3    O2 9107   3.301   0.977  15.282  0.4307 -0.3580  0.0791
  615MPD2     C 9108   3.575   1.806  16.313 -0.1984  0.4742  0.4096
  615MPD2    C1 9109   3.452   1.854  16.357  0.4803 -0.4994  0.4815
  615MPD2    C2 9110   3.350   1.856  16.261 -0.0142 -0.2412 -0.0388
  615MPD2    C3 9111   3.375   1.823  16.130  0.1972 -0.6890  0.2731
  615MPD2    C4 9112   3.494   1.759  16.096 -0.0899 -0.4295 -0.0709
  615MPD2    C5 9113   3.592   1.744  16.188  0.5235  0.2866 -0.3181
  615MPD2     H 9114   3.255   1.897  16.290  0.3020  1.6310 -1.6752
  615MPD2    H1 9115   3.497   1.694  16.009  2.0607 -0.5476  0.0918
  615MPD2    H2 9116   3.654   1.803  16.387 -0.1972 -3.0025  0.2996
  615MPD2    H3 9117   3.688   1.703  16.160  0.6154  0.7165 -0.6287
  615MPD2     N 9118   3.277   1.844  16.027  0.1071 -0.1134 -0.3082
  615MPD2    H5 9119   3.297   1.797  15.939  3.7662 -0.8086  0.8732
  615MPD2    N1 9120   3.417   1.919  16.483 -0.1982  0.1337  0.0424
  615MPD2    H7 9121   3.323   1.954  16.495  0.0764  0.4938  1.1069
  616TMC3    C1 9122   3.443   1.977  16.710  0.2165 -0.3851  0.5496
  616TMC3    C2 9123   3.522   1.959  16.823  0.4736  0.0636  0.1333
  616TMC3    C3 9124   3.517   2.056  16.920 -0.5328 -0.5052  0.2844
  616TMC3    C4 9125   3.357   2.086  16.695 -0.2230 -0.3649  0.2624
  616TMC3    C5 9126   3.344   2.173  16.806 -0.3207  0.8503 -0.2525
  616TMC3    C6 9127   3.423   2.159  16.913 -0.4995 -0.3203  0.2704
  616TMC3     C 9128   3.502   1.910  16.592 -0.4409 -0.0809  0.1791
  616TMC3     O 9129   3.605   1.845  16.596 -0.3253 -0.3044 -0.2641
  616TMC3     H 9130   3.607   1.893  16.813 -1.1304 -2.1736  1.2570
  616TMC3    H1 9131   3.311   2.112  16.600  0.4111  1.2524  0.3850
  616TMC3    H2 9132   3.418   2.225  16.999  0.1048  0.7680 -0.5366
  616TMC3    C7 9133   3.317   2.307  16.766 -0.1064 -0.6833 -0.0277
  616TMC3    C8 9134   3.643   2.132  16.937 -0.2961  0.6238 -0.1603
  616TMC3    O1 9135   3.251   2.317  16.663  0.1665  0.4930  0.3296
  616TMC3    O2 9136   3.635   2.251  16.913  0.3227  0.3843  0.5012
  617MPD2     C 9137   1.110   4.663  14.035  0.7515 -0.5596  0.8678
  617MPD2    C1 9138   1.175   4.545  14.029 -0.6613  0.6242  0.2701
  617MPD2    C2 9139   1.107   4.428  14.054 -0.4631  0.2284 -0.3735
  617MPD2    C3 9140   0.974   4.435  14.096 -0.3611 -0.0071  0.0514
  617MPD2    C4 9141   0.904   4.546  14.092 -0.1937 -0.7906 -0.5062
  617MPD2    C5 9142   0.977   4.663  14.072  0.4854 -0.7557  0.7060
  617MPD2     H 9143   1.156   4.333  14.039 -0.3151  0.1334  0.7266
  617MPD2    H1 9144   0.798   4.548  14.118 -0.3750 -0.3728 -1.2776
  617MPD2    H2 9145   1.165   0.027  14.001  1.3556 -1.3694 -0.2490
  617MPD2    H3 9146   0.914   0.027  14.081 -3.1149 -3.3314  0.1273
  617MPD2     N 9147   0.892   4.316  14.122  0.7412 -0.1485 -0.5850
  617MPD2    H5 9148   0.792   4.324  14.108  0.6455 -0.3693 -0.0143
  617MPD2    N1 9149   1.308   4.545  13.982 -0.2638 -0.6762 -0.1824
  617MPD2    H7 9150   1.343   4.637  13.956 -0.9378 -0.7401 -1.3412
  618TMC3    C1 9151   1.504   4.464  13.886  0.3361  0.1556  0.1202
  618TMC3    C2 9152   1.520   4.367  13.792 -0.1345 -0.0941 -0.0070
  618TMC3    C3 9153   1.626   4.370  13.711 -0.5322  0.3527 -0.2361
  618TMC3    C4 9154   1.575   4.578  13.880 -0.0048  0.2111 -0.3751
  618TMC3    C5 9155   1.686   4.583  13.797 -1.0513  0.1553  0.2110
  618TMC3    C6 9156   1.719   4.474  13.713  0.1127  0.3400 -0.3137
  618TMC3     C 9157   1.397   4.444  13.983  0.2511 -0.2899 -0.1968
  618TMC3     O 9158   1.390   4.328  14.021 -0.3997  0.3456 -0.4478
  618TMC3     H 9159   1.457   4.279  13.782 -2.9772  1.5408  3.4841
  618TMC3    H1 9160   1.553   4.666  13.940 -0.8780 -0.2027 -0.0841
  618TMC3    H2 9161   1.796   4.476  13.636  2.0317  0.2596  1.6028
  618TMC3    C7 9162   1.781   4.696  13.825 -0.1681  0.8200 -1.2400
  618TMC3    C8 9163   1.635   4.279  13.599  0.6405 -0.6849  0.4354
  618TMC3    O1 9164   1.763   0.021  13.936  0.1979 -0.5589 -0.1758
  618TMC3    O2 9165   1.591   4.165  13.623 -0.3404  0.6404  0.2988
  619MPD2     C 9166   2.495   0.670  13.269 -0.2388  0.7031 -0.1186
  619MPD2    C1 9167   2.437   0.788  13.244 -0.1395 -0.5314 -0.1573
  619MPD2    C2 9168   2.306   0.811  13.287 -0.2228  0.0144 -0.1979
  619MPD2    C3 9169   2.232   0.721  13.363  0.8949 -0.6745 -0.0019
  619MPD2    C4 9170   2.290   0.604  13.392  0.8140 -0.5304 -0.1646
  619MPD2    C5 9171   2.416   0.579  13.342  0.2649  0.1767  0.7228
  619MPD2     H 9172   2.265   0.903  13.246 -1.4115  0.4963  2.0521
  619MPD2    H1 9173   2.240   0.522  13.441  0.0075  1.2836  2.0668
  619MPD2    H2 9174   2.587   0.634  13.226  0.8070  0.6110  2.1905
  619MPD2    H3 9175   2.462   0.481  13.352 -0.7404 -0.3354  0.2803
  619MPD2     N 9176   2.098   0.745  13.401  0.6338 -0.1096 -0.1519
  619MPD2    H5 9177   2.047   0.667  13.442  1.2272 -0.8142 -0.7407
  619MPD2    N1 9178   2.489   0.882  13.164 -0.1224 -0.0488  0.2459
  619MPD2    H7 9179   2.433   0.964  13.148 -0.1783 -0.0587  0.3918
  620TMC3    C1 9180   2.627   1.007  13.024 -0.5751  0.1530  0.6393
  620TMC3    C2 9181   2.514   1.055  12.970 -0.4064 -0.1354  0.0530
  620TMC3    C3 9182   2.501   1.180  12.923  0.3766 -0.3105 -0.6005
  620TMC3    C4 9183   2.726   1.093  13.054  0.2939 -0.4792  0.5311
  620TMC3    C5 9184   2.714   1.221  13.009  0.0677 -0.4048  0.0521
  620TMC3    C6 9185   2.610   1.261  12.924 -0.2973 -0.3740 -0.2816
  620TMC3     C 9186   2.616   0.887  13.113 -0.3676 -0.3293  0.7729
  620TMC3     O 9187   2.708   0.814  13.138 -0.3996 -0.6477  0.0894
  620TMC3     H 9188   2.430   0.993  12.942 -1.8275  2.0556 -0.4988
  620TMC3    H1 9189   2.809   1.066  13.118  0.2116 -2.2252 -0.1075
  620TMC3    H2 9190   2.605   1.354  12.869 -0.1140  0.3621  0.9400
  620TMC3    C7 9191   2.779   1.329  13.084 -0.0139  0.5593 -1.0491
  620TMC3    C8 9192   2.381   1.249  12.960  0.2531  0.2740  0.3291
  620TMC3    O1 9193   2.877   1.301  13.146  0.0821 -0.1414 -0.3143
  620TMC3    O2 9194   2.351   1.236  13.078  0.0112  0.3127 -0.3545
  621MPD2     C 9195   2.973   1.157   9.719  0.5249 -0.0479  0.1911
  621MPD2    C1 9196   2.964   1.227   9.596  0.8247  0.1538 -0.6198
  621MPD2    C2 9197   3.084   1.287   9.538  0.6994  0.2698  0.1935
  621MPD2    C3 9198   3.195   1.300   9.624 -0.0819  0.1550 -0.2467
  621MPD2    C4 9199   3.190   1.235   9.749  0.3964 -0.7823 -0.4167
  621MPD2    C5 9200   3.084   1.165   9.796 -0.0328 -0.1596 -0.0800
  621MPD2     H 9201   3.081   1.321   9.435  0.9869  0.6635  0.3137
  621MPD2    H1 9202   3.285   1.229   9.801  0.0855  2.4757  0.5760
  621MPD2    H2 9203   2.890   1.097   9.754  1.8731 -1.0876  1.6726
  621MPD2    H3 9204   3.091   1.118   9.894  1.5278  2.4351  1.0572
  621MPD2     N 9205   3.310   1.378   9.595  0.5069 -0.0215 -0.3718
  621MPD2    H5 9206   3.381   1.384   9.667 -0.8013 -0.2907  0.9232
  621MPD2    N1 9207   2.846   1.218   9.515 -0.7043 -0.1828 -0.3979
  621MPD2    H7 9208   2.847   1.249   9.419  0.7392  1.6497  0.2045
  622TMC3    C1 9209   2.617   1.185   9.460  0.1905 -0.4464 -0.4006
  622TMC3    C2 9210   2.494   1.149   9.510  0.5694  0.1695  0.1403
  622TMC3    C3 9211   2.415   1.090   9.419 -0.3606 -0.5876  0.0225
  622TMC3    C4 9212   2.663   1.155   9.333 -0.1882  0.3789 -0.2556
  622TMC3    C5 9213   2.577   1.096   9.250 -0.6545 -0.5767  0.3615
  622TMC3    C6 9214   2.449   1.067   9.286 -0.2163 -0.3456 -0.3210
  622TMC3     C 9215   2.717   1.200   9.565  0.0199  0.6289  0.3368
  622TMC3     O 9216   2.678   1.217   9.681  0.2694 -0.3666  0.0583
  622TMC3     H 9217   2.477   1.156   9.617  1.5665 -1.1129  0.3826
  622TMC3    H1 9218   2.768   1.161   9.307 -0.4286 -0.6613 -1.4597
  622TMC3    H2 9219   2.388   1.016   9.212  0.2634 -2.2076  0.5593
  622TMC3    C7 9220   2.627   1.070   9.115  0.2675 -0.1279  0.1491
  622TMC3    C8 9221   2.286   1.038   9.459 -0.4461  0.7739 -1.0488
  622TMC3    O1 9222   2.745   1.100   9.095  0.1420 -0.7425 -0.4124
  622TMC3    O2 9223   2.220   0.964   9.381  0.0357  0.0061  0.3771
  623MPD2     C 9224   1.386   1.899  15.752  0.0144 -0.2063  0.2487
  623MPD2    C1 9225   1.346   1.937  15.876 -0.6233  0.0668  1.0741
  623MPD2    C2 9226   1.441   1.984  15.959 -0.7837 -0.0779 -0.1381
  623MPD2    C3 9227   1.574   2.001  15.926  0.3443 -0.1644  0.0407
  623MPD2    C4 9228   1.613   1.968  15.801  0.5200  0.4516  0.2984
  623MPD2    C5 9229   1.516   1.919  15.719  0.2960 -0.7164  0.4774
  623MPD2     H 9230   1.402   2.015  16.055  0.9434 -1.2193  0.9284
  623MPD2    H1 9231   1.713   1.967  15.759  0.2193 -0.4190 -0.3900
  623MPD2    H2 9232   1.316   1.843  15.691 -1.0703  1.1802  0.2055
  623MPD2    H3 9233   1.541   1.883  15.619  0.5130 -1.3030  0.7451
  623MPD2     N 9234   1.665   2.038  16.026 -0.1499 -0.2081  0.6678
  623MPD2    H5 9235   1.627   2.036  16.120 -0.8001 -0.6760  0.3882
  623MPD2    N1 9236   1.214   1.933  15.924 -0.4658  0.6308  1.0281
  623MPD2    H7 9237   1.206   1.974  16.016 -1.3491  2.2473  0.2409
  624TMC3    C1 9238   1.985   2.132  16.311 -0.1802  0.2439 -0.2649
  624TMC3    C2 9239   1.889   2.205  16.386 -0.9225 -0.4375 -0.4964
  624TMC3    C3 9240   1.774   2.253  16.324 -0.8583  0.6739 -0.3036
  624TMC3    C4 9241   1.965   2.115  16.176 -0.2255  0.4035 -0.0853
  624TMC3    C5 9242   1.844   2.140  16.128 -0.3639  0.1917  1.0070
  624TMC3    C6 9243   1.750   2.213  16.198 -0.3026 -0.6111 -0.6828
  624TMC3     C 9244   2.117   2.144  16.371 -0.5467 -0.2769 -0.2055
  624TMC3     O 9245   2.120   2.146  16.490 -0.1243 -0.6610  0.0970
  624TMC3     H 9246   1.911   2.232  16.488 -3.2467 -0.9750  0.1456
  624TMC3    H1 9247   2.035   2.057  16.116  0.8996  1.9257 -0.2350
  624TMC3    H2 9248   1.651   2.233  16.160 -0.3746 -1.7956 -1.1310
  624TMC3    C7 9249   1.797   2.079  16.010  0.2313  0.0058 -0.2633
  624TMC3    C8 9250   1.657   2.241  16.413  0.4071 -0.0720  0.3094
  624TMC3    O1 9251   1.866   2.097  15.910 -0.0089  0.5949 -0.6191
  624TMC3    O2 9252   1.569   2.170  16.365  0.3079 -0.4463 -0.3655
  625MPD2     C 9253   1.764   2.904   0.580 -0.0668 -0.8583 -0.2313
  625MPD2    C1 9254   1.805   3.021   0.649 -0.1795 -0.1504  0.3477
  625MPD2    C2 9255   1.901   3.019   0.748  0.2895 -0.2954  0.3151
  625MPD2    C3 9256   1.960   2.897   0.784  0.8620  0.0541  0.4150
  625MPD2    C4 9257   1.931   2.787   0.710  0.1713  0.0346 -0.7845
  625MPD2    C5 9258   1.829   2.792   0.618 -0.0019 -0.1007  0.2708
  625MPD2     H 9259   1.926   3.106   0.807 -2.0349  2.1295 -2.3033
  625MPD2    H1 9260   1.974   2.691   0.733 -0.7707 -0.5231 -1.3464
  625MPD2    H2 9261   1.687   2.895   0.504  0.6445 -1.0739 -0.9273
  625MPD2    H3 9262   1.805   2.699   0.567  0.7732  1.1974 -2.4736
  625MPD2     N 9263   2.073   2.893   0.876  0.3961  0.0213 -0.0327
  625MPD2    H5 9264   2.100   2.986   0.906  1.6961 -0.0801 -0.8708
  625MPD2    N1 9265   1.752   3.150   0.621 -0.1894  0.3912  0.2000
  625MPD2    H7 9266   1.781   3.220   0.687 -1.1802 -0.4846  1.5564
  626TMC3    C1 9267   1.667   3.319   0.472  0.1704  0.3190 -0.1312
  626TMC3    C2 9268   1.579   3.370   0.381  0.0713 -0.7669  0.4909
  626TMC3    C3 9269   1.597   3.497   0.336  0.5402  0.2948  0.7430
  626TMC3    C4 9270   1.763   3.397   0.536 -0.0663  0.3037  0.7841
  626TMC3    C5 9271   1.781   3.523   0.484 -0.1213  0.1729 -0.9091
  626TMC3    C6 9272   1.707   3.574   0.381 -0.5531 -0.3063 -0.0628
  626TMC3     C 9273   1.680   3.178   0.508 -0.5430 -0.3316 -0.5325
  626TMC3     O 9274   1.637   3.100   0.424 -0.4510 -0.2226  0.0374
  626TMC3     H 9275   1.506   3.305   0.334  0.4619  0.4507 -1.8292
  626TMC3    H1 9276   1.830   3.370   0.617  1.4620  2.3016  0.1870
  626TMC3    H2 9277   1.736   3.670   0.341 -1.6894 -0.1071 -0.4095
  626TMC3    C7 9278   1.913   3.579   0.506 -0.0657 -0.4759  1.0870
  626TMC3    C8 9279   1.509   3.535   0.233 -0.0825 -0.4431 -0.0158
  626TMC3    O1 9280   2.001   3.498   0.506 -0.3819 -0.1332 -0.0469
  626TMC3    O2 9281   1.416   3.459   0.205 -0.5698  0.1774  0.3427
  627MPD2     C 9282   1.734   3.203  13.572 -0.8592 -0.0504  0.9216
  627MPD2    C1 9283   1.617   3.185  13.646  0.3999 -0.7336 -0.2314
  627MPD2    C2 9284   1.507   3.127  13.591  0.0032  0.0550 -0.2835
  627MPD2    C3 9285   1.511   3.086  13.460  0.0132 -0.6519 -0.2680
  627MPD2    C4 9286   1.617   3.125  13.384  0.4712 -0.3635 -0.9670
  627MPD2    C5 9287   1.728   3.179  13.440 -0.6217  0.0267  0.0267
  627MPD2     H 9288   1.427   3.102  13.660 -0.6399 -0.5105 -1.2351
  627MPD2    H1 9289   1.626   3.102  13.278 -0.7919  0.0628 -1.1660
  627MPD2    H2 9290   1.828   3.240  13.613 -0.0514 -0.8370 -0.2315
  627MPD2    H3 9291   1.815   3.198  13.379 -0.5978  0.9046  0.3354
  627MPD2     N 9292   1.392   3.022  13.417 -0.3310 -0.7142 -0.2302
  627MPD2    H5 9293   1.325   3.002  13.491  0.5770  0.6930  0.9691
  627MPD2    N1 9294   1.611   3.208  13.790  0.1715 -0.4977  0.0204
  627MPD2    H7 9295   1.526   3.181  13.837 -0.9484  1.1691 -1.0414
  628TMC3    C1 9296   1.677   3.299  14.001 -0.5166 -0.1352 -0.1549
  628TMC3    C2 9297   1.762   3.274  14.098 -0.1195 -1.0047 -0.2579
  628TMC3    C3 9298   1.728   3.308  14.227  0.6491  0.1763  0.1740
  628TMC3    C4 9299   1.557   3.355  14.022 -0.4423  0.5073  0.5417
  628TMC3    C5 9300   1.523   3.383  14.151 -1.0699  1.0593  0.9725
  628TMC3    C6 9301   1.605   3.353  14.260 -0.0396 -0.0390 -0.0755
  628TMC3     C 9302   1.719   3.257  13.871 -0.3009 -0.5718  0.2803
  628TMC3     O 9303   1.834   3.277  13.838 -0.1302 -0.1916  0.1812
  628TMC3     H 9304   1.864   3.241  14.080 -0.0294 -0.0129 -1.5579
  628TMC3    H1 9305   1.486   3.376  13.944 -2.6042 -0.4435  2.2292
  628TMC3    H2 9306   1.588   3.398  14.357  1.1027 -1.0168  0.5833
  628TMC3    C7 9307   1.397   3.451  14.171 -0.1692  0.3927  0.0148
  628TMC3    C8 9308   1.817   3.267  14.327  0.0347 -0.3211  0.5973
  628TMC3    O1 9309   1.332   3.494  14.078 -0.0907  0.4673  0.3259
  628TMC3    O2 9310   1.933   3.260  14.294  0.0664 -0.0669  0.0498
  629MPD2     C 9311   4.162   2.169  16.936 -0.0293  1.0080 -0.4191
  629MPD2    C1 9312   4.064   2.260  16.894  0.4365 -0.2197 -0.0444
  629MPD2    C2 9313   3.927   2.222  16.892  0.0379 -0.0710  0.0854
  629MPD2    C3 9314   3.893   2.097  16.935  0.4614  0.1219  0.1896
  629MPD2    C4 9315   3.997   2.003  16.965 -0.0144  0.4021  0.0648
  629MPD2    C5 9316   4.124   2.040  16.971 -0.4267 -0.1751  0.0537
  629MPD2     H 9317   3.856   2.301  16.870  0.7774  0.5258 -0.1693
  629MPD2    H1 9318   3.974   1.901  16.995 -0.6793  0.9385  1.3532
  629MPD2    H2 9319   4.267   2.191  16.954 -0.0698 -1.9911  3.4264
  629MPD2    H3 9320   4.198   1.966  17.002 -1.2063  0.5686  3.5966
  629MPD2     N 9321   3.756   2.053  16.934  0.0293  0.0383 -0.5124
  629MPD2    H5 9322   3.735   1.954  16.945  0.3903  0.1279  0.9078
  629MPD2    N1 9323   4.119   2.381  16.851  0.6054  0.3407  0.3805
  629MPD2    H7 9324   4.217   2.396  16.874 -0.0747  1.1626  2.7037
  630TMC3    C1 9325   4.121   2.602  16.833  0.0644  0.6434 -0.1760
  630TMC3    C2 9326   4.115   2.698  16.735  0.6212  0.0950  0.7617
  630TMC3    C3 9327   4.167   2.815  16.775  0.7917 -0.5332  1.0634
  630TMC3    C4 9328   4.144   2.625  16.968  0.5315  0.1106 -0.2035
  630TMC3    C5 9329   4.188   2.746  16.999  0.4391  0.3333  0.2749
  630TMC3    C6 9330   4.194   2.848  16.910  0.2269 -0.1639  1.0354
  630TMC3     C 9331   4.046   2.480  16.807 -0.0736  0.1506 -0.3300
  630TMC3     O 9332   3.948   2.475  16.732 -0.0475  0.7426  0.3655
  630TMC3     H 9333   4.086   2.676  16.633 -3.6033  0.9777  1.8112
  630TMC3    H1 9334   4.148   2.544  17.040  0.8113  1.5306  1.4029
  630TMC3    H2 9335   4.227   2.944  16.947 -1.5080  2.0112 -3.0102
  630TMC3    C7 9336   4.263   2.749  17.119  0.3389 -0.4588 -0.1107
  630TMC3    C8 9337   4.241   2.896  16.685 -0.3723  0.5274  1.2458
  630TMC3    O1 9338   4.201   2.717  17.220 -0.1923 -0.3951 -0.0344
  630TMC3    O2 9339   4.255   3.010  16.725 -0.2670 -0.7553 -0.3619
  631MPD2     C 9340   2.419   1.905  15.505  0.1828 -0.0772  0.0237
  631MPD2    C1 9341   2.509   1.959  15.419 -0.2021 -0.2399  0.3342
  631MPD2    C2 9342   2.645   1.933  15.446 -1.4698  0.5125  0.1880
  631MPD2    C3 9343   2.685   1.872  15.565 -0.0811  0.1589 -1.3364
  631MPD2    C4 9344   2.594   1.832  15.657 -0.0073  0.4215  0.0987
  631MPD2    C5 9345   2.460   1.841  15.621 -0.2983 -0.5078  0.1593
  631MPD2     H 9346   2.727   1.977  15.390 -0.6881  0.0239  0.9331
  631MPD2    H1 9347   2.619   1.799  15.758 -0.4261  0.9027  0.3600
  631MPD2    H2 9348   2.315   1.925  15.484  0.7192 -0.8535 -3.3660
  631MPD2    H3 9349   2.379   1.816  15.690 -1.7505  0.4806 -1.1881
  631MPD2     N 9350   2.823   1.873  15.588 -0.3308  0.4300  1.1268
  631MPD2    H5 9351   2.884   1.909  15.515 -0.1461 -1.6185  0.2762
  631MPD2    N1 9352   2.454   2.039  15.313  0.1487 -0.0986 -0.0928
  631MPD2    H7 9353   2.357   2.066  15.308  0.4525  1.2451  1.3635
  632TMC3    C1 9354   2.463   2.202  15.145 -0.1570  0.3244 -0.1661
  632TMC3    C2 9355   2.350   2.269  15.183  0.0508  0.2647  0.0657
  632TMC3    C3 9356   2.309   2.365  15.096  0.3208  0.3487  0.0789
  632TMC3    C4 9357   2.538   2.239  15.031  0.3091  0.3155  0.1423
  632TMC3    C5 9358   2.493   2.349  14.959  0.4220 -0.3738 -0.3772
  632TMC3    C6 9359   2.371   2.408  14.980  0.7981  0.3324  0.3325
  632TMC3     C 9360   2.530   2.109  15.225  0.0882 -0.1529  0.3877
  632TMC3     O 9361   2.637   2.066  15.187 -0.2167  0.2609  0.3951
  632TMC3     H 9362   2.296   2.244  15.274 -0.2535 -0.9637 -0.4575
  632TMC3    H1 9363   2.621   2.179  14.996  0.8842 -0.7759  3.3607
  632TMC3    H2 9364   2.347   2.500  14.928 -0.3402 -0.0878  0.1146
  632TMC3    C7 9365   2.536   2.357  14.821  0.4738 -0.2383 -0.1631
  632TMC3    C8 9366   2.191   2.436  15.144  0.5584 -0.3829 -0.1252
  632TMC3    O1 9367   2.471   2.425  14.751 -0.0259  0.1045  0.0794
  632TMC3    O2 9368   2.160   2.421  15.261 -0.3844 -0.4564 -0.1337
  633MPD2     C 9369   1.836   0.362  17.311 -0.3026 -0.3391 -0.2849
  633MPD2    C1 9370   1.895   0.404  17.193 -0.1952  0.2982 -0.2610
  633MPD2    C2 9371   2.033   0.418  17.191 -0.2259 -0.2764  0.0899
  633MPD2    C3 9372   2.105   0.401  17.302 -0.5914 -0.5666  0.4794
  633MPD2    C4 9373   2.048   0.358  17.417 -0.4207 -0.0071  0.7484
  633MPD2    C5 9374   1.917   0.334  17.422  0.8962 -0.2543 -0.2142
  633MPD2     H 9375   2.074   0.446  17.095  0.9771  2.7258  1.4578
  633MPD2    H1 9376   2.100   0.334  17.508  2.0322  3.4505  0.2498
  633MPD2    H2 9377   1.729   0.347  17.324 -0.5493  1.3879 -0.2227
  633MPD2    H3 9378   1.868   0.289  17.508 -0.8744  0.0219 -1.0659
  633MPD2     N 9379   2.247   0.420  17.304 -0.4383 -0.3059  0.6743
  633MPD2    H5 9380   2.302   0.394  17.386 -0.7740  0.7378  1.2268
  633MPD2    N1 9381   1.822   0.419  17.074 -0.3468  0.0881  0.2126
  633MPD2    H7 9382   1.875   0.431  16.988  0.3423  0.2782  0.6657
  634TMC3    C1 9383   1.636   0.443  16.931 -0.4775  0.8149  0.1548
  634TMC3    C2 9384   1.685   0.338  16.859 -0.7327  0.4799  0.0316
  634TMC3    C3 9385   1.689   0.342  16.721 -0.7295  0.5252  0.0997
  634TMC3    C4 9386   1.609   0.560  16.869  0.2678  0.0080  0.2731
  634TMC3    C5 9387   1.618   0.563  16.732  0.2011 -0.9887  0.4698
  634TMC3    C6 9388   1.648   0.453  16.652 -0.4033 -0.1016  0.4993
  634TMC3     C 9389   1.686   0.442  17.064 -0.1201 -0.0586 -0.5107
  634TMC3     O 9390   1.616   0.487  17.154 -0.0879 -0.5634 -0.3482
  634TMC3     H 9391   1.713   0.248  16.913  2.6584  0.2834 -2.0595
  634TMC3    H1 9392   1.589   0.647  16.931 -1.7156 -0.6051  0.5101
  634TMC3    H2 9393   1.648   0.471  16.545  1.5045 -0.9411  0.3684
  634TMC3    C7 9394   1.577   0.680  16.655  0.2402  0.3995 -0.8501
  634TMC3    C8 9395   1.760   0.233  16.653 -0.1561 -0.1583  0.2365
  634TMC3    O1 9396   1.596   0.688  16.532 -0.4072  0.2868 -0.2607
  634TMC3    O2 9397   1.835   0.168  16.720  0.0446 -0.3608  0.6293
  635TMC3    C1 9398   2.038   1.313  17.363  1.2341 -0.3182 -0.2321
  635TMC3    C2 9399   2.095   1.243  17.265 -0.3707 -0.2815  0.0630
  635TMC3    C3 9400   2.058   1.108  17.270 -0.7679  0.0684 -0.6418
  635TMC3    C4 9401   1.957   1.273  17.461 -0.3760  0.2022 -0.3461
  635TMC3    C5 9402   1.923   1.139  17.457 -0.3626  0.9993 -0.1009
  635TMC3    C6 9403   1.973   1.055  17.365 -0.6091  0.2376  0.5895
  635TMC3     C 9404   2.076   1.452  17.369  0.3505 -0.4742 -0.1952
  635TMC3     O 9405   2.001   1.519  17.440  0.3127  0.0323 -0.1332
  635TMC3     H 9406   2.136   1.287  17.174 -1.8223  2.1960  0.6048
  635TMC3    H1 9407   1.919   1.343  17.534  2.3236  0.2243  1.0350
  635TMC3    H2 9408   1.947   0.949  17.362 -0.7802  0.2327  2.0575
  635TMC3    C7 9409   1.836   1.099  17.571 -0.7648 -0.5739 -0.3199
  635TMC3    C8 9410   2.130   1.013  17.187 -0.7856  0.4744 -0.2772
  635TMC3    O1 9411   1.792   1.180  17.650  0.8555  0.4943 -0.1086
  635TMC3    O2 9412   2.147   0.903  17.239  0.2698  0.2571  0.0379
  636MPD2     C 9413   2.774   0.708  15.448  0.1429 -0.5515  0.2728
  636MPD2    C1 9414   2.863   0.770  15.537  0.2235  0.0109  0.4417
  636MPD2    C2 9415   2.990   0.720  15.556  0.0149 -0.4189 -0.0001
  636MPD2    C3 9416   3.017   0.592  15.497 -1.0538  0.7666  0.0886
  636MPD2    C4 9417   2.929   0.536  15.410 -0.0115 -0.0729  0.6926
  636MPD2    C5 9418   2.810   0.591  15.391 -0.3395  0.8575 -1.0870
  636MPD2     H 9419   3.057   0.765  15.628  1.4868  1.0667 -2.2881
  636MPD2    H1 9420   2.950   0.443  15.358 -0.6806  1.1919 -1.8250
  636MPD2    H2 9421   2.678   0.752  15.423  0.3125 -0.4101 -0.1316
  636MPD2    H3 9422   2.744   0.530  15.330  1.2501  0.2062 -2.1632
  636MPD2     N 9423   3.137   0.526  15.535 -0.0200 -1.0399 -0.9639
  636MPD2    H5 9424   3.182   0.575  15.612 -1.1929 -0.8990 -0.3653
  636MPD2    N1 9425   2.835   0.891  15.608 -0.1950  0.0857 -0.1334
  636MPD2    H7 9426   2.908   0.927  15.668  1.7145 -0.1206 -2.3483
  637TMC3    C1 9427   3.317   0.388  15.553  0.4091  0.4577  0.3313
  637TMC3    C2 9428   3.310   0.442  15.677  0.0046  0.1353 -0.4741
  637TMC3    C3 9429   3.413   0.516  15.720  0.1937  0.0167 -0.0886
  637TMC3    C4 9430   3.419   0.416  15.473 -0.4664 -0.4952  0.4854
  637TMC3    C5 9431   3.523   0.497  15.512  0.6755  0.1299  0.6368
  637TMC3    C6 9432   3.522   0.541  15.644  0.2142 -0.2034  0.8677
  637TMC3     C 9433   3.203   0.415  15.476  0.1561  0.8299 -0.0417
  637TMC3     O 9434   3.178   0.348  15.377 -0.0527 -0.4272 -0.2646
  637TMC3     H 9435   3.225   0.412  15.738 -0.2656 -2.1988 -1.9924
  637TMC3    H1 9436   3.408   0.380  15.371 -2.5673 -3.5183  1.7685
  637TMC3    H2 9437   3.603   0.603  15.680 -0.4933  0.4324  1.3502
  637TMC3    C7 9438   3.557   0.604  15.422 -0.2127  0.5655 -0.2716
  637TMC3    C8 9439   3.360   0.640  15.783 -0.4866  0.1130 -0.3658
  637TMC3    O1 9440   3.477   0.623  15.334 -0.3885 -0.0827 -0.3432
  637TMC3    O2 9441   3.243   0.671  15.769 -0.5561 -0.3889  0.2553
  638MPD2     C 9442   3.038   4.201  14.916 -0.7076  0.4850  0.3073
  638MPD2    C1 9443   3.012   4.112  14.805  0.1226  0.7010  0.6078
  638MPD2    C2 9444   2.954   3.984  14.823  0.3662  0.4791  0.1858
  638MPD2    C3 9445   2.913   3.946  14.949 -0.1077  0.1365 -0.2887
  638MPD2    C4 9446   2.931   4.033  15.057  0.1690  0.6839 -0.4212
  638MPD2    C5 9447   2.995   4.157  15.040 -0.3839  0.3871  0.2553
  638MPD2     H 9448   2.938   3.916  14.740  2.5569  0.4694 -0.2391
  638MPD2    H1 9449   2.894   4.011  15.157 -0.7176  0.2274 -0.8471
  638MPD2    H2 9450   3.096   4.292  14.908  1.2831 -0.7704  0.5621
  638MPD2    H3 9451   3.013   4.221  15.126  0.3625  1.1466 -0.4633
  638MPD2     N 9452   2.853   3.820  14.962 -0.9897  0.5684  1.2716
  638MPD2    H5 9453   2.851   3.762  14.878  4.4547  2.1283  0.0857
  638MPD2    N1 9454   3.071   4.148  14.683 -0.2771 -0.1982  0.2916
  638MPD2    H7 9455   3.141   4.221  14.690  0.1293 -0.6056  0.4551
  639TMC3    C1 9456   2.788   3.606  15.039 -0.0460  0.8479 -0.0925
  639TMC3    C2 9457   2.760   3.575  14.912  0.1203 -0.1432 -0.7607
  639TMC3    C3 9458   2.802   3.451  14.876  0.7809  0.1282 -0.8867
  639TMC3    C4 9459   2.844   3.515  15.127 -0.1298  0.5568  0.0037
  639TMC3    C5 9460   2.893   3.394  15.080  0.1442  0.1183  0.6010
  639TMC3    C6 9461   2.867   3.357  14.957 -0.7189  0.2532 -0.4207
  639TMC3     C 9462   2.818   3.747  15.074 -0.1990 -0.1283  0.0594
  639TMC3     O 9463   2.862   3.779  15.182  0.4543 -0.0768  0.0140
  639TMC3     H 9464   2.699   3.636  14.846 -0.2961 -0.3079 -0.5283
  639TMC3    H1 9465   2.876   3.551  15.224  0.2778  2.3861 -0.8078
  639TMC3    H2 9466   2.900   3.261  14.919  2.0866  1.2867 -0.6143
  639TMC3    C7 9467   2.986   3.322  15.164 -0.2081  0.7170 -0.0910
  639TMC3    C8 9468   2.777   3.408  14.737 -0.3781  0.1966  0.1130
  639TMC3    O1 9469   2.990   3.354  15.281  0.0658 -0.3476  0.4566
  639TMC3    O2 9470   2.873   3.350  14.681  0.5768 -0.0586 -0.1250
  640MPD2     C 9471   3.536   2.698   9.276  0.8782 -0.1940  0.4872
  640MPD2    C1 9472   3.559   2.836   9.275  0.3440 -0.0530  0.8714
  640MPD2    C2 9473   3.473   2.912   9.354  0.8753 -0.3613 -0.2742
  640MPD2    C3 9474   3.370   2.857   9.428 -0.3376  0.3536  0.1775
  640MPD2    C4 9475   3.354   2.719   9.420 -0.2224  0.5941 -0.2460
  640MPD2    C5 9476   3.438   2.640   9.345 -0.1908 -0.1423 -0.2206
  640MPD2     H 9477   3.482   3.019   9.365  0.1109 -0.5213  2.0100
  640MPD2    H1 9478   3.264   2.673   9.461 -2.3840  3.2048 -2.0587
  640MPD2    H2 9479   3.603   2.628   9.227  0.3929 -1.1053  1.1149
  640MPD2    H3 9480   3.434   2.531   9.343 -0.6324 -0.1598  2.0761
  640MPD2     N 9481   3.274   2.935   9.498 -0.0663 -0.8970 -0.3124
  640MPD2    H5 9482   3.201   2.885   9.546  0.1087 -0.7368  0.1279
  640MPD2    N1 9483   3.662   2.884   9.197  0.8485 -0.1358 -0.2442
  640MPD2    H7 9484   3.690   2.828   9.117 -1.6987  0.2362 -1.3925
  641TMC3    C1 9485   3.844   3.026   9.136  0.3391 -0.2758 -0.6032
  641TMC3    C2 9486   3.918   2.917   9.097 -0.9174  0.1278 -0.6747
  641TMC3    C3 9487   4.032   2.940   9.030 -1.0524  0.6670  0.7349
  641TMC3    C4 9488   3.889   3.157   9.119 -0.0650  0.1645 -0.0221
  641TMC3    C5 9489   4.004   3.170   9.041 -0.3631  0.3451 -0.1807
  641TMC3    C6 9490   4.078   3.064   8.999  0.0136  0.9940 -0.1220
  641TMC3     C 9491   3.722   3.001   9.213  0.3211 -0.0461  0.6992
  641TMC3     O 9492   3.704   3.087   9.301  0.6734  0.3149 -0.0393
  641TMC3     H 9493   3.901   2.827   9.156 -0.5129 -0.3274 -1.2499
  641TMC3    H1 9494   3.837   3.245   9.155  0.6895  0.2219  0.9259
  641TMC3    H2 9495   4.171   3.080   8.947 -0.5623  0.8244 -1.2028
  641TMC3    C7 9496   4.068   3.297   9.044 -0.3526  0.1996 -0.4278
  641TMC3    C8 9497   4.123   2.830   9.006 -0.7090  0.1747 -0.2670
  641TMC3    O1 9498   4.191   3.293   9.041 -0.3218  0.1981 -0.0767
  641TMC3    O2 9499   4.243   2.861   8.982 -0.3704  0.5971 -0.1736
  642TMC3    C1 9500   4.619   4.077  11.822 -0.1152  0.0060 -0.7471
  642TMC3    C2 9501   0.002   4.053  11.910 -0.6427 -0.0758  0.5333
  642TMC3    C3 9502   0.041   3.925  11.946  0.0879  0.0317  0.5204
  642TMC3    C4 9503   4.537   3.971  11.786 -0.5114 -0.2427  0.1270
  642TMC3    C5 9504   4.584   3.845  11.818  0.4367 -0.2732 -0.1592
  642TMC3    C6 9505   4.701   3.813  11.889  0.5344  0.1195 -0.6140
  642TMC3     C 9506   4.569   4.214  11.836  0.2186  0.3131  0.3636
  642TMC3     O 9507   4.650   4.304  11.818  0.5215 -0.2344 -0.6651
  642TMC3     H 9508   0.072   4.133  11.932  0.6155 -0.8496 -0.7074
  642TMC3    H1 9509   4.438   3.982  11.745 -0.8227 -1.5965  0.5237
  642TMC3    H2 9510   0.002   3.716  11.932 -0.2868  0.7686  1.3471
  642TMC3    C7 9511   4.490   3.739  11.795 -0.3074 -0.4609 -0.7067
  642TMC3    C8 9512   0.131   3.910  12.063 -0.4763  0.3959 -0.3913
  642TMC3    O1 9513   4.438   3.737  11.683 -0.0227 -0.2320  0.8753
  642TMC3    O2 9514   0.162   3.794  12.080 -0.1377  0.3317  0.7395
  643TMC3    C1 9515   3.495   3.210   0.319  0.7132  0.1584  0.7216
  643TMC3    C2 9516   3.442   3.278   0.211  0.5258  0.4332  1.1160
  643TMC3    C3 9517   3.413   3.206   0.101 -0.3537  0.0091 -0.4025
  643TMC3    C4 9518   3.523   3.074   0.318  0.9870  0.0241 -0.8480
  643TMC3    C5 9519   3.476   3.009   0.207 -0.0907 -0.8905 -0.4009
  643TMC3    C6 9520   3.401   3.070   0.111 -0.6359 -0.1753 -0.3985
  643TMC3     C 9521   3.505   3.278   0.447  0.1701 -0.6976 -0.0378
  643TMC3     O 9522   3.432   3.378   0.467 -0.1225 -0.7436 -0.6091
  643TMC3     H 9523   3.422   3.385   0.221  2.8830  0.7615  2.2852
  643TMC3    H1 9524   3.571   3.028   0.403  0.4139  0.4438 -0.2986
  643TMC3    H2 9525   3.368   3.011   0.026 -0.4351 -0.2769 -0.4082
  643TMC3    C7 9526   3.477   2.864   0.218  0.3589 -0.3101  0.4925
  643TMC3    C8 9527   3.399   3.264  17.663 -0.5059 -0.0151  0.2495
  643TMC3    O1 9528   3.425   2.814   0.317 -0.1644  0.1721  0.2816
  643TMC3    O2 9529   3.351   3.191  17.579  0.3402  0.2220 -0.3746
  644MPD2     C 9530   3.593   3.892   9.168  0.0553 -0.1683 -0.3867
  644MPD2    C1 9531   3.581   3.758   9.210  0.3083  0.4078  0.3247
  644MPD2    C2 9532   3.460   3.691   9.175 -0.8192  0.9519 -0.2940
  644MPD2    C3 9533   3.355   3.763   9.123 -0.7111  0.7299 -0.5096
  644MPD2    C4 9534   3.377   3.894   9.095 -0.4887  0.6844  0.5180
  644MPD2    C5 9535   3.492   3.957   9.107 -0.1333  0.7761  0.0392
  644MPD2     H 9536   3.427   3.589   9.194 -0.7965  1.2084  1.0686
  644MPD2    H1 9537   3.290   3.950   9.062 -0.6542 -0.4094 -0.8973
  644MPD2    H2 9538   3.684   3.943   9.198  0.5391 -0.0897 -1.9848
  644MPD2    H3 9539   3.504   4.064   9.093  0.9992  0.4356 -1.5127
  644MPD2     N 9540   3.230   3.693   9.121 -0.2282  0.0165  0.2630
  644MPD2    H5 9541   3.227   3.596   9.151  2.1366 -0.4158 -0.9140
  644MPD2    N1 9542   3.696   3.697   9.266 -0.2779  0.7434  0.2829
  644MPD2    H7 9543   3.777   3.754   9.287 -0.7026  0.2097  3.3998
  645TMC3    C1 9544   2.993   3.661   9.086  0.4227  0.5923  0.5795
  645TMC3    C2 9545   2.880   3.690   9.163  0.5048  0.0558  0.2461
  645TMC3    C3 9546   2.792   3.587   9.184  0.1626  0.1957 -0.1688
  645TMC3    C4 9547   3.023   3.537   9.032  0.3598 -0.0022  0.3869
  645TMC3    C5 9548   2.930   3.443   9.058  0.0761 -0.4011  0.3593
  645TMC3    C6 9549   2.814   3.467   9.124 -0.7100  0.0698 -1.0813
  645TMC3     C 9550   3.105   3.755   9.111 -0.8043  0.3107  0.2176
  645TMC3     O 9551   3.077   3.872   9.112 -0.2647 -0.1441  0.3352
  645TMC3     H 9552   2.876   3.787   9.211  0.1148  1.2374 -2.1987
  645TMC3    H1 9553   3.107   3.522   8.965 -0.6497 -1.1240 -0.6170
  645TMC3    H2 9554   2.741   3.388   9.133  0.6504 -0.7911  2.4543
  645TMC3    C7 9555   2.953   3.320   8.996 -0.1319 -0.2188 -0.2120
  645TMC3    C8 9556   2.683   3.617   9.276  0.1977 -1.3078  0.0327
  645TMC3    O1 9557   3.062   3.298   8.950  0.3901 -0.4314  0.8549
  645TMC3    O2 9558   2.672   3.725   9.324 -0.3239  0.1322  0.1709
  646MPD2     C 9559   3.427   2.827  14.230  0.1348  0.1954 -0.6390
  646MPD2    C1 9560   3.324   2.803  14.323  0.3869  0.5327  0.1691
  646MPD2    C2 9561   3.199   2.869  14.290 -0.5789  0.2430 -0.6151
  646MPD2    C3 9562   3.188   2.948  14.175 -0.0496  0.1402 -0.0165
  646MPD2    C4 9563   3.293   2.962  14.094 -0.1597 -0.5241 -0.6157
  646MPD2    C5 9564   3.411   2.906  14.119 -0.2383  0.0939  0.5004
  646MPD2     H 9565   3.115   2.861  14.357 -0.2857 -2.2238 -0.5289
  646MPD2    H1 9566   3.297   3.020  14.003 -0.4762  0.2906 -0.1142
  646MPD2    H2 9567   3.522   2.782  14.256 -0.0519  1.0383  1.5214
  646MPD2    H3 9568   3.490   2.911  14.044 -1.7808  1.5231 -1.0359
  646MPD2     N 9569   3.056   3.000  14.134  0.1936 -0.2908 -0.4646
  646MPD2    H5 9570   2.973   2.999  14.192 -0.6889 -2.5312 -1.7815
  646MPD2    N1 9571   3.355   2.729  14.437 -0.8375  0.1892  0.3507
  646MPD2    H7 9572   3.448   2.688  14.433 -1.3727 -1.1186  1.1659
  647TMC3    C1 9573   3.336   2.652  14.658  0.3613  0.1393  0.5496
  647TMC3    C2 9574   3.255   2.597  14.755 -0.1651 -0.6159  0.3947
  647TMC3    C3 9575   3.323   2.545  14.859  0.1899 -0.2959 -0.4387
  647TMC3    C4 9576   3.474   2.666  14.664  0.2583 -0.2666 -0.1850
  647TMC3    C5 9577   3.532   2.615  14.776  0.5297  0.0459  0.5774
  647TMC3    C6 9578   3.457   2.547  14.870  0.0746  0.4203  0.4044
  647TMC3     C 9579   3.265   2.704  14.540  0.4110 -0.1992 -0.4711
  647TMC3     O 9580   3.148   2.745  14.549 -0.1770  0.0472  0.1422
  647TMC3     H 9581   3.151   2.569  14.738 -0.1583  0.8959 -2.0713
  647TMC3    H1 9582   3.523   2.747  14.611 -0.0664  0.6756  0.9513
  647TMC3    H2 9583   3.502   2.512  14.962  0.5482  1.6566  0.6420
  647TMC3    C7 9584   3.672   2.567  14.772 -0.3869  0.0310 -0.4205
  647TMC3    C8 9585   3.270   2.432  14.935  0.4665  1.3390 -0.8842
  647TMC3    O1 9586   3.724   2.545  14.884 -0.1837  0.0571 -0.1742
  647TMC3    O2 9587   3.357   2.344  14.946 -0.4811  0.1801 -0.6051
  648TMC3    C1 9588   2.039   0.372  15.990 -0.5489 -0.7784 -0.1337
  648TMC3    C2 9589   2.025   0.239  15.948  0.3670  0.1941  0.2445
  648TMC3    C3 9590   2.019   0.223  15.808 -0.7974 -0.4316 -0.3283
  648TMC3    C4 9591   2.041   0.475  15.897 -0.2448 -0.2370  0.3690
  648TMC3    C5 9592   2.023   0.448  15.766 -1.0276  0.5688  0.2340
  648TMC3    C6 9593   2.008   0.322  15.723  0.4725  0.0329 -0.2777
  648TMC3     C 9594   2.053   0.416  16.132  0.2594 -0.0407  0.5584
  648TMC3     O 9595   2.042   0.537  16.147  0.5242 -0.3932 -0.2384
  648TMC3     H 9596   2.028   0.160  16.022 -0.5167  0.6076  0.7145
  648TMC3    H1 9597   2.066   0.578  15.922  0.9390 -0.4136 -0.1375
  648TMC3    H2 9598   1.985   0.300  15.619  0.1201  1.3620 -0.4848
  648TMC3    C7 9599   1.992   0.550  15.674 -0.2110 -0.1908  0.2140
  648TMC3    C8 9600   1.984   0.090  15.751  0.5995 -0.2287 -0.2251
  648TMC3    O1 9601   2.046   0.535  15.563  0.7558  0.7036 -0.3287
  648TMC3    O2 9602   1.867   0.060  15.728 -0.2393  0.3791  0.5440
  649TMC3    C1 9603   0.866   1.489  12.617 -0.5559 -0.3860  0.7487
  649TMC3    C2 9604   0.938   1.581  12.688 -0.4784 -0.3830 -0.4808
  649TMC3    C3 9605   1.062   1.543  12.739 -0.2644  0.2705  0.5313
  649TMC3    C4 9606   0.902   1.356  12.612  0.1619  0.4987 -0.9574
  649TMC3    C5 9607   1.006   1.318  12.697  0.0294 -0.4224  0.1766
  649TMC3    C6 9608   1.089   1.413  12.755  0.1307 -0.1431 -0.0126
  649TMC3     C 9609   0.768   1.533  12.520  0.3090 -0.4785  0.0258
  649TMC3     O 9610   0.684   1.618  12.554  0.0804  0.8123 -0.1875
  649TMC3     H 9611   0.916   1.687  12.674 -0.4044 -0.3966 -0.7027
  649TMC3    H1 9612   0.840   1.285  12.558  0.5898  0.5437 -1.5105
  649TMC3    H2 9613   1.171   1.389  12.822  1.3882 -3.9296 -2.9152
  649TMC3    C7 9614   0.977   1.190  12.759 -0.2665  0.7864 -0.5823
  649TMC3    C8 9615   1.169   1.617  12.668  0.7332 -0.2687  0.7740
  649TMC3    O1 9616   0.857   1.170  12.767  0.6710 -0.5139  0.0266
  649TMC3    O2 9617   1.140   1.639  12.549  0.1643  0.1920  0.2650
  650TMC3    C1 9618   3.929   3.123  12.409  0.3496  0.3088 -0.1396
  650TMC3    C2 9619   3.984   3.231  12.337  0.4842 -0.3710  0.3317
  650TMC3    C3 9620   3.907   3.284  12.231 -0.4768  0.3842  0.1971
  650TMC3    C4 9621   3.815   3.060  12.367 -0.2522 -0.0757 -0.0149
  650TMC3    C5 9622   3.754   3.109  12.253 -0.9743  0.6391 -0.1808
  650TMC3    C6 9623   3.790   3.223  12.189  0.0648 -0.1964  0.4702
  650TMC3     C 9624   3.963   3.124  12.547  0.3110 -0.5846 -0.8038
  650TMC3     O 9625   4.005   3.226  12.598 -0.3236 -0.3237  0.6427
  650TMC3     H 9626   4.064   3.290  12.380  1.2250 -1.7497  0.8667
  650TMC3    H1 9627   3.769   2.985  12.431 -1.0980  0.0190 -0.5263
  650TMC3    H2 9628   3.768   3.227  12.082 -0.5706  1.5118  0.6605
  650TMC3    C7 9629   3.627   3.047  12.208  0.5297 -0.5417  0.2910
  650TMC3    C8 9630   3.873   3.427  12.245  0.0144 -0.0579 -0.0020
  650TMC3    O1 9631   3.617   2.933  12.233 -0.3758 -0.2839 -0.3048
  650TMC3    O2 9632   3.942   3.484  12.324 -0.1891 -0.2018  0.4010
  651MPD2     C 9633   2.469   0.055  10.602  0.4520  0.3825 -0.0213
  651MPD2    C1 9634   2.448   0.174  10.542 -1.0196 -0.1243  0.7746
  651MPD2    C2 9635   2.560   0.251  10.515 -1.0949 -0.1835  0.2021
  651MPD2    C3 9636   2.689   0.209  10.538  0.1391 -0.0977  0.3319
  651MPD2    C4 9637   2.714   0.083  10.593 -0.4535  0.1150  0.3617
  651MPD2    C5 9638   2.596   0.015  10.633 -0.0931  0.1764  0.1517
  651MPD2     H 9639   2.546   0.352  10.477  0.5403 -0.3625 -0.8931
  651MPD2    H1 9640   2.813   0.040  10.598 -0.1393  0.4926 -2.5307
  651MPD2    H2 9641   2.391   4.714  10.642  1.3992 -1.3514 -0.9681
  651MPD2    H3 9642   2.607   4.646  10.688 -1.1218 -0.6029 -0.9524
  651MPD2     N 9643   2.793   0.295  10.501  0.1355  0.6974  0.8389
  651MPD2    H5 9644   2.769   0.376  10.445 -0.2360 -1.2352 -1.8044
  651MPD2    N1 9645   2.320   0.224  10.521 -0.0122 -1.0367  0.2751
  651MPD2    H7 9646   2.318   0.325  10.514 -0.7559 -1.1637 -1.4810
  652TMC3    C1 9647   3.245   0.426  10.430  0.3444 -0.1416  0.7606
  652TMC3    C2 9648   3.153   0.340  10.488  0.4868 -0.1468 -0.2348
  652TMC3    C3 9649   3.022   0.370  10.471 -0.3690 -0.9020  0.7856
  652TMC3    C4 9650   3.204   0.551  10.389 -0.4273 -0.2129 -0.9465
  652TMC3    C5 9651   3.070   0.575  10.385 -0.4481  0.1036  0.0099
  652TMC3    C6 9652   2.976   0.481  10.398  0.1513  0.2878  0.0703
  652TMC3     C 9653   3.385   0.395  10.441 -0.3186 -0.1423 -0.5499
  652TMC3     O 9654   3.418   0.325  10.539 -0.0555  0.7192  0.1330
  652TMC3     H 9655   3.183   0.248  10.537  0.0891 -0.0167  0.2545
  652TMC3    H1 9656   3.279   0.621  10.354 -0.8702 -0.3098 -2.0882
  652TMC3    H2 9657   2.871   0.510  10.399  0.1692  0.3205  1.1768
  652TMC3    C7 9658   3.036   0.702  10.453 -0.0109 -0.8814 -0.2208
  652TMC3    C8 9659   2.925   0.272  10.532 -0.3059 -0.2237  0.2975
  652TMC3    O1 9660   2.942   0.690  10.531  0.7051  0.2211  0.6864
  652TMC3    O2 9661   2.969   0.193  10.618 -0.2071  0.1607 -0.2041
  653MPD2     C 9662   1.151   0.415  17.601  0.0951 -0.1510  0.4898
  653MPD2    C1 9663   1.146   0.522  17.515  0.5539  0.4789 -0.5603
  653MPD2    C2 9664   1.116   0.509  17.378  0.2774  0.1975  0.7008
  653MPD2    C3 9665   1.103   0.376  17.321  0.9034 -0.7139  0.3048
  653MPD2    C4 9666   1.114   0.267  17.412 -0.1190 -0.3266  0.1420
  653MPD2    C5 9667   1.141   0.290  17.545 -0.2688 -0.4515  0.1346
  653MPD2     H 9668   1.105   0.598  17.318  1.0672 -0.4920 -0.4564
  653MPD2    H1 9669   1.127   0.162  17.391 -1.3634 -0.3740 -0.4020
  653MPD2    H2 9670   1.168   0.416   0.012 -0.0007 -1.7498  0.5260
  653MPD2    H3 9671   1.145   0.209  17.616 -0.4202 -0.3991  0.2024
  653MPD2     N 9672   1.095   0.360  17.177 -0.3409 -0.1081  0.2256
  653MPD2    H5 9673   1.072   0.436  17.114  0.7437 -1.2393 -1.5255
  653MPD2    N1 9674   1.177   0.655  17.559 -0.0081  0.1463  0.3052
  653MPD2    H7 9675   1.187   0.731  17.493 -4.5202 -0.3132 -0.9039
  654TMC3    C1 9676   1.081   0.221  16.970 -0.2601 -0.2953  0.5788
  654TMC3    C2 9677   0.977   0.292  16.920  0.1053 -0.4305 -0.2246
  654TMC3    C3 9678   0.932   0.262  16.793  0.6615 -0.3586 -0.0228
  654TMC3    C4 9679   1.124   0.108  16.904 -0.2122 -0.1235 -0.4271
  654TMC3    C5 9680   1.071   0.068  16.786 -0.1129  0.3168 -0.6264
  654TMC3    C6 9681   0.972   0.146  16.732 -0.8524  0.4032 -0.2785
  654TMC3     C 9682   1.106   0.234  17.115  0.6093  0.1591  0.6677
  654TMC3     O 9683   1.148   0.133  17.173 -0.0775 -0.1210 -0.5955
  654TMC3     H 9684   0.957   0.390  16.963  0.5658 -0.5860  0.3538
  654TMC3    H1 9685   1.193   0.046  16.959  1.1909  0.1937 -1.8347
  654TMC3    H2 9686   0.931   0.132  16.633 -0.9597 -0.7255 -0.0680
  654TMC3    C7 9687   1.137   4.693  16.705  0.4136 -0.7717  0.4488
  654TMC3    C8 9688   0.797   0.319  16.770 -0.1558 -0.6420 -0.3235
  654TMC3    O1 9689   1.105   4.677  16.588 -0.3436 -0.1902 -0.1330
  654TMC3    O2 9690   0.772   0.411  16.841 -0.0201  0.4673  0.6169
  655MPD2     C 9691   2.445   0.528  15.535 -0.1501  0.5366  0.2204
  655MPD2    C1 9692   2.363   0.611  15.463  0.6338  0.0387 -0.2767
  655MPD2    C2 9693   2.351   0.600  15.324  0.2906  0.1940 -0.6098
  655MPD2    C3 9694   2.417   0.494  15.260  0.9470 -0.0747  0.3581
  655MPD2    C4 9695   2.505   0.406  15.321  1.0818 -0.3637  0.3297
  655MPD2    C5 9696   2.516   0.430  15.458 -0.3826  0.4942  0.1023
  655MPD2     H 9697   2.305   0.675  15.261  3.0290  2.6490  0.2705
  655MPD2    H1 9698   2.558   0.324  15.274 -2.4817 -1.2219 -2.2293
  655MPD2    H2 9699   2.471   0.535  15.640  0.5015 -2.4125  0.2628
  655MPD2    H3 9700   2.589   0.371  15.513 -1.0028  1.4377  1.9273
  655MPD2     N 9701   2.400   0.473  15.123  0.1823 -0.5114  0.1633
  655MPD2    H5 9702   2.429   0.383  15.087  0.1184 -0.8646  1.0031
  655MPD2    N1 9703   2.300   0.728  15.517  0.4472 -0.2424  0.2794
  655MPD2    H7 9704   2.256   0.791  15.451  0.2709  0.3430  0.9535
  656TMC3    C1 9705   2.261   0.904  15.671 -0.0156  0.1763  0.1982
  656TMC3    C2 9706   2.226   0.947  15.795  0.0164 -0.2382  0.1747
  656TMC3    C3 9707   2.173   1.074  15.801 -0.3234  0.1562 -0.5714
  656TMC3    C4 9708   2.250   0.989  15.563 -0.6493  0.4288 -0.3578
  656TMC3    C5 9709   2.193   1.116  15.571  0.3860 -0.3086 -0.0134
  656TMC3    C6 9710   2.161   1.163  15.697 -0.1011 -0.3033 -0.4406
  656TMC3     C 9711   2.313   0.769  15.648  0.5289  0.4905 -0.3994
  656TMC3     O 9712   2.355   0.708  15.741  0.4337  0.5705  0.3281
  656TMC3     H 9713   2.239   0.885  15.883 -1.5997 -1.7865 -0.6903
  656TMC3    H1 9714   2.286   0.947  15.470  0.6674  1.2583 -0.2217
  656TMC3    H2 9715   2.133   1.264  15.723  0.1620 -0.4483  0.4108
  656TMC3    C7 9716   2.149   1.192  15.454 -0.6564 -0.4581  0.7520
  656TMC3    C8 9717   2.074   1.109  15.901 -0.4070  0.4171 -0.3732
  656TMC3    O1 9718   2.192   1.157  15.342  0.0271 -0.3504 -0.0297
  656TMC3    O2 9719   2.018   1.217  15.902 -0.4197  0.3992 -0.4366
  657TMC3    C1 9720   1.818   4.473  14.543 -0.0214  0.1499 -0.1948
  657TMC3    C2 9721   1.704   4.460  14.613  0.3575 -0.5017 -0.2809
  657TMC3    C3 9722   1.626   4.571  14.641  0.6297 -0.9479  0.4567
  657TMC3    C4 9723   1.861   4.598  14.509 -0.0143  0.8468 -0.7222
  657TMC3    C5 9724   1.786   4.706  14.534 -0.6992  0.3264 -0.0070
  657TMC3    C6 9725   1.661   4.695  14.598 -0.2710 -0.3169 -0.3266
  657TMC3     C 9726   1.896   4.357  14.514  0.7641 -0.2059  0.6746
  657TMC3     O 9727   1.838   4.256  14.477 -0.0894 -0.2312  0.2336
  657TMC3     H 9728   1.677   4.360  14.647  0.3415 -0.8564 -1.3301
  657TMC3    H1 9729   1.956   4.603  14.456  0.0647  4.1109 -0.2764
  657TMC3    H2 9730   1.599   0.055  14.627 -1.3797 -0.9457 -0.8835
  657TMC3    C7 9731   1.829   0.109  14.463  0.5044  0.6444 -0.4540
  657TMC3    C8 9732   1.533   4.563  14.753  0.0820  0.3751 -0.4460
  657TMC3    O1 9733   1.949   0.113  14.433  0.6655  0.0916 -0.1233
  657TMC3    O2 9734   1.442   4.645  14.760 -0.0548 -0.6111  0.4431
  658MPD2     C 9735   2.735   0.022  14.949 -0.2328 -0.3824 -0.3727
  658MPD2    C1 9736   2.689   0.083  14.829  0.5782 -0.0756  0.0385
  658MPD2    C2 9737   2.734   0.026  14.713  0.4770  0.3344 -0.1407
  658MPD2    C3 9738   2.832   4.643  14.717 -0.3851  0.4388  0.1789
  658MPD2    C4 9739   2.861   4.581  14.837 -0.3144  0.1070  0.1223
  658MPD2    C5 9740   2.810   4.635  14.952  0.1504 -0.4245  0.6723
  658MPD2     H 9741   2.703   0.053  14.613  0.2563  1.9773  0.3692
  658MPD2    H1 9742   2.934   4.501  14.839  0.7185  1.0243 -0.5981
  658MPD2    H2 9743   2.702   0.041  15.051  2.9751  1.8090  0.2894
  658MPD2    H3 9744   2.836   4.590  15.047 -2.8294 -2.5021  0.4883
  658MPD2     N 9745   2.877   4.598  14.585  0.2192 -0.0268  0.0722
  658MPD2    H5 9746   2.832   4.620  14.497 -2.7363 -0.1987  1.5326
  658MPD2    N1 9747   2.590   0.186  14.834  0.3299  0.2440 -0.0008
  658MPD2    H7 9748   2.538   0.201  14.919  2.5337 -0.5060  1.4709
  659TMC3    C1 9749   2.438   0.344  14.756  1.1187 -1.1398 -0.1318
  659TMC3    C2 9750   2.442   0.412  14.867  0.6595 -0.2207 -0.7909
  659TMC3    C3 9751   2.336   0.496  14.896 -0.0286  0.4188 -0.2308
  659TMC3    C4 9752   2.328   0.346  14.679 -0.5083  0.1478  0.2843
  659TMC3    C5 9753   2.224   0.428  14.704  0.2526  0.3954  0.6182
  659TMC3    C6 9754   2.221   0.497  14.823 -0.5157 -0.3819  0.3416
  659TMC3     C 9755   2.547   0.253  14.723  0.3354 -0.1625  0.5086
  659TMC3     O 9756   2.610   0.261  14.622 -0.0323 -0.2522  0.4206
  659TMC3     H 9757   2.535   0.409  14.923  0.0059 -1.7737  0.2258
  659TMC3    H1 9758   2.311   0.280  14.594 -0.5052 -0.8918  1.0903
  659TMC3    H2 9759   2.135   0.558  14.850 -1.3297 -1.1616 -0.4622
  659TMC3    C7 9760   2.101   0.358  14.696 -0.2191  0.1873  0.2425
  659TMC3    C8 9761   2.323   0.542  15.032 -0.5818 -0.0264 -0.2619
  659TMC3    O1 9762   2.106   0.233  14.701  1.0099 -0.2169  0.8860
  659TMC3    O2 9763   2.243   0.633  15.048 -0.2771  0.0216 -0.3145
  660MPD2     C 9764   0.915   3.562  12.076  0.1263 -0.0395 -1.0397
  660MPD2    C1 9765   0.897   3.679  12.137  0.5326 -0.0960 -0.8217
  660MPD2    C2 9766   0.871   3.690  12.271  0.0218  0.3835  0.2280
  660MPD2    C3 9767   0.847   3.577  12.341 -0.1250 -0.0490 -0.4510
  660MPD2    C4 9768   0.854   3.459  12.274  0.0910 -0.0235 -0.0285
  660MPD2    C5 9769   0.890   3.448  12.145 -0.5439 -0.0189 -0.1055
  660MPD2     H 9770   0.869   3.785  12.323  2.4425 -0.4307  1.8236
  660MPD2    H1 9771   0.838   3.365  12.325 -0.2533 -0.0992 -0.2759
  660MPD2    H2 9772   0.936   3.549  11.971  1.8365 -1.9389 -0.4656
  660MPD2    H3 9773   0.903   3.354  12.093 -2.0750  0.0329 -0.5666
  660MPD2     N 9774   0.797   3.580  12.473  0.5134 -0.4946 -0.3093
  660MPD2    H5 9775   0.770   3.491  12.513  0.6908 -0.2360  0.3891
  660MPD2    N1 9776   0.913   3.790  12.051  0.7735 -0.0104  0.0285
  660MPD2    H7 9777   0.943   3.768  11.957 -0.1633 -0.7798 -0.0853
  661TMC3    C1 9778   0.883   4.011  11.971  0.6612 -0.7009 -0.3040
  661TMC3    C2 9779   0.968   3.988  11.869 -0.1436 -0.8021  0.1520
  661TMC3    C3 9780   0.963   4.083  11.763 -0.9774 -0.2585  0.2092
  661TMC3    C4 9781   0.800   4.116  11.981  0.0764  0.3853  0.2712
  661TMC3    C5 9782   0.794   4.201  11.875 -0.2158 -0.7909  0.9768
  661TMC3    C6 9783   0.870   4.183  11.762 -0.5097  0.4552 -0.2137
  661TMC3     C 9784   0.881   3.922  12.082 -0.2397  1.5492  0.4021
  661TMC3     O 9785   0.832   3.975  12.181  0.2242 -0.3038  0.1975
  661TMC3     H 9786   1.043   3.909  11.876  1.7641  0.9766 -0.3298
  661TMC3    H1 9787   0.726   4.132  12.058 -1.1189  0.4553 -0.8806
  661TMC3    H2 9788   0.866   4.268  11.696 -2.0196  1.0752  0.6650
  661TMC3    C7 9789   0.663   4.248  11.840  0.6472  0.7217  0.3591
  661TMC3    C8 9790   1.070   4.079  11.661 -0.5674  0.6120  0.1772
  661TMC3    O1 9791   0.606   4.333  11.909  0.6888 -0.2601 -0.2081
  661TMC3    O2 9792   1.112   3.966  11.637  0.4115  0.0117  0.0125
  662MPD2     C 9793   1.329   3.656  17.225  0.3360 -0.3960  0.1954
  662MPD2    C1 9794   1.261   3.593  17.332  0.1721 -0.4302  0.2222
  662MPD2    C2 9795   1.152   3.659  17.384 -0.0785 -0.0705 -0.3812
  662MPD2    C3 9796   1.120   3.788  17.341  0.2086 -0.3812  0.8755
  662MPD2    C4 9797   1.194   3.859  17.253 -0.0549  0.3111  0.0135
  662MPD2    C5 9798   1.295   3.789  17.192  0.0223  0.5967  0.4718
  662MPD2     H 9799   1.094   3.614  17.463  0.9027  2.1165  1.5866
  662MPD2    H1 9800   1.163   3.960  17.229 -0.2784 -0.1566 -1.6317
  662MPD2    H2 9801   1.411   3.615  17.166  0.5064  0.3741 -0.0964
  662MPD2    H3 9802   1.344   3.834  17.107  2.6235 -0.4504  1.4141
  662MPD2     N 9803   1.008   3.855  17.400  0.4500  0.0275  0.2276
  662MPD2    H5 9804   0.990   3.951  17.371  1.3763 -0.3580 -1.5597
  662MPD2    N1 9805   1.294   3.472  17.396 -0.0410 -0.2716 -0.0728
  662MPD2    H7 9806   1.240   3.454  17.480  1.4150 -4.1701  0.0356
  663TMC3    C1 9807   1.398   3.283  17.462 -0.2656 -0.2130  0.5812
  663TMC3    C2 9808   1.376   3.304  17.596 -0.3485 -0.3666 -0.1087
  663TMC3    C3 9809   1.411   3.195  17.675 -0.3579  0.2692 -0.7242
  663TMC3    C4 9810   1.442   3.173  17.397 -0.4245  0.4010 -0.7506
  663TMC3    C5 9811   1.464   3.060  17.480  0.4492  0.5346  1.1148
  663TMC3    C6 9812   1.437   3.072  17.615  0.1377  0.5536  0.0389
  663TMC3     C 9813   1.402   3.400  17.368  0.2729 -0.5873  0.3878
  663TMC3     O 9814   1.465   3.395  17.262 -0.1215 -0.0814  0.2124
  663TMC3     H 9815   1.368   3.407  17.626  0.7866  0.3938 -2.3377
  663TMC3    H1 9816   1.465   3.173  17.291 -1.2431 -0.2515 -0.9312
  663TMC3    H2 9817   1.466   2.983  17.670  1.6857  0.0388 -1.6199
  663TMC3    C7 9818   1.418   2.940  17.424 -1.0984 -0.0414 -0.3891
  663TMC3    C8 9819   1.295   3.159   0.061 -0.4270 -0.1106 -0.2798
  663TMC3    O1 9820   1.445   2.922  17.309 -0.1911 -0.1029  0.6135
  663TMC3    O2 9821   1.233   3.051   0.036  0.2964 -0.6814 -0.4332
  664MPD2     C 9822   4.165   1.953   0.343 -1.4547 -1.0618 -0.0829
  664MPD2    C1 9823   4.147   2.091   0.351 -0.9977  0.0854 -0.4241
  664MPD2    C2 9824   4.087   2.135   0.471  0.1619 -1.5614  0.6927
  664MPD2    C3 9825   4.038   2.046   0.567  0.3732  0.1763 -0.1958
  664MPD2    C4 9826   4.040   1.912   0.547  0.7243  0.2007 -0.1830
  664MPD2    C5 9827   4.105   1.868   0.436  0.2952 -0.1185  0.3108
  664MPD2     H 9828   4.090   2.242   0.492 -0.3576 -1.1993 -1.0481
  664MPD2    H1 9829   4.002   1.837   0.615  0.4313 -0.4108 -1.0119
  664MPD2    H2 9830   4.216   1.918   0.254 -0.2330 -1.0982  0.6381
  664MPD2    H3 9831   4.115   1.761   0.428  2.5554  0.2775 -1.9717
  664MPD2     N 9832   3.977   2.100   0.684  0.3725  0.2652  0.0430
  664MPD2    H5 9833   3.980   2.202   0.684  0.3931  0.2669 -0.8118
  664MPD2    N1 9834   4.183   2.186   0.258 -0.4326  0.0870  0.4798
  664MPD2    H7 9835   4.128   2.271   0.267 -2.6065 -1.1402 -1.1220
  665TMC3    C1 9836   3.933   2.137   0.908 -0.1536 -0.5703  0.4319
  665TMC3    C2 9837   3.985   2.107   1.032 -0.5936 -0.2213 -0.5672
  665TMC3    C3 9838   3.965   2.193   1.133 -0.9022  0.1643 -0.7870
  665TMC3    C4 9839   3.869   2.252   0.872  0.1608  0.3610 -0.3561
  665TMC3    C5 9840   3.846   2.341   0.982  0.5969 -0.0078  0.3483
  665TMC3    C6 9841   3.889   2.306   1.106  0.2563 -0.9672 -0.7465
  665TMC3     C 9842   3.971   2.039   0.804  0.7708 -1.0930 -0.1219
  665TMC3     O 9843   4.010   1.927   0.836  0.0859  0.1024 -0.1926
  665TMC3     H 9844   4.054   2.024   1.038 -1.1766 -0.5476  1.7334
  665TMC3    H1 9845   3.823   2.262   0.775 -0.7984  2.3198  0.2987
  665TMC3    H2 9846   3.855   2.356   1.196 -2.7264 -2.4674 -1.0415
  665TMC3    C7 9847   3.742   2.446   0.974 -0.5612  0.3148  0.5968
  665TMC3    C8 9848   3.999   2.162   1.270 -0.6517 -0.4738 -0.1438
  665TMC3    O1 9849   3.652   2.441   0.891  0.0236  0.3567 -0.0126
  665TMC3    O2 9850   3.954   2.233   1.356  0.0071 -0.0925  0.2737
  666TMC3    C1 9851   3.462   1.511   9.491 -0.1627 -0.6601 -0.0813
  666TMC3    C2 9852   3.553   1.470   9.587  1.2287 -0.7001 -0.1373
  666TMC3    C3 9853   3.629   1.569   9.648 -0.5128 -0.6291 -0.5412
  666TMC3    C4 9854   3.458   1.642   9.454 -0.2924 -0.4419 -0.3986
  666TMC3    C5 9855   3.532   1.738   9.519 -0.6406 -0.0860 -0.6206
  666TMC3    C6 9856   3.620   1.705   9.616 -0.5069 -0.7317 -0.0457
  666TMC3     C 9857   3.337   1.439   9.480 -0.4410  0.3870 -0.2171
  666TMC3     O 9858   3.263   1.462   9.384 -0.0253 -0.0513  0.2158
  666TMC3     H 9859   3.572   1.365   9.604  1.2340 -0.5223  0.9412
  666TMC3    H1 9860   3.383   1.679   9.384 -1.5584 -0.9018  0.7273
  666TMC3    H2 9861   3.666   1.788   9.669 -2.3646 -0.8981  1.8504
  666TMC3    C7 9862   3.477   1.873   9.526  0.3439  0.4634 -0.2432
  666TMC3    C8 9863   3.695   1.528   9.773 -0.6917 -0.2107  0.2493
  666TMC3    O1 9864   3.501   1.941   9.622  0.0302 -0.7247  0.6238
  666TMC3    O2 9865   3.661   1.428   9.834  0.8091  0.5757  0.2098
  667MPD2     C 9866   0.252   2.100  14.549  0.6484  1.1697  0.4966
  667MPD2    C1 9867   0.217   2.073  14.682 -0.2438 -0.5999  0.1998
  667MPD2    C2 9868   0.083   2.067  14.716  0.1880  0.5442 -0.2211
  667MPD2    C3 9869   4.706   2.078  14.617 -0.1657  0.1351 -0.6858
  667MPD2    C4 9870   0.025   2.096  14.485 -0.7482  0.4946 -0.2644
  667MPD2    C5 9871   0.158   2.112  14.449  0.1837  0.5817  1.1451
  667MPD2     H 9872   0.056   2.041  14.818 -1.9485  0.9787 -0.6905
  667MPD2    H1 9873   4.677   2.095  14.403  0.0013  2.7375 -0.9372
  667MPD2    H2 9874   0.355   2.109  14.518 -0.3709  2.8954 -2.4527
  667MPD2    H3 9875   0.179   2.131  14.344 -0.3376 -1.4756  0.6793
  667MPD2     N 9876   4.572   2.046  14.633 -0.3218 -0.3550  0.1866
  667MPD2    H5 9877   4.515   2.064  14.551 -2.4609  0.8095  1.9573
  667MPD2    N1 9878   0.315   2.056  14.782 -0.3811 -0.4623 -0.2979
  667MPD2    H7 9879   0.284   2.046  14.878  0.9907 -0.1221  0.1840
  668TMC3    C1 9880   0.529   2.092  14.890  0.9967 -0.3401 -0.1300
  668TMC3    C2 9881   0.641   2.172  14.877 -0.0010  0.8125  0.6949
  668TMC3    C3 9882   0.695   2.229  14.986 -0.0968 -0.3184 -0.0858
  668TMC3    C4 9883   0.469   2.083  15.011 -0.0402 -0.1726  0.0468
  668TMC3    C5 9884   0.527   2.142  15.118 -0.0637  0.1644 -0.2876
  668TMC3    C6 9885   0.638   2.216  15.107 -0.1709 -0.7496  0.1861
  668TMC3     C 9886   0.450   2.075  14.767  0.2174  0.0585 -0.1820
  668TMC3     O 9887   0.511   2.091  14.662 -0.2927  0.6231 -0.8590
  668TMC3     H 9888   0.671   2.198  14.775  1.1403 -0.6330  0.6703
  668TMC3    H1 9889   0.394   2.008  15.034 -0.4956  0.2560 -0.0634
  668TMC3    H2 9890   0.685   2.248  15.200  1.1616  1.2039 -1.1514
  668TMC3    C7 9891   0.510   2.089  15.253 -0.2187  0.1457 -0.2905
  668TMC3    C8 9892   0.774   2.351  14.959 -0.1259  0.4572  0.3673
  668TMC3    O1 9893   0.603   2.091  15.333  0.0606  0.5733  0.3321
  668TMC3    O2 9894   0.763   2.428  15.051  0.2285  0.1732  0.0690
  669TMC3    C1 9895   3.045   2.120  14.331 -0.0201 -0.4845 -0.3738
  669TMC3    C2 9896   2.960   2.132  14.223  0.0471  0.1016 -0.3119
  669TMC3    C3 9897   3.015   2.140  14.100  0.2056  0.2540  0.5647
  669TMC3    C4 9898   3.184   2.121  14.313 -0.6527 -0.1579  0.3643
  669TMC3    C5 9899   3.224   2.136  14.179 -0.1004  0.6926  0.2901
  669TMC3    C6 9900   3.147   2.149  14.071  0.6082 -0.0818 -0.0518
  669TMC3     C 9901   2.977   2.074  14.453 -0.0635 -0.0159 -0.4872
  669TMC3     O 9902   2.863   2.038  14.437  0.3270 -0.1433 -0.0862
  669TMC3     H 9903   2.852   2.131  14.231  0.0491  0.2022 -0.2733
  669TMC3    H1 9904   3.252   2.095  14.394 -2.1808 -0.8272  1.4167
  669TMC3    H2 9905   3.177   2.147  13.967 -1.2127  0.3900 -0.5926
  669TMC3    C7 9906   3.364   2.172  14.155  0.9599  0.1411 -0.1128
  669TMC3    C8 9907   2.928   2.102  13.992 -0.1051 -0.2365 -0.5387
  669TMC3    O1 9908   3.437   2.213  14.248 -0.2580  0.0264 -0.3932
  669TMC3    O2 9909   2.822   2.039  14.012  0.2789 -0.7929 -0.1372
  670MPD2     C 9910   1.075   4.172  13.222 -0.3779  0.0236  0.1515
  670MPD2    C1 9911   1.127   4.263  13.312 -0.6742  0.0617 -0.2616
  670MPD2    C2 9912   1.132   4.219  13.440 -0.6651  0.1447  0.3151
  670MPD2    C3 9913   1.088   4.100  13.485  0.7625  0.4280  0.3726
  670MPD2    C4 9914   1.043   4.017  13.394  0.1207 -0.6179  0.8969
  670MPD2    C5 9915   1.032   4.053  13.261  0.2012  0.0017 -0.7698
  670MPD2     H 9916   1.188   4.283  13.508 -2.1981  2.0829 -0.2742
  670MPD2    H1 9917   1.006   3.917  13.415  0.3536 -1.0795 -0.8603
  670MPD2    H2 9918   1.069   4.190  13.115 -0.8684 -3.7170 -0.4532
  670MPD2    H3 9919   0.999   3.986  13.183 -2.3021  1.3406 -0.8687
  670MPD2     N 9920   1.095   4.061  13.619 -0.0440  0.4465 -0.3168
  670MPD2    H5 9921   1.067   3.964  13.631 -2.9387  1.1151 -1.6996
  670MPD2    N1 9922   1.198   4.376  13.276  0.0694  0.4966 -0.5097
  670MPD2    H7 9923   1.253   4.422  13.348  1.3454  1.9654 -2.4274
  671TMC3    C1 9924   1.148   4.062  13.844  0.2132 -0.4990  0.7447
  671TMC3    C2 9925   1.274   4.051  13.907 -0.2643  0.2647  0.0777
  671TMC3    C3 9926   1.305   3.942  13.975 -0.0270  0.1317  0.0490
  671TMC3    C4 9927   1.063   3.960  13.860 -0.2168 -0.7977  0.2056
  671TMC3    C5 9928   1.101   3.835  13.910 -0.2826 -0.2894  0.0137
  671TMC3    C6 9929   1.224   3.832  13.972 -0.3999  0.3351  1.1442
  671TMC3     C 9930   1.158   4.133  13.720  0.1906 -0.1489 -0.0829
  671TMC3     O 9931   1.207   4.245  13.730 -0.0749 -0.1637  0.1792
  671TMC3     H 9932   1.358   4.114  13.880  0.1673 -0.6183 -0.6366
  671TMC3    H1 9933   0.966   3.958  13.811  1.1514 -1.9840 -2.4531
  671TMC3    H2 9934   1.258   3.740  14.018 -0.5833 -0.2146  0.1701
  671TMC3    C7 9935   1.085   3.737  13.797  0.3127  0.6180 -0.8471
  671TMC3    C8 9936   1.430   3.897  13.930 -0.0657  0.1155  0.1752
  671TMC3    O1 9937   1.044   3.793  13.695 -0.2075  0.1709 -0.1840
  671TMC3    O2 9938   1.462   3.919  13.816 -0.3010 -0.1073  0.4040
  672MPD2     C 9939   1.132   4.442   0.935 -0.0390 -1.1453 -0.5624
  672MPD2    C1 9940   1.237   4.528   0.910 -0.3457 -0.2695 -0.2716
  672MPD2    C2 9941   1.314   4.579   1.013 -0.4117 -0.7700  0.0990
  672MPD2    C3 9942   1.297   4.532   1.138  0.1056  0.2048 -0.3700
  672MPD2    C4 9943   1.188   4.442   1.163  0.1882 -0.0488 -0.1791
  672MPD2    C5 9944   1.095   4.404   1.063 -0.1741  0.1820 -0.3039
  672MPD2     H 9945   1.401   4.640   0.993  0.4707 -1.2885  2.2429
  672MPD2    H1 9946   1.157   4.427   1.265  0.0211  0.0882 -0.2095
  672MPD2    H2 9947   1.072   4.406   0.852 -0.3252 -2.7679  0.3440
  672MPD2    H3 9948   1.003   4.353   1.090  0.0442  0.6986  1.3796
  672MPD2     N 9949   1.380   4.587   1.245  0.5483 -0.0415  0.6517
  672MPD2    H5 9950   1.451   4.650   1.211 -0.2067  0.1113 -0.6457
  672MPD2    N1 9951   1.267   4.581   0.783 -0.3843 -0.3883  0.0330
  672MPD2    H7 9952   1.346   4.644   0.780  1.1056 -2.2635 -0.7728
  673TMC3    C1 9953   1.295   4.593   0.557 -0.3778  0.2782 -0.1034
  673TMC3    C2 9954   1.361   4.509   0.470 -0.1989  0.1741 -0.3761
  673TMC3    C3 9955   1.485   4.547   0.424  0.1809  0.2370 -0.7210
  673TMC3    C4 9956   1.335   0.002   0.575  0.2086 -0.4550  0.3485
  673TMC3    C5 9957   1.440   0.047   0.493 -0.9582 -0.2823  0.4168
  673TMC3    C6 9958   1.518   4.682   0.423 -0.4831  0.1957  0.5508
  673TMC3     C 9959   1.217   4.545   0.664 -0.3139  0.1399  0.5820
  673TMC3     O 9960   1.131   4.464   0.635 -0.0310 -0.0712  0.3926
  673TMC3     H 9961   1.356   4.402   0.484  0.4067  0.1827 -0.0919
  673TMC3    H1 9962   1.281   0.072   0.637  0.3984 -0.1861  0.2070
  673TMC3    H2 9963   1.605   4.706   0.363  0.0253  1.9428  1.9946
  673TMC3    C7 9964   1.475   0.188   0.483  0.8840 -0.0849 -0.8025
  673TMC3    C8 9965   1.584   4.446   0.405 -0.2805  0.0244  0.7791
  673TMC3    O1 9966   1.590   0.225   0.473  0.6580  0.5063 -0.2072
  673TMC3    O2 9967   1.540   4.338   0.372  0.1432  0.4660  0.7238
  674MPD2     C 9968   1.359   4.712   0.064  0.1043  0.8735  0.0926
  674MPD2    C1 9969   1.283   4.601   0.091 -0.1277 -0.3672 -0.2275
  674MPD2    C2 9970   1.182   4.609   0.186  0.2309 -0.8483  0.1448
  674MPD2    C3 9971   1.157   0.001   0.257 -0.0062 -0.1161  0.0970
  674MPD2    C4 9972   1.225   0.112   0.220  0.3409 -0.8065 -0.2882
  674MPD2    C5 9973   1.318   0.101   0.124 -0.2081  0.4739  0.1531
  674MPD2     H 9974   1.122   4.520   0.200 -1.9270  0.3940 -1.3436
  674MPD2    H1 9975   1.198   0.211   0.253  1.0558 -1.0074  0.8705
  674MPD2    H2 9976   1.430   4.707  17.678  0.1792 -0.0109  0.2040
  674MPD2    H3 9977   1.363   0.193   0.088  0.3305 -0.2401 -0.9980
  674MPD2     N 9978   1.064   4.715   0.356 -0.0169  0.2867 -0.2253
  674MPD2    H5 9979   1.015   4.627   0.368  0.5512 -0.1042 -0.7384
  674MPD2    N1 9980   1.310   4.476   0.023 -0.7118 -0.3210 -0.0677
  674MPD2    H7 9981   1.394   4.467  17.663  1.7144  0.2212  3.4763
  675TMC3    C1 9982   1.320   4.241   0.020  0.3195  0.0351  0.0979
  675TMC3    C2 9983   1.272   4.142   0.104  0.6832  0.4357 -0.6717
  675TMC3    C3 9984   1.355   4.085   0.195 -0.3429 -1.0432 -0.4275
  675TMC3    C4 9985   1.449   4.264   0.004 -0.2721  0.2661  0.0993
  675TMC3    C5 9986   1.528   4.194   0.091  0.4757  0.1405  0.1107
  675TMC3    C6 9987   1.488   4.110   0.187 -0.5248  0.1007 -0.3503
  675TMC3     C 9988   1.238   4.360   0.034  0.2790  0.1956 -0.7000
  675TMC3     O 9989   1.128   4.336   0.081  0.2293 -0.1545 -0.4512
  675TMC3     H 9990   1.165   4.131   0.116  0.7396  1.4263  0.6984
  675TMC3    H1 9991   1.483   4.335  17.625  3.6301 -0.1875  1.4591
  675TMC3    H2 9992   1.556   4.085   0.268 -1.1368  2.0440  0.7496
  675TMC3    C7 9993   1.672   4.172   0.055  0.2440 -1.6109 -0.3424
  675TMC3    C8 9994   1.288   4.060   0.329  0.1960  0.2771 -0.0661
  675TMC3    O1 9995   1.732   4.083   0.114  0.0201  0.3515 -0.3251
  675TMC3    O2 9996   1.173   4.014   0.332  0.3464 -0.6838 -0.2251
  676MPD2     C 9997   3.471   2.829  10.759 -0.2104 -0.5895  0.1432
  676MPD2    C1 9998   3.416   2.745  10.861 -0.7036 -0.0060  1.1592
  676MPD2    C2 9999   3.403   2.610  10.837 -0.8739  0.3334 -0.4599
  676MPD2    C310000   3.456   2.556  10.719 -0.0727  0.2898 -0.4214
  676MPD2    C410001   3.519   2.637  10.629  0.3392  0.4639  0.0718
  676MPD2    C510002   3.533   2.774  10.653 -0.1436 -0.4470  0.2062
  676MPD2     H10003   3.369   2.547  10.919  1.3265  2.1777  1.8979
  676MPD2    H110004   3.553   2.599  10.533 -2.5947 -0.3005 -0.6717
  676MPD2    H210005   3.493   2.933  10.779  1.8756 -1.0560  0.2667
  676MPD2    H310006   3.570   2.845  10.580 -0.3366  0.8539  1.3820
  676MPD2     N10007   3.468   2.419  10.685 -0.5766  0.0432  0.9361
  676MPD2    H510008   3.502   2.397  10.592 -2.3360  1.5024 -0.0475
  676MPD2    N110009   3.389   2.787  10.998 -0.1327 -0.9406  0.3595
  676MPD2    H710010   3.331   2.728  11.057 -0.4757  1.1004  2.0765
  677TMC3    C110011   3.417   2.909  11.194 -0.0959  0.3747 -0.4943
  677TMC3    C210012   3.386   2.808  11.274  0.2588 -0.3820  0.4819
  677TMC3    C310013   3.390   2.811  11.408 -0.8282 -0.2939  0.2462
  677TMC3    C410014   3.475   3.024  11.248 -0.0882  0.4906  0.2297
  677TMC3    C510015   3.466   3.034  11.389  0.5708  0.2861  0.2174
  677TMC3    C610016   3.418   2.934  11.468  1.3373 -0.1171  0.3747
  677TMC3     C10017   3.448   2.894  11.048  0.4770 -0.0910  0.5361
  677TMC3     O10018   3.502   2.987  10.995  0.2013  0.3034 -0.7385
  677TMC3     H10019   3.372   2.710  11.229  2.3412 -0.0585 -0.8777
  677TMC3    H110020   3.491   3.114  11.189 -1.8560  1.4810  1.2540
  677TMC3    H210021   3.422   2.944  11.576  0.3236 -0.8952  0.4911
  677TMC3    C710022   3.551   3.144  11.443 -0.1924 -0.8513  0.2319
  677TMC3    C810023   3.348   2.683  11.468 -0.2788 -0.6566  0.3890
  677TMC3    O110024   3.552   3.157  11.564  0.0280  0.5227  0.0714
  677TMC3    O210025   3.257   2.629  11.408 -0.3834 -0.5351 -0.0514
  678MPD2     C10026   0.239   3.972   1.425  0.1049 -0.5257  0.7915
  678MPD2    C110027   0.254   3.856   1.348  0.3411  0.3324  0.1646
  678MPD2    C210028   0.142   3.773   1.340  0.3045 -0.4364  0.1893
  678MPD2    C310029   0.019   3.816   1.390  0.6915  0.2805  0.0972
  678MPD2    C410030   0.011   3.936   1.455 -1.1280  0.2163  0.2041
  678MPD2    C510031   0.119   4.015   1.474 -0.2512  0.6115 -0.4340
  678MPD2     H10032   0.156   3.672   1.303 -0.8782 -1.8002  3.4630
  678MPD2    H110033   4.644   3.967   1.507 -0.7865  0.7395  0.4790
  678MPD2    H210034   0.318   4.043   1.450 -1.7713  1.5861  0.6802
  678MPD2    H310035   0.113   4.100   1.541 -0.2555 -0.1393  0.5269
  678MPD2     N10036   4.632   3.731   1.372 -0.4672 -0.2063  0.0192
  678MPD2    H510037   4.644   3.653   1.308  0.2027  0.0077 -0.1204
  678MPD2    N110038   0.378   3.810   1.307  0.3902  0.6657  0.0111
  678MPD2    H710039   0.383   3.719   1.262  0.7623  1.1959 -1.0251
  679TMC3    C110040   0.726   3.660   1.166  0.2706  0.4046 -0.8241
  679TMC3    C210041   0.609   3.700   1.212  0.4826 -0.2689 -0.2853
  679TMC3    C310042   0.608   3.819   1.273  0.8404  0.1473  0.6827
  679TMC3    C410043   0.846   3.735   1.173  0.3124 -0.3153 -0.1781
  679TMC3    C510044   0.837   3.863   1.225  0.0507 -0.4706 -1.1751
  679TMC3    C610045   0.718   3.896   1.282 -0.5007  0.4960 -0.1987
  679TMC3     C10046   0.724   3.544   1.082 -0.4988  0.5296 -0.4602
  679TMC3     O10047   0.644   3.452   1.107 -0.5459  0.2557 -0.3278
  679TMC3     H10048   0.521   3.637   1.209 -0.7243  1.3676  0.7276
  679TMC3    H110049   0.937   3.688   1.135  0.5695  0.8470 -1.0124
  679TMC3    H210050   0.717   3.983   1.347  0.3615  1.3599 -1.3279
  679TMC3    C710051   0.918   3.962   1.150  0.1794 -0.8490 -0.3871
  679TMC3    C810052   0.486   3.889   1.310 -0.3603 -0.3713 -0.2617
  679TMC3    O110053   1.003   3.909   1.079 -0.1322  0.8090  0.3462
  679TMC3    O210054   0.500   4.009   1.332  0.0180  0.7562  0.4940
  680MPD2     C10055   0.315   1.259  13.239  0.4939 -0.3088 -0.2475
  680MPD2    C110056   0.433   1.209  13.293 -0.0483 -0.0213 -0.1561
  680MPD2    C210057   0.518   1.293  13.359  0.4534 -0.2892  0.2740
  680MPD2    C310058   0.491   1.427  13.367  0.4044 -0.2483  0.2356
  680MPD2    C410059   0.380   1.477  13.293 -0.1712  0.0352 -0.7674
  680MPD2    C510060   0.280   1.392  13.242 -0.0919  0.0356  0.9299
  680MPD2     H10061   0.602   1.245  13.408  1.2882  1.6959  0.7821
  680MPD2    H110062   0.367   1.585  13.291 -0.9898 -0.0729 -1.0057
  680MPD2    H210063   0.245   1.185  13.202 -0.0844  0.1361 -0.0490
  680MPD2    H310064   0.186   1.426  13.202 -0.0674 -2.0310 -0.9553
  680MPD2     N10065   0.575   1.523  13.421 -0.4828 -0.4011 -0.0690
  680MPD2    H510066   0.550   1.618  13.395  0.1360 -0.1967  0.0902
  680MPD2    N110067   0.467   1.069  13.295  0.3646  0.1156  0.2600
  680MPD2    H710068   0.544   1.032  13.348  0.5934 -0.9988 -0.8513
  681TMC3    C110069   0.477   0.855  13.224  0.6216 -0.5063 -0.0649
  681TMC3    C210070   0.443   0.790  13.336  0.7000  0.4204 -0.2276
  681TMC3    C310071   0.502   0.667  13.354  0.5241 -0.1189  0.8486
  681TMC3    C410072   0.566   0.816  13.131 -0.4008 -0.2038 -0.0394
  681TMC3    C510073   0.635   0.699  13.162  0.3471  0.1427 -0.6061
  681TMC3    C610074   0.598   0.624  13.274  0.4189  0.1172  0.0426
  681TMC3     C10075   0.416   0.979  13.209  1.1837  0.0581 -0.2530
  681TMC3     O10076   0.345   1.006  13.111 -0.0805  0.5265  0.2560
  681TMC3     H10077   0.374   0.837  13.406  0.2353  0.3970 -0.6753
  681TMC3    H110078   0.592   0.876  13.045 -0.7942 -1.4970 -1.0500
  681TMC3    H210079   0.661   0.545  13.313  0.7445  0.5628  0.4140
  681TMC3    C710080   0.778   0.708  13.149 -0.0254  0.1019 -0.5271
  681TMC3    C810081   0.512   0.626  13.493  0.3292 -0.1014  0.0612
  681TMC3    O110082   0.845   0.658  13.238  0.0704 -0.0660  0.2805
  681TMC3    O210083   0.526   0.509  13.526  0.1245  0.3317 -0.0570
  682MPD2     C10084   2.957   2.972  10.076  0.9150  0.1277 -0.3239
  682MPD2    C110085   2.893   2.849  10.098  0.1092  0.3668  0.0274
  682MPD2    C210086   2.822   2.834  10.209  0.0350  1.1340 -0.3335
  682MPD2    C310087   2.814   2.942  10.295 -0.8972 -0.8256 -0.2695
  682MPD2    C410088   2.873   3.059  10.271 -0.0697 -0.6180 -0.5125
  682MPD2    C510089   2.941   3.080  10.156  0.0043  0.9413  0.1180
  682MPD2     H10090   2.765   2.743  10.220 -0.5301  1.1753 -2.9130
  682MPD2    H110091   2.879   3.141  10.343  0.0605 -2.8605  2.0359
  682MPD2    H210092   3.002   2.992   9.980  1.5682 -0.1282 -0.0732
  682MPD2    H310093   2.976   3.178  10.126 -0.2009  1.8799  3.0536
  682MPD2     N10094   2.746   2.933  10.413 -0.7153 -0.1777  0.1504
  682MPD2    H510095   2.738   3.024  10.457  0.9187 -0.1813  0.4689
  682MPD2    N110096   2.903   2.731  10.023 -0.4873  0.2279 -0.6365
  682MPD2    H710097   2.841   2.658  10.057  0.5457  0.7311  2.3408
  683TMC3    C110098   2.687   2.826  10.840  0.2542  0.1031 -0.0771
  683TMC3    C210099   2.575   2.899  10.859  0.5086  1.0970 -0.0098
  683TMC3    C310100   2.525   2.959  10.745 -0.3212  0.0348  0.6982
  683TMC3    C410101   2.753   2.805  10.722 -0.0414 -0.1194 -0.3204
  683TMC3    C510102   2.670   2.842  10.613 -0.3947 -0.2875 -0.2733
  683TMC3    C610103   2.568   2.935  10.620 -0.0979 -0.3925 -0.1536
  683TMC3     C10104   2.766   2.799  10.955 -0.1132 -0.6268 -0.0847
  683TMC3     O10105   2.852   2.711  10.933 -0.8735 -0.5649  0.5766
  683TMC3     H10106   2.535   2.920  10.957  0.8415 -0.5737  0.4792
  683TMC3    H110107   2.839   2.741  10.708  0.5241  0.9174 -1.5814
  683TMC3    H210108   2.524   2.971  10.527 -1.7063  0.6720  1.0245
  683TMC3    C710109   2.719   2.817  10.482 -0.1850  0.5270 -0.2702
  683TMC3    C810110   2.382   2.975  10.749  0.1588  0.1358 -0.4526
  683TMC3    O110111   2.760   2.706  10.468  0.4907 -0.2664 -0.1324
  683TMC3    O210112   2.343   3.072  10.685 -0.1385 -0.0302  0.1871
  684MPD2     C10113   1.138   2.418  16.362  0.2599  0.4344 -0.8415
  684MPD2    C110114   1.098   2.435  16.231 -0.1573  0.2498  0.1514
  684MPD2    C210115   1.157   2.535  16.154  0.2625  0.1927  0.0484
  684MPD2    C310116   1.257   2.620  16.200 -0.0843  0.4688  0.0962
  684MPD2    C410117   1.295   2.593  16.329  0.4448 -0.0110  0.0200
  684MPD2    C510118   1.235   2.496  16.411 -0.3656 -0.0104 -0.0769
  684MPD2     H10119   1.130   2.522  16.050 -0.2642 -2.7206  0.5258
  684MPD2    H110120   1.371   2.652  16.378 -1.0692  1.8868  0.0402
  684MPD2    H210121   1.094   2.342  16.426 -1.8700  1.9684 -0.5042
  684MPD2    H310122   1.255   2.484  16.517 -2.5352 -0.1507  0.3185
  684MPD2     N10123   1.321   2.719  16.124 -0.3830  0.0160 -0.3218
  684MPD2    H510124   1.388   2.775  16.175 -0.6487  1.3255 -1.4161
  684MPD2    N110125   1.018   2.337  16.171 -0.2377  0.2717  0.3656
  684MPD2    H710126   0.972   2.360  16.083 -0.0189  1.8258  0.6580
  685TMC3    C110127   0.941   2.123  16.121 -0.1988  0.7403  0.1945
  685TMC3    C210128   0.838   2.182  16.056 -0.5598 -0.2181  0.2545
  685TMC3    C310129   0.805   2.138  15.929 -0.0524 -0.0573 -0.3216
  685TMC3    C410130   1.021   2.035  16.062 -0.0125  0.3517 -0.0042
  685TMC3    C510131   0.987   1.987  15.937  0.0872 -0.8800  0.6829
  685TMC3    C610132   0.880   2.036  15.869  0.4825 -0.5580  0.2332
  685TMC3     C10133   1.015   2.203  16.215  0.2944 -0.2159  0.1430
  685TMC3     O10134   1.082   2.146  16.300  0.3525 -0.1993 -0.0866
  685TMC3     H10135   0.776   2.259  16.101 -0.5222  2.2643 -3.9948
  685TMC3    H110136   1.091   1.987  16.130  0.1794 -0.6211 -0.8836
  685TMC3    H210137   0.857   2.010  15.766 -0.3936  1.0434  0.0302
  685TMC3    C710138   1.093   1.925  15.861 -0.2408  0.0016  0.4425
  685TMC3    C810139   0.687   2.200  15.863 -0.0011  0.0316 -0.4992
  685TMC3    O110140   1.074   1.903  15.742  0.1692  0.2150 -0.2292
  685TMC3    O210141   0.666   2.145  15.757 -0.1160  0.1295 -0.3014
  686MPD2     C10142   2.606   2.432  15.415  0.8474  0.2538  0.3003
  686MPD2    C110143   2.588   2.349  15.527  0.1444 -0.3594  0.4581
  686MPD2    C210144   2.691   2.292  15.599  0.4498  0.0343 -0.0866
  686MPD2    C310145   2.818   2.327  15.567  0.2793 -0.1755  0.4559
  686MPD2    C410146   2.833   2.411  15.460 -0.1671  0.8111 -0.4242
  686MPD2    C510147   2.729   2.459  15.381  0.3428  0.4664  0.3333
  686MPD2     H10148   2.673   2.223  15.681 -0.7175 -1.6015 -1.7402
  686MPD2    H110149   2.931   2.441  15.424  0.5110 -1.6868 -0.6770
  686MPD2    H210150   2.521   2.481  15.369  0.9126 -0.5894 -0.7236
  686MPD2    H310151   2.751   2.529  15.302 -2.5542 -0.6559 -1.4486
  686MPD2     N10152   2.929   2.273  15.635 -0.3488 -0.2222  0.0825
  686MPD2    H510153   3.019   2.282  15.590  0.5893 -0.1577  1.9798
  686MPD2    N110154   2.457   2.318  15.559  0.2615 -0.2055  0.7364
  686MPD2    H710155   2.393   2.338  15.483 -0.2810 -1.2489  0.9221
  687TMC3    C110156   3.030   2.121  15.779 -0.0130 -0.2117 -0.1755
  687TMC3    C210157   3.025   2.025  15.676 -0.4395  0.0042 -0.1612
  687TMC3    C310158   3.025   1.891  15.713 -0.2123 -0.7960  0.0329
  687TMC3    C410159   3.059   2.073  15.903 -0.1872 -0.7597  0.3467
  687TMC3    C510160   3.095   1.946  15.924 -0.3851 -0.4131 -0.1937
  687TMC3    C610161   3.083   1.849  15.831  0.1574 -0.3344 -0.2724
  687TMC3     C10162   2.920   2.211  15.760 -0.1221 -0.1985 -0.2561
  687TMC3     O10163   2.835   2.220  15.848  0.4435 -0.1012  0.1892
  687TMC3     H10164   2.986   2.052  15.578 -0.8242  0.9702  0.2609
  687TMC3    H110165   3.046   2.134  15.992  0.4665  0.7944 -0.6434
  687TMC3    H210166   3.100   1.743  15.850 -1.3870 -0.8436 -1.7225
  687TMC3    C710167   3.169   1.922  16.042 -0.1934 -0.4042  0.2033
  687TMC3    C810168   2.891   1.825  15.698 -0.3624  0.6550 -0.1002
  687TMC3    O110169   3.134   1.994  16.135 -0.2846  0.6092 -0.1941
  687TMC3    O210170   2.846   1.764  15.794  0.3504  0.1365  0.2649
  688MPD2     C10171   1.577   1.292  17.360 -0.0247  0.7963 -0.4398
  688MPD2    C110172   1.557   1.153  17.343 -0.2303 -0.7532 -0.3226
  688MPD2    C210173   1.617   1.090  17.237 -0.4673  0.3788 -0.0374
  688MPD2    C310174   1.690   1.162  17.145 -0.0100 -0.7688  0.8914
  688MPD2    C410175   1.707   1.299  17.157  0.3104  0.9838 -0.4088
  688MPD2    C510176   1.652   1.359  17.268  0.3065 -0.5940 -0.5072
  688MPD2     H10177   1.593   0.985  17.220  0.9889 -0.0887  0.7090
  688MPD2    H110178   1.778   1.356  17.099  0.8559  0.9243  0.1978
  688MPD2    H210179   1.534   1.349  17.442  1.1689 -0.3584  0.9811
  688MPD2    H310180   1.680   1.463  17.281 -0.4998 -0.2477 -1.4736
  688MPD2     N10181   1.757   1.105  17.026 -0.4565  0.6537 -0.1600
  688MPD2    H510182   1.803   1.172  16.966  0.3585 -1.8949 -2.3493
  688MPD2    N110183   1.481   1.077  17.439  0.2739  0.5573  0.5533
  688MPD2    H710184   1.471   0.977  17.424 -1.6530  0.7416  0.6264
  689TMC3    C110185   1.371   1.027  17.650 -0.1624  0.7705  0.0146
  689TMC3    C210186   1.364   1.065   0.089  0.1335 -0.3209 -0.3024
  689TMC3    C310187   1.296   0.990   0.181 -0.5279  0.1331 -0.9999
  689TMC3    C410188   1.314   0.902  17.613 -0.3900 -0.5960 -0.2463
  689TMC3    C510189   1.251   0.832   0.009  0.2250 -0.6415 -0.0293
  689TMC3    C610190   1.246   0.873   0.141 -0.3424  0.4886 -0.1060
  689TMC3     C10191   1.434   1.126  17.563  0.1865 -0.7556  0.1413
  689TMC3     O10192   1.434   1.240  17.608  0.2198  0.0997  0.3071
  689TMC3     H10193   1.408   1.158   0.122 -0.7319  0.4597 -1.3494
  689TMC3    H110194   1.330   0.865  17.512  0.8759  1.8812 -0.9656
  689TMC3    H210195   1.207   0.813   0.222 -3.3857  2.4104 -0.1116
  689TMC3    C710196   1.204   0.691  17.689 -0.2163  0.1756 -0.2150
  689TMC3    C810197   1.310   1.006   0.327 -0.3220 -0.5057 -0.0161
  689TMC3    O110198   1.185   0.628   0.097  0.4716 -0.0300  0.0467
  689TMC3    O210199   1.216   0.961   0.392  0.1494  0.5333  0.2182
  690MPD2     C10200   4.387   2.800  15.629  0.3575 -0.6257 -0.0359
  690MPD2    C110201   4.320   2.788  15.513 -0.1205 -0.3007  0.2126
  690MPD2    C210202   4.369   2.851  15.401  0.7440  0.0812 -0.4025
  690MPD2    C310203   4.481   2.935  15.402 -0.0231  0.4866 -0.2153
  690MPD2    C410204   4.545   2.953  15.530  0.0413  0.3704  0.3803
  690MPD2    C510205   4.492   2.885  15.636  0.0543  0.9280 -0.3349
  690MPD2     H10206   4.326   2.845  15.302  0.3123  2.3990 -0.3572
  690MPD2    H110207   4.634   3.015  15.540 -0.2038  0.7223  0.3716
  690MPD2    H210208   4.373   2.746  15.722  0.2024  1.3917  1.1223
  690MPD2    H310209   4.536   2.900  15.734  0.4520 -0.2797 -0.3372
  690MPD2     N10210   4.517   2.992  15.277 -0.0270 -0.8542  0.1754
  690MPD2    H510211   4.464   2.975  15.193 -0.2000  0.6013 -0.0116
  690MPD2    N110212   4.201   2.706  15.506  0.3733  0.1677  0.3438
  690MPD2    H710213   4.149   2.710  15.419 -0.6483 -1.7410  0.8771
  691TMC3    C110214   4.009   2.599  15.584 -0.0557  0.1436  0.3133
  691TMC3    C210215   3.905   2.622  15.668 -0.2145  0.4223 -0.1799
  691TMC3    C310216   3.777   2.583  15.634  0.4263 -0.8024 -0.2085
  691TMC3    C410217   3.984   2.557  15.457  0.4987 -0.1352  1.0916
  691TMC3    C510218   3.853   2.522  15.423 -0.1450 -0.0772  0.5575
  691TMC3    C610219   3.751   2.527  15.517  0.6263  0.2290 -0.1313
  691TMC3     C10220   4.144   2.644  15.611  0.3426  0.4529  0.0630
  691TMC3     O10221   4.180   2.641  15.726 -0.4613 -0.2841  0.1427
  691TMC3     H10222   3.922   2.686  15.753 -0.1595 -0.1447  0.2383
  691TMC3    H110223   4.068   2.533  15.393  0.6474 -0.1208  1.2838
  691TMC3    H210224   3.652   2.487  15.500 -0.3955  3.4868 -1.7671
  691TMC3    C710225   3.860   2.399  15.348 -0.0131  0.4106 -0.0069
  691TMC3    C810226   3.672   2.630  15.722 -0.2305  0.1339 -0.0591
  691TMC3    O110227   3.939   2.384  15.259  0.6266 -0.0296 -0.0810
  691TMC3    O210228   3.700   2.635  15.840 -0.1141 -0.0134 -0.0146
  692TMC3    C110229   0.959   4.009  15.837  0.1733 -0.2154 -0.0679
  692TMC3    C210230   1.095   4.030  15.849  0.4709 -0.4964  0.4953
  692TMC3    C310231   1.181   3.920  15.846 -0.4250  0.2013 -0.8267
  692TMC3    C410232   0.908   3.894  15.799 -0.4075 -0.3020  0.0180
  692TMC3    C510233   0.991   3.787  15.798  0.5165 -0.4277  0.5899
  692TMC3    C610234   1.121   3.797  15.841  0.0346 -0.1005  0.4161
  692TMC3     C10235   0.862   4.103  15.904 -0.2998  0.1329 -0.3769
  692TMC3     O10236   0.745   4.069  15.908 -0.4516 -0.2407 -0.4128
  692TMC3     H10237   1.144   4.124  15.873  0.2792 -0.2009 -0.2653
  692TMC3    H110238   0.802   3.884  15.780 -0.4325  1.0259 -0.5179
  692TMC3    H210239   1.195   3.719  15.826  1.8437  2.0519 -1.7876
  692TMC3    C710240   0.934   3.670  15.733 -0.7943  0.6126  0.6926
  692TMC3    C810241   1.285   3.940  15.952 -0.1999 -0.2259 -0.0622
  692TMC3    O110242   0.817   3.659  15.700 -0.4646  0.1042  0.0068
  692TMC3    O210243   1.342   4.049  15.953 -0.3784 -0.1475 -0.6401
  693MPD2     C10244   0.141   1.814  10.170  0.7082  0.0335 -0.2413
  693MPD2    C110245   0.077   1.767  10.280 -0.8306  0.1026  0.8972
  693MPD2    C210246   0.144   1.687  10.366  0.0446 -0.5675  0.5491
  693MPD2    C310247   0.283   1.675  10.355 -0.3939  0.1501  0.4587
  693MPD2    C410248   0.345   1.734  10.256 -0.5337  0.4823 -0.4391
  693MPD2    C510249   0.273   1.796  10.160 -0.2018 -0.2286  0.0784
  693MPD2     H10250   0.089   1.644  10.448 -1.6681  1.3723  0.4254
  693MPD2    H110251   0.452   1.718  10.246 -0.3118  1.1545  0.8723
  693MPD2    H210252   0.094   1.871  10.090  1.0531 -0.7756 -1.0230
  693MPD2    H310253   0.328   1.838  10.077 -4.7322  3.8993 -0.8489
  693MPD2     N10254   0.361   1.597  10.447 -0.5290 -0.1173  0.1727
  693MPD2    H510255   0.460   1.620  10.453 -0.5425 -0.6722  2.8955
  693MPD2    N110256   4.663   1.791  10.297 -0.0518 -0.6828  0.1132
  693MPD2    H710257   4.624   1.831  10.212 -1.3914 -0.1611  0.9863
  694TMC3    C110258   4.448   1.778  10.412 -0.2506  0.0772 -0.3049
  694TMC3    C210259   4.410   1.666  10.343  0.3416 -0.3751  0.8060
  694TMC3    C310260   4.304   1.593  10.394  0.1793  0.2005 -0.7778
  694TMC3    C410261   4.397   1.794  10.543 -0.6894  0.2262  0.3476
  694TMC3    C510262   4.291   1.727  10.580 -0.5374  0.1983  0.3478
  694TMC3    C610263   4.242   1.620  10.517 -0.1784  0.1729  0.1684
  694TMC3     C10264   4.592   1.776  10.413  0.4703  0.5957 -0.4174
  694TMC3     O10265   4.639   1.776  10.528 -0.0457  0.2409 -0.2885
  694TMC3     H10266   4.454   1.651  10.245  0.4910 -2.1395  1.1353
  694TMC3    H110267   4.426   1.885  10.595  0.3442  0.1761 -0.1403
  694TMC3    H210268   4.159   1.561  10.553  1.6248 -1.7657  1.1793
  694TMC3    C710269   4.254   1.732  10.723 -0.0553 -0.0541 -0.1606
  694TMC3    C810270   4.242   1.477  10.328  0.3999  0.1191 -0.5977
  694TMC3    O110271   4.237   1.845  10.768  0.8398  0.0666  0.4264
  694TMC3    O210272   4.210   1.386  10.399 -0.1066  0.5442 -0.0667
  695MPD2     C10273   1.586   3.614  12.940  0.3741 -0.5020 -0.0040
  695MPD2    C110274   1.542   3.574  13.069 -0.2393  0.6365  1.1561
  695MPD2    C210275   1.408   3.569  13.103 -0.6765 -0.2096 -0.4041
  695MPD2    C310276   1.313   3.600  13.004  0.5382 -0.4189  0.0002
  695MPD2    C410277   1.354   3.625  12.875  0.3212  0.3870  0.1225
  695MPD2    C510278   1.490   3.637  12.849 -0.9105 -0.4369  0.5425
  695MPD2     H10279   1.377   3.559  13.206 -0.0996  2.3778  0.0017
  695MPD2    H110280   1.295   3.637  12.785 -0.7274 -0.2287  0.7366
  695MPD2    H210281   1.689   3.619  12.910  0.6247 -1.6320  0.6446
  695MPD2    H310282   1.518   3.652  12.745 -1.0289 -1.9246  0.2940
  695MPD2     N10283   1.184   3.606  13.041  0.2341 -0.2275 -0.7738
  695MPD2    H510284   1.166   3.589  13.140 -0.3936 -1.2550 -1.0562
  695MPD2    N110285   1.631   3.540  13.170  0.6225 -0.3956  0.1475
  695MPD2    H710286   1.595   3.519  13.263  2.5703  0.8093  1.1779
  696TMC3    C110287   0.963   3.609  13.041 -0.0288  0.1749  0.6797
  696TMC3    C210288   0.951   3.506  13.138 -0.3771  0.3355 -0.3830
  696TMC3    C310289   0.845   3.519  13.232  0.1957  0.3337 -0.2851
  696TMC3    C410290   0.884   3.720  13.038  0.2200  0.1230  0.8325
  696TMC3    C510291   0.782   3.724  13.130 -0.2458 -0.3821 -0.4217
  696TMC3    C610292   0.758   3.623  13.218  0.3951 -0.9036 -0.2606
  696TMC3     C10293   1.076   3.623  12.964  0.8915 -0.8503  0.1651
  696TMC3     O10294   1.066   3.663  12.848  0.2540 -0.0732  0.2934
  696TMC3     H10295   1.012   3.417  13.131 -0.8119 -0.1450  1.9929
  696TMC3    H110296   0.892   3.800  12.965  0.8455 -0.0917  0.6654
  696TMC3    H210297   0.668   3.622  13.278  0.7890 -2.4388  0.2953
  696TMC3    C710298   0.735   3.853  13.170  0.3727  0.2353 -0.2859
  696TMC3    C810299   0.884   3.517  13.367  0.0247  0.3674  0.4880
  696TMC3    O110300   0.713   3.948  13.097  0.4606 -0.4872  0.2312
  696TMC3    O210301   0.832   3.610  13.426 -0.0412 -0.0154  0.0907
  697MPD2     C10302   0.246   0.977  15.596  0.0973 -0.4355  0.4805
  697MPD2    C110303   0.329   0.910  15.513 -0.1176  0.1345 -0.2104
  697MPD2    C210304   0.407   0.982  15.426  0.5284 -0.6397  1.1064
  697MPD2    C310305   0.417   1.122  15.451 -0.1813 -0.4387 -0.3506
  697MPD2    C410306   0.337   1.185  15.544  0.2889 -0.6130  0.3225
  697MPD2    C510307   0.254   1.114  15.618  0.4596 -0.2849  0.7201
  697MPD2     H10308   0.477   0.941  15.354 -0.9512  1.4509 -1.5400
  697MPD2    H110309   0.354   1.288  15.571  1.9054 -0.3143 -1.8630
  697MPD2    H210310   0.168   0.931  15.655 -0.1353  0.6127  0.9836
  697MPD2    H310311   0.200   1.172  15.692  1.4622 -0.3924  1.5446
  697MPD2     N10312   0.495   1.200  15.362 -1.2507  0.0042 -0.0689
  697MPD2    H510313   0.533   1.158  15.278 -0.0463  1.3435 -0.1914
  697MPD2    N110314   0.328   0.771  15.502  0.2901  0.5950 -0.4431
  697MPD2    H710315   0.411   0.724  15.466 -0.0584 -1.6279  1.6456
  698TMC3    C110316   0.607   1.385  15.273  0.4419 -0.3194  0.0582
  698TMC3    C210317   0.736   1.412  15.291  0.0433 -0.7190  0.0252
  698TMC3    C310318   0.818   1.436  15.182  0.7629  0.4071 -0.2665
  698TMC3    C410319   0.547   1.356  15.153 -0.5374  0.2520  0.6751
  698TMC3    C510320   0.630   1.398  15.051 -0.4744  0.1734 -0.3584
  698TMC3    C610321   0.765   1.425  15.057  0.0730  0.3649 -0.5160
  698TMC3     C10322   0.539   1.330  15.386  0.4756 -0.1238 -0.8592
  698TMC3     O10323   0.551   1.397  15.485 -0.1615 -0.4480  1.2236
  698TMC3     H10324   0.779   1.427  15.390 -1.7137  0.7123  0.5617
  698TMC3    H110325   0.448   1.313  15.149 -0.8176  0.7033  2.5824
  698TMC3    H210326   0.815   1.453  14.965  0.0427 -1.2930 -1.0354
  698TMC3    C710327   0.571   1.397  14.918  0.0725  0.0447 -1.0291
  698TMC3    C810328   0.956   1.478  15.198 -0.0189  0.0630  0.0831
  698TMC3    O110329   0.640   1.383  14.818  0.4949 -0.5005 -0.0591
  698TMC3    O210330   0.992   1.511  15.310  0.4416 -0.0432 -0.2532
  699TMC3    C110331   0.710   3.662  12.671  0.2098  0.7388 -0.6516
  699TMC3    C210332   0.718   3.541  12.736  0.0424  0.3760 -0.3794
  699TMC3    C310333   0.646   3.527  12.852 -0.1852  0.2040  0.5529
  699TMC3    C410334   0.615   3.749  12.698 -0.3716  0.6866  0.5352
  699TMC3    C510335   0.537   3.727  12.806 -0.1731  0.4761  0.4076
  699TMC3    C610336   0.559   3.621  12.896 -0.2493  0.5446  0.6924
  699TMC3     C10337   0.785   3.691  12.549  0.3470  0.3493  0.4069
  699TMC3     O10338   0.843   3.801  12.551  0.3014  0.0697  0.3235
  699TMC3     H10339   0.790   3.464  12.714  0.7301  0.9818 -0.2284
  699TMC3    H110340   0.617   3.833  12.628  1.9048 -1.1480 -1.6029
  699TMC3    H210341   0.514   3.611  12.994 -1.7769 -4.0087 -0.4231
  699TMC3    C710342   0.400   3.768  12.799 -0.2779 -0.0162 -0.2479
  699TMC3    C810343   0.638   3.397  12.924  0.1360  0.6657  0.6635
  699TMC3    O110344   0.346   3.766  12.909  0.9063 -0.1471  0.1867
  699TMC3    O210345   0.629   3.405  13.046 -0.0752  0.3735 -1.1149
  700TMC3    C110346   4.293   1.403  17.614 -0.7086  1.0382 -0.4229
  700TMC3    C210347   4.288   1.274  17.570 -0.4818 -0.2980 -0.3111
  700TMC3    C310348   4.385   1.192  17.606  0.0442  0.2462 -0.7725
  700TMC3    C410349   4.397   1.450  17.688 -0.1468 -0.2380 -0.4509
  700TMC3    C510350   4.497   1.360   0.023  0.5616  0.7616 -0.7042
  700TMC3    C610351   4.497   1.237  17.664  0.2489  0.4721  0.1616
  700TMC3     C10352   4.188   1.492  17.560 -0.0914 -0.5141 -0.2430
  700TMC3     O10353   4.075   1.450  17.545  0.5495 -0.1908  0.3619
  700TMC3     H10354   4.204   1.246  17.507 -1.0546 -2.2172  1.3188
  700TMC3    H110355   4.409   1.554   0.019 -1.9001 -0.4026  1.0144
  700TMC3    H210356   4.576   1.166  17.688  0.3442  0.8419  0.9279
  700TMC3    C710357   4.602   1.391   0.118 -0.1860 -0.9633 -0.1329
  700TMC3    C810358   4.405   1.069  17.534  0.4823  0.1273 -0.4474
  700TMC3    O110359   4.698   1.311   0.125  0.0106 -0.3489 -0.3946
  700TMC3    O210360   4.520   1.060  17.486 -0.0639  0.1071 -0.1053
  701TMC3    C110361   0.033   4.717  15.628 -0.3728  0.5084 -0.7214
  701TMC3    C210362   0.070   4.716  15.497 -0.6033  0.0302  0.1009
  701TMC3    C310363   0.109   0.112  15.446 -0.2029 -0.2113 -0.1369
  701TMC3    C410364   0.015   0.104  15.702  0.0070 -0.0288  0.5882
  701TMC3    C510365   0.057   0.224  15.641  0.3026  0.7883  0.0425
  701TMC3    C610366   0.110   0.227  15.518  0.6318 -0.1500 -0.9118
  701TMC3     C10367   4.693   4.601  15.683  0.0270  0.3856 -0.3214
  701TMC3     O10368   4.611   4.617  15.774  0.4620 -1.3047 -0.7496
  701TMC3     H10369   0.059   4.623  15.443  1.4362  0.9728 -1.9479
  701TMC3    H110370   4.698   0.096  15.802  0.2447 -1.3403  0.5773
  701TMC3    H210371   0.142   0.321  15.475  0.6300  0.6670  0.8475
  701TMC3    C710372   4.699   0.337  15.670  0.4247  0.2163 -0.0952
  701TMC3    C810373   0.104   0.127  15.297 -0.2621 -0.0971  0.7972
  701TMC3    O110374   4.651   0.401  15.583 -0.2206  0.6431  0.2290
  701TMC3    O210375   0.172   0.217  15.251 -0.3808  1.0438 -0.4860
  702MPD2     C10376   4.052   2.029  10.464  0.0448  0.2182  0.3034
  702MPD2    C110377   3.949   2.115  10.442 -0.3160  0.2148  0.2486
  702MPD2    C210378   3.950   2.197  10.328 -0.1396  1.0443  0.4260
  702MPD2    C310379   4.060   2.191  10.247 -0.2742 -0.3003  0.1327
  702MPD2    C410380   4.167   2.117  10.276  0.3144 -0.2094  0.1714
  702MPD2    C510381   4.165   2.032  10.384 -0.2840  0.1342  0.4657
  702MPD2     H10382   3.867   2.259  10.295 -1.8028 -2.3917 -1.9325
  702MPD2    H110383   4.253   2.114  10.211 -1.2324 -1.1689 -1.8414
  702MPD2    H210384   4.051   1.965  10.552  0.1425 -0.2418 -0.0289
  702MPD2    H310385   4.250   1.975  10.418  0.3551  1.7865  1.6663
  702MPD2     N10386   4.075   2.271  10.129 -0.3573  0.1806 -0.2609
  702MPD2    H510387   4.161   2.253  10.079 -0.3763  0.3498 -0.3557
  702MPD2    N110388   3.831   2.107  10.515  0.1295  0.2359  0.3345
  702MPD2    H710389   3.756   2.172  10.494 -0.8942 -1.9197 -2.5783
  703TMC3    C110390   4.024   2.425   9.959  0.1542 -0.6057 -1.0819
  703TMC3    C210391   3.921   2.490   9.893  0.5956  0.4618  0.0347
  703TMC3    C310392   3.954   2.604   9.829 -1.1599  0.2207 -0.1237
  703TMC3    C410393   4.152   2.482   9.965  0.1543 -0.4071 -0.3715
  703TMC3    C510394   4.186   2.592   9.887 -0.1056  0.0797  0.0685
  703TMC3    C610395   4.085   2.654   9.817 -0.6134  0.2945 -0.4020
  703TMC3     C10396   3.988   2.366  10.077  0.8058  0.9314  0.6765
  703TMC3     O10397   3.876   2.406  10.116 -0.2493  0.3401 -0.2697
  703TMC3     H10398   3.817   2.459   9.895  1.0796 -1.1443 -0.3956
  703TMC3    H110399   4.222   2.450  10.042  2.7054 -0.1885 -2.6118
  703TMC3    H210400   4.104   2.753   9.778  1.0495 -0.0365 -0.4182
  703TMC3    C710401   4.314   2.663   9.890 -0.1942 -0.1552 -0.4473
  703TMC3    C810402   3.853   2.708   9.833  0.2758  0.2454 -0.4537
  703TMC3    O110403   4.327   2.762   9.816 -0.4211 -0.6880  0.4489
  703TMC3    O210404   3.883   2.816   9.786  0.4162 -0.4716 -0.5871
  704TMC3    C110405   1.162   0.664  12.297  0.0427  0.1088  0.5364
  704TMC3    C210406   1.293   0.698  12.309 -0.2787  0.4200  0.2694
  704TMC3    C310407   1.375   0.634  12.393 -0.6788 -0.5493  0.9822
  704TMC3    C410408   1.103   0.558  12.363 -0.2100 -0.4222  0.4270
  704TMC3    C510409   1.194   0.489  12.439  0.0836  0.2946 -0.2395
  704TMC3    C610410   1.326   0.527  12.460  0.0791 -0.3112 -0.5720
  704TMC3     C10411   1.086   0.732  12.195  0.2657 -0.1298 -0.4475
  704TMC3     O10412   0.965   0.717  12.200  0.3162 -0.0425  0.2374
  704TMC3     H10413   1.338   0.784  12.260  0.5941 -0.5583 -0.6518
  704TMC3    H110414   1.010   0.511  12.330 -0.8444  1.2573 -0.1713
  704TMC3    H210415   1.389   0.458  12.516 -1.8324 -0.2489  1.6491
  704TMC3    C710416   1.189   0.346  12.423 -0.4578  0.2188  0.1240
  704TMC3    C810417   1.513   0.644  12.361 -0.0446 -0.0319  0.2274
  704TMC3    O110418   1.277   0.303  12.350  0.0391 -0.5999 -0.1872
  704TMC3    O210419   1.548   0.700  12.261 -0.0830  0.1296 -0.0612
  705MPD2     C10420   1.405   3.404  16.472 -0.7797  0.4915  0.7041
  705MPD2    C110421   1.421   3.539  16.486  0.0977 -0.0536  0.2623
  705MPD2    C210422   1.366   3.599  16.604  0.0131 -0.8729  0.4657
  705MPD2    C310423   1.294   3.523  16.695  0.4137  0.5391  0.3056
  705MPD2    C410424   1.270   3.389  16.665 -0.5245  0.1201  0.4940
  705MPD2    C510425   1.333   3.334  16.561  0.2148 -0.2095 -0.3138
  705MPD2     H10426   1.378   3.707  16.612  0.9681 -1.0183  0.9316
  705MPD2    H110427   1.214   3.331  16.738 -1.2925  1.2851  0.8227
  705MPD2    H210428   1.432   3.354  16.380  0.2086  0.2624  1.1195
  705MPD2    H310429   1.315   3.230  16.537  0.9544  0.1879 -2.5593
  705MPD2     N10430   1.232   3.574  16.807  0.3982 -0.1848 -0.3585
  705MPD2    H510431   1.187   3.506  16.868  1.7876  0.0614  0.9365
  705MPD2    N110432   1.480   3.627  16.392 -0.5679 -0.2943 -0.1689
  705MPD2    H710433   1.499   3.724  16.415 -2.6243 -0.2195  1.2046
  706TMC3    C110434   1.759   3.736  16.034 -0.0256  0.1987 -0.4608
  706TMC3    C210435   1.776   3.862  16.081  0.1889 -0.4377 -0.3225
  706TMC3    C310436   1.704   3.901  16.191  0.1443  0.0434 -0.0552
  706TMC3    C410437   1.681   3.649  16.097  0.3444  0.5997  0.2372
  706TMC3    C510438   1.611   3.695  16.208  0.0311 -0.5899  0.0628
  706TMC3    C610439   1.627   3.821  16.272 -0.0550  0.0255  0.8311
  706TMC3     C10440   1.818   3.708  15.904  0.1308 -0.7125  0.2480
  706TMC3     O10441   1.908   3.783  15.871 -0.2826  0.3986  0.4124
  706TMC3     H10442   1.838   3.929  16.022  1.5697 -0.6731  0.8673
  706TMC3    H110443   1.666   3.548  16.059 -1.7425  1.2652 -0.6775
  706TMC3    H210444   1.568   3.863  16.353 -0.4031  1.5229 -0.2048
  706TMC3    C710445   1.531   3.592  16.273  0.4724 -0.1651  0.2502
  706TMC3    C810446   1.666   4.033  16.165 -0.2286  0.3143 -0.2429
  706TMC3    O110447   1.539   3.477  16.226 -0.4764 -0.3084  0.0770
  706TMC3    O210448   1.644   4.062  16.052 -0.3434  0.1096 -0.1474
  707TMC3    C110449   2.953   2.389   2.217 -0.5188  0.1078  0.4518
  707TMC3    C210450   3.071   2.388   2.286 -0.0249 -0.6087  0.3075
  707TMC3    C310451   3.060   2.366   2.424 -0.1813 -0.4476  0.0844
  707TMC3    C410452   2.826   2.374   2.274 -0.5170  0.8556  0.4221
  707TMC3    C510453   2.820   2.365   2.414  0.5082  0.0739  0.5211
  707TMC3    C610454   2.933   2.352   2.488 -0.0897  0.3327 -0.6153
  707TMC3     C10455   2.957   2.436   2.082  0.4413 -0.0102  0.1478
  707TMC3     O10456   3.050   2.509   2.056  0.5551 -0.0420 -0.4078
  707TMC3     H10457   3.164   2.406   2.232 -0.8590  1.1027 -0.5478
  707TMC3    H110458   2.733   2.379   2.219 -0.3926  0.2973  0.1675
  707TMC3    H210459   2.939   2.322   2.592  1.7460  0.0408 -0.7953
  707TMC3    C710460   2.699   2.304   2.469 -0.0895  0.4720  0.2600
  707TMC3    C810461   3.183   2.320   2.499 -0.4623  0.7259  0.3871
  707TMC3    O110462   2.716   2.255   2.579 -0.1786 -0.5521 -0.7423
  707TMC3    O210463   3.172   2.325   2.622 -0.1992 -0.2244 -0.2386
  708MPD2     C10464   4.521   2.345  14.084  0.0355 -0.0757 -0.1389
  708MPD2    C110465   4.506   2.231  14.004 -0.4826 -0.3691 -0.4925
  708MPD2    C210466   4.617   2.163  13.952  0.2096 -0.4795  0.5435
  708MPD2    C310467   0.021   2.214  13.983  0.2303 -0.3497  0.8608
  708MPD2    C410468   0.034   2.324  14.068  0.0314  0.6535  0.3797
  708MPD2    C510469   4.646   2.393  14.112  0.4111  0.3968  0.0892
  708MPD2     H10470   4.610   2.065  13.907  0.7578 -0.7720  1.0926
  708MPD2    H110471   0.125   2.370  14.104  0.8029 -0.9436  0.4692
  708MPD2    H210472   4.433   2.404  14.106  0.8285  1.3501 -0.8154
  708MPD2    H310473   4.664   2.490  14.157 -3.4270  1.6081 -0.9869
  708MPD2     N10474   0.141   2.142  13.958  0.1416  0.1869 -0.4878
  708MPD2    H510475   0.228   2.187  13.985 -0.9122  1.3697  0.8960
  708MPD2    N110476   4.381   2.168  13.987 -0.1793 -0.1888 -0.0277
  708MPD2    H710477   4.373   2.086  13.927 -2.4061 -1.0590  1.4386
  709TMC3    C110478   4.168   2.088  14.041  1.1334 -0.6311 -0.0305
  709TMC3    C210479   4.141   2.067  13.908 -0.1859  0.2802  0.2983
  709TMC3    C310480   4.116   1.938  13.872  0.0919 -0.1829  0.1993
  709TMC3    C410481   4.188   1.983  14.126  0.2741 -0.6065  0.0938
  709TMC3    C510482   4.185   1.854  14.077 -0.0865  0.1523 -0.0330
  709TMC3    C610483   4.147   1.829  13.946  0.5792  0.6359 -0.4464
  709TMC3     C10484   4.266   2.190  14.063  0.1332  0.7609 -0.0167
  709TMC3     O10485   4.254   2.260  14.160  0.0358 -0.1759 -0.0711
  709TMC3     H10486   4.118   2.153  13.848 -0.1448 -0.1464 -0.3306
  709TMC3    H110487   4.234   2.002  14.223 -1.5416 -1.1381  1.0434
  709TMC3    H210488   4.131   1.731  13.902  0.5760  0.0173  0.9510
  709TMC3    C710489   4.310   1.791  14.104  0.5863 -0.2306 -0.4182
  709TMC3    C810490   4.034   1.907  13.752  0.0711  0.0962 -0.6661
  709TMC3    O110491   4.373   1.729  14.019 -0.0039  0.7210 -0.1472
  709TMC3    O210492   3.975   1.796  13.759  0.3539  0.3437  0.3984
  710TMC3    C110493   0.655   3.858   0.342 -0.3044  0.1189  0.2927
  710TMC3    C210494   0.738   3.770   0.280 -0.1385 -0.6206 -0.0044
  710TMC3    C310495   0.865   3.762   0.324  0.3189  0.3185 -0.2502
  710TMC3    C410496   0.703   3.946   0.439  0.2650  0.1227  0.1251
  710TMC3    C510497   0.834   3.946   0.471  0.8071 -0.0909  0.1911
  710TMC3    C610498   0.919   3.849   0.417 -0.5200  0.3130 -0.1118
  710TMC3     C10499   0.513   3.825   0.319 -0.3816  0.4404 -1.0157
  710TMC3     O10500   0.484   3.742   0.236  0.3902 -0.2935  0.1208
  710TMC3     H10501   0.701   3.694   0.213 -4.2071 -0.0394  1.5531
  710TMC3    H110502   0.632   4.010   0.489  0.6466  0.0806  0.7177
  710TMC3    H210503   1.024   3.846   0.443 -1.0605  0.2928  2.0113
  710TMC3    C710504   0.869   3.988   0.608  0.5731  0.0454  0.1267
  710TMC3    C810505   0.951   3.650   0.296 -0.2871 -0.0939 -0.1591
  710TMC3    O110506   0.944   3.909   0.673 -0.3115  0.3553  0.1045
  710TMC3    O210507   1.073   3.666   0.296  0.4349 -0.0180 -0.4137
  711TMC3    C110508   0.296   4.509  15.117  0.8630 -0.0560 -0.3131
  711TMC3    C210509   0.273   4.548  15.243  0.3522 -0.3525  0.4089
  711TMC3    C310510   0.364   4.618  15.305  0.2062  0.1286  1.1362
  711TMC3    C410511   0.416   4.541  15.055  0.1354 -0.5749  0.4198
  711TMC3    C510512   0.504   4.630  15.114  0.4065  0.5681  0.0208
  711TMC3    C610513   0.467   4.672  15.238  0.4237  0.5378 -0.7534
  711TMC3     C10514   0.200   4.429  15.037 -0.2871 -0.1205  0.0257
  711TMC3     O10515   0.208   4.427  14.915  0.0689  0.1504  0.3962
  711TMC3     H10516   0.175   4.534  15.286  0.8938  0.4607  1.9061
  711TMC3    H110517   0.436   4.492  14.960  2.5356  0.9905  0.1222
  711TMC3    H210518   0.532   0.026  15.275  1.1968 -1.0865  1.3042
  711TMC3    C710519   0.639   4.614  15.102  0.9204  0.0538  0.6505
  711TMC3    C810520   0.398   4.574  15.438 -0.0581  0.8868 -0.2906
  711TMC3    O110521   0.706   4.638  15.205  0.2807 -0.2323  0.7834
  711TMC3    O210522   0.312   4.519  15.503  0.2816  0.3182 -0.4479
  712MPD2     C10523   1.466   0.175  13.507  0.1883 -0.1835  0.3264
  712MPD2    C110524   1.435   0.223  13.382 -0.8552  0.3375  1.0599
  712MPD2    C210525   1.515   0.325  13.325  0.2821 -0.1041 -0.6148
  712MPD2    C310526   1.620   0.371  13.403 -0.3116 -0.1724 -0.1674
  712MPD2    C410527   1.648   0.316  13.525 -0.1892 -0.1593 -0.3579
  712MPD2    C510528   1.568   0.227  13.580 -0.0615  0.2316  0.1806
  712MPD2     H10529   1.503   0.378  13.231 -1.1784  0.4264 -0.1257
  712MPD2    H110530   1.736   0.350  13.578 -0.8742  0.7265  0.2045
  712MPD2    H210531   1.414   0.086  13.541  1.4398 -0.9197  0.3339
  712MPD2    H310532   1.591   0.185  13.677  0.7919  1.2813  0.4262
  712MPD2     N10533   1.693   0.489  13.368  0.4239 -0.0270 -0.1252
  712MPD2    H510534   1.758   0.521  13.440  0.0344  0.1658  0.1428
  712MPD2    N110535   1.328   0.170  13.310  0.1635 -0.1125  0.0729
  712MPD2    H710536   1.275   0.104  13.366  1.7316 -1.0215  0.4880
  713TMC3    C110537   1.691   0.721  13.326  0.3382 -0.5303 -0.5675
  713TMC3    C210538   1.826   0.722  13.353 -0.5206 -0.2027 -0.6778
  713TMC3    C310539   1.878   0.843  13.396  0.0234  1.0272 -1.0565
  713TMC3    C410540   1.599   0.822  13.344  0.4098  0.1450 -0.5830
  713TMC3    C510541   1.658   0.941  13.381  0.1585 -0.6617  0.1683
  713TMC3    C610542   1.794   0.952  13.403  0.6606  0.3667  0.0648
  713TMC3     C10543   1.646   0.587  13.285  0.0605  0.6159 -0.0485
  713TMC3     O10544   1.558   0.591  13.196  0.0209  0.0957 -0.2873
  713TMC3     H10545   1.889   0.634  13.343 -0.4098 -0.4196  2.0664
  713TMC3    H110546   1.492   0.814  13.335  0.3615 -0.4012  0.5112
  713TMC3    H210547   1.833   1.052  13.413  2.9693 -0.6477  1.3148
  713TMC3    C710548   1.607   1.060  13.322  0.4834 -0.0341 -0.1239
  713TMC3    C810549   2.024   0.864  13.383  0.1595  0.5169  0.8683
  713TMC3    O110550   1.683   1.151  13.308  0.4139 -0.2548  0.4216
  713TMC3    O210551   2.072   0.977  13.361  0.6091 -0.4378 -0.0615
  714MPD2     C10552   3.324   4.348   1.449 -0.3185  0.9853  0.4311
  714MPD2    C110553   3.404   4.313   1.346  0.1504  0.2924  0.2275
  714MPD2    C210554   3.356   4.321   1.217 -0.4613 -0.0367  0.0468
  714MPD2    C310555   3.238   4.387   1.194 -0.0176  0.5071 -0.3430
  714MPD2    C410556   3.169   4.434   1.300 -0.8900  0.2950  0.2587
  714MPD2    C510557   3.208   4.411   1.427  0.5940  0.6093  0.2251
  714MPD2     H10558   3.412   4.282   1.133  1.2662  1.9677  0.2675
  714MPD2    H110559   3.079   4.493   1.287  1.3934  3.2365 -2.2922
  714MPD2    H210560   3.361   4.341   1.551 -2.8054 -0.0382  1.2709
  714MPD2    H310561   3.155   4.446   1.515  0.0086 -1.8390  0.8736
  714MPD2     N10562   3.201   4.413   1.064  0.2453 -0.3557 -0.8130
  714MPD2    H510563   3.268   4.384   0.993  0.7312 -1.6961  0.2105
  714MPD2    N110564   3.539   4.266   1.365  0.5158  0.6650  0.3771
  714MPD2    H710565   3.574   4.264   1.460  1.0789  1.2078  0.1900
  715TMC3    C110566   3.752   4.162   1.325 -0.4791  0.0545 -0.0844
  715TMC3    C210567   3.823   4.073   1.252 -0.3260 -0.1108  0.2356
  715TMC3    C310568   3.958   4.070   1.267 -0.0175  0.4598  0.4078
  715TMC3    C410569   3.808   4.247   1.414  0.1141 -0.2130  0.3366
  715TMC3    C510570   3.943   4.233   1.438 -0.5142  0.2141 -0.4038
  715TMC3    C610571   4.022   4.143   1.365 -0.1508  0.8053  0.3673
  715TMC3     C10572   3.625   4.209   1.271 -0.0795 -0.1693 -0.1328
  715TMC3     O10573   3.616   4.198   1.150  0.2510 -0.4521  0.2677
  715TMC3     H10574   3.786   4.009   1.173  0.1298  0.1367 -0.1706
  715TMC3    H110575   3.751   4.325   1.464 -0.7071 -2.4141  2.8665
  715TMC3    H210576   4.129   4.140   1.379 -0.1106 -1.4260 -0.4872
  715TMC3    C710577   4.019   4.318   1.524 -0.2579  0.4781  0.6268
  715TMC3    C810578   4.025   3.959   1.204  0.7884  0.3824 -0.2563
  715TMC3    O110579   4.124   4.365   1.472  0.7118  0.6835 -0.1788
  715TMC3    O210580   3.962   3.865   1.163  0.9744  0.1542  0.6196
  716MPD2     C10581   4.257   2.581   8.920  0.5141  0.2274  0.3700
  716MPD2    C110582   4.133   2.584   8.967  0.3831 -0.0252  0.3393
  716MPD2    C210583   4.069   2.471   8.980 -0.0529 -0.3970  0.1660
  716MPD2    C310584   4.108   2.352   8.927 -0.3829  0.5191  0.9070
  716MPD2    C410585   4.232   2.346   8.867  0.0130  0.5032 -0.4652
  716MPD2    C510586   4.305   2.463   8.868  0.0854  0.0605  0.5850
  716MPD2     H10587   3.968   2.484   9.018  0.3185  1.1580  0.6051
  716MPD2    H110588   4.263   2.257   8.814 -0.0586  0.5092 -0.5173
  716MPD2    H210589   4.329   2.663   8.918  2.0132 -1.0645  1.1273
  716MPD2    H310590   4.404   2.461   8.825  0.9234  1.0847  2.4867
  716MPD2     N10591   4.019   2.245   8.937 -0.2715 -0.0427 -0.1152
  716MPD2    H510592   3.932   2.256   8.988 -1.7022 -0.6182 -2.4286
  716MPD2    N110593   4.067   2.700   9.018 -0.3341 -0.0731 -0.4450
  716MPD2    H710594   3.975   2.684   9.058 -0.1016  1.9382  0.8870
  717TMC3    C110595   3.925   2.035   8.902 -0.8310 -0.8509  0.5378
  717TMC3    C210596   3.800   2.082   8.902 -0.3509 -0.3165  0.4660
  717TMC3    C310597   3.700   1.991   8.894  0.2912  0.6282  0.3109
  717TMC3    C410598   3.949   1.904   8.902  0.6985  0.0780  0.3806
  717TMC3    C510599   3.849   1.814   8.914  0.9142  0.2283  0.0395
  717TMC3    C610600   3.720   1.857   8.905 -0.3281  0.4196 -0.4739
  717TMC3     C10601   4.035   2.123   8.876 -0.3788  0.0754 -0.0695
  717TMC3     O10602   4.118   2.075   8.799  0.2529  0.4523 -0.4780
  717TMC3     H10603   3.775   2.186   8.881 -1.0300 -0.4340  0.7071
  717TMC3    H110604   4.054   1.891   8.921  1.1558  2.8756 -0.2347
  717TMC3    H210605   3.637   1.790   8.921 -0.5257  0.6326 -0.6146
  717TMC3    C710606   3.873   1.670   8.919 -0.3512  0.2814 -0.4325
  717TMC3    C810607   3.570   2.043   8.882  0.8991 -0.3275 -0.2054
  717TMC3    O110608   3.796   1.596   8.861 -0.5834  0.0862  0.5908
  717TMC3    O210609   3.565   2.155   8.927 -0.4216  0.0722 -0.2375
  718MPD2     C10610   3.460   1.083  12.448 -0.1438 -0.3093  0.0939
  718MPD2    C110611   3.379   1.072  12.338 -0.0262 -0.3542 -0.2567
  718MPD2    C210612   3.249   1.020  12.350 -0.5297  0.2418  0.7326
  718MPD2    C310613   3.200   0.985  12.476  0.4656 -0.1332  0.3454
  718MPD2    C410614   3.277   1.007  12.581  0.0930  0.1031  0.2650
  718MPD2    C510615   3.409   1.048  12.572  0.3276  0.2973 -0.0768
  718MPD2     H10616   3.182   1.014  12.265  1.4842 -1.8332 -0.7070
  718MPD2    H110617   3.247   0.978  12.681  2.4796  1.9993  1.5383
  718MPD2    H210618   3.564   1.112  12.443  0.6983 -2.7315  3.7075
  718MPD2    H310619   3.472   1.060  12.659  0.7768  0.3651 -0.4144
  718MPD2     N10620   3.059   0.965  12.479 -0.0781 -0.2127 -0.8881
  718MPD2    H510621   3.013   0.969  12.388 -2.4967 -0.3855  0.3331
  718MPD2    N110622   3.426   1.121  12.213  0.3512  0.2360  0.7078
  718MPD2    H710623   3.498   1.192  12.221  0.7989 -0.3628  1.9420
  719TMC3    C110624   3.401   1.197  11.998 -0.3165  0.3476 -0.1466
  719TMC3    C210625   3.320   1.178  11.884 -0.4685  0.5373  0.2844
  719TMC3    C310626   3.252   1.284  11.838 -0.0448  0.3305 -0.4575
  719TMC3    C410627   3.429   1.321  12.047  0.1825 -0.6589  0.2617
  719TMC3    C510628   3.384   1.425  11.972 -0.2346  0.6425  0.4481
  719TMC3    C610629   3.289   1.409  11.872 -0.4581 -0.0293  0.0054
  719TMC3     C10630   3.369   1.101  12.097  0.5027  0.1693  0.0730
  719TMC3     O10631   3.288   1.016  12.065  0.3701 -0.2321  0.4736
  719TMC3     H10632   3.308   1.074  11.858 -0.8645  0.9666 -1.2581
  719TMC3    H110633   3.481   1.341  12.141  0.9511  2.9543 -0.9192
  719TMC3    H210634   3.244   1.500  11.831 -2.6892 -0.3305  1.7886
  719TMC3    C710635   3.461   1.550  11.982  0.2975 -0.4218  0.0569
  719TMC3    C810636   3.106   1.260  11.863  0.4118 -0.0079 -0.5219
  719TMC3    O110637   3.569   1.557  12.042 -0.2714 -0.2867 -0.0442
  719TMC3    O210638   3.081   1.141  11.890  0.0540 -0.2144 -0.2717
  720MPD2     C10639   1.867   2.450  13.835 -0.7616 -0.0280  0.1210
  720MPD2    C110640   1.956   2.446  13.725 -1.0840  0.2421 -0.1632
  720MPD2    C210641   2.088   2.419  13.756  0.0183 -0.5700 -0.6096
  720MPD2    C310642   2.144   2.441  13.882 -0.0407 -0.1649 -0.0290
  720MPD2    C410643   2.056   2.439  13.988  0.0945  0.1989 -0.3730
  720MPD2    C510644   1.916   2.440  13.968  0.1564 -0.4719  0.2248
  720MPD2     H10645   2.163   2.418  13.677 -0.8793 -1.0241 -1.4523
  720MPD2    H110646   2.091   2.426  14.090  1.0798 -0.3671 -0.7880
  720MPD2    H210647   1.760   2.466  13.833 -0.3641  2.2900 -1.8868
  720MPD2    H310648   1.855   2.446  14.057 -0.0986  0.3474 -0.0038
  720MPD2     N10649   2.286   2.470  13.893  0.1297  0.2106  0.0774
  720MPD2    H510650   2.346   2.452  13.813 -0.1206  1.3832 -0.3844
  720MPD2    N110651   1.919   2.481  13.596 -0.7093 -0.0628 -0.2829
  720MPD2    H710652   1.991   2.507  13.528 -1.9721  2.3727 -0.6884
  721TMC3    C110653   2.485   2.498  13.995 -0.5163  0.6379  0.4841
  721TMC3    C210654   2.552   2.470  14.122 -0.3312  0.3732 -0.7600
  721TMC3    C310655   2.682   2.491  14.104  0.1184  0.1365 -0.1894
  721TMC3    C410656   2.541   2.498  13.872  0.3768  0.3142 -0.2519
  721TMC3    C510657   2.676   2.486  13.861 -0.1225  0.0501  0.5310
  721TMC3    C610658   2.747   2.488  13.979  0.4344 -0.7600  0.7070
  721TMC3     C10659   2.347   2.504  14.012  0.0012 -0.1068  0.7026
  721TMC3     O10660   2.300   2.515  14.125  0.2981 -0.9379  0.0535
  721TMC3     H10661   2.499   2.458  14.216 -0.8138 -1.7419 -1.3084
  721TMC3    H110662   2.484   2.531  13.786 -1.3793 -0.3079  0.6665
  721TMC3    H210663   2.855   2.494  13.973  0.3552 -1.0870 -1.0963
  721TMC3    C710664   2.742   2.521  13.737  0.5531  0.4463 -0.2489
  721TMC3    C810665   2.773   2.475  14.217  0.0317 -0.4149  0.6462
  721TMC3    O110666   2.837   2.598  13.743  0.3926 -0.0605  0.2439
  721TMC3    O210667   2.880   2.536  14.206 -0.0091  0.4602 -0.1520
  722MPD2     C10668   0.537   1.271  12.725 -0.1825  0.0626 -0.2669
  722MPD2    C110669   0.459   1.215  12.821  0.7653 -0.3919  0.2118
  722MPD2    C210670   0.318   1.218  12.802  0.2573  0.3075 -0.3527
  722MPD2    C310671   0.258   1.283  12.688 -0.3741 -0.5247 -0.3323
  722MPD2    C410672   0.345   1.342  12.600 -0.6929 -0.0197 -0.3237
  722MPD2    C510673   0.481   1.341  12.623 -1.0814  0.1929 -0.1865
  722MPD2     H10674   0.267   1.149  12.869 -0.9568  1.4390 -0.1202
  722MPD2    H110675   0.304   1.400  12.518  1.0622  2.8918  0.8713
  722MPD2    H210676   0.645   1.279  12.732 -0.2972  1.0451  0.4451
  722MPD2    H310677   0.549   1.389  12.554  0.5216 -0.2580  1.0883
  722MPD2     N10678   0.118   1.286  12.680  0.1599 -0.1684  0.9835
  722MPD2    H510679   0.053   1.247  12.747  0.9351  1.5456  2.7166
  722MPD2    N110680   0.511   1.147  12.931  0.2044 -0.2807  0.4868
  722MPD2    H710681   0.446   1.083  12.976  0.4346  0.2353  1.5449
  723TMC3    C110682   4.639   1.342  12.602 -0.4560  0.0066 -0.2990
  723TMC3    C210683   4.586   1.218  12.592  0.0525  0.0705  0.6820
  723TMC3    C310684   4.452   1.202  12.596 -0.0216  0.5051  0.1707
  723TMC3    C410685   4.563   1.451  12.629 -1.2730  0.5915  0.0478
  723TMC3    C510686   4.425   1.440  12.612 -0.0482 -0.5774  0.1865
  723TMC3    C610687   4.371   1.316  12.604 -0.0317  0.0621  0.3984
  723TMC3     C10688   0.054   1.366  12.589  0.3479 -0.1867  0.3281
  723TMC3     O10689   0.091   1.471  12.534  0.1467 -0.4272  0.4615
  723TMC3     H10690   4.643   1.136  12.550  1.2575  1.7661 -0.9898
  723TMC3    H110691   4.613   1.547  12.621 -0.3920  0.1423  0.1604
  723TMC3    H210692   4.264   1.308  12.592 -0.0422 -0.6820  0.9886
  723TMC3    C710693   4.335   1.546  12.576  0.4882 -1.0037 -0.5688
  723TMC3    C810694   4.384   1.091  12.522 -0.2261 -0.6510 -0.6317
  723TMC3    O110695   4.220   1.522  12.541 -0.5833 -0.8605 -0.3224
  723TMC3    O210696   4.286   1.120  12.450 -0.5713  0.3097  0.5550
  724TMC3    C110697   0.845   4.052  10.437 -0.1697  0.2647  0.0313
  724TMC3    C210698   0.794   4.017  10.315 -0.0995 -0.0876  0.1870
  724TMC3    C310699   0.813   4.105  10.212  0.6239 -0.7524  0.0908
  724TMC3    C410700   0.928   4.156  10.455  0.3554 -0.3365 -0.6570
  724TMC3    C510701   0.958   4.234  10.350  0.6584 -0.5532  0.2282
  724TMC3    C610702   0.901   4.207  10.226 -0.6198  0.0013  0.5911
  724TMC3     C10703   0.873   3.947  10.539  0.0935 -0.7701  0.4486
  724TMC3     O10704   0.910   3.979  10.651  0.7746 -0.4803 -0.4971
  724TMC3     H10705   0.697   3.968  10.316  0.2450 -0.7854 -1.1985
  724TMC3    H110706   0.962   4.173  10.557  1.4403 -0.8422 -0.9252
  724TMC3    H210707   0.923   4.286  10.154 -1.7417 -0.6572 -0.4799
  724TMC3    C710708   1.035   4.357  10.368  0.3716 -0.6025 -0.5190
  724TMC3    C810709   0.710   4.113  10.110  0.5843  0.2619  0.3506
  724TMC3    O110710   1.045   4.427  10.268 -0.1054 -0.0901  0.3990
  724TMC3    O210711   0.602   4.059  10.136  0.5592  0.0289 -0.4508
  725TMC3    C110712   2.344   3.109  12.760  0.2361  0.1638 -0.1661
  725TMC3    C210713   2.222   3.161  12.727 -0.2590  1.0197  0.0704
  725TMC3    C310714   2.121   3.074  12.684  0.1080 -0.1669 -0.6632
  725TMC3    C410715   2.365   2.973  12.748 -0.4520 -0.5730  0.4460
  725TMC3    C510716   2.270   2.891  12.696 -0.3049  0.2548 -0.3010
  725TMC3    C610717   2.146   2.944  12.665 -0.8191  0.6436 -0.2334
  725TMC3     C10718   2.442   3.207  12.797  0.1811 -0.4268 -0.3264
  725TMC3     O10719   2.406   3.320  12.791  0.0613  0.4072 -0.2920
  725TMC3     H10720   2.205   3.268  12.734  1.7383  1.3525 -0.1932
  725TMC3    H110721   2.461   2.933  12.780  0.3667  0.1304 -1.1565
  725TMC3    H210722   2.079   2.881  12.609  1.0843  0.4903 -2.3420
  725TMC3    C710723   2.313   2.793  12.600 -0.0667  0.8837 -0.1422
  725TMC3    C810724   1.998   3.121  12.626  0.0869 -0.3433 -0.2631
  725TMC3    O110725   2.299   2.834  12.483 -0.2199 -0.5619 -0.4145
  725TMC3    O210726   1.897   3.054  12.633 -0.0537 -0.2229  0.2215
  726MPD2     C10727   0.335   4.633  10.393 -0.1036  0.5667 -0.5478
  726MPD2    C110728   0.258   4.719  10.315 -0.8515  0.1219  0.1148
  726MPD2    C210729   0.121   4.689  10.312  0.3518  0.0614 -0.3205
  726MPD2    C310730   0.064   4.585  10.389  0.1604 -1.0274  0.8743
  726MPD2    C410731   0.143   4.507  10.465 -0.1141  0.4815  0.4061
  726MPD2    C510732   0.279   4.536  10.469  0.3645  0.0743 -0.0263
  726MPD2     H10733   0.055   0.033  10.261 -1.5331 -0.3140  1.6183
  726MPD2    H110734   0.104   4.425  10.523 -0.5940  0.6108  0.2619
  726MPD2    H210735   0.443   4.632  10.395 -0.0793 -1.0881 -1.6173
  726MPD2    H310736   0.349   4.478  10.528  2.1550 -1.2317 -3.4144
  726MPD2     N10737   4.650   4.562  10.399  0.0259 -0.2341  0.4031
  726MPD2    H510738   4.617   4.486  10.458  0.9386  1.4058  3.0120
  726MPD2    N110739   0.304   0.112  10.248 -0.2330 -0.9750  0.1391
  726MPD2    H710740   0.237   0.160  10.189  0.3836  1.1608  1.1557
  727TMC3    C110741   0.480   0.281  10.201 -0.0003  0.4011 -0.0544
  727TMC3    C210742   0.603   0.329  10.237 -0.1719 -0.2441 -1.2115
  727TMC3    C310743   0.631   0.456  10.208  0.8785 -0.5471  0.3952
  727TMC3    C410744   0.385   0.355  10.135 -0.0192 -0.4956 -0.5354
  727TMC3    C510745   0.423   0.480  10.100 -0.5581  0.0201  0.1354
  727TMC3    C610746   0.551   0.519  10.118 -0.3147 -0.5994 -0.3788
  727TMC3     C10747   0.441   0.151  10.256 -0.3211  0.1317  0.6557
  727TMC3     O10748   0.530   0.090  10.310  0.5341 -0.2841 -0.0754
  727TMC3     H10749   0.664   0.281  10.313 -0.3478 -1.9834 -2.1734
  727TMC3    H110750   0.285   0.323  10.107 -0.3449 -0.0081  0.0654
  727TMC3    H210751   0.569   0.624  10.097  0.8675 -0.4975  1.1500
  727TMC3    C710752   0.328   0.589  10.109 -0.4547  0.0422 -0.2267
  727TMC3    C810753   0.685   0.531  10.318 -0.0201 -0.6046  0.5934
  727TMC3    O110754   0.371   0.696  10.152 -0.8185  0.2967 -0.2352
  727TMC3    O210755   0.681   0.494  10.435  0.0205  0.0487 -0.1137
  728TMC3    C110756   4.640   3.116  15.123  0.0364 -0.6015  0.4238
  728TMC3    C210757   0.051   3.122  15.087 -0.0582 -0.5483 -1.0753
  728TMC3    C310758   0.071   3.156  14.951 -0.4996 -0.1405 -0.1636
  728TMC3    C410759   4.534   3.129  15.041 -0.6715  0.5040 -0.5072
  728TMC3    C510760   4.562   3.153  14.906 -0.2408 -0.0577  0.2706
  728TMC3    C610761   4.692   3.177  14.860 -0.2060 -0.1902  0.0605
  728TMC3     C10762   4.630   3.067  15.262 -0.4203  0.0903  0.9517
  728TMC3     O10763   4.720   3.082  15.343  0.3876  0.2701  0.1802
  728TMC3     H10764   0.126   3.118  15.165 -0.8219  2.3171 -0.1831
  728TMC3    H110765   4.431   3.139  15.076 -0.4187  0.1100  0.3340
  728TMC3    H210766   4.719   3.176  14.754 -1.7852  0.5158 -0.3480
  728TMC3    C710767   4.447   3.188  14.835  0.4576 -0.4721  0.2401
  728TMC3    C810768   0.216   3.155  14.906 -0.2096 -0.3482 -0.0873
  728TMC3    O110769   4.343   3.130  14.874 -0.0440 -0.0548 -0.8568
  728TMC3    O210770   0.289   3.098  14.988  0.2166  0.3793 -0.2187
  729MPD2     C10771   2.521   4.347  16.952  0.4612 -0.0862 -0.2896
  729MPD2    C110772   2.435   4.439  16.881  0.3566 -0.3628 -0.3810
  729MPD2    C210773   2.438   4.570  16.929 -0.6108  0.2961  0.3420
  729MPD2    C310774   2.519   4.613  17.034 -0.0535 -0.1198  0.2931
  729MPD2    C410775   2.601   4.524  17.094  0.3490 -0.5772  0.1050
  729MPD2    C510776   2.603   4.394  17.052  0.7672  0.0633  0.5492
  729MPD2     H10777   2.377   4.645  16.879 -1.5456 -0.2177  0.7323
  729MPD2    H110778   2.660   4.542  17.183  0.5597  1.7987 -0.5287
  729MPD2    H210779   2.515   4.240  16.935  0.2405 -0.0527 -0.4105
  729MPD2    H310780   2.664   4.324  17.107  0.2831 -0.5135  0.3489
  729MPD2     N10781   2.521   0.030  17.072 -0.0360  0.2965  0.0307
  729MPD2    H510782   2.465   0.102  17.027 -0.1471 -0.5711 -1.2039
  729MPD2    N110783   2.355   4.409  16.774 -0.6484  0.2194 -0.1716
  729MPD2    H710784   2.297   4.481  16.732  1.4465  0.1218 -3.2866
  730TMC3    C110785   2.577   0.219  17.177 -0.4855  0.7132  0.4009
  730TMC3    C210786   2.642   0.266  17.065  0.6408  0.1051  1.0539
  730TMC3    C310787   2.627   0.394  17.030 -0.5732 -0.4051 -0.6782
  730TMC3    C410788   2.489   0.298  17.247 -0.6663  0.0018 -0.5050
  730TMC3    C510789   2.462   0.421  17.195  0.2630 -0.0619  0.0553
  730TMC3    C610790   2.530   0.474  17.087  0.0132 -0.5362  0.9142
  730TMC3     C10791   2.570   0.078  17.192  0.6009  0.2652  0.1571
  730TMC3     O10792   2.588   0.025  17.298 -0.2149 -0.7649 -0.2834
  730TMC3     H10793   2.702   0.189  17.019 -2.4356 -1.2579 -0.6540
  730TMC3    H110794   2.457   0.256  17.342  2.4224 -0.7315  0.2085
  730TMC3    H210795   2.511   0.576  17.054 -1.3237 -1.1235 -0.1092
  730TMC3    C710796   2.319   0.456  17.195 -0.1780  0.0812  0.0820
  730TMC3    C810797   2.683   0.431  16.900  0.2649  0.2235  0.3481
  730TMC3    O110798   2.281   0.531  17.103 -0.0689 -0.3464  0.0249
  730TMC3    O210799   2.628   0.522  16.839  0.3068  0.2067  0.3616
  731MPD2     C10800   2.172   2.976  11.653  0.7529  0.2657 -0.0612
  731MPD2    C110801   2.059   2.896  11.632  0.0694  0.5318  0.4998
  731MPD2    C210802   2.020   2.813  11.738 -0.2967 -0.1722 -0.3002
  731MPD2    C310803   2.097   2.811  11.854  0.0954  0.1303  0.4235
  731MPD2    C410804   2.217   2.885  11.863 -0.0843  0.0697 -0.1016
  731MPD2    C510805   2.251   2.971  11.759  0.4079 -0.1472  0.6834
  731MPD2     H10806   1.934   2.747  11.737 -2.7210  2.9028  0.7165
  731MPD2    H110807   2.273   2.894  11.955  1.9084 -3.0291 -1.0182
  731MPD2    H210808   2.202   3.046  11.576  0.0451 -0.8168 -1.3303
  731MPD2    H310809   2.331   3.041  11.777  0.8694 -0.9049  1.6033
  731MPD2     N10810   2.056   2.720  11.951 -0.1259  0.3747 -0.7504
  731MPD2    H510811   1.978   2.661  11.926 -0.6573  0.4502  0.7337
  731MPD2    N110812   1.974   2.924  11.526  0.0411 -0.1512 -0.2289
  731MPD2    H710813   2.015   2.968  11.445 -2.2232  0.0263 -1.2692
  732TMC3    C110814   1.790   2.907  11.389  0.2301  0.8468  0.3165
  732TMC3    C210815   1.743   2.787  11.339  0.4680  0.9049 -0.4413
  732TMC3    C310816   1.808   2.726  11.231 -0.3334  0.2538  0.3392
  732TMC3    C410817   1.877   2.977  11.311  0.2355  0.1797  0.0628
  732TMC3    C510818   1.939   2.917  11.201 -0.2595 -0.1297 -0.0078
  732TMC3    C610819   1.912   2.789  11.161 -0.2283 -0.9495  0.8835
  732TMC3     C10820   1.839   2.892  11.526  0.1539  0.2546  0.7065
  732TMC3     O10821   1.765   2.858  11.622  0.4731 -0.7629  0.0629
  732TMC3     H10822   1.674   2.740  11.408  0.1847  0.5963 -0.9354
  732TMC3    H110823   1.907   3.079  11.333 -0.4727  0.7066 -1.4434
  732TMC3    H210824   1.963   2.748  11.075 -3.0324 -0.6665 -0.8986
  732TMC3    C710825   2.078   2.954  11.183  0.5293  0.1207  0.1941
  732TMC3    C810826   1.752   2.601  11.173  0.0093  0.0621  0.2079
  732TMC3    O110827   2.087   3.078  11.168 -0.2494  0.5605 -0.0046
  732TMC3    O210828   1.790   2.563  11.062 -0.2400 -0.2078  0.3684
  733TMC3    C110829   2.617   0.930  12.571 -0.2924  0.2229 -0.1275
  733TMC3    C210830   2.744   0.910  12.622  0.1799 -0.1703 -0.4177
  733TMC3    C310831   2.835   0.986  12.554  0.0189  0.7491  0.2896
  733TMC3    C410832   2.580   1.022  12.480 -0.1511 -0.1860  0.4995
  733TMC3    C510833   2.680   1.075  12.406  0.5412 -0.2962 -0.2837
  733TMC3    C610834   2.809   1.058  12.446  0.0647  0.5702  0.0338
  733TMC3     C10835   2.505   0.889  12.647  0.0475 -0.6105 -0.0336
  733TMC3     O10836   2.405   0.958  12.639 -0.3656 -0.3619  0.4263
  733TMC3     H10837   2.767   0.841  12.702 -0.1884  1.0166  0.7033
  733TMC3    H110838   2.478   1.030  12.446 -0.1228 -0.6490  0.3031
  733TMC3    H210839   2.894   1.105  12.400 -1.2647  1.4317 -1.5485
  733TMC3    C710840   2.653   1.179  12.306 -0.4160  1.2923  0.5194
  733TMC3    C810841   2.974   0.954  12.586 -0.0559  0.7886  0.2834
  733TMC3    O110842   2.567   1.262  12.336  0.3320 -0.2156 -0.2397
  733TMC3    O210843   3.005   0.926  12.702 -0.4240  0.0017 -0.1474
  734MPD2     C10844   4.576   3.308  12.280  0.1346  0.3279  0.0897
  734MPD2    C110845   4.510   3.237  12.189 -0.6931 -0.1415  0.3342
  734MPD2    C210846   4.535   3.252  12.051 -0.0598 -1.1819 -0.4069
  734MPD2    C310847   4.640   3.333  12.011  0.3778 -0.5566  0.1972
  734MPD2    C410848   4.700   3.414  12.101  0.0322  0.3242  0.0783
  734MPD2    C510849   4.668   3.396  12.231  0.0003  0.3245 -1.0007
  734MPD2     H10850   4.487   3.192  11.975  0.4341 -1.6329 -0.3619
  734MPD2    H110851   0.039   3.493  12.062 -0.3597  0.4582 -0.2784
  734MPD2    H210852   4.565   3.297  12.387  2.2014 -0.2638  0.2408
  734MPD2    H310853   0.014   3.441  12.301 -0.2035 -1.1011  0.1172
  734MPD2     N10854   4.669   3.330  11.871  0.3638 -1.0895 -0.1056
  734MPD2    H510855   4.621   3.258  11.818  0.0132 -0.4328 -0.6927
  734MPD2    N110856   4.432   3.139  12.242  0.2115 -0.7880  0.0932
  734MPD2    H710857   4.435   3.135  12.343  0.4484 -0.8588  0.0824
  735TMC3    C110858   4.289   2.960  12.245  0.1524 -0.5166 -0.5183
  735TMC3    C210859   4.191   2.895  12.174 -0.2683 -0.3131  0.0240
  735TMC3    C310860   4.220   2.770  12.127 -0.1479 -0.3320 -0.4341
  735TMC3    C410861   4.398   2.893  12.290  0.1069 -0.7586 -0.7261
  735TMC3    C510862   4.419   2.768  12.252 -0.0403 -0.0292  0.5368
  735TMC3    C610863   4.337   2.704  12.169 -0.2255  0.0234  0.1090
  735TMC3     C10864   4.333   3.077  12.176  0.1731  0.3007  0.2074
  735TMC3     O10865   4.284   3.093  12.067  0.1526 -0.7150 -0.8455
  735TMC3     H10866   4.099   2.946  12.148 -0.6186  0.0288  1.9117
  735TMC3    H110867   4.482   2.938  12.341 -0.6794  0.9685 -0.9445
  735TMC3    H210868   4.365   2.618  12.109  1.1462  1.4274 -1.2450
  735TMC3    C710869   4.563   2.730  12.238 -0.0836 -0.3416  0.3325
  735TMC3    C810870   4.206   2.755  11.985  0.1178 -0.0943  0.6448
  735TMC3    O110871   4.642   2.820  12.212  0.1411 -0.1164 -0.1349
  735TMC3    O210872   4.187   2.643  11.940 -0.1568 -0.9162 -0.1783
  736MPD2     C10873   4.685   2.387  12.298 -0.2540  0.0648 -0.0992
  736MPD2    C110874   4.695   2.515  12.248  0.1008  0.4084  0.2370
  736MPD2    C210875   0.085   2.565  12.187  0.5142 -0.2723  0.3041
  736MPD2    C310876   0.187   2.469  12.164 -0.5690 -0.4094  0.7723
  736MPD2    C410877   0.179   2.334  12.208 -0.1864  0.0950  0.5925
  736MPD2    C510878   0.064   2.298  12.279 -0.2750 -0.5866  0.2041
  736MPD2     H10879   0.087   2.665  12.148  0.4121 -1.6509 -3.2392
  736MPD2    H110880   0.266   2.270  12.195 -0.6945 -0.3513 -0.5814
  736MPD2    H210881   4.587   2.355  12.332 -1.6250  2.6954 -1.5581
  736MPD2    H310882   0.060   2.196  12.318 -2.2272 -0.6858 -0.2902
  736MPD2     N10883   0.299   2.498  12.085 -0.5892  0.5192  0.0893
  736MPD2    H510884   0.353   2.415  12.060 -2.0144 -0.4072  0.1205
  736MPD2    N110885   4.577   2.591  12.259  0.3272 -0.2739 -0.1335
  736MPD2    H710886   4.492   2.537  12.274 -0.1254  0.3959 -0.2781
  737TMC3    C110887   0.415   2.610  11.914  0.4007 -0.3412 -0.0677
  737TMC3    C210888   0.402   2.705  11.818 -0.5884  0.3791 -0.6770
  737TMC3    C310889   0.475   2.690  11.703  0.5270 -0.1474 -0.7674
  737TMC3    C410890   0.496   2.502  11.891 -0.7691  0.3851 -0.3546
  737TMC3    C510891   0.578   2.502  11.784  0.4825 -0.6075  0.2989
  737TMC3    C610892   0.569   2.590  11.677 -0.0325  0.0790 -0.2499
  737TMC3     C10893   0.324   2.621  12.031 -0.2473  0.0814  0.3677
  737TMC3     O10894   0.295   2.729  12.073 -0.2084 -0.9782  0.1882
  737TMC3     H10895   0.343   2.795  11.829 -1.2685 -0.2564  0.8877
  737TMC3    H110896   0.508   2.421  11.962 -1.6028  0.5318 -0.0427
  737TMC3    H210897   0.627   2.582  11.586  0.4179 -0.9463  0.1214
  737TMC3    C710898   0.662   2.384  11.760 -0.0831  0.3232 -0.4216
  737TMC3    C810899   0.498   2.811  11.624  0.2624 -0.3461  0.0389
  737TMC3    O110900   0.632   2.286  11.825 -0.0522  0.1269  0.3617
  737TMC3    O210901   0.501   2.920  11.680  0.3626 -0.0686  0.7329
  738MPD2     C10902   1.208   1.606  15.147 -0.0137 -0.9414  0.4970
  738MPD2    C110903   1.143   1.524  15.051  0.0982 -0.1796 -0.2076
  738MPD2    C210904   1.196   1.497  14.930 -0.4155 -0.1794 -0.4582
  738MPD2    C310905   1.302   1.567  14.889  0.2311 -0.6464 -0.8108
  738MPD2    C410906   1.370   1.654  14.979  0.3825  0.1973  0.6519
  738MPD2    C510907   1.324   1.673  15.108 -0.1118  1.0699 -0.1179
  738MPD2     H10908   1.152   1.423  14.865 -0.1969 -1.4362  0.8385
  738MPD2    H110909   1.452   1.715  14.941 -0.0492 -1.3085 -2.7831
  738MPD2    H210910   1.162   1.624  15.243  0.6244  0.2684  0.5745
  738MPD2    H310911   1.381   1.731  15.179 -1.4159  1.6764  0.4439
  738MPD2     N10912   1.356   1.554  14.759 -0.3427  0.5462 -0.1548
  738MPD2    H510913   1.442   1.603  14.737  0.8556 -1.5894 -0.2356
  738MPD2    N110914   1.020   1.466  15.075 -0.0706  0.5666  0.2420
  738MPD2    H710915   0.978   1.402  15.009  0.1579  0.8448 -0.1745
  739TMC3    C110916   1.367   1.494  14.533 -0.0722  0.0691 -0.0742
  739TMC3    C210917   1.288   1.546  14.426  0.4724  0.2462 -0.2049
  739TMC3    C310918   1.344   1.632  14.339 -0.0792 -0.1808 -0.1864
  739TMC3    C410919   1.496   1.537  14.547  0.2321  0.4165 -0.3062
  739TMC3    C510920   1.552   1.615  14.443  0.2288  0.4581  0.0459
  739TMC3    C610921   1.481   1.659  14.337  0.6223 -0.4684 -0.2406
  739TMC3     C10922   1.290   1.483  14.655  0.5674  0.0471  0.2956
  739TMC3     O10923   1.179   1.438  14.649  0.0483  0.5557  0.3969
  739TMC3     H10924   1.181   1.532  14.426  0.4898  0.1053 -2.4731
  739TMC3    H110925   1.565   1.490  14.617 -0.7910  1.7860  1.6054
  739TMC3    H210926   1.523   1.706  14.249  1.4743  0.5500  0.7202
  739TMC3    C710927   1.701   1.602  14.436  1.0001 -0.1413  0.0041
  739TMC3    C810928   1.250   1.707  14.264  0.0696  0.1759  0.0562
  739TMC3    O110929   1.753   1.506  14.488  0.1800  0.7644  0.0718
  739TMC3    O210930   1.136   1.676  14.256 -0.2854  0.0387  0.2784
  740TMC3    C110931   2.006   2.867  14.547 -0.6099  0.5008 -0.0945
  740TMC3    C210932   2.032   2.886  14.676 -0.0331  0.3952  0.3181
  740TMC3    C310933   2.163   2.903  14.714  0.6299 -0.1461  0.6306
  740TMC3    C410934   2.109   2.868  14.458  0.0572  0.0168 -0.7579
  740TMC3    C510935   2.236   2.900  14.491 -0.2621 -0.3931  0.2180
  740TMC3    C610936   2.268   2.914  14.622 -0.5133  0.0055 -0.1591
  740TMC3     C10937   1.871   2.892  14.510 -0.3011 -0.1702  1.0975
  740TMC3     O10938   1.858   2.923  14.393  0.6991  0.0789 -0.1871
  740TMC3     H10939   1.954   2.891  14.750 -0.9268 -2.3388 -0.4452
  740TMC3    H110940   2.076   2.833  14.361  1.7596 -1.2088 -0.8756
  740TMC3    H210941   2.369   2.922  14.660 -0.6675 -0.6306  0.3840
  740TMC3    C710942   2.348   2.876  14.403  0.1587 -0.3162 -0.1983
  740TMC3    C810943   2.189   2.879  14.855  0.3257  0.4945  0.2274
  740TMC3    O110944   2.438   2.814  14.457  0.0786  0.0465 -0.3564
  740TMC3    O210945   2.104   2.916  14.931  0.1222  0.2409  0.4113
  741TMC3    C110946   1.929   2.116  14.427 -0.6168  0.2859  0.1353
  741TMC3    C210947   1.799   2.150  14.431  0.4317 -1.1787  0.0555
  741TMC3    C310948   1.721   2.093  14.530  0.7720 -0.0634  0.1001
  741TMC3    C410949   1.985   2.022  14.513  0.1501 -0.2936 -0.6728
  741TMC3    C510950   1.911   1.959  14.605 -0.1199  0.5276 -0.3703
  741TMC3    C610951   1.776   1.993  14.613  0.0715  0.1583  0.6013
  741TMC3     C10952   2.002   2.149  14.300 -0.0085  0.6487  0.5770
  741TMC3     O10953   1.935   2.188  14.210 -0.0043  0.5540  0.3165
  741TMC3     H10954   1.757   2.217  14.357 -1.2966 -1.5477  0.6929
  741TMC3    H110955   2.084   1.989  14.482 -0.5475 -2.6976 -0.3160
  741TMC3    H210956   1.703   1.943  14.676 -0.8821 -0.5724 -1.0848
  741TMC3    C710957   1.949   1.840  14.668 -1.0398  0.3884 -0.4440
  741TMC3    C810958   1.580   2.119  14.513  0.0284 -0.4325 -0.1614
  741TMC3    O110959   1.865   1.771  14.721 -0.0552 -0.5336 -0.2099
  741TMC3    O210960   1.547   2.205  14.434 -0.4194  0.2737 -0.3206
  742TMC3    C110961   0.784   0.585  15.361 -0.9070 -0.9340 -0.5640
  742TMC3    C210962   0.727   0.586  15.237  0.0295  0.1969  0.7472
  742TMC3    C310963   0.813   0.567  15.129 -0.1512 -0.2501  0.1184
  742TMC3    C410964   0.917   0.557  15.379 -1.0589  0.3597  1.0184
  742TMC3    C510965   1.002   0.561  15.269 -0.3122  0.1565 -0.2085
  742TMC3    C610966   0.950   0.579  15.145 -0.1846  0.0816  0.1387
  742TMC3     C10967   0.706   0.643  15.470 -0.5379 -0.1455  0.1134
  742TMC3     O10968   0.618   0.714  15.442 -0.2702  0.1857 -0.6242
  742TMC3     H10969   0.622   0.573  15.213  0.1744 -3.5874  2.2068
  742TMC3    H110970   0.948   0.543  15.482  0.4943 -2.4404  0.1764
  742TMC3    H210971   1.020   0.568  15.063 -1.2641 -1.6645 -0.5456
  742TMC3    C710972   1.138   0.517  15.285  0.5391  0.2027  0.4818
  742TMC3    C810973   0.769   0.530  14.996  0.5535  0.3618 -0.3095
  742TMC3    O110974   1.192   0.462  15.192 -0.0816 -0.9530 -0.2332
  742TMC3    O210975   0.831   0.435  14.947 -0.4732 -0.0449  0.6535
  743MPD2     C10976   4.339   2.398   2.481  0.2977 -0.7004 -1.6176
  743MPD2    C110977   4.360   2.296   2.387  0.0402  0.1402 -0.5014
  743MPD2    C210978   4.488   2.268   2.347 -0.3197  0.6484 -0.1384
  743MPD2    C310979   4.595   2.334   2.410  0.1679  0.5593  0.2751
  743MPD2    C410980   4.575   2.424   2.514  0.5410 -0.0871 -0.2337
  743MPD2    C510981   4.440   2.462   2.535 -0.4129  0.7386 -0.2603
  743MPD2     H10982   4.510   2.191   2.274 -0.8432  0.5101 -0.1440
  743MPD2    H110983   4.658   2.469   2.567 -0.6382  4.0009 -1.9066
  743MPD2    H210984   4.240   2.440   2.496  1.5667  2.0148 -0.9555
  743MPD2    H310985   4.427   2.547   2.601 -0.9760  2.4254 -2.5441
  743MPD2     N10986   4.719   2.292   2.363 -0.2884  0.9335 -0.3177
  743MPD2    H510987   4.717   2.225   2.286  0.4465 -0.6856  1.0723
  743MPD2    N110988   4.246   2.242   2.322 -0.1113  0.4503 -0.3304
  743MPD2    H710989   4.154   2.257   2.362 -0.9799 -1.0740 -1.7367
  744TMC3    C110990   4.123   2.126   2.157  1.0780 -0.7754 -0.1168
  744TMC3    C210991   4.008   2.167   2.219  0.6910 -1.0831 -0.2164
  744TMC3    C310992   3.898   2.192   2.138  1.1422  0.0939 -0.3411
  744TMC3    C410993   4.126   2.098   2.020 -0.4370 -0.4157  0.3824
  744TMC3    C510994   4.012   2.130   1.946 -0.2165  0.1542 -0.1071
  744TMC3    C610995   3.893   2.167   2.001 -0.4235 -0.0330  0.2054
  744TMC3     C10996   4.256   2.176   2.205 -0.4074 -0.8064 -0.2469
  744TMC3     O10997   4.346   2.179   2.127  0.2542  0.0772  0.4097
  744TMC3     H10998   3.998   2.162   2.326  1.0253 -0.9868 -0.1816
  744TMC3    H110999   4.224   2.080   1.977  0.4374  0.4482  2.0134
  744TMC3    H211000   3.813   2.200   1.936 -1.3729 -0.4108  1.1874
  744TMC3    C711001   4.019   2.108   1.796 -0.5132 -0.2887 -0.3650
  744TMC3    C811002   3.766   2.205   2.197  0.1685  0.2755 -0.0816
  744TMC3    O111003   3.939   2.175   1.730 -0.0460  0.0493 -0.0083
  744TMC3    O211004   3.669   2.192   2.128 -0.2620  0.5017  0.3989
  745TMC3    C111005   1.132   0.161  13.189  0.0691  0.1903  0.1048
  745TMC3    C211006   1.066   0.207  13.302 -0.1594 -0.0222  0.4694
  745TMC3    C311007   0.946   0.279  13.286 -0.1285 -0.6154 -0.7359
  745TMC3    C411008   1.079   0.199  13.070 -0.5550 -1.3082 -0.1129
  745TMC3    C511009   0.970   0.293  13.058 -0.4575 -0.2462  0.1472
  745TMC3    C611010   0.902   0.332  13.164 -0.3023  0.6150  0.0405
  745TMC3     C11011   1.274   0.204  13.191 -0.6569  0.2454 -0.7507
  745TMC3     O11012   1.311   0.290  13.111 -0.3209 -0.3365  0.3249
  745TMC3     H11013   1.078   0.167  13.402  1.3390 -0.2745  0.1921
  745TMC3    H111014   1.138   0.177  12.982  1.7835  0.5671  0.9888
  745TMC3    H211015   0.808   0.387  13.159 -0.3829  0.3037 -1.5968
  745TMC3    C711016   0.990   0.394  12.956 -0.0779  0.4196  0.4865
  745TMC3    C811017   0.908   0.359  13.399  0.1136  1.0874 -0.2741
  745TMC3    O111018   0.892   0.453  12.907  0.1546  0.2471  0.0132
  745TMC3    O211019   0.787   0.388  13.421  0.3049 -0.1946 -0.1208
  746TMC3    C111020   3.479   2.180  10.733  0.0826  0.7053 -0.0914
  746TMC3    C211021   3.600   2.173  10.666  0.2518 -0.2205 -0.4572
  746TMC3    C311022   3.655   2.045  10.652 -0.2688 -0.8291  0.4110
  746TMC3    C411023   3.422   2.072  10.783  0.1481  0.1753  0.4844
  746TMC3    C511024   3.465   1.947  10.753  0.4354 -0.3332  0.4498
  746TMC3    C611025   3.580   1.930  10.689 -0.7275 -0.4682  0.7329
  746TMC3     C11026   3.426   2.312  10.767 -0.5458  0.0055 -0.1369
  746TMC3     O11027   3.352   2.323  10.863 -0.4351  0.1117 -0.0111
  746TMC3     H11028   3.679   2.248  10.664  0.0734 -0.0176  0.0624
  746TMC3    H111029   3.323   2.087  10.824  0.5975 -0.6894  1.8803
  746TMC3    H211030   3.613   1.836  10.648  4.4151  1.1799  1.1576
  746TMC3    C711031   3.361   1.857  10.707  0.2681  0.3450  0.5604
  746TMC3    C811032   3.791   2.015  10.606 -0.9092 -0.5308  0.7135
  746TMC3    O111033   3.352   1.847  10.584  0.0337  0.3208 -0.1858
  746TMC3    O211034   3.847   1.908  10.637 -0.2413  0.1222  0.0231
  747TMC3    C111035   1.397   2.565  11.048 -0.9116 -0.0328  0.3288
  747TMC3    C211036   1.336   2.449  11.097 -0.5006  0.9241 -0.3228
  747TMC3    C311037   1.287   2.463  11.228 -0.9144  0.2821  0.3044
  747TMC3    C411038   1.404   2.681  11.123  0.6449 -0.3705  0.3463
  747TMC3    C511039   1.342   2.686  11.242  0.0894 -0.2682 -0.6046
  747TMC3    C611040   1.294   2.577  11.301 -0.4910 -0.5202 -0.4064
  747TMC3     C11041   1.439   2.574  10.908  0.1755 -0.6282  0.5566
  747TMC3     O11042   1.502   2.672  10.877  0.3202  0.0040 -0.7082
  747TMC3     H11043   1.356   2.352  11.052  1.4253  0.3675  1.7241
  747TMC3    H111044   1.450   2.764  11.070  2.7999 -1.6759  0.1662
  747TMC3    H211045   1.237   2.587  11.393 -0.3024 -0.3104 -0.3140
  747TMC3    C711046   1.383   2.780  11.339  0.4356  0.5979 -1.1720
  747TMC3    C811047   1.200   2.359  11.272  0.9249  0.2581  0.0978
  747TMC3    O111048   1.408   2.736  11.449  0.0830 -0.3379  0.3231
  747TMC3    O211049   1.185   2.259  11.200 -0.1780 -0.5272 -0.0711
  748MPD2     C11050   2.352   4.310   1.724 -0.2213 -0.0511  0.0153
  748MPD2    C111051   2.304   4.186   1.686  0.2256 -0.0965 -0.3240
  748MPD2    C211052   2.393   4.088   1.643 -0.6062 -0.0016 -0.8135
  748MPD2    C311053   2.532   4.112   1.642 -0.3989 -0.4218  0.1445
  748MPD2    C411054   2.572   4.238   1.685 -0.4925  0.0257 -0.1982
  748MPD2    C511055   2.485   4.337   1.723  0.6880  0.3449 -0.0360
  748MPD2     H11056   2.369   3.985   1.618 -0.7021 -0.0405 -0.5631
  748MPD2    H111057   2.676   4.268   1.684 -0.2323 -0.8278  0.4073
  748MPD2    H211058   2.289   4.388   1.765 -2.1252 -1.6524  0.1494
  748MPD2    H311059   2.518   4.437   1.750  1.8448  0.4916 -2.0202
  748MPD2     N11060   2.625   4.004   1.609 -0.0875  0.0254  0.4245
  748MPD2    H511061   2.584   3.912   1.596 -1.8579  0.9910 -0.7548
  748MPD2    N111062   2.166   4.166   1.689 -0.2300 -0.4361  0.2492
  748MPD2    H711063   2.123   4.234   1.752  0.4902 -0.3089  0.6034
  749TMC3    C111064   2.821   3.882   1.611  0.3805  0.0066  0.0892
  749TMC3    C211065   2.913   3.850   1.710 -0.5003 -0.5366 -0.2772
  749TMC3    C311066   3.008   3.765   1.676  0.6582 -0.5460 -0.0715
  749TMC3    C411067   2.844   3.845   1.480  0.2643 -0.9933  0.1060
  749TMC3    C511068   2.945   3.754   1.444 -0.3776  0.3502 -0.9829
  749TMC3    C611069   3.024   3.714   1.550  0.4838 -0.3119 -0.1431
  749TMC3     C11070   2.760   4.012   1.635  0.3059  0.8020 -0.4568
  749TMC3     O11071   2.832   4.087   1.694 -0.5666 -0.6008 -0.1261
  749TMC3     H11072   2.893   3.877   1.813 -0.8096 -0.9581 -0.2267
  749TMC3    H111073   2.779   3.882   1.401 -0.3214  0.1753  1.1436
  749TMC3    H211074   3.108   3.649   1.530  1.2081  1.4236 -2.6714
  749TMC3    C711075   2.985   3.738   1.304 -0.0866  0.4214  0.1955
  749TMC3    C811076   3.104   3.743   1.784  0.3530 -0.3984 -0.3073
  749TMC3    O111077   2.962   3.841   1.242  0.0657  0.3461  0.1121
  749TMC3    O211078   3.084   3.797   1.892  0.3182  0.7118  0.3674
  750MPD2     C11079   3.580   4.080  11.230 -0.2302 -0.4251 -0.6701
  750MPD2    C111080   3.693   4.029  11.166 -0.5399 -0.5991  0.2369
  750MPD2    C211081   3.665   3.927  11.073  0.3245  0.3279  0.3889
  750MPD2    C311082   3.536   3.883  11.048  0.8535  0.3110  0.7295
  750MPD2    C411083   3.428   3.942  11.108  0.0916 -0.0324 -0.7621
  750MPD2    C511084   3.452   4.027  11.207  0.0433 -0.4740 -0.0915
  750MPD2     H11085   3.747   3.872  11.028 -0.4253 -1.8298  1.6571
  750MPD2    H111086   3.323   3.932  11.084 -0.4320  0.6085  1.2491
  750MPD2    H211087   3.584   4.158  11.305 -0.3141 -0.0802 -1.0233
  750MPD2    H311088   3.369   4.076  11.258  0.5797 -0.6722  0.9584
  750MPD2     N11089   3.513   3.796  10.937  0.5179  0.1452 -0.3621
  750MPD2    H511090   3.590   3.785  10.872 -0.2099  0.4453 -1.2753
  750MPD2    N111091   3.825   4.070  11.198 -0.3202  0.0962  0.4501
  750MPD2    H711092   3.828   4.152  11.258 -2.0209  0.8108 -0.4625
  751TMC3    C111093   3.405   3.651  10.784  0.5255  0.9230 -0.9060
  751TMC3    C211094   3.314   3.559  10.762  0.6143  0.1357 -0.1860
  751TMC3    C311095   3.305   3.490  10.646  0.1839  0.0367 -0.7952
  751TMC3    C411096   3.514   3.658  10.701  0.3925 -0.3524 -0.1819
  751TMC3    C511097   3.525   3.569  10.597  0.2974  0.3564  0.2808
  751TMC3    C611098   3.418   3.484  10.569  0.1570  0.4332 -0.2567
  751TMC3     C11099   3.395   3.730  10.908 -0.6466 -0.2419 -0.7910
  751TMC3     O11100   3.295   3.730  10.976  0.1584  0.0754 -0.0977
  751TMC3     H11101   3.226   3.583  10.819  1.2682 -0.4688  1.0833
  751TMC3    H111102   3.591   3.731  10.719  1.3950 -1.2354 -0.9260
  751TMC3    H211103   3.417   3.421  10.480  4.4461  0.2850 -0.1869
  751TMC3    C711104   3.657   3.549  10.542 -0.4384 -0.3788  0.9913
  751TMC3    C811105   3.229   3.368  10.649 -0.4435 -0.7628 -0.0527
  751TMC3    O111106   3.740   3.637  10.554  0.6733 -0.3543 -0.0765
  751TMC3    O211107   3.213   3.313  10.542 -0.0825 -0.2529 -0.0120
  752TMC3    C111108   2.996   4.549  16.960 -0.2270 -0.3009 -0.4369
  752TMC3    C211109   3.031   4.676  17.005  0.0257 -0.0168 -0.4109
  752TMC3    C311110   2.995   4.713  17.133  0.2261  0.2837  0.1558
  752TMC3    C411111   2.930   4.456  17.033  0.3117  0.0440  0.1923
  752TMC3    C511112   2.925   4.490  17.162  0.4126 -0.1293  0.0227
  752TMC3    C611113   2.942   4.618  17.217 -0.1808  0.3944 -0.0339
  752TMC3     C11114   2.985   4.546  16.815 -0.2629  0.2011  0.4770
  752TMC3     O11115   3.051   4.629  16.757  0.1443  0.1362 -0.0578
  752TMC3     H11116   3.075   0.030  16.944  0.2550  0.9211  0.9493
  752TMC3    H111117   2.895   4.361  16.995  2.4211 -0.9903  0.8436
  752TMC3    H211118   2.919   4.635  17.321 -0.8831 -0.6796 -0.0132
  752TMC3    C711119   2.901   4.379  17.253 -0.7484  0.2555  0.0187
  752TMC3    C811120   2.961   0.128  17.153  0.1528 -0.0450 -0.1379
  752TMC3    O111121   2.854   4.404  17.361 -0.3456 -0.7718  0.2425
  752TMC3    O211122   2.957   0.197  17.050 -0.2368 -0.6691 -0.1673
  753TMC3    C111123   4.541   0.724  13.343  0.4059 -0.4901 -0.2951
  753TMC3    C211124   4.560   0.734  13.480 -0.0632  0.5127  0.4241
  753TMC3    C311125   4.600   0.616  13.545 -0.3185  0.1862 -0.5805
  753TMC3    C411126   4.534   0.607  13.278  0.0833  0.3029 -0.0546
  753TMC3    C511127   4.562   0.496  13.344 -0.4455  0.6365  0.2192
  753TMC3    C611128   4.608   0.501  13.475  0.1222 -0.5935 -0.3100
  753TMC3     C11129   4.536   0.845  13.268  0.0279  0.3868 -0.8344
  753TMC3     O11130   4.473   0.834  13.165 -0.5777 -0.4760  0.3687
  753TMC3     H11131   4.561   0.832  13.527 -0.6234  0.9644 -0.4833
  753TMC3    H111132   4.517   0.596  13.171 -1.1507  1.0249  0.0688
  753TMC3    H211133   4.649   0.415  13.525  0.9630 -1.0988 -1.8803
  753TMC3    C711134   4.583   0.376  13.262  0.2629  0.0310 -0.1157
  753TMC3    C811135   4.636   0.605  13.685  0.1535  0.5399 -0.3545
  753TMC3    O111136   4.696   0.334  13.271 -0.0063 -0.8209 -0.2493
  753TMC3    O211137   4.629   0.494  13.734 -0.0700 -0.1837  0.4702
  754MPD2     C11138   3.543   4.166  12.748  0.2959 -0.1508  0.0999
  754MPD2    C111139   3.486   4.036  12.742  0.1933 -0.2161 -0.1778
  754MPD2    C211140   3.358   4.006  12.790 -0.4989 -0.2483 -0.4522
  754MPD2    C311141   3.285   4.105  12.853 -0.5043  0.1941 -1.2440
  754MPD2    C411142   3.333   4.233  12.846  0.6309  0.5472  0.0317
  754MPD2    C511143   3.458   4.264  12.793  0.6855 -0.2387  0.5096
  754MPD2     H11144   3.329   3.903  12.805 -1.5676  0.3250  1.4161
  754MPD2    H111145   3.278   4.316  12.890 -0.2715  0.3894 -0.7911
  754MPD2    H211146   3.645   4.185  12.716  0.2243 -3.4022 -2.0191
  754MPD2    H311147   3.481   4.370  12.801  1.0403 -0.2217 -0.7083
  754MPD2     N11148   3.154   4.086  12.898 -0.6098 -0.7458 -0.3476
  754MPD2    H511149   3.089   4.163  12.888  1.3157  1.0394  1.0111
  754MPD2    N111150   3.570   3.936  12.691  0.0243 -0.3999  0.6857
  754MPD2    H711151   3.669   3.955  12.700 -0.1832  0.9543  0.2139
  755MPD2     C11152   2.479   4.562  12.713 -0.1177 -0.7055 -0.2681
  755MPD2    C111153   2.410   4.451  12.759 -0.3492  0.4947  0.5060
  755MPD2    C211154   2.478   4.359  12.829  0.2662 -0.3272  0.0818
  755MPD2    C311155   2.618   4.358  12.840 -0.4126  0.2040 -0.0575
  755MPD2    C411156   2.681   4.462  12.772 -0.6286 -0.5196 -0.4455
  755MPD2    C511157   2.609   4.569  12.728  0.1689 -0.6150 -0.8508
  755MPD2     H11158   2.433   4.270  12.873  1.5279 -0.4450  1.1389
  755MPD2    H111159   2.790   4.459  12.768 -0.5522 -0.2491  1.2028
  755MPD2    H211160   2.430   4.647  12.667 -0.8715  0.1798  2.1941
  755MPD2    H311161   2.661   4.651  12.680 -0.9080  1.1113  0.9380
  755MPD2     N11162   2.702   4.257  12.906  0.2028  0.3566  0.5907
  755MPD2    H511163   2.801   4.263  12.885 -0.0009  2.8372  0.2619
  755MPD2    N111164   2.272   4.454  12.763 -0.0394  0.1009 -0.2043
  755MPD2    H711165   2.233   4.372  12.809  1.0923 -0.7737 -0.8189
  756MPD2     C11166   3.277   0.180   9.492 -0.3459 -0.1492  0.6915
  756MPD2    C111167   3.180   0.156   9.585  0.5352 -0.3098  0.8291
  756MPD2    C211168   3.057   0.111   9.539 -0.7753 -1.1249  0.2440
  756MPD2    C311169   3.025   0.110   9.404  0.2101  0.0961  0.3617
  756MPD2    C411170   3.125   0.141   9.309 -0.0416  0.1941  0.1937
  756MPD2    C511171   3.253   0.169   9.359  0.0242 -0.2786 -0.9538
  756MPD2     H11172   2.984   0.079   9.612  1.2236 -1.4481  2.1084
  756MPD2    H111173   3.100   0.151   9.204 -2.2031  2.9531  0.9950
  756MPD2    H211174   3.376   0.219   9.514  0.2101 -1.8236  1.1891
  756MPD2    H311175   3.330   0.191   9.286  1.2461  0.6847  0.6220
  756MPD2     N11176   2.897   0.074   9.367  0.4121  0.2476 -0.0102
  756MPD2    H511177   2.842   0.027   9.439 -0.4914  1.4404  0.0659
  756MPD2    N111178   3.199   0.180   9.728  0.0008  0.2041  0.1660
  756MPD2    H711179   3.134   0.149   9.800  0.8283 -1.3075  0.2462
  757MPD2     C11180   2.585   3.978   9.491 -0.1947 -0.3398  0.4471
  757MPD2    C111181   2.708   4.031   9.464  0.1032  0.1471  0.0473
  757MPD2    C211182   2.707   4.161   9.420  0.0994 -0.0953 -0.0916
  757MPD2    C311183   2.595   4.237   9.408 -0.2329 -0.0333  0.6603
  757MPD2    C411184   2.468   4.178   9.431  0.5600 -0.3048  0.2178
  757MPD2    C511185   2.472   4.049   9.479 -0.1341  0.7150 -0.0972
  757MPD2     H11186   2.800   4.212   9.397  1.1628 -1.4904  1.0743
  757MPD2    H111187   2.379   4.238   9.414  0.9565  0.0993 -0.4215
  757MPD2    H211188   2.580   3.882   9.539 -0.7381 -0.4357  0.1966
  757MPD2    H311189   2.382   4.002   9.518 -0.0336  0.5221 -0.0992
  757MPD2     N11190   2.607   4.364   9.345 -0.6332 -0.1462  0.4736
  757MPD2    H511191   2.700   4.392   9.316 -0.8328  1.8004  1.7564
  757MPD2    N111192   2.826   3.958   9.493 -0.6298  0.7764 -0.3955
  757MPD2    H711193   2.811   3.862   9.521 -1.9268  0.5034 -2.0337
  758MPD2     C11194   3.176   3.508  15.778  0.5967  0.2650 -0.0831
  758MPD2    C111195   3.254   3.435  15.862 -0.4049 -1.0405 -1.1097
  758MPD2    C211196   3.301   3.498  15.979  0.6437  0.2261 -0.5537
  758MPD2    C311197   3.268   3.629  16.013 -0.2772 -0.6057  0.5873
  758MPD2    C411198   3.186   3.700  15.928 -0.1400 -0.1904 -0.5463
  758MPD2    C511199   3.136   3.635  15.816 -0.9343 -0.2288 -0.4541
  758MPD2     H11200   3.366   3.444  16.048  0.7895 -0.0799 -0.9242
  758MPD2    H111201   3.137   3.795  15.946  0.9410  0.3319 -0.3896
  758MPD2    H211202   3.145   3.467  15.683 -0.0940 -0.3236  0.3937
  758MPD2    H311203   3.067   3.688  15.751 -0.2125  2.3549  0.8802
  758MPD2     N11204   3.312   3.693  16.133 -0.3049  0.5331  0.7472
  758MPD2    H511205   3.284   3.790  16.141  0.8832  0.9467 -0.0914
  758MPD2    N111206   3.287   3.303  15.829 -0.0135 -0.4540 -0.1243
  758MPD2    H711207   3.263   3.275  15.735 -1.1255 -2.5960  0.7893
  759MPD2     C11208   2.166   2.045   9.890  0.2651  0.2863 -0.5105
  759MPD2    C111209   2.040   2.015   9.837 -0.2226 -0.5834 -0.1938
  759MPD2    C211210   1.989   2.090   9.740 -0.3706  0.1933 -0.0567
  759MPD2    C311211   2.067   2.196   9.693  0.4533  0.5830 -0.3490
  759MPD2    C411212   2.195   2.228   9.749  0.2358 -0.0055  0.8912
  759MPD2    C511213   2.234   2.152   9.853  0.2791  0.1941 -0.0659
  759MPD2     H11214   1.900   2.066   9.684 -1.5481 -1.9296  2.7051
  759MPD2    H111215   2.260   2.304   9.706  3.0162 -3.0743 -0.3880
  759MPD2    H211216   2.212   2.002   9.978 -0.6860  1.4825  0.5621
  759MPD2    H311217   2.334   2.160   9.896  0.2747 -1.5238  0.2536
  759MPD2     N11218   2.012   2.269   9.589 -0.1829 -0.3122 -0.4241
  759MPD2    H511219   1.921   2.230   9.566 -0.6573  0.7793 -0.4571
  759MPD2    N111220   1.961   1.903   9.875  0.2263 -0.4960  0.3946
  759MPD2    H711221   1.869   1.903   9.833 -1.0624 -4.1861  3.2182
  760MPD2     C11222   2.030   4.275  11.402 -0.3668 -0.0560 -0.1652
  760MPD2    C111223   2.000   4.288  11.536  0.8396  0.1950  0.5392
  760MPD2    C211224   2.009   4.175  11.613  0.4878 -0.3500  0.5746
  760MPD2    C311225   2.046   4.053  11.564  0.1230  0.1186 -0.1579
  760MPD2    C411226   2.091   4.043  11.434 -0.1374 -0.2516  0.4626
  760MPD2    C511227   2.084   4.154  11.358  0.0484  0.3419  0.1327
  760MPD2     H11228   1.975   4.178  11.716  1.2386 -0.9865  0.8407
  760MPD2    H111229   2.130   3.950  11.395  0.0746 -1.3655  3.3422
  760MPD2    H211230   2.024   4.362  11.337 -0.0212 -0.1843 -0.3703
  760MPD2    H311231   2.117   4.145  11.255 -0.7606 -0.6906 -0.0379
  760MPD2     N11232   2.048   3.928  11.641 -0.2455 -0.5211 -0.3562
  760MPD2    H511233   2.082   3.844  11.595  0.6886 -1.1252  1.4203
  760MPD2    N111234   1.953   4.416  11.586  0.6362 -0.5870 -0.1261
  760MPD2    H711235   1.940   4.493  11.522  3.6902  1.1707  1.3803
  761MPD2     C11236   3.130   2.947  10.907  0.0951 -0.5569 -0.5872
  761MPD2    C111237   3.144   2.962  10.772  0.0732 -0.2828 -0.6982
  761MPD2    C211238   3.188   3.086  10.724 -0.1673 -0.6457 -0.3607
  761MPD2    C311239   3.198   3.188  10.819 -0.0134 -0.7288 -0.0449
  761MPD2    C411240   3.180   3.169  10.957 -0.1256  0.6492 -0.0775
  761MPD2    C511241   3.140   3.049  10.999  0.1978 -0.0213  0.0488
  761MPD2     H11242   3.203   3.097  10.617 -1.4811 -4.7561 -0.9815
  761MPD2    H111243   3.189   3.257  11.020  2.0437  2.0083 -2.2854
  761MPD2    H211244   3.115   2.847  10.946  0.8395 -0.9322 -1.2767
  761MPD2    H311245   3.128   3.019  11.102 -0.5083 -1.6047 -0.4922
  761MPD2     N11246   3.225   3.325  10.778 -0.0601 -0.6889  0.1664
  761MPD2    H511247   3.242   3.390  10.854  1.5447  0.0599 -0.8452
  761MPD2    N111248   3.134   2.846  10.690  0.3446  0.1701 -0.2312
  761MPD2    H711249   3.125   2.759  10.741  3.8397  0.0816  0.2395
  762MPD2     C11250   3.370   2.863   9.923  0.5198 -0.0663  0.1023
  762MPD2    C111251   3.397   2.755  10.010  0.2128 -0.6895  0.0789
  762MPD2    C211252   3.522   2.700   9.996 -0.1465  1.0411  0.1199
  762MPD2    C311253   3.621   2.747   9.915 -0.3247  0.7063  1.0381
  762MPD2    C411254   3.587   2.845   9.824 -0.1145  0.2915  0.3820
  762MPD2    C511255   3.462   2.907   9.826  0.1176 -0.3410 -0.3443
  762MPD2     H11256   3.543   2.607  10.047  0.6635  0.5708 -1.0800
  762MPD2    H111257   3.655   2.865   9.742  0.6145  0.4710  1.0256
  762MPD2    H211258   3.272   2.908   9.936 -0.1779 -2.5601  3.2011
  762MPD2    H311259   3.439   2.985   9.756  1.4712  0.0158 -0.4034
  762MPD2     N11260   3.740   2.671   9.905 -0.0449 -0.1111  0.8179
  762MPD2    H511261   3.764   2.610   9.983  3.6490 -1.2297 -1.2374
  762MPD2    N111262   3.303   2.706  10.111  0.4062 -0.0183 -0.0489
  762MPD2    H711263   3.224   2.769  10.120 -0.9133 -1.6237 -0.5701
  763MPD2     C11264   0.710   3.107  16.094  1.0619 -0.2700  0.2955
  763MPD2    C111265   0.644   3.231  16.083 -0.1478 -0.8921 -0.0611
  763MPD2    C211266   0.646   3.319  16.190  0.7756  0.5329  0.4713
  763MPD2    C311267   0.699   3.278  16.317  0.3430  0.6981  0.3661
  763MPD2    C411268   0.760   3.149  16.325  0.0868 -0.2700  0.4542
  763MPD2    C511269   0.772   3.075  16.213  1.1759 -0.1963  1.4586
  763MPD2     H11270   0.600   3.417  16.182  0.7925  0.4082 -1.0967
  763MPD2    H111271   0.798   3.110  16.418  1.2018 -1.7916 -0.6421
  763MPD2    H211272   0.710   3.038  16.011 -3.6604 -1.9297  1.6891
  763MPD2    H311273   0.811   2.974  16.213 -0.3809 -0.8064  1.0076
  763MPD2     N11274   0.704   3.357  16.435 -0.4001  0.7060 -0.8519
  763MPD2    H511275   0.755   3.323  16.517 -0.1854  0.5562 -1.0476
  763MPD2    N111276   0.585   3.270  15.961  0.4780 -0.1048  0.4921
  763MPD2    H711277   0.544   3.363  15.958 -0.7479 -0.6807 -0.5746
  764MPD2     C11278   3.111   0.812  17.016  0.1865  0.1575  0.1324
  764MPD2    C111279   3.129   0.684  16.965 -0.4966  0.0669  0.2501
  764MPD2    C211280   3.181   0.588  17.053 -0.0113 -0.6761 -0.3009
  764MPD2    C311281   3.205   0.622  17.184 -0.2729 -0.8737  0.8189
  764MPD2    C411282   3.176   0.751  17.233 -0.3644  0.1322  0.1450
  764MPD2    C511283   3.126   0.843  17.146 -0.6953  0.4109 -0.3313
  764MPD2     H11284   3.192   0.485  17.020 -0.3589 -0.4704 -1.0437
  764MPD2    H111285   3.194   0.792  17.332 -0.1961  1.1199 -0.2983
  764MPD2    H211286   3.082   0.891  16.946  1.9912  2.1144  1.6055
  764MPD2    H311287   3.115   0.947  17.176  0.6037  0.3674  0.3036
  764MPD2     N11288   3.253   0.514  17.255 -0.2246 -0.0916  0.2871
  764MPD2    H511289   3.273   0.431  17.201 -2.6958 -0.2808 -0.3378
  764MPD2    N111290   3.127   0.664  16.818  0.6906 -0.6576  0.3941
  764MPD2    H711291   3.166   0.576  16.784 -0.5844 -0.2004 -2.2499
  765MPD2     C11292   3.220   2.794  15.869  0.0028 -0.2817 -0.6122
  765MPD2    C111293   3.233   2.828  15.734  0.6034 -0.2373 -0.3193
  765MPD2    C211294   3.337   2.766  15.662  0.2484 -0.1190 -1.0278
  765MPD2    C311295   3.436   2.694  15.728  0.3171  0.3644  0.1947
  765MPD2    C411296   3.415   2.661  15.856  0.3806  0.2144  0.1353
  765MPD2    C511297   3.305   2.706  15.921  0.5810 -0.1398  0.4627
  765MPD2     H11298   3.357   2.771  15.556  1.5499  0.5093 -0.7575
  765MPD2    H111299   3.477   2.594  15.915 -0.8802 -0.3962  0.7607
  765MPD2    H211300   3.144   2.835  15.935 -0.8587 -3.3119  0.2621
  765MPD2    H311301   3.281   2.665  16.019  2.2860  2.0876  1.7799
  765MPD2     N11302   3.557   2.662  15.659 -0.1669  0.1110 -0.8413
  765MPD2    H511303   3.561   2.694  15.563 -1.2139  2.1087 -0.2029
  765MPD2    N111304   3.146   2.921  15.672 -0.1542  0.0374  0.1149
  765MPD2    H711305   3.152   2.923  15.571 -0.7865  0.7376  0.0951
  766MPD2     C11306   2.547   3.083  15.065  0.0876 -0.2330 -0.2144
  766MPD2    C111307   2.672   3.044  15.099 -0.2756  0.8234 -0.2699
  766MPD2    C211308   2.764   3.022  15.002 -0.1604  0.7758 -0.3212
  766MPD2    C311309   2.732   3.033  14.873  0.2065  0.1340  0.0526
  766MPD2    C411310   2.606   3.056  14.826  0.1383  0.4456  0.4749
  766MPD2    C511311   2.515   3.082  14.927 -0.4829  0.7107  0.5620
  766MPD2     H11312   2.864   3.005  15.039 -0.3559  0.6659  0.1514
  766MPD2    H111313   2.584   3.042  14.721 -1.9606 -0.2501  0.9975
  766MPD2    H211314   2.470   3.125  15.129 -1.1790  0.6983 -2.3565
  766MPD2    H311315   2.416   3.109  14.890 -0.3951  0.9286  0.4878
  766MPD2     N11316   2.829   3.030  14.771  0.9873  0.0503  0.2461
  766MPD2    H511317   2.801   3.031  14.673  0.7493 -0.0472  0.3127
  766MPD2    N111318   2.708   3.062  15.236 -0.3856  0.5362 -0.2340
  766MPD2    H711319   2.639   3.106  15.296 -0.3500 -2.0178  1.6691
  767MPD2     C11320   2.437   3.298  14.634 -0.3210  0.2694  0.1002
  767MPD2    C111321   2.572   3.306  14.625  0.7191 -0.7347 -0.2562
  767MPD2    C211322   2.628   3.268  14.502 -0.7201 -0.1072  1.0098
  767MPD2    C311323   2.555   3.219  14.395 -0.5898  0.3449  0.0482
  767MPD2    C411324   2.419   3.211  14.406  0.2757 -0.3208  0.1531
  767MPD2    C511325   2.367   3.251  14.528  0.0738 -0.8254  0.3960
  767MPD2     H11326   2.733   3.286  14.480 -1.0203 -0.9673 -1.1810
  767MPD2    H111327   2.361   3.186  14.318  0.5113 -0.0697 -0.0753
  767MPD2    H211328   2.387   3.344  14.718 -0.7202  2.6063 -1.4136
  767MPD2    H311329   2.260   3.254  14.546  0.1580 -0.9058  0.9218
  767MPD2     N11330   2.630   3.196  14.283  0.6952  0.2099  0.0505
  767MPD2    H511331   2.731   3.194  14.287  0.7140 -2.7580 -1.4251
  767MPD2    N111332   2.641   3.380  14.722 -0.4259  0.2116 -0.3443
  767MPD2    H711333   2.584   3.401  14.804 -1.3905 -1.0807 -0.6690
  768MPD2     C11334   3.429   1.599  10.301  0.2613  0.1101  0.4617
  768MPD2    C111335   3.324   1.551  10.377  0.0441 -0.3572 -0.3820
  768MPD2    C211336   3.339   1.520  10.508  1.1604  0.0355  0.7472
  768MPD2    C311337   3.465   1.551  10.575  0.1891 -0.5856 -0.9048
  768MPD2    C411338   3.568   1.602  10.503 -0.0042 -0.4234  0.0144
  768MPD2    C511339   3.539   1.633  10.370 -0.2483 -0.4611 -0.9862
  768MPD2     H11340   3.254   1.478  10.561  0.2529 -0.8051 -1.3785
  768MPD2    H111341   3.665   1.630  10.541 -0.3716  0.0194  0.6251
  768MPD2    H211342   3.421   1.608  10.194 -1.2520 -0.7696  0.4958
  768MPD2    H311343   3.619   1.672  10.308 -0.6203  0.5362 -0.8423
  768MPD2     N11344   3.496   1.516  10.705 -0.4810 -0.1277  0.2283
  768MPD2    H511345   3.585   1.537  10.749 -0.5717  1.0107 -0.1368
  768MPD2    N111346   3.192   1.523  10.328  0.4332 -0.0850 -0.1464
  768MPD2    H711347   3.129   1.471  10.389  1.2262 -0.2490  0.5307
  769MPD2     C11348   4.624   4.695  14.865  0.0966 -0.3433  0.6533
  769MPD2    C111349   4.562   4.624  14.961  0.4330 -0.7147  0.2463
  769MPD2    C211350   4.611   4.650  15.087 -0.3265 -0.6248 -0.4247
  769MPD2    C311351   4.708   0.024  15.110  0.7812  0.2717  0.1917
  769MPD2    C411352   0.044   0.094  15.006 -0.0186 -0.0920  0.2970
  769MPD2    C511353   4.721   0.067  14.883  0.1833 -1.1735  0.3326
  769MPD2     H11354   4.577   4.589  15.171  0.3368 -0.1152  0.2113
  769MPD2    H111355   0.130   0.160  15.015  0.3716 -0.4604 -0.7367
  769MPD2    H211356   4.590   4.669  14.765  2.2247 -0.1742 -0.1079
  769MPD2    H311357   0.035   0.120  14.796  0.8097 -3.0593 -0.5468
  769MPD2     N11358   0.014   0.043  15.244 -0.0874 -0.3677  0.2673
  769MPD2    H511359   4.690   4.719  15.320 -0.1732 -1.5240 -0.5094
  769MPD2    N111360   4.457   4.536  14.938 -0.7439 -0.1895 -0.0888
  769MPD2    H711361   4.439   4.500  14.844 -2.3344  1.0379 -0.2557
  770MPD2     C11362   3.802   3.766  15.313  0.4480  0.4540 -0.2031
  770MPD2    C111363   3.877   3.750  15.205  0.4304 -0.3929  0.3395
  770MPD2    C211364   3.936   3.854  15.135 -0.3286  0.1818  0.0891
  770MPD2    C311365   3.931   3.982  15.182 -0.2031  1.0344 -0.6365
  770MPD2    C411366   3.862   4.000  15.297  0.1394 -0.6381  0.2011
  770MPD2    C511367   3.795   3.895  15.360  0.4736 -0.4211  0.6238
  770MPD2     H11368   3.991   3.842  15.042  0.1122 -1.3985  0.5524
  770MPD2    H111369   3.855   4.092  15.355  0.2943 -0.8478  0.5472
  770MPD2    H211370   3.755   3.686  15.369 -0.9991  1.9672  0.7561
  770MPD2    H311371   3.746   3.920  15.454 -0.2740  1.5520 -0.3092
  770MPD2     N11372   4.003   4.084  15.110 -0.7053 -0.2883 -0.2399
  770MPD2    H511373   4.025   4.055  15.015 -1.9898  0.1715 -0.6803
  770MPD2    N111374   3.869   3.615  15.147  0.0701 -0.0762 -0.5808
  770MPD2    H711375   3.802   3.549  15.187 -0.2310  0.2646 -0.5230
  771MPD2     C11376   0.379   2.271  13.376 -0.2909  0.4076  0.1416
  771MPD2    C111377   0.367   2.402  13.332 -0.1203  0.7659 -0.4525
  771MPD2    C211378   0.292   2.428  13.222  0.0534 -0.5245  0.8127
  771MPD2    C311379   0.227   2.331  13.156 -0.3878  0.1143  0.3321
  771MPD2    C411380   0.221   2.202  13.212  0.0948 -0.2689 -0.1296
  771MPD2    C511381   0.307   2.171  13.312  0.1490  0.3007 -0.0536
  771MPD2     H11382   0.291   2.533  13.191 -2.6848 -1.1694 -1.2955
  771MPD2    H111383   0.154   2.125  13.176 -0.2456  0.9907 -2.2195
  771MPD2    H211384   0.441   2.236  13.459  0.5245 -0.6214 -0.9009
  771MPD2    H311385   0.305   2.065  13.337 -2.2494  0.2048 -0.6569
  771MPD2     N11386   0.151   2.372  13.045  0.0998 -0.1394  0.3440
  771MPD2    H511387   0.146   2.472  13.026  0.8172 -0.3013 -0.7010
  771MPD2    N111388   0.413   2.518  13.400 -0.2744  0.8980 -0.7815
  771MPD2    H711389   0.413   2.607  13.352 -0.2149  1.1427 -0.3331
  772MPD2     C11390   0.248   3.136  13.825 -0.1543  0.0931  0.1793
  772MPD2    C111391   0.204   3.036  13.741  1.0171  0.2354  0.0661
  772MPD2    C211392   0.070   2.994  13.737  0.0268  0.3176 -0.1200
  772MPD2    C311393   4.705   3.061  13.824  0.2444 -0.6141  0.0315
  772MPD2    C411394   0.023   3.153  13.921  0.3997  0.1676 -0.4793
  772MPD2    C511395   0.155   3.188  13.919  0.0889  0.4063 -0.0387
  772MPD2     H11396   0.036   2.913  13.674 -0.1577 -0.3596  0.8344
  772MPD2    H111397   4.682   3.205  13.991  1.4285  2.4172 -1.2057
  772MPD2    H211398   0.353   3.159  13.839 -0.7124  0.4724  3.7905
  772MPD2    H311399   0.195   3.258  13.992  0.0671 -1.1135  1.4334
  772MPD2     N11400   4.569   3.026  13.834  0.0874 -0.4363 -0.1695
  772MPD2    H511401   4.510   3.067  13.904  0.6114  0.8623 -0.4923
  772MPD2    N111402   0.294   2.952  13.673  0.8688 -0.3115 -0.3130
  772MPD2    H711403   0.252   2.866  13.639 -1.5781  0.2026  1.3964
  773MPD2     C11404   4.079   3.983   0.317  0.2961  0.3889 -0.6544
  773MPD2    C111405   4.011   3.902   0.226  0.2488 -0.2795  0.4960
  773MPD2    C211406   4.014   3.762   0.239  0.3136 -0.1526 -0.3211
  773MPD2    C311407   4.071   3.695   0.352  0.2320 -0.5024  0.6940
  773MPD2    C411408   4.141   3.773   0.440  0.2254 -0.5286 -0.2022
  773MPD2    C511409   4.150   3.909   0.415  0.2219 -0.0594 -0.1504
  773MPD2     H11410   3.961   3.700   0.168 -2.2363  2.2995 -0.5303
  773MPD2    H111411   4.187   3.733   0.529 -0.9986 -1.5133 -0.0286
  773MPD2    H211412   4.089   4.091   0.315 -1.8565  0.5692 -0.6301
  773MPD2    H311413   4.213   3.973   0.476 -0.9194  1.0086 -0.0813
  773MPD2     N11414   4.068   3.547   0.362  0.0753  0.5076 -0.7255
  773MPD2    H511415   4.014   3.495   0.294  1.1101 -2.2008  0.5026
  773MPD2    N111416   3.928   3.949   0.123  0.0993 -0.1670  0.4523
  773MPD2    H711417   3.876   3.878   0.072  0.4041  0.0822 -0.2152
  774MPD2     C11418   3.384   2.928  12.646 -0.0033  0.1911  0.2637
  774MPD2    C111419   3.392   3.012  12.760  0.0084 -0.5332  0.3320
  774MPD2    C211420   3.427   3.144  12.748  0.2302 -0.0882 -0.4259
  774MPD2    C311421   3.448   3.198  12.622 -1.2211 -0.1884  0.4869
  774MPD2    C411422   3.446   3.109  12.508  0.7027  0.7193  0.4975
  774MPD2    C511423   3.408   2.980  12.521 -0.4461  0.0615 -0.1289
  774MPD2     H11424   3.430   3.209  12.835  0.0599  0.4154 -0.7930
  774MPD2    H111425   3.463   3.150  12.409 -1.5163 -0.7547 -0.5011
  774MPD2    H211426   3.373   2.821  12.643 -1.9585  0.3522  1.3007
  774MPD2    H311427   3.406   2.912  12.436  3.2898 -1.2145  0.7889
  774MPD2     N11428   3.502   3.331  12.607 -0.4175  0.2889 -0.0250
  774MPD2    H511429   3.512   3.370  12.701  1.2830 -0.1114 -0.0575
  774MPD2    N111430   3.356   2.947  12.880 -0.3928 -0.3300  0.3974
  774MPD2    H711431   3.323   2.851  12.871  0.3507 -0.5615  0.1135
  775MPD2     C11432   0.242   4.553  15.970 -0.1479  0.5316 -0.6069
  775MPD2    C111433   0.177   4.675  15.984  0.3250  0.8687 -0.4228
  775MPD2    C211434   0.235   0.070  15.953 -0.8904 -0.5422 -0.3831
  775MPD2    C311435   0.357   0.072  15.889 -0.4710  0.0699  0.1780
  775MPD2    C411436   0.421   4.668  15.875 -0.4649 -0.0364 -0.4463
  775MPD2    C511437   0.364   4.553  15.913  0.5909  0.3721 -0.8216
  775MPD2     H11438   0.177   0.161  15.960  0.1684  0.1770 -1.0999
  775MPD2    H111439   0.519   4.669  15.828 -0.6033 -1.7918 -0.7745
  775MPD2    H211440   0.189   4.461  15.996  1.4839  0.7365  3.4214
  775MPD2    H311441   0.417   4.459  15.915 -0.0728  0.0147 -0.3097
  775MPD2     N11442   0.412   0.185  15.822  0.5218  0.2666  0.5231
  775MPD2    H511443   0.487   0.170  15.754 -0.2166 -0.7708 -0.0712
  775MPD2    N111444   0.052   4.663  16.042  0.2388  0.2511  0.0332
  775MPD2    H711445   0.017   4.570  16.065  0.6830  0.1966  0.5046
  776MPD2     C11446   4.469   4.528  11.558 -0.4497  0.9247  0.0402
  776MPD2    C111447   4.361   4.523  11.474 -0.8031 -0.2193 -0.8443
  776MPD2    C211448   4.303   4.640  11.423  0.6015  0.7978 -0.4660
  776MPD2    C311449   4.347   0.039  11.471  0.1135  0.4824 -0.4066
  776MPD2    C411450   4.444   0.041  11.568 -1.0059 -0.5061  0.0217
  776MPD2    C511451   4.509   4.649  11.608 -0.0683 -0.0888  0.4306
  776MPD2     H11452   4.230   4.629  11.344  0.6592  1.5123 -0.6229
  776MPD2    H111453   4.484   0.135  11.602 -1.6099  0.2121 -1.2458
  776MPD2    H211454   4.514   4.436  11.592 -0.5560 -0.8320 -4.5053
  776MPD2    H311455   4.594   4.647  11.675 -0.5631 -2.0820  1.0092
  776MPD2     N11456   4.296   0.164  11.420  0.7394 -0.2911 -0.1881
  776MPD2    H511457   4.338   0.247  11.461 -1.1990  0.5664  0.0686
  776MPD2    N111458   4.313   4.391  11.443  0.0879 -0.3780 -0.2980
  776MPD2    H711459   4.361   4.312  11.484  1.0460  0.0179 -0.6603
  777MPD2     C11460   3.491   2.844   1.168  0.4512 -0.0661  0.6211
  777MPD2    C111461   3.617   2.846   1.223  0.5981 -0.2046 -0.2943
  777MPD2    C211462   3.701   2.738   1.199 -0.0082  0.1612  0.3732
  777MPD2    C311463   3.669   2.644   1.105  0.3815  0.5472 -0.2718
  777MPD2    C411464   3.538   2.640   1.057 -0.3931  0.4304  0.1034
  777MPD2    C511465   3.449   2.736   1.094 -0.0240  0.1507  0.0498
  777MPD2     H11466   3.801   2.728   1.239 -0.6177  1.8146  2.3586
  777MPD2    H111467   3.495   2.558   1.001 -0.7095  0.2857  0.5599
  777MPD2    H211468   3.424   2.927   1.185 -0.2026 -0.0475 -1.9423
  777MPD2    H311469   3.349   2.733   1.052  1.1461  1.0202 -2.7492
  777MPD2     N11470   3.763   2.548   1.063 -0.5969 -0.3704  0.2439
  777MPD2    H511471   3.851   2.559   1.113 -0.3833 -0.8022 -0.0357
  777MPD2    N111472   3.657   2.954   1.300  0.3042 -0.4414  0.0559
  777MPD2    H711473   3.583   3.024   1.307  0.6692  0.1664 -2.3555
  778MPD2     C11474   0.871   2.584  14.824 -0.4751  0.1256 -0.9610
  778MPD2    C111475   0.919   2.458  14.803 -0.0558  0.7740 -0.2256
  778MPD2    C211476   1.012   2.452  14.702 -0.5896  0.6622  0.4740
  778MPD2    C311477   1.063   2.560  14.635  0.0429  0.1702 -0.9673
  778MPD2    C411478   1.015   2.684  14.664 -0.1696 -0.0134  0.0206
  778MPD2    C511479   0.916   2.694  14.761 -1.1280  0.0676  0.0084
  778MPD2     H11480   1.050   2.353  14.680  0.6105  1.1797  0.2248
  778MPD2    H111481   1.046   2.775  14.613  0.0656  0.8261  1.6554
  778MPD2    H211482   0.789   2.597  14.893 -1.0946 -0.6790 -1.5612
  778MPD2    H311483   0.882   2.793  14.788 -1.3058  0.9033 -3.1726
  778MPD2     N11484   1.173   2.548  14.548 -0.0236  0.8325  0.5483
  778MPD2    H511485   1.230   2.464  14.550 -0.7946  0.3326  1.1661
  778MPD2    N111486   0.869   2.342  14.865  0.7629 -0.0136  0.1747
  778MPD2    H711487   0.896   2.254  14.820  1.7973  0.7698 -0.7313
  779MPD2     C11488   0.546   1.751  13.804 -0.4146 -0.5914 -0.1135
  779MPD2    C111489   0.582   1.733  13.938 -0.5458 -0.0313  0.1724
  779MPD2    C211490   0.633   1.845  14.004 -0.0774  0.0908  0.4344
  779MPD2    C311491   0.672   1.953  13.936  1.0727  0.0139 -0.3797
  779MPD2    C411492   0.652   1.963  13.803 -0.3803  0.2850 -0.7636
  779MPD2    C511493   0.582   1.870  13.739 -0.5447  0.2015 -0.4899
  779MPD2     H11494   0.650   1.840  14.111 -0.7548  0.5162  0.5601
  779MPD2    H111495   0.672   2.048  13.738 -1.0513  1.4559  0.5790
  779MPD2    H211496   0.482   1.677  13.756  0.0422  0.5156 -2.4050
  779MPD2    H311497   0.554   1.885  13.635 -1.6192  1.7079  0.0153
  779MPD2     N11498   0.736   2.054  14.013 -0.3027 -0.0020  0.3069
  779MPD2    H511499   0.766   2.025  14.105 -0.7787  1.6040  0.9660
  779MPD2    N111500   0.543   1.622  14.008  0.7370 -0.0394 -0.3326
  779MPD2    H711501   0.539   1.630  14.109  0.4533 -1.9573 -0.1901
  780MPD2     C11502   3.903   1.534   0.624  0.2139  0.0706 -0.2497
  780MPD2    C111503   3.969   1.449   0.705 -0.0295  0.0922 -0.7707
  780MPD2    C211504   4.088   1.397   0.660 -1.1035  0.2254  0.0661
  780MPD2    C311505   4.138   1.421   0.532  0.4363 -0.6250  0.0959
  780MPD2    C411506   4.073   1.507   0.450  0.0846  0.1847  0.1955
  780MPD2    C511507   3.953   1.561   0.493 -1.1563 -1.0164  0.4691
  780MPD2     H11508   4.149   1.331   0.720 -0.0951  1.4324  0.3627
  780MPD2    H111509   4.110   1.542   0.354 -0.2701 -0.1041 -0.0472
  780MPD2    H211510   3.812   1.584   0.655  0.8486  1.2535 -0.2614
  780MPD2    H311511   3.909   1.641   0.435 -0.2419 -0.2181  0.8896
  780MPD2     N11512   4.252   1.350   0.486  0.2454  0.4270 -0.1983
  780MPD2    H511513   4.301   1.294   0.555  0.6729 -0.4405 -1.2136
  780MPD2    N111514   3.908   1.409   0.825 -0.1626  0.1353 -0.1494
  780MPD2    H711515   3.814   1.444   0.840 -0.8497 -0.5278 -2.8908
  781MPD2     C11516   1.379   2.801  12.484 -0.3747  0.0329 -0.0256
  781MPD2    C111517   1.488   2.733  12.444 -0.1372 -0.5177 -0.3818
  781MPD2    C211518   1.569   2.781  12.345  0.1929  0.4904 -0.2721
  781MPD2    C311519   1.538   2.903  12.281  0.1976 -0.1013 -0.8363
  781MPD2    C411520   1.424   2.969  12.323  0.2628  0.2326  0.0917
  781MPD2    C511521   1.351   2.917  12.425  0.4886  0.0876  0.3231
  781MPD2     H11522   1.654   2.725  12.309 -0.6647 -1.5087  0.8507
  781MPD2    H111523   1.390   3.059  12.272 -1.0835 -0.8541 -0.9267
  781MPD2    H211524   1.313   2.758  12.559  1.6879 -0.7388  1.3364
  781MPD2    H311525   1.265   2.972  12.462 -0.2903 -0.3818 -0.7993
  781MPD2     N11526   1.604   2.961  12.176 -0.0210 -0.1466 -0.0504
  781MPD2    H511527   1.556   3.034  12.124 -1.0279 -0.2318  0.7461
  781MPD2    N111528   1.522   2.606  12.498  0.1256  0.2597 -0.2844
  781MPD2    H711529   1.593   2.554  12.448  1.3528  1.0240  0.6711
  782MPD2     C11530   4.027   4.064   9.982 -0.2706 -0.4400  0.3769
  782MPD2    C111531   4.142   4.047  10.061 -0.3580 -0.7366  0.0381
  782MPD2    C211532   4.179   4.162  10.134 -0.3483  0.1316 -0.3734
  782MPD2    C311533   4.117   4.286  10.124 -0.2394  0.3572 -0.1773
  782MPD2    C411534   4.018   4.299  10.036 -0.6929  0.2846  0.6489
  782MPD2    C511535   3.962   4.191   9.975 -0.7078  0.0964 -0.0029
  782MPD2     H11536   4.259   4.148  10.206  0.4391 -0.3803 -1.3499
  782MPD2    H111537   3.975   4.396  10.016  0.8854  0.4655 -1.8336
  782MPD2    H211538   3.982   3.986   9.921  1.4567 -0.2708 -1.1219
  782MPD2    H311539   3.872   4.204   9.915  0.3999  1.6043 -1.3349
  782MPD2     N11540   4.172   4.395  10.204  0.0117  0.6568  0.3488
  782MPD2    H511541   4.257   4.377  10.256  1.0092 -0.0130 -1.5406
  782MPD2    N111542   4.208   3.925  10.071 -0.1397  0.2232  0.1291
  782MPD2    H711543   4.178   3.857  10.002 -1.1291 -0.0052  0.7796
  783MPD2     C11544   3.788   3.240  10.394 -0.0888 -0.0923  0.1565
  783MPD2    C111545   3.777   3.378  10.417  0.6432 -0.9683  0.2625
  783MPD2    C211546   3.889   3.452  10.375  0.6025 -0.0258 -0.0113
  783MPD2    C311547   3.991   3.400  10.313  0.1306 -0.2195 -0.1897
  783MPD2    C411548   3.991   3.264  10.281  0.0017  0.4450  0.0110
  783MPD2    C511549   3.891   3.185  10.323  0.1574  0.9076 -0.0407
  783MPD2     H11550   3.895   3.558  10.395  0.6965 -0.3493  1.6685
  783MPD2    H111551   4.079   3.217  10.238 -0.6168 -0.5350 -0.1871
  783MPD2    H211552   3.712   3.174  10.434 -1.6124  1.5284 -0.0196
  783MPD2    H311553   3.900   3.078  10.306  1.3155  1.1399 -0.8770
  783MPD2     N11554   4.097   3.479  10.263 -0.1377  0.4556  0.1763
  783MPD2    H511555   4.071   3.577  10.268  1.0141  0.7001  1.3501
  783MPD2    N111556   3.669   3.426  10.490  0.4288 -0.5037  0.0367
  783MPD2    H711557   3.596   3.357  10.507 -0.2757 -0.0621 -1.1473
  784MPD2     C11558   2.035   4.231   0.467  0.6153 -0.3292 -0.3698
  784MPD2    C111559   2.034   4.356   0.527  0.3177 -0.3859  0.5913
  784MPD2    C211560   1.934   4.444   0.504  0.2276 -0.5330 -0.7867
  784MPD2    C311561   1.820   4.401   0.434 -0.0253 -0.0729  0.9078
  784MPD2    C411562   1.812   4.271   0.385  0.6302 -0.1284  0.1339
  784MPD2    C511563   1.922   4.184   0.401  0.1582 -0.1375 -0.4413
  784MPD2     H11564   1.941   4.547   0.537 -0.9287 -0.5792 -0.4124
  784MPD2    H111565   1.724   4.223   0.344  1.4201 -0.3983 -1.2510
  784MPD2    H211566   2.115   4.160   0.480  0.6462  0.0227  1.3193
  784MPD2    H311567   1.910   4.078   0.378 -2.1186 -0.1823  0.9150
  784MPD2     N11568   1.710   4.489   0.422  0.0679  0.3493  0.1415
  784MPD2    H511569   1.728   4.580   0.463  1.2277 -0.1407  0.7129
  784MPD2    N111570   2.133   4.398   0.617 -0.2577 -0.5064 -0.4409
  784MPD2    H711571   2.115   4.485   0.666  0.5644 -1.6012  1.7846
  785MPD2     C11572   1.884   2.354  10.246 -0.2236 -0.4614  0.1936
  785MPD2    C111573   1.831   2.477  10.277  0.7188 -0.0992 -0.2878
  785MPD2    C211574   1.706   2.505  10.219  0.1760  0.1042  0.2534
  785MPD2    C311575   1.652   2.427  10.120 -0.1203  0.1443  0.0842
  785MPD2    C411576   1.714   2.306  10.092  0.3549 -0.6641 -0.1567
  785MPD2    C511577   1.834   2.276  10.153 -0.1388 -0.0018 -0.4070
  785MPD2     H11578   1.661   2.600  10.245  0.2238  0.7390 -1.9251
  785MPD2    H111579   1.677   2.239  10.016 -0.4126  1.9132 -2.0798
  785MPD2    H211580   1.969   2.304  10.290  2.3362  1.5779 -2.4254
  785MPD2    H311581   1.878   2.181  10.127 -2.1663 -0.9342 -0.4521
  785MPD2     N11582   1.536   2.482  10.061  0.3119 -0.3886  0.3683
  785MPD2    H511583   1.532   2.582  10.076 -1.9039 -0.4827  0.3438
  785MPD2    N111584   1.902   2.562  10.359 -0.8142  0.4514 -0.1888
  785MPD2    H711585   1.983   2.530  10.413  0.0094 -0.1100 -1.7703
  786MPD2     C11586   0.434   0.584  14.601  0.8864 -0.0474  0.0927
  786MPD2    C111587   0.541   0.495  14.617 -1.1525 -0.0857 -0.1412
  786MPD2    C211588   0.622   0.504  14.731  0.4719  0.7976  0.7887
  786MPD2    C311589   0.587   0.589  14.834 -0.3884 -0.3484  0.2622
  786MPD2    C411590   0.474   0.674  14.815 -0.3977 -0.0315 -0.2966
  786MPD2    C511591   0.405   0.676  14.696  0.4890 -0.0763  0.3184
  786MPD2     H11592   0.714   0.447  14.739  0.8614  0.9967 -2.2018
  786MPD2    H111593   0.432   0.743  14.888 -1.1956  2.2039 -2.8655
  786MPD2    H211594   0.370   0.580  14.514  2.1599  0.2399 -0.8596
  786MPD2    H311595   0.324   0.745  14.676  0.2249 -0.2084  0.9152
  786MPD2     N11596   0.670   0.609  14.947  0.6245  0.6574  0.2308
  786MPD2    H511597   0.645   0.688  15.007 -5.1739 -2.1845  1.5644
  786MPD2    N111598   0.580   0.403  14.515 -0.2755 -0.7173 -0.3367
  786MPD2    H711599   0.639   0.324  14.538  0.3363  0.0276  0.6555
  787MPD2     C11600   0.542   4.313  14.348 -0.3140  0.4539 -0.3843
  787MPD2    C111601   0.630   4.414  14.374 -0.1804 -0.4326 -0.1147
  787MPD2    C211602   0.752   4.377  14.437 -0.4278  0.0503  0.0197
  787MPD2    C311603   0.780   4.239  14.466  0.2450  0.0373  0.3028
  787MPD2    C411604   0.683   4.153  14.459 -0.2007 -0.2630 -0.4960
  787MPD2    C511605   0.561   4.190  14.396 -0.4437  0.0359 -0.0023
  787MPD2     H11606   0.833   4.442  14.467  2.3768 -2.3973 -2.1528
  787MPD2    H111607   0.687   4.054  14.502  0.5076 -0.1728 -0.3675
  787MPD2    H211608   0.447   4.323  14.297 -0.9100 -0.9088  0.4696
  787MPD2    H311609   0.487   4.116  14.370  0.1015  0.1317 -1.8759
  787MPD2     N11610   0.912   4.204  14.504  0.3539  0.7068  0.3896
  787MPD2    H511611   0.985   4.274  14.506  0.1016  1.0063 -0.9370
  787MPD2    N111612   0.599   4.549  14.328  0.2264  0.0687 -0.9836
  787MPD2    H711613   0.524   4.548  14.259  0.0587  1.1251 -0.8222
  788MPD2     C11614   2.344   3.447   0.988 -0.0991  0.3766  0.3050
  788MPD2    C111615   2.425   3.378   0.901 -0.6695  0.4641 -0.0214
  788MPD2    C211616   2.500   3.446   0.803  0.2800 -0.4148 -0.0509
  788MPD2    C311617   2.507   3.587   0.803 -0.8322  0.8281 -0.2391
  788MPD2    C411618   2.441   3.648   0.905  0.8847 -0.3987  0.3772
  788MPD2    C511619   2.371   3.578   1.001  0.3121 -0.5287  0.2135
  788MPD2     H11620   2.559   3.386   0.734 -0.6621 -1.5830  0.1448
  788MPD2    H111621   2.431   3.756   0.902 -0.2076 -0.5585 -2.1750
  788MPD2    H211622   2.287   3.388   1.060 -1.1227  2.2249  1.0121
  788MPD2    H311623   2.330   3.633   1.084  1.4858 -1.3805  1.3532
  788MPD2     N11624   2.567   3.670   0.706 -0.1910  0.0023  0.0774
  788MPD2    H511625   2.568   3.770   0.721  2.0856  0.0060 -0.0415
  788MPD2    N111626   2.417   3.239   0.908 -0.0959 -0.3513 -0.3850
  788MPD2    H711627   2.358   3.204   0.983  0.4494  1.2497  0.8136
  789MPD2     C11628   3.186   3.166  17.033  0.1626  0.2098  0.8926
  789MPD2    C111629   3.061   3.117  16.981 -0.1625  1.2684 -0.0142
  789MPD2    C211630   2.961   3.212  16.944 -0.4000 -0.0686  0.3534
  789MPD2    C311631   2.976   3.346  16.985  0.8610  0.1974  0.4651
  789MPD2    C411632   3.090   3.382  17.054  0.6452  0.3694  0.0070
  789MPD2    C511633   3.192   3.298  17.073 -0.1703 -0.0001  0.4053
  789MPD2     H11634   2.871   3.173  16.897 -0.0088 -0.2203 -0.2713
  789MPD2    H111635   3.095   3.489  17.070  0.1531  0.2311  1.0774
  789MPD2    H211636   3.280   3.113  17.047 -1.5619 -2.8083  0.8627
  789MPD2    H311637   3.285   3.333  17.116 -1.5106  0.5495  2.8362
  789MPD2     N11638   2.881   3.442  16.952  0.7876 -0.0062 -0.1784
  789MPD2    H511639   2.878   3.529  17.004 -0.1802  1.5023 -2.7271
  789MPD2    N111640   3.038   2.980  16.951 -0.4312 -0.6881 -0.3771
  789MPD2    H711641   2.972   2.957  16.876 -0.2176 -1.9364 -0.1843
  790MPD2     C11642   3.984   0.549  13.132  0.1600  0.1811 -0.0790
  790MPD2    C111643   3.947   0.430  13.192 -0.0509 -0.8235 -0.6965
  790MPD2    C211644   3.826   0.370  13.155 -0.1664 -0.0248  0.0222
  790MPD2    C311645   3.759   0.409  13.038 -0.7237  0.2468  0.7394
  790MPD2    C411646   3.799   0.527  12.981 -0.3931 -0.0192  0.5508
  790MPD2    C511647   3.912   0.595  13.025  0.3271  0.3094 -0.2097
  790MPD2     H11648   3.804   0.276  13.203 -0.3657  0.1692  0.3069
  790MPD2    H111649   3.745   0.544  12.889 -0.0815  1.7085  0.6961
  790MPD2    H211650   4.066   0.608  13.170  0.1204  0.0495  0.2107
  790MPD2    H311651   3.937   0.693  12.985  0.3025  0.3005 -0.2464
  790MPD2     N11652   3.660   0.327  12.982  0.1165  0.1978  0.0494
  790MPD2    H511653   3.663   0.230  13.011 -0.3220  0.5068  1.0923
  790MPD2    N111654   4.020   0.380  13.302  0.3656 -0.0904 -0.7959
  790MPD2    H711655   3.994   0.291  13.342  3.4519 -0.7233 -0.1731
  791MPD2     C11656   2.998   0.303  12.503 -0.2291 -0.4783 -0.4222
  791MPD2    C111657   3.061   0.188  12.542  0.1263 -0.8219 -0.3197
  791MPD2    C211658   2.987   0.068  12.526 -0.0184  0.1846 -0.3156
  791MPD2    C311659   2.865   0.060  12.463 -0.2243  0.5544 -0.1217
  791MPD2    C411660   2.809   0.175  12.412  0.1707 -0.2552  0.0343
  791MPD2    C511661   2.873   0.293  12.440 -0.4982 -0.2565  0.2371
  791MPD2     H11662   3.028   4.696  12.557 -1.6592 -0.6476 -0.7411
  791MPD2    H111663   2.706   0.183  12.380  0.5123  2.0313 -0.5155
  791MPD2    H211664   3.042   0.402  12.508 -0.4434 -0.5163  2.4374
  791MPD2    H311665   2.820   0.380  12.404  1.0480  0.8196  0.5633
  791MPD2     N11666   2.799   4.661  12.455 -0.0025 -0.0107 -0.1873
  791MPD2    H511667   2.855   4.578  12.476 -0.7683 -1.4111 -3.6294
  791MPD2    N111668   3.198   0.193  12.597  0.3293 -0.1882  0.3557
  791MPD2    H711669   3.234   0.285  12.617  0.3282 -0.6909  2.6710
  792MPD2     C11670   4.010   4.490  10.967  0.1031 -0.2407 -0.7787
  792MPD2    C111671   3.927   4.597  10.968 -0.0931  0.5489  0.2546
  792MPD2    C211672   3.788   4.571  10.967 -0.3423  0.2136 -0.1969
  792MPD2    C311673   3.739   4.440  10.970 -0.0527  0.0731  0.1427
  792MPD2    C411674   3.830   4.335  10.961 -0.0502  0.3898  0.1423
  792MPD2    C511675   3.964   4.362  10.966  0.1876 -0.0911 -0.0678
  792MPD2     H11676   3.724   4.658  10.956 -2.1465 -0.8709  1.5201
  792MPD2    H111677   3.794   4.233  10.956  0.5493  0.2033 -0.3679
  792MPD2    H211678   4.116   4.511  10.969 -0.4315  2.1263  1.9945
  792MPD2    H311679   4.043   4.288  10.968  1.4341  1.2775  1.8619
  792MPD2     N11680   3.600   4.405  10.970  0.3952  0.0399 -0.3750
  792MPD2    H511681   3.595   4.304  10.964 -0.2648 -0.0632  2.1594
  792MPD2    N111682   3.983   4.723  10.953  0.4911 -0.1254  0.5344
  792MPD2    H711683   4.084   0.002  10.940  0.2183  1.6907 -1.2298
  793MPD2     C11684   2.943   4.591  10.370 -0.4996 -0.0120 -0.4240
  793MPD2    C111685   3.070   4.637  10.401  0.2216 -0.6199 -0.3747
  793MPD2    C211686   3.119   4.616  10.526  0.1433  0.3562 -0.1633
  793MPD2    C311687   3.047   4.542  10.622  0.0797  0.0484 -0.1995
  793MPD2    C411688   2.916   4.506  10.592 -0.0497 -0.0408  0.5245
  793MPD2    C511689   2.864   4.532  10.467  0.1902 -0.8382 -0.1809
  793MPD2     H11690   3.215   4.655  10.555 -0.7248  0.7537  2.1807
  793MPD2    H111691   2.844   4.482  10.669  1.5389 -1.2016  1.6556
  793MPD2    H211692   2.910   4.610  10.268  0.1689 -1.3846 -0.8935
  793MPD2    H311693   2.761   4.514  10.438  0.0748 -0.9812  0.3099
  793MPD2     N11694   3.108   4.529  10.745  0.0355  0.3729 -0.7162
  793MPD2    H511695   3.206   4.553  10.756 -0.1836  1.0476 -0.2273
  793MPD2    N111696   3.155   4.689  10.309 -0.4569 -0.2171 -0.5038
  793MPD2    H711697   3.243   4.723  10.345  0.6275 -0.6690 -2.7662
  794MPD2     C11698   3.696   4.625  17.281  0.8046  0.6186  0.5733
  794MPD2    C111699   3.718   4.492  17.240 -0.3140  0.6717 -0.0131
  794MPD2    C211700   3.730   4.471  17.099  0.3361 -0.3248  0.6077
  794MPD2    C311701   3.741   4.574  17.013  0.8443  0.1884  0.4848
  794MPD2    C411702   3.710   4.702  17.052  0.2389 -0.4357  0.3229
  794MPD2    C511703   3.680   0.005  17.186 -0.0187 -0.5949  0.3911
  794MPD2     H11704   3.733   4.368  17.066 -0.9660 -0.0809 -0.2779
  794MPD2    H111705   3.695   0.045  16.967  5.2284  0.7704  0.4287
  794MPD2    H211706   3.683   4.652  17.385 -1.0639  1.3272  0.1514
  794MPD2    H311707   3.658   0.106  17.218 -0.4561 -1.0240  1.4292
  794MPD2     N11708   3.770   4.560  16.878 -0.7969  0.1234 -0.2888
  794MPD2    H511709   3.769   4.648  16.827  2.0076  0.0142 -0.5599
  794MPD2    N111710   3.735   4.388  17.334  0.0813  0.4282 -0.4578
  794MPD2    H711711   3.759   4.302  17.285 -1.1551 -0.7718  1.0415
  795MPD2     C11712   1.258   1.426  13.295 -0.9936 -0.0850 -0.3284
  795MPD2    C111713   1.205   1.306  13.244 -0.9692 -0.3767 -0.2075
  795MPD2    C211714   1.270   1.185  13.268 -0.7751 -0.0364 -0.2292
  795MPD2    C311715   1.401   1.190  13.311  0.5149  0.6867 -0.1770
  795MPD2    C411716   1.456   1.308  13.344  0.0951 -0.0040 -0.3218
  795MPD2    C511717   1.385   1.426  13.342  0.2703 -0.0919 -0.3003
  795MPD2     H11718   1.225   1.089  13.245 -1.2117 -0.6893  3.3268
  795MPD2    H111719   1.555   1.315  13.388 -0.6000 -0.7108  1.3903
  795MPD2    H211720   1.208   1.522  13.304 -1.3504 -0.3369  0.4523
  795MPD2    H311721   1.429   1.518  13.379  2.2679 -1.5091  0.7692
  795MPD2     N11722   1.473   1.068  13.319  0.4133  0.6335  0.3250
  795MPD2    H511723   1.417   0.983  13.318  0.3982  0.6267  1.1633
  795MPD2    N111724   1.084   1.301  13.177  0.5999  0.4926 -0.2773
  795MPD2    H711725   1.048   1.209  13.157  1.6899 -0.1798  0.8528
  796MPD2     C11726   1.007   3.198  15.549  0.0426 -0.4458 -0.6400
  796MPD2    C111727   1.117   3.230  15.630 -0.6234  0.3820 -0.0674
  796MPD2    C211728   1.106   3.355  15.691 -0.0898 -0.8792  0.0632
  796MPD2    C311729   1.003   3.446  15.660 -0.5049 -0.2331 -0.1174
  796MPD2    C411730   0.903   3.404  15.577  0.0466  0.8589 -0.4669
  796MPD2    C511731   0.896   3.281  15.526  0.3766 -0.1765  0.1996
  796MPD2     H11732   1.178   3.385  15.767  0.0635 -0.1691 -0.3663
  796MPD2    H111733   0.826   3.474  15.547  0.2733  1.5443  0.5635
  796MPD2    H211734   0.984   3.098  15.513 -1.2831 -0.6166  0.6856
  796MPD2    H311735   0.813   3.254  15.462  0.7631 -2.4808  0.6324
  796MPD2     N11736   1.028   3.570  15.725 -0.0652  0.0118  0.5045
  796MPD2    H511737   1.115   3.575  15.777  2.4930  1.0519 -3.8685
  796MPD2    N111738   1.216   3.132  15.645  1.2427  0.6762  0.9492
  796MPD2    H711739   1.184   3.039  15.622  2.4147  0.1607  1.3809
  797MPD2     C11740   1.864   2.862  16.952  0.4202  0.0787 -0.0046
  797MPD2    C111741   1.853   2.990  17.011 -0.5615 -0.2871  0.4866
  797MPD2    C211742   1.768   3.074  16.948  0.1347 -0.2700  0.1509
  797MPD2    C311743   1.736   3.050  16.814 -1.0606  0.7000 -0.0479
  797MPD2    C411744   1.745   2.925  16.761 -0.1285  0.0817 -0.0929
  797MPD2    C511745   1.796   2.826  16.838 -0.7669 -0.4381 -0.6817
  797MPD2     H11746   1.763   3.176  16.983 -1.1151 -0.3551  0.2069
  797MPD2    H111747   1.702   2.902  16.664 -0.8034  2.0606 -0.2589
  797MPD2    H211748   1.903   2.780  17.012  0.2576  1.6350  2.2204
  797MPD2    H311749   1.790   2.725  16.798  1.0147 -1.2582  1.1228
  797MPD2     N11750   1.692   3.159  16.735  0.3752 -0.0850 -0.3951
  797MPD2    H511751   1.683   3.149  16.634  0.1158  0.2065 -0.4022
  797MPD2    N111752   1.922   3.042  17.125 -0.5735  0.2723  0.0263
  797MPD2    H711753   1.888   3.134  17.153 -1.3290 -0.3175  1.0436
  798MPD2     C11754   1.693   3.686  17.190 -0.7050  0.8393  0.0176
  798MPD2    C111755   1.796   3.657  17.097 -0.0264  0.2619  0.3581
  798MPD2    C211756   1.910   3.591  17.137 -0.5420  0.0140  0.0180
  798MPD2    C311757   1.924   3.556  17.266 -0.3205 -0.3877 -0.8784
  798MPD2    C411758   1.827   3.588  17.361  0.3394 -0.7338  0.7602
  798MPD2    C511759   1.719   3.662  17.320  0.3794  0.4280 -0.1493
  798MPD2     H11760   1.985   3.564  17.064 -0.9273 -0.3666 -0.2358
  798MPD2    H111761   1.827   3.548  17.462 -1.0202 -1.5884  0.4282
  798MPD2    H211762   1.603   3.735  17.156 -0.2030  1.6223 -0.1981
  798MPD2    H311763   1.641   3.682  17.393 -0.7399  1.7801 -1.7220
  798MPD2     N11764   2.023   3.463  17.287 -0.7177  0.3014 -0.0895
  798MPD2    H511765   2.071   3.425  17.206 -2.2481  0.9005 -1.2756
  798MPD2    N111766   1.755   3.669  16.967 -0.2901 -0.5631 -0.6100
  798MPD2    H711767   1.659   3.693  16.945 -0.2831 -0.0368 -0.0573
  799MPD2     C11768   1.300   3.548  14.506 -0.9288  1.0434 -0.0703
  799MPD2    C111769   1.285   3.544  14.365  0.0692  0.2246  0.0534
  799MPD2    C211770   1.175   3.605  14.297  0.4011  0.4494 -0.2251
  799MPD2    C311771   1.093   3.687  14.371 -0.6134 -0.2194  0.0481
  799MPD2    C411772   1.103   3.687  14.506 -0.0324  0.6570 -0.1228
  799MPD2    C511773   1.212   3.634  14.568  0.6252  0.6417 -0.1917
  799MPD2     H11774   1.163   3.599  14.189  2.4723 -1.0737 -0.3761
  799MPD2    H111775   1.029   3.740  14.565 -0.6984 -2.4406  1.8937
  799MPD2    H211776   1.368   3.484  14.561 -0.1203  1.3943 -0.6507
  799MPD2    H311777   1.226   3.645  14.675 -2.3075 -1.7792  0.4530
  799MPD2     N11778   0.994   3.767  14.320  0.3725  0.0837  0.0786
  799MPD2    H511779   0.955   3.831  14.388  0.4124  0.0344  0.1489
  799MPD2    N111780   1.377   3.462  14.304  0.1829 -0.3700  0.3064
  799MPD2    H711781   1.440   3.409  14.361  1.1339  0.1699 -0.2452
  800MPD2     C11782   1.043   0.675  13.786 -0.3302 -0.4836  0.3139
  800MPD2    C111783   1.154   0.632  13.719 -0.0960 -0.1342 -0.5703
  800MPD2    C211784   1.148   0.529  13.627  0.4056 -0.4400  0.0718
  800MPD2    C311785   1.023   0.492  13.579 -0.4585 -0.7985  0.0339
  800MPD2    C411786   0.907   0.540  13.641 -0.1284 -0.8796 -0.5068
  800MPD2    C511787   0.922   0.617  13.751  0.3089  0.0985 -0.6486
  800MPD2     H11788   1.235   0.499  13.570  1.9490  0.6120  1.8911
  800MPD2    H111789   0.814   0.525  13.588 -0.8017 -1.3168  0.8230
  800MPD2    H211790   1.043   0.757  13.857 -1.1267  0.7884 -1.1277
  800MPD2    H311791   0.834   0.668  13.788 -1.6448 -2.0396 -2.3459
  800MPD2     N11792   1.017   0.410  13.471  0.0635  0.3076 -0.6005
  800MPD2    H511793   1.107   0.386  13.431  0.4078  0.7274 -0.0719
  800MPD2    N111794   1.277   0.701  13.748 -0.5064 -0.2308  0.4960
  800MPD2    H711795   1.269   0.773  13.818  0.5898 -0.0657  0.4520
  801MPD2     C11796   1.429   1.395  13.735  0.1184  0.0856 -0.6006
  801MPD2    C111797   1.391   1.284  13.813 -0.4683 -0.8366 -0.6079
  801MPD2    C211798   1.266   1.289  13.877 -0.2305  0.3511  0.3082
  801MPD2    C311799   1.186   1.406  13.881 -0.1528  0.5471 -0.2611
  801MPD2    C411800   1.235   1.507  13.806 -0.3409  0.1884  0.7087
  801MPD2    C511801   1.350   1.504  13.726 -1.1447 -0.7218  0.0042
  801MPD2     H11802   1.240   1.201  13.934  1.7384 -2.2029 -2.7352
  801MPD2    H111803   1.176   1.598  13.800 -0.8025 -0.2480 -1.2499
  801MPD2    H211804   1.513   1.407  13.667  0.1951  0.1943 -0.4878
  801MPD2    H311805   1.368   1.585  13.656  1.5903 -0.2075  1.3176
  801MPD2     N11806   1.066   1.413  13.957 -0.2242  0.1641  0.2163
  801MPD2    H511807   1.013   1.499  13.968  0.6131  0.5887  0.9279
  801MPD2    N111808   1.451   1.158  13.810 -0.1112  0.1365 -0.5106
  801MPD2    H711809   1.396   1.085  13.856 -2.8136  1.1525 -2.1188
  802MPD2     C11810   0.724   0.964  17.181 -0.5431  0.3290  0.2976
  802MPD2    C111811   0.718   1.105  17.196  0.3233 -0.4566 -0.2774
  802MPD2    C211812   0.713   1.187  17.083 -0.2173  0.3802 -0.2272
  802MPD2    C311813   0.705   1.123  16.957 -0.5471 -0.1446 -0.0759
  802MPD2    C411814   0.709   0.983  16.955 -0.1717  0.2273  0.1199
  802MPD2    C511815   0.716   0.903  17.064 -0.5816  0.0125 -0.7520
  802MPD2     H11816   0.714   1.296  17.088  0.2765  0.4302 -1.4249
  802MPD2    H111817   0.706   0.929  16.861  0.0952 -0.7958  0.7036
  802MPD2    H211818   0.717   0.899  17.267  1.9764  1.5341  1.4367
  802MPD2    H311819   0.714   0.794  17.056 -1.9805 -0.1597  1.9493
  802MPD2     N11820   0.693   1.201  16.845  0.0014 -1.1655  0.5785
  802MPD2    H511821   0.662   1.295  16.867 -0.8964 -1.0069 -1.3730
  802MPD2    N111822   0.714   1.142  17.330 -0.2974  0.0551  0.9924
  802MPD2    H711823   0.712   1.073  17.404  0.9284  0.3152  1.2670
  803MPD2     C11824   1.672   0.220  11.749 -0.1134  0.6657  0.6540
  803MPD2    C111825   1.765   0.160  11.831  0.0120 -0.7307 -0.3851
  803MPD2    C211826   1.726   0.062  11.921 -0.7427 -1.2031 -0.0632
  803MPD2    C311827   1.591   0.025  11.933  0.2518 -0.7713 -0.4377
  803MPD2    C411828   1.499   0.089  11.854  0.1712  1.0882  0.0872
  803MPD2    C511829   1.535   0.178  11.756  0.1385 -0.4746 -0.3903
  803MPD2     H11830   1.796   0.013  11.988 -1.0366 -1.9996 -0.3421
  803MPD2    H111831   1.391   0.081  11.866  0.1000  0.0080 -1.2688
  803MPD2    H211832   1.696   0.292  11.672 -1.0470  0.4583  0.1636
  803MPD2    H311833   1.458   0.229  11.699  0.1853 -0.8153 -0.7554
  803MPD2     N11834   1.539   4.651  12.022  0.4168 -0.7862 -0.0796
  803MPD2    H511835   1.439   4.642  12.034  0.4208 -2.2981 -1.2833
  803MPD2    N111836   1.901   0.211  11.839  0.4003  0.0814  0.0213
  803MPD2    H711837   1.964   0.183  11.914 -1.3644 -3.1106  0.2904
  804MPD2     C11838   1.197   1.428  16.792 -0.1363  0.0983 -0.3038
  804MPD2    C111839   1.204   1.397  16.926 -0.2881  0.2304  0.1944
  804MPD2    C211840   1.279   1.483  17.010 -0.6685 -0.1460 -0.5287
  804MPD2    C311841   1.349   1.595  16.963  0.5115 -0.1924 -0.4110
  804MPD2    C411842   1.334   1.621  16.828 -0.7131 -0.0587 -0.4859
  804MPD2    C511843   1.252   1.546  16.748  0.1157  0.1822  0.2287
  804MPD2     H11844   1.294   1.454  17.113 -1.1005  2.9510  0.4253
  804MPD2    H111845   1.382   1.707  16.782  0.0815 -0.8421 -1.1185
  804MPD2    H211846   1.146   1.366  16.720 -0.2226  1.1446 -1.1349
  804MPD2    H311847   1.239   1.568  16.643 -0.3514 -2.8564 -0.3591
  804MPD2     N11848   1.411   1.667  17.060  0.2130  0.0758  0.0098
  804MPD2    H511849   1.414   1.630  17.154 -1.6167 -0.6106 -0.2013
  804MPD2    N111850   1.142   1.284  16.983  0.5710 -0.1684  1.3056
  804MPD2    H711851   1.144   1.269  17.083  0.3409  0.3632  1.3901
  805MPD2     C11852   0.557   4.433  15.651  0.2654 -0.6139 -0.1585
  805MPD2    C111853   0.615   4.521  15.559 -0.2896 -0.1957 -0.5521
  805MPD2    C211854   0.745   4.570  15.582  0.3843  0.3134 -0.1079
  805MPD2    C311855   0.831   4.502  15.667  0.5575  0.4883 -0.2936
  805MPD2    C411856   0.779   4.415  15.758  0.8361  0.3649  0.1922
  805MPD2    C511857   0.644   4.387  15.752 -0.5530 -0.2537  0.2957
  805MPD2     H11858   0.774   4.649  15.514 -2.7013  3.0085  1.7878
  805MPD2    H111859   0.840   4.380  15.840  1.1941  1.4904  0.4115
  805MPD2    H211860   0.452   4.408  15.648  0.2634 -0.6181 -0.0566
  805MPD2    H311861   0.619   4.309  15.824  0.8587 -0.1702  0.8794
  805MPD2     N11862   0.957   4.569  15.692 -0.2370 -0.3984  0.3061
  805MPD2    H511863   0.971   4.662  15.654  0.2641 -0.9495 -0.8282
  805MPD2    N111864   0.538   4.578  15.455  0.3042 -0.2822  0.1906
  805MPD2    H711865   0.584   4.631  15.381  1.4348  0.6094  1.5491
  806MPD2     C11866   1.316   4.154   0.830 -0.2265  0.3849 -0.6836
  806MPD2    C111867   1.425   4.200   0.768  0.2685 -0.2584  0.5121
  806MPD2    C211868   1.442   4.181   0.635  0.5840  0.7282 -0.3935
  806MPD2    C311869   1.345   4.116   0.563 -0.0334 -0.1170 -0.4582
  806MPD2    C411870   1.228   4.074   0.622 -0.0402 -0.4765  0.4964
  806MPD2    C511871   1.211   4.098   0.755  0.0855 -0.1085 -0.2863
  806MPD2     H11872   1.529   4.216   0.580  0.3542  1.4276 -0.3112
  806MPD2    H111873   1.153   4.017   0.567  2.1095  0.6314 -3.5546
  806MPD2    H211874   1.289   4.189   0.929 -1.1312  1.2716 -1.2413
  806MPD2    H311875   1.127   4.060   0.812  2.4228  0.2558  3.4436
  806MPD2     N11876   1.370   4.106   0.428  0.0604 -0.4340  0.1630
  806MPD2    H511877   1.444   4.171   0.403 -0.0055 -0.6643 -0.6192
  806MPD2    N111878   1.529   4.254   0.852 -0.1214 -0.9118  0.0119
  806MPD2    H711879   1.504   4.258   0.950  2.8808  1.8029  0.6891
  807MPD2     C11880   1.745   4.338   1.532 -0.2533 -0.5244 -0.8479
  807MPD2    C111881   1.652   4.302   1.444  0.0701  0.6400  0.1213
  807MPD2    C211882   1.524   4.287   1.488 -0.7283  0.5669  0.3102
  807MPD2    C311883   1.484   4.313   1.616  0.2267 -0.2946  0.4558
  807MPD2    C411884   1.579   4.349   1.707 -0.7743 -0.8445 -0.2910
  807MPD2    C511885   1.708   4.362   1.665 -0.0999  0.4285 -0.3138
  807MPD2     H11886   1.446   4.257   1.419  0.4398 -2.1078  0.1790
  807MPD2    H111887   1.559   4.362   1.812 -1.6402 -3.8501 -0.1014
  807MPD2    H211888   1.849   4.347   1.501  0.8409 -0.3393  2.8326
  807MPD2    H311889   1.780   4.385   1.743 -2.3277  1.1104  1.5342
  807MPD2     N11890   1.350   4.299   1.643 -0.6659  0.6415 -0.4048
  807MPD2    H511891   1.295   4.254   1.571  0.7053 -2.7082  0.6236
  807MPD2    N111892   1.675   4.264   1.311 -0.7356 -0.4285  0.4292
  807MPD2    H711893   1.598   4.255   1.245  0.8393 -1.7852 -1.2141
  808MPD2     C11894   1.094   0.529   9.771 -0.0269  0.2439  0.8312
  808MPD2    C111895   1.053   0.520   9.639 -0.0006  0.7182 -0.4773
  808MPD2    C211896   1.092   0.610   9.542  0.5559 -0.3963 -0.0086
  808MPD2    C311897   1.180   0.712   9.584  0.9853  0.5173 -0.0928
  808MPD2    C411898   1.223   0.722   9.711  0.2571  0.1865  0.0520
  808MPD2    C511899   1.187   0.623   9.803  0.3494 -0.0631  0.6861
  808MPD2     H11900   1.065   0.607   9.437  1.0617  1.0571 -0.1886
  808MPD2    H111901   1.297   0.791   9.750  0.2596  0.4696 -0.4571
  808MPD2    H211902   1.071   0.449   9.840 -0.9696 -0.4598 -0.3088
  808MPD2    H311903   1.223   0.616   9.905  0.0882 -0.3773  0.7553
  808MPD2     N11904   1.246   0.797   9.504 -0.5162 -0.1722  1.4930
  808MPD2    H511905   1.301   0.870   9.548 -3.2234  1.7945  1.6422
  808MPD2    N111906   0.966   0.418   9.602  0.1084 -0.1332 -0.4585
  808MPD2    H711907   0.963   0.410   9.501 -0.2854 -2.1762 -0.2910
  809MPD2     C11908   1.521   0.738   8.544 -0.3242 -0.2626 -0.1410
  809MPD2    C111909   1.612   0.822   8.606  0.2495 -0.3629 -0.5122
  809MPD2    C211910   1.583   0.870   8.725 -0.4879 -0.6281 -0.0176
  809MPD2    C311911   1.456   0.847   8.782 -0.2571  0.0500 -0.1795
  809MPD2    C411912   1.366   0.771   8.717 -0.2753  0.0414 -0.4335
  809MPD2    C511913   1.397   0.716   8.592  0.1803  0.0002  0.0753
  809MPD2     H11914   1.652   0.940   8.771 -0.4192 -0.8378  0.2032
  809MPD2    H111915   1.274   0.753   8.771 -0.8601 -0.1287 -1.4861
  809MPD2    H211916   1.535   0.698   8.444  2.6526 -1.7578  0.8598
  809MPD2    H311917   1.325   0.645   8.554  0.1960  1.0838 -1.9609
  809MPD2     N11918   1.409   0.911   8.902  0.0561 -0.0167 -0.8195
  809MPD2    H511919   1.328   0.876   8.953  0.4558 -0.1681 -0.2999
  809MPD2    N111920   1.737   0.859   8.555  1.2253  0.1646 -0.5049
  809MPD2    H711921   1.788   0.920   8.617  1.2594  0.9540 -1.3024
  810MPD2     C11922   0.988   0.470  10.109 -0.3038  0.0852 -0.2778
  810MPD2    C111923   1.008   0.354  10.184 -0.0185 -0.1324  0.6288
  810MPD2    C211924   1.062   0.368  10.313 -0.7873  0.0713 -0.5093
  810MPD2    C311925   1.106   0.493  10.360  0.1251 -0.3673  0.0357
  810MPD2    C411926   1.095   0.598  10.271 -0.5784  0.0507  0.3773
  810MPD2    C511927   1.035   0.591  10.150 -0.1329  0.4411 -0.3408
  810MPD2     H11928   1.067   0.283  10.379 -0.2811  0.6931  0.2496
  810MPD2    H111929   1.151   0.688  10.292 -0.4112 -0.2199  1.1245
  810MPD2    H211930   0.939   0.463  10.012 -1.3126 -0.6785  0.2786
  810MPD2    H311931   1.011   0.670  10.080 -1.0981 -0.0392 -0.5522
  810MPD2     N11932   1.179   0.511  10.480 -0.4573  0.3383  0.0622
  810MPD2    H511933   1.231   0.598  10.487 -0.6951  0.4100  0.9676
  810MPD2    N111934   0.968   0.235  10.117 -0.0138  0.5034  0.0643
  810MPD2    H711935   0.915   0.243  10.031 -1.0080  0.7782  0.7027
  811MPD2     C11936   0.206   0.068   9.951  0.5702  0.1809  0.4540
  811MPD2    C111937   0.329   0.101   9.898 -0.5792  0.3443 -0.1540
  811MPD2    C211938   0.339   0.208   9.814 -0.5388  0.0398  0.3573
  811MPD2    C311939   0.233   0.291   9.794 -0.5688  0.4516 -0.3052
  811MPD2    C411940   0.109   0.253   9.851  0.1526 -0.5192  0.1278
  811MPD2    C511941   0.093   0.133   9.920 -0.1486  0.1044  0.9462
  811MPD2     H11942   0.429   0.229   9.759 -1.1769 -1.8408 -1.3950
  811MPD2    H111943   0.028   0.325   9.841 -0.8690 -1.8626 -1.3229
  811MPD2    H211944   0.197   0.003  10.037  0.3729  2.0477  1.8505
  811MPD2    H311945   4.718   0.109   9.959  0.1256 -0.5554  1.2414
  811MPD2     N11946   0.257   0.420   9.737  0.4152 -0.7621  0.6702
  811MPD2    H511947   0.352   0.453   9.721 -0.4238  1.1096 -0.4301
  811MPD2    N111948   0.441   0.023   9.944  0.4909 -0.6182  0.0664
  811MPD2    H711949   0.429   4.658   9.991  2.9473 -1.0490 -0.1245
  812MPD2     C11950   4.703   0.010  11.941  0.9818 -0.0155  0.5452
  812MPD2    C111951   4.624   0.056  12.048  0.3434  0.0179 -0.4098
  812MPD2    C211952   4.581   4.690  12.151 -0.5754  0.1295  0.3325
  812MPD2    C311953   4.634   4.568  12.158  0.6630  0.0232 -0.3437
  812MPD2    C411954   0.000   4.531  12.060  0.4776  0.3200  0.4665
  812MPD2    C511955   0.031   4.612  11.954 -0.3265 -0.5227 -0.6606
  812MPD2     H11956   4.513   0.004  12.226 -0.4160 -0.2460  0.6609
  812MPD2    H111957   0.041   4.431  12.067  0.0475  0.0776 -0.5064
  812MPD2    H211958   0.012   0.055  11.848  1.1328  1.4781  1.3177
  812MPD2    H311959   0.090   4.586  11.866 -1.5292 -0.2965 -1.5325
  812MPD2     N11960   4.591   4.475  12.259  0.1044 -0.0391 -0.3744
  812MPD2    H511961   4.521   4.515  12.320 -0.7360 -0.5954 -0.9817
  812MPD2    N111962   4.587   0.195  12.042  0.2309  0.7575  0.2440
  812MPD2    H711963   4.623   0.240  11.959  3.3001 -3.6225 -0.8263
  813MPD2     C11964   3.992   1.734  12.641 -0.6434  0.1423  0.0215
  813MPD2    C111965   3.941   1.862  12.642  0.0953 -0.4215 -0.0985
  813MPD2    C211966   3.808   1.883  12.606  0.7860  0.0406  0.1845
  813MPD2    C311967   3.735   1.777  12.573 -0.5599 -0.3065  0.0071
  813MPD2    C411968   3.783   1.646  12.567  0.0931  0.6945  0.1667
  813MPD2    C511969   3.915   1.631  12.595 -0.3430 -0.1664  0.0956
  813MPD2     H11970   3.770   1.984  12.600 -0.8827 -0.5817  0.2317
  813MPD2    H111971   3.729   1.561  12.529  0.3918 -0.4693  2.3280
  813MPD2    H211972   4.093   1.705  12.666  0.0583  1.6453 -1.0947
  813MPD2    H311973   3.954   1.530  12.589  0.6148  0.3438 -2.2292
  813MPD2     N11974   3.592   1.799  12.558  0.0770 -0.7829 -0.1259
  813MPD2    H511975   3.554   1.891  12.577  2.0008  0.2476 -1.2197
  813MPD2    N111976   4.028   1.961  12.690 -0.3130  0.2488  0.7000
  813MPD2    H711977   4.115   1.929  12.731  0.8020  0.4696 -1.4987
  814MPD2     C11978   4.200   3.346  11.955  0.2169  0.4355  0.7115
  814MPD2    C111979   4.217   3.387  11.817  0.4920 -0.3635  0.1792
  814MPD2    C211980   4.302   3.494  11.799  0.0356  0.4582 -0.3401
  814MPD2    C311981   4.369   3.560  11.906 -0.5032 -0.3234  0.4104
  814MPD2    C411982   4.335   3.522  12.028 -0.2136 -0.7191 -0.1262
  814MPD2    C511983   4.252   3.415  12.054  0.0121  0.1244  0.3464
  814MPD2     H11984   4.319   3.519  11.695 -1.0242 -0.9177 -0.8512
  814MPD2    H111985   4.379   3.577  12.110  1.4802 -1.8790 -0.2327
  814MPD2    H211986   4.136   3.263  11.979 -0.4072  0.4753 -0.8283
  814MPD2    H311987   4.227   3.386  12.155 -0.1919  1.3722  0.6501
  814MPD2     N11988   4.464   3.665  11.906 -0.0197 -0.5693  0.1127
  814MPD2    H511989   4.501   3.693  11.996  1.6182  0.6012 -0.9318
  814MPD2    N111990   4.162   3.317  11.711  0.0810 -0.7735  0.4814
  814MPD2    H711991   4.188   3.355  11.621  0.4154 -0.3588  0.7560
  815MPD2     C11992   0.036   2.080  11.407  0.3688 -0.3857  0.1107
  815MPD2    C111993   0.020   1.964  11.475 -0.7714 -0.1974  0.3422
  815MPD2    C211994   4.640   1.952  11.564  0.9697  0.0494  0.8501
  815MPD2    C311995   4.540   2.053  11.565  0.1533 -0.4437 -0.2167
  815MPD2    C411996   4.557   2.169  11.487 -0.4822 -0.3090  0.1802
  815MPD2    C511997   4.665   2.183  11.411 -0.4081  0.3848  0.2523
  815MPD2     H11998   4.620   1.860  11.618 -0.2357 -0.6677 -0.8148
  815MPD2    H111999   4.480   2.245  11.482 -0.5719 -0.4345 -0.3598
  815MPD2    H212000   0.127   2.111  11.358 -1.2319  0.8870 -2.0419
  815MPD2    H312001   4.694   2.275  11.361  0.6692  0.6850  1.4237
  815MPD2     N12002   4.415   2.028  11.630  0.4897 -0.6750  0.0662
  815MPD2    H512003   4.409   1.938  11.677 -0.3323 -0.3342  0.6172
  815MPD2    N112004   0.102   1.855  11.432  0.6464  0.2927 -0.1004
  815MPD2    H712005   0.159   1.868  11.349  0.3233 -0.4563 -0.4409
  816MPD2     C12006   4.178   0.818  17.390  0.0049  0.5630 -0.5392
  816MPD2    C112007   4.292   0.897  17.402 -0.3865 -0.1067 -0.1128
  816MPD2    C212008   4.388   0.886  17.305 -0.3060  0.4622 -0.2066
  816MPD2    C312009   4.387   0.786  17.209  0.2293  0.4326 -0.0814
  816MPD2    C412010   4.276   0.709  17.197  0.2645  0.1130 -0.5403
  816MPD2    C512011   4.170   0.724  17.289  0.5995  0.1164  0.6035
  816MPD2     H12012   4.483   0.938  17.306 -0.4206  0.6703 -0.0943
  816MPD2    H112013   4.268   0.636  17.118  1.4478  0.8670 -1.3521
  816MPD2    H212014   4.088   0.827  17.449  0.0779  1.5604 -0.5770
  816MPD2    H312015   4.076   0.670  17.292 -0.4787  2.1205  4.4801
  816MPD2     N12016   4.499   0.775  17.115  0.1157  0.5803  0.3724
  816MPD2    H512017   4.571   0.845  17.123  0.7026 -0.3186  2.9063
  816MPD2    N112018   4.293   1.002  17.496 -0.3603  0.2312 -0.7071
  816MPD2    H712019   4.205   1.027  17.539 -0.1670 -0.4059  0.0390
  817MPD2     C12020   4.026   2.714   9.486 -1.2036 -0.0540 -0.1927
  817MPD2    C112021   4.151   2.774   9.490  0.0693  1.0843 -0.2317
  817MPD2    C212022   4.159   2.912   9.489  1.5692  0.6337  0.2016
  817MPD2    C312023   4.045   2.991   9.483 -0.2811  0.1242 -0.0103
  817MPD2    C412024   3.920   2.929   9.473 -0.2822 -0.2863 -0.3134
  817MPD2    C512025   3.917   2.795   9.473  0.1463  0.1812 -0.4834
  817MPD2     H12026   4.259   2.954   9.496  1.3576  0.8302  1.8392
  817MPD2    H112027   3.826   2.976   9.449 -0.5770 -0.5360  0.3500
  817MPD2    H212028   4.012   2.607   9.491  1.0098 -0.3245  0.2769
  817MPD2    H312029   3.819   2.751   9.463 -0.1186  1.2410 -2.5505
  817MPD2     N12030   4.062   3.133   9.486  0.8067  0.3027 -0.2164
  817MPD2    H512031   4.149   3.173   9.452  0.9327  0.5945  0.4583
  817MPD2    N112032   4.273   2.699   9.509  0.8995  0.2446  0.3717
  817MPD2    H712033   4.360   2.749   9.500  0.5200  0.7202 -0.7624
  818MPD2     C12034   3.254   2.291   9.342 -0.8663 -0.2599 -0.7608
  818MPD2    C112035   3.264   2.238   9.468  0.3890  0.5463  0.2209
  818MPD2    C212036   3.326   2.117   9.496  0.8735 -0.5526 -0.3384
  818MPD2    C312037   3.376   2.047   9.384 -1.0213 -0.1732 -0.1078
  818MPD2    C412038   3.365   2.093   9.253  0.4759  0.0341 -0.5466
  818MPD2    C512039   3.306   2.213   9.240  0.3997 -0.4162 -0.1877
  818MPD2     H12040   3.317   2.070   9.593  1.1627 -1.3353 -0.6965
  818MPD2    H112041   3.402   2.031   9.172 -0.6647 -1.7548  0.2913
  818MPD2    H212042   3.211   2.388   9.319  0.0389  0.2494 -0.3193
  818MPD2    H312043   3.291   2.258   9.143  1.1388 -0.9988 -0.5672
  818MPD2     N12044   3.434   1.922   9.402  0.5678 -0.4506  0.3519
  818MPD2    H512045   3.452   1.865   9.320  1.3804 -0.9408  0.8630
  818MPD2    N112046   3.183   2.287   9.575 -0.0923 -0.1770 -0.2059
  818MPD2    H712047   3.183   2.230   9.659  2.2354  1.7322  1.0741
  819MPD2     C12048   1.514   4.534  15.779 -0.3805 -0.2181  0.3750
  819MPD2    C112049   1.495   4.397  15.764  0.5588 -0.2362  0.3697
  819MPD2    C212050   1.589   4.315  15.830  0.0907  0.4038 -0.0783
  819MPD2    C312051   1.708   4.360  15.878  0.0671 -0.3577 -0.7464
  819MPD2    C412052   1.723   4.496  15.890 -0.7906 -0.0356  0.0807
  819MPD2    C512053   1.627   4.581  15.838  0.3031  0.0377  0.0826
  819MPD2     H12054   1.584   4.206  15.828  0.6559  0.3550  1.8863
  819MPD2    H112055   1.816   4.538  15.927 -0.5129 -1.1640  0.6836
  819MPD2    H212056   1.435   4.604  15.754  0.3350  0.3771 -0.2333
  819MPD2    H312057   1.641   4.687  15.858  0.1672  0.2052 -0.7056
  819MPD2     N12058   1.798   4.271  15.927 -0.0838  0.1853 -0.8701
  819MPD2    H512059   1.764   4.176  15.915  0.8103 -0.3692  0.9986
  819MPD2    N112060   1.382   4.346  15.691 -0.1762 -0.2479 -0.3524
  819MPD2    H712061   1.299   4.404  15.686  1.4747  2.0360 -0.9375
  820MPD2     C12062   0.803   4.422  14.847 -0.0995 -0.3098  1.1326
  820MPD2    C112063   0.782   4.472  14.977 -0.5444 -0.4944 -0.1678
  820MPD2    C212064   0.866   4.431  15.079 -0.6875  0.5692  0.3985
  820MPD2    C312065   0.975   4.346  15.052 -0.0871 -0.2593 -0.0043
  820MPD2    C412066   0.992   4.301  14.928 -0.1404  1.3274 -0.5913
  820MPD2    C512067   0.909   4.338  14.824  0.1694  0.5189  0.0952
  820MPD2     H12068   0.844   4.447  15.184 -1.7232 -0.0662  0.2859
  820MPD2    H112069   1.071   4.233  14.899 -0.3514  0.0842  1.7468
  820MPD2    H212070   0.736   4.443  14.765  2.0975  1.1332 -0.2898
  820MPD2    H312071   0.925   4.295  14.726  0.3303 -3.9735  2.0842
  820MPD2     N12072   1.057   4.298  15.159  0.9752  0.6597  1.1664
  820MPD2    H512073   1.109   4.217  15.128  0.2555  0.5234  0.3397
  820MPD2    N112074   0.662   4.539  14.997 -0.0322 -0.1369 -0.3224
  820MPD2    H712075   0.600   4.548  14.917 -1.5403  1.9313  1.0876
  821MPD2     C12076   1.114   0.600  12.783 -0.0009  0.3181  0.1584
  821MPD2    C112077   1.188   0.516  12.862  0.0465  0.4926 -0.0806
  821MPD2    C212078   1.328   0.542  12.873  0.4850 -0.5305 -0.2849
  821MPD2    C312079   1.385   0.652  12.809 -0.7992 -0.2521  0.0455
  821MPD2    C412080   1.302   0.741  12.750  0.1461 -0.1174  0.2572
  821MPD2    C512081   1.168   0.711  12.728  0.0792 -0.2776 -0.0235
  821MPD2     H12082   1.383   0.479  12.943  0.1152  0.7672  1.1811
  821MPD2    H112083   1.340   0.830  12.702  3.0671 -1.3102  0.3070
  821MPD2    H212084   1.009   0.581  12.769 -0.2787  0.8145  1.5057
  821MPD2    H312085   1.110   0.773  12.661 -1.6883 -0.2190  1.5500
  821MPD2     N12086   1.514   0.706  12.825  0.6066  0.2394  0.1433
  821MPD2    H512087   1.523   0.806  12.811  0.1639  0.2486 -0.0551
  821MPD2    N112088   1.129   0.415  12.936  0.7388 -0.7014  0.8400
  821MPD2    H712089   1.190   0.361  12.997  0.5107 -2.0874 -0.1662
  822MPD2     C12090   1.911   0.833  15.576 -0.0880 -0.2128  0.7442
  822MPD2    C112091   1.856   0.768  15.685  0.5249  0.0966  0.7944
  822MPD2    C212092   1.764   0.843  15.762  0.7495  0.3526 -0.8106
  822MPD2    C312093   1.733   0.973  15.735  0.3548  0.5319  0.4526
  822MPD2    C412094   1.787   1.034  15.619 -0.0743 -0.0568 -0.2261
  822MPD2    C512095   1.864   0.960  15.540 -0.3527  0.3810 -0.2917
  822MPD2     H12096   1.719   0.807  15.853 -0.3709  1.8718 -0.7755
  822MPD2    H112097   1.774   1.139  15.596 -0.2961  0.0347  0.3107
  822MPD2    H212098   1.991   0.786  15.520 -0.8626  0.3361 -0.8167
  822MPD2    H312099   1.911   1.001  15.452 -1.4211  3.7703  0.7211
  822MPD2     N12100   1.659   1.044  15.832  0.0468  0.7461  0.2404
  822MPD2    H512101   1.643   0.994  15.919 -0.6724  0.3728 -0.1066
  822MPD2    N112102   1.898   0.637  15.730  0.6790  0.4491  0.6407
  822MPD2    H712103   1.852   0.616  15.818 -0.9059 -0.6779 -0.4344
  823MPD2     C12104   1.420   1.179  16.653  0.1739 -0.5642 -0.1109
  823MPD2    C112105   1.444   1.095  16.547 -0.4426  0.8922 -0.5846
  823MPD2    C212106   1.485   0.963  16.567  0.9182 -0.9388  0.4703
  823MPD2    C312107   1.475   0.906  16.693 -0.5041 -1.1534 -0.1695
  823MPD2    C412108   1.437   0.991  16.795 -0.4133  0.5105 -1.3845
  823MPD2    C512109   1.426   1.121  16.779 -0.0719 -0.2941  0.4219
  823MPD2     H12110   1.498   0.901  16.479  1.0017 -0.6650  0.2872
  823MPD2    H112111   1.441   0.954  16.896  0.3447 -0.3874 -1.7427
  823MPD2    H212112   1.408   1.286  16.646 -1.7077 -0.7685  0.1370
  823MPD2    H312113   1.420   1.187  16.865 -0.5367 -1.0473  0.9649
  823MPD2     N12114   1.517   0.775  16.735  0.0697  0.0237  0.2848
  823MPD2    H512115   1.512   0.769  16.836  1.9400 -1.6337  0.2775
  823MPD2    N112116   1.441   1.162  16.418  0.1973  0.0942 -0.4367
  823MPD2    H712117   1.425   1.262  16.409 -0.6770  0.0171  0.2192
  824MPD2     C12118   2.026   4.537  15.638  0.0299 -0.3711  0.1267
  824MPD2    C112119   2.124   4.619  15.691 -0.1556  0.1831  0.3830
  824MPD2    C212120   2.256   4.582  15.684  0.0410 -0.1448 -0.3709
  824MPD2    C312121   2.299   4.466  15.628 -0.4503  0.0098 -0.5825
  824MPD2    C412122   2.199   4.384  15.582 -0.0654  0.8555  0.2999
  824MPD2    C512123   2.068   4.421  15.582 -0.6450 -0.3832 -0.1330
  824MPD2     H12124   2.325   4.657  15.722 -0.5854  0.1074  0.2866
  824MPD2    H112125   2.217   4.292  15.526  1.8418  0.4185  1.6418
  824MPD2    H212126   1.923   4.566  15.655  1.4929  3.6606  2.2130
  824MPD2    H312127   1.989   4.355  15.548 -0.1987 -1.6694  1.3549
  824MPD2     N12128   2.435   4.443  15.620 -0.8013 -0.1914  0.3031
  824MPD2    H512129   2.492   4.492  15.689  0.7600 -1.0042 -0.4084
  824MPD2    N112130   2.103   0.030  15.732 -0.4327 -0.1652 -0.0406
  824MPD2    H712131   2.184   0.080  15.767 -1.2313 -0.6870  2.4986
  825MPD2     C12132   3.189   4.340  15.265 -0.1800  0.3799 -0.2505
  825MPD2    C112133   3.068   4.408  15.280 -0.3424  0.0604  0.6680
  825MPD2    C212134   3.051   4.526  15.209 -0.3713  0.1091  0.3176
  825MPD2    C312135   3.158   4.577  15.130  0.0878 -0.5426 -0.5787
  825MPD2    C412136   3.273   4.503  15.112 -0.2373  0.1800 -0.5010
  825MPD2    C512137   3.287   4.382  15.174 -0.0685  0.8366  0.2084
  825MPD2     H12138   2.953   4.572  15.216 -0.4734 -0.0688  0.0231
  825MPD2    H112139   3.357   4.520  15.046  0.0378 -1.0085 -0.4596
  825MPD2    H212140   3.200   4.240  15.305  1.6891  0.3488 -0.8488
  825MPD2    H312141   3.376   4.325  15.154 -1.0979 -0.2789 -1.1952
  825MPD2     N12142   3.152   4.701  15.061 -0.1172 -0.7879  0.3048
  825MPD2    H512143   3.223   4.721  14.990 -1.0051 -2.3194 -1.0185
  825MPD2    N112144   2.960   4.356  15.363  0.0171 -0.0682 -0.1271
  825MPD2    H712145   2.873   4.407  15.347 -1.0516 -1.2462  1.9493
  826MPD2     C12146   2.825   3.780  13.328  0.0919 -0.2701  0.1690
  826MPD2    C112147   2.911   3.882  13.367  0.3749  0.3394  0.2378
  826MPD2    C212148   2.871   4.014  13.356 -0.7773  0.4559 -0.0311
  826MPD2    C312149   2.740   4.039  13.321 -0.3770  0.1443  0.2795
  826MPD2    C412150   2.654   3.934  13.293  0.5665 -0.1848 -0.4504
  826MPD2    C512151   2.699   3.803  13.281 -0.7196 -0.2903  0.2292
  826MPD2     H12152   2.943   4.093  13.376 -0.1895 -0.0989  0.0706
  826MPD2    H112153   2.550   3.939  13.264  0.5371 -0.3292 -0.3681
  826MPD2    H212154   2.859   3.677  13.337  0.4859 -0.2554 -1.3163
  826MPD2    H312155   2.627   3.724  13.264 -1.6051  0.4485  0.5680
  826MPD2     N12156   2.698   4.178  13.330  0.3896 -0.2181  0.0667
  826MPD2    H512157   2.767   4.244  13.363 -0.7160  0.4271  1.1001
  826MPD2    N112158   3.038   3.853  13.426 -0.0568  0.0616  0.8422
  826MPD2    H712159   3.076   3.759  13.412  1.1905  0.7594 -0.4686
  827MPD2     C12160   3.632   1.118   9.618 -0.7779  0.7657 -0.1320
  827MPD2    C112161   3.548   1.038   9.695  0.2093  0.1451  0.2333
  827MPD2    C212162   3.433   0.995   9.632 -0.3681 -0.1745  0.6453
  827MPD2    C312163   3.392   1.035   9.504 -0.2841 -0.1555 -0.7769
  827MPD2    C412164   3.474   1.119   9.433 -0.6656  0.1486 -0.2008
  827MPD2    C512165   3.595   1.151   9.484  0.2100  0.3796 -0.9962
  827MPD2     H12166   3.375   0.923   9.690 -3.1281  0.6157 -1.1042
  827MPD2    H112167   3.455   1.132   9.327 -2.0243 -3.1753 -0.3673
  827MPD2    H212168   3.725   1.155   9.659 -0.3755 -0.7238  0.3067
  827MPD2    H312169   3.660   1.220   9.432  1.0685  0.6676  0.4395
  827MPD2     N12170   3.267   0.978   9.452  0.3419  0.1187  1.2645
  827MPD2    H512171   3.210   0.920   9.513  1.3125  1.5383  3.5501
  827MPD2    N112172   3.593   1.005   9.822 -0.3216 -0.2553 -0.1941
  827MPD2    H712173   3.694   1.012   9.831 -0.1519 -0.6645 -1.6841
  828MPD2     C12174   1.786   0.899  12.582  0.0889 -0.5990 -1.0853
  828MPD2    C112175   1.766   0.930  12.446  0.2783 -0.3383 -0.4219
  828MPD2    C212176   1.870   0.910  12.354 -0.7386  0.5074  0.2583
  828MPD2    C312177   1.990   0.857  12.405  0.5129 -0.2508 -0.3256
  828MPD2    C412178   2.011   0.837  12.539  0.2195  0.5978  0.7744
  828MPD2    C512179   1.908   0.854  12.627  0.7303  0.0097 -0.8466
  828MPD2     H12180   1.866   0.948  12.253  0.0889  0.7889  0.3270
  828MPD2    H112181   2.101   0.791  12.578 -0.2370 -0.8684  0.0999
  828MPD2    H212182   1.708   0.910  12.658  0.8118 -1.6008 -0.1987
  828MPD2    H312183   1.912   0.818  12.729 -0.2084  0.9713 -0.4757
  828MPD2     N12184   2.099   0.820  12.317  0.1714  0.2800 -0.7875
  828MPD2    H512185   2.179   0.787  12.370 -0.0134 -0.0157 -0.6927
  828MPD2    N112186   1.646   0.984  12.404  0.7460  0.4582 -0.2115
  828MPD2    H712187   1.638   1.011  12.306  0.9170  1.5182  0.0637
  829MPD2     C12188   1.630   1.324  11.663 -0.0275 -0.0719  1.0195
  829MPD2    C112189   1.501   1.352  11.696  0.0825 -0.4158  0.9022
  829MPD2    C212190   1.453   1.314  11.825  0.0033  0.6045  0.2915
  829MPD2    C312191   1.532   1.241  11.909 -0.3376  0.5668  0.0595
  829MPD2    C412192   1.650   1.190  11.861 -0.2489  0.0388 -0.0879
  829MPD2    C512193   1.711   1.245  11.748  0.3073  0.1119  0.3209
  829MPD2     H12194   1.348   1.336  11.845  0.3885  2.9601 -0.2694
  829MPD2    H112195   1.709   1.114  11.911 -0.0863  0.7692  0.8322
  829MPD2    H212196   1.668   1.357  11.567  2.1965  0.5047  2.1154
  829MPD2    H312197   1.810   1.217  11.713 -0.4607 -2.6514  0.3452
  829MPD2     N12198   1.471   1.173  12.018  0.6151 -0.0526  0.2252
  829MPD2    H512199   1.526   1.103  12.066  0.1412 -0.0320  0.7918
  829MPD2    N112200   1.426   1.429  11.600  0.0217 -0.3853 -0.6073
  829MPD2    H712201   1.477   1.452  11.516 -0.2314 -1.8849 -1.1649
  830MPD2     C12202   2.423   3.734  15.637  0.4298  0.3871 -0.2444
  830MPD2    C112203   2.362   3.861  15.649 -0.0081 -0.0014  1.0455
  830MPD2    C212204   2.399   3.954  15.556 -0.1990 -0.3310 -0.1811
  830MPD2    C312205   2.470   3.919  15.444  0.3949  0.5469  0.3925
  830MPD2    C412206   2.531   3.796  15.432 -0.1557  0.5514  0.3216
  830MPD2    C512207   2.510   3.709  15.534  0.4205  0.9614  0.3256
  830MPD2     H12208   2.355   4.053  15.554 -0.8234 -0.5898  0.7355
  830MPD2    H112209   2.602   3.773  15.353  0.9393  3.6290  0.4288
  830MPD2    H212210   2.393   3.671  15.720 -1.9144  2.3694  0.4478
  830MPD2    H312211   2.569   3.618  15.525 -0.0516  0.8888 -2.0163
  830MPD2     N12212   2.484   4.008  15.332  0.5288  0.1826 -0.0161
  830MPD2    H512213   2.445   4.101  15.348 -1.3194 -0.2513 -1.9723
  830MPD2    N112214   2.271   3.878  15.759 -0.1784  0.6306  0.0220
  830MPD2    H712215   2.264   3.811  15.834  0.0514 -0.2565 -0.7487
  831MPD2     C12216   1.894   1.088  16.143  0.1397 -0.7180 -0.0368
  831MPD2    C112217   1.924   0.986  16.056  0.6117 -0.5643 -0.2889
  831MPD2    C212218   1.876   0.862  16.077 -0.5247  0.1847  0.2143
  831MPD2    C312219   1.778   0.841  16.171  0.0410 -0.9487 -0.7917
  831MPD2    C412220   1.749   0.941  16.258  0.1410  0.1991 -0.3792
  831MPD2    C512221   1.809   1.065  16.252  0.4280  0.0978  0.2224
  831MPD2     H12222   1.907   0.787  16.006  2.8101 -0.5309  2.4329
  831MPD2    H112223   1.681   0.921  16.341  1.2601 -1.4692  0.1499
  831MPD2    H212224   1.944   1.184  16.135 -2.0671  0.2972 -1.5191
  831MPD2    H312225   1.786   1.146  16.319  0.1358 -1.2181  1.7028
  831MPD2     N12226   1.704   0.724  16.173 -0.5067 -0.0205 -0.3424
  831MPD2    H512227   1.633   0.722  16.246 -1.1011  0.0585 -0.9102
  831MPD2    N112228   2.033   0.994  15.964 -0.2665  0.0861 -0.1820
  831MPD2    H712229   2.067   0.905  15.930  0.6198  0.6717 -0.8345
  832MPD2     C12230   0.566   2.120  17.468  0.3703 -0.8540 -0.3362
  832MPD2    C112231   0.482   2.219  17.523 -0.2621 -0.1853 -0.5860
  832MPD2    C212232   0.352   2.233  17.482 -0.4406  0.4178 -0.1126
  832MPD2    C312233   0.308   2.154  17.376  0.8624  0.6671  0.3611
  832MPD2    C412234   0.395   2.062  17.326 -0.0929  0.3208 -0.1655
  832MPD2    C512235   0.517   2.039  17.367  0.2145  0.2908  0.4018
  832MPD2     H12236   0.289   2.314  17.517 -3.8262 -1.8972 -0.8346
  832MPD2    H112237   0.366   1.999  17.242  1.0695 -1.4047  0.7348
  832MPD2    H212238   0.671   2.111  17.495  0.3948  0.5324 -0.0087
  832MPD2    H312239   0.576   1.963  17.318 -1.6560 -0.2738 -0.9611
  832MPD2     N12240   0.185   2.185  17.319 -0.6853 -0.4362 -0.8086
  832MPD2    H512241   0.145   2.125  17.247 -0.6413 -0.5773 -0.7152
  832MPD2    N112242   0.551   2.300  17.615  0.2169 -0.0632 -0.0008
  832MPD2    H712243   0.652   2.289  17.622  0.6747  4.0012 -0.3907
  833MPD2     C12244   2.629   3.487  12.317  0.1850 -0.2599  0.2333
  833MPD2    C112245   2.613   3.589  12.216 -0.1548 -0.2198 -0.3952
  833MPD2    C212246   2.676   3.568  12.093 -0.2142  0.2137  0.6724
  833MPD2    C312247   2.753   3.453  12.067  0.2023  0.0863 -0.1178
  833MPD2    C412248   2.761   3.354  12.165  0.3506 -0.4677  0.5449
  833MPD2    C512249   2.703   3.369  12.287  0.1876  0.0263  0.2749
  833MPD2     H12250   2.647   3.638  12.015  0.7114  1.5020  1.4819
  833MPD2    H112251   2.808   3.262  12.134  3.9220  1.4859  0.1514
  833MPD2    H212252   2.596   3.497  12.419 -0.8449 -0.7110 -0.0537
  833MPD2    H312253   2.711   3.285  12.355  3.0711  1.3685  1.5995
  833MPD2     N12254   2.825   3.428  11.947  0.1737  0.3008 -0.0769
  833MPD2    H512255   2.878   3.341  11.940  1.1352  0.8138  0.8801
  833MPD2    N112256   2.533   3.703  12.242  0.2026 -0.3275  0.8030
  833MPD2    H712257   2.480   3.702  12.329  0.5247  1.7362  1.0245
  834MPD2     C12258   2.905   2.818  11.212  0.2469 -0.1945 -0.2457
  834MPD2    C112259   2.833   2.921  11.153 -0.4537  0.6579 -0.3420
  834MPD2    C212260   2.836   3.040  11.223  0.3428  0.3653  0.0009
  834MPD2    C312261   2.910   3.059  11.341  0.0328  0.2139 -0.3183
  834MPD2    C412262   2.984   2.954  11.387  0.0374 -0.9826  0.2359
  834MPD2    C512263   2.985   2.832  11.319 -0.4649 -0.0646  0.0511
  834MPD2     H12264   2.779   3.125  11.186  2.3948  1.9926  0.5390
  834MPD2    H112265   3.042   2.962  11.478 -2.3072 -0.3303  1.6649
  834MPD2    H212266   2.911   2.718  11.170 -1.3608  0.4091 -1.9348
  834MPD2    H312267   3.055   2.753  11.346 -0.5316  0.3614  1.4877
  834MPD2     N12268   2.913   3.190  11.398  0.1412  0.0355  0.3023
  834MPD2    H512269   2.852   3.262  11.360 -1.5398 -0.4288  2.1171
  834MPD2    N112270   2.757   2.906  11.039  0.0929 -0.4300 -0.1383
  834MPD2    H712271   2.692   2.983  11.027 -0.2588 -0.8661 -1.0362
  835MPD2     C12272   2.508   1.305  10.974 -0.3297  0.2383 -0.2652
  835MPD2    C112273   2.372   1.338  10.990 -0.0076 -0.4763 -0.3483
  835MPD2    C212274   2.323   1.367  11.111 -0.0383  0.3313 -0.9931
  835MPD2    C312275   2.407   1.363  11.222  0.4261 -0.0884 -0.3842
  835MPD2    C412276   2.537   1.331  11.206 -0.1349  0.6892  0.4656
  835MPD2    C512277   2.588   1.306  11.086 -0.5057  0.1954  0.4777
  835MPD2     H12278   2.219   1.400  11.119 -0.6880 -1.7484 -1.0386
  835MPD2    H112279   2.607   1.325  11.289 -1.8677 -1.9140  1.7204
  835MPD2    H212280   2.551   1.263  10.883  0.7443  1.4842 -0.3329
  835MPD2    H312281   2.693   1.287  11.071 -0.1019 -0.6312  4.3166
  835MPD2     N12282   2.357   1.373  11.354  0.3095  0.0572 -0.5531
  835MPD2    H512283   2.423   1.352  11.427 -0.9890  1.0102  0.8890
  835MPD2    N112284   2.285   1.343  10.875  0.2475  0.2624  0.7552
  835MPD2    H712285   2.186   1.360  10.892 -0.1981 -0.1373 -1.5054
  836MPD2     C12286   1.700   1.731  11.609 -0.2705  0.0527 -0.0999
  836MPD2    C112287   1.757   1.652  11.705 -0.7038  0.4611 -0.1931
  836MPD2    C212288   1.679   1.621  11.819 -0.6083  0.0284 -0.2678
  836MPD2    C312289   1.558   1.681  11.849  0.3457  0.9297  0.1103
  836MPD2    C412290   1.494   1.743  11.747 -0.4604  0.3709 -0.0123
  836MPD2    C512291   1.569   1.765  11.635 -0.1648  0.2543  0.8664
  836MPD2     H12292   1.718   1.540  11.880  0.8131 -0.3405 -1.6668
  836MPD2    H112293   1.398   1.793  11.755 -0.2065  0.3602  3.3745
  836MPD2    H212294   1.749   1.750  11.514 -1.1636 -1.4506 -0.8686
  836MPD2    H312295   1.524   1.809  11.546 -0.7414 -2.8055 -0.3406
  836MPD2     N12296   1.487   1.654  11.963  0.0125  0.0092  0.0139
  836MPD2    H512297   1.387   1.671  11.962  0.3889  2.1572 -0.4049
  836MPD2    N112298   1.882   1.593  11.679 -0.1432 -0.3390 -0.3942
  836MPD2    H712299   1.912   1.595  11.581 -0.4573  0.5863 -0.4763
  837MPD2     C12300   0.665   1.084   9.931  0.0493  0.1677 -0.3291
  837MPD2    C112301   0.529   1.110   9.905 -0.5593  0.2969 -0.0850
  837MPD2    C212302   0.485   1.237   9.921  0.0577 -0.7701 -0.0748
  837MPD2    C312303   0.566   1.346   9.935 -0.0390  0.4611 -0.0630
  837MPD2    C412304   0.704   1.325   9.948 -0.6297  1.4693  0.7207
  837MPD2    C512305   0.752   1.193   9.955 -0.6681  0.4477 -0.5381
  837MPD2     H12306   0.378   1.243   9.907  0.0192 -2.3316 -0.3765
  837MPD2    H112307   0.767   1.403   9.988  2.5355 -0.1801 -1.0889
  837MPD2    H212308   0.696   0.980   9.939  0.0366  0.2902  1.3245
  837MPD2    H312309   0.852   1.175   9.991 -1.6939 -1.2246  1.4610
  837MPD2     N12310   0.513   1.472   9.929 -0.0680  0.7481  0.4556
  837MPD2    H512311   0.412   1.482   9.938 -0.2998 -0.0550 -1.4182
  837MPD2    N112312   0.427   1.018   9.869  0.3064 -0.1207  0.5588
  837MPD2    H712313   0.332   1.050   9.860  0.8184  0.3985 -3.0466
  838MPD2     C12314   3.684   3.380  10.869  0.2530  0.4880 -0.9187
  838MPD2    C112315   3.735   3.490  10.935  0.2497  0.0737 -0.5599
  838MPD2    C212316   3.664   3.545  11.042  0.2886  0.6480  0.6682
  838MPD2    C312317   3.555   3.470  11.093  0.1292 -0.5633 -0.1535
  838MPD2    C412318   3.508   3.356  11.022 -0.2475  0.3257  0.0775
  838MPD2    C512319   3.575   3.310  10.910 -0.2157  0.2392  0.1904
  838MPD2     H12320   3.692   3.634  11.096  3.4262  0.4367 -0.6183
  838MPD2    H112321   3.427   3.293  11.056  0.3824 -0.7635 -0.4460
  838MPD2    H212322   3.731   3.347  10.777  2.4134  1.5663 -0.1879
  838MPD2    H312323   3.537   3.222  10.860 -0.0837 -0.5673  1.5147
  838MPD2     N12324   3.493   3.522  11.210  0.0268 -0.0789  0.2415
  838MPD2    H512325   3.541   3.599  11.254 -1.7732  2.0119 -1.4787
  838MPD2    N112326   3.851   3.558  10.890 -0.4085 -0.5944  0.4523
  838MPD2    H712327   3.888   3.639  10.939 -0.5619 -0.4742  0.3695
  839MPD2     C12328   3.751   3.369  11.499  0.6799  0.3411 -0.4872
  839MPD2    C112329   3.738   3.301  11.379 -0.1321  0.4371  0.3589
  839MPD2    C212330   3.818   3.350  11.272  0.5644  0.1062  0.0213
  839MPD2    C312331   3.916   3.443  11.293 -0.1601  0.3782 -0.3674
  839MPD2    C412332   3.934   3.499  11.415  0.0321  0.0961  0.8199
  839MPD2    C512333   3.846   3.460  11.514  0.2966 -0.1096  0.2316
  839MPD2     H12334   3.801   3.308  11.173 -1.3418  2.7481 -0.7632
  839MPD2    H112335   3.999   3.585  11.425  0.2835 -0.1389  1.1760
  839MPD2    H212336   3.686   3.351  11.584 -0.7943  1.3308 -1.3970
  839MPD2    H312337   3.846   3.517  11.606  1.7363  2.0532 -1.0886
  839MPD2     N12338   3.993   3.486  11.178  0.0091  0.9320 -0.0301
  839MPD2    H512339   3.984   3.435  11.091 -1.2065  0.3291  0.4581
  839MPD2    N112340   3.641   3.199  11.352  0.4145  0.2717  0.3530
  839MPD2    H712341   3.644   3.162  11.258 -0.4427  0.7887  0.1181
  840MPD2     C12342   4.036   1.286   9.892 -0.1459  0.7176  0.2853
  840MPD2    C112343   4.028   1.243  10.023  0.5523  0.5314 -0.2370
  840MPD2    C212344   4.087   1.314  10.129 -0.5152 -0.0897 -0.7250
  840MPD2    C312345   4.169   1.423  10.093  0.2556  0.5872  0.3553
  840MPD2    C412346   4.183   1.456   9.955  0.1418 -0.4453  0.3716
  840MPD2    C512347   4.118   1.388   9.859 -0.0338 -0.0121  0.0748
  840MPD2     H12348   4.079   1.289  10.234 -0.0042  1.3961 -0.3310
  840MPD2    H112349   4.240   1.543   9.925 -1.3221  1.7170  3.7929
  840MPD2    H212350   3.988   1.237   9.808 -0.9893  0.2473  1.0484
  840MPD2    H312351   4.120   1.419   9.755  1.2855  2.2092  0.7551
  840MPD2     N12352   4.231   1.505  10.195 -0.0024  0.0651 -0.1587
  840MPD2    H512353   4.283   1.587  10.166 -0.2039  0.1254 -0.3532
  840MPD2    N112354   3.941   1.131  10.042 -0.1604 -0.3859 -0.0818
  840MPD2    H712355   3.910   1.083   9.958  1.1336 -0.3446 -0.5898
  841MPD2     C12356   3.851   1.749  14.131 -0.8231 -0.5119  0.5675
  841MPD2    C112357   3.925   1.650  14.189  0.0296  0.8864  0.2752
  841MPD2    C212358   3.998   1.677  14.300 -1.1644  0.5252  0.1623
  841MPD2    C312359   3.998   1.804  14.347  0.1339 -0.5191  0.5289
  841MPD2    C412360   3.929   1.906  14.295 -0.8069 -0.4336  0.2374
  841MPD2    C512361   3.857   1.878  14.182  0.1999 -0.3450  0.8356
  841MPD2     H12362   4.058   1.598  14.344  0.1238  0.1738 -2.2663
  841MPD2    H112363   3.926   2.008  14.331  0.9254 -0.2223 -0.2251
  841MPD2    H212364   3.804   1.738  14.033  0.7944 -1.9987 -0.0410
  841MPD2    H312365   3.795   1.945  14.125  0.4775 -0.9259 -0.1410
  841MPD2     N12366   4.082   1.830  14.464  0.2635  0.9794  0.3131
  841MPD2    H512367   4.121   1.752  14.514 -0.1671  0.6624  0.1569
  841MPD2    N112368   3.930   1.518  14.146  0.3768 -0.3461  0.2505
  841MPD2    H712369   3.996   1.460  14.197  1.5992 -0.8697 -1.9199
  842MPD2     C12370   4.631   2.765  17.159  0.7762  0.3988  0.7364
  842MPD2    C112371   4.500   2.734  17.186  0.2087  0.4820  0.2350
  842MPD2    C212372   4.472   2.663  17.307  0.2596  0.0813 -0.4964
  842MPD2    C312373   4.572   2.627  17.394  0.7623  0.7953  0.4005
  842MPD2    C412374   4.695   2.683  17.376 -0.6913 -1.1467 -0.1018
  842MPD2    C512375   4.723   2.739  17.254 -0.4949  0.0384  0.8978
  842MPD2     H12376   4.377   2.615  17.328  0.3204  1.1046  2.0927
  842MPD2    H112377   0.064   2.664  17.429  0.4754  0.2598 -1.6036
  842MPD2    H212378   4.656   2.813  17.064 -0.0450  0.7357  0.6900
  842MPD2    H312379   0.100   2.778  17.239 -0.7174  0.4686  0.5285
  842MPD2     N12380   4.555   2.549  17.508  0.0777  0.0133  0.0223
  842MPD2    H512381   4.623   2.566  17.582  0.0599 -2.5470  0.6370
  842MPD2    N112382   4.399   2.774  17.098 -0.0651  0.3821  0.2075
  842MPD2    H712383   4.422   2.809  17.006  0.2446 -1.6244 -0.4902
  843MPD2     C12384   1.662   2.656  17.403 -0.0691 -0.1603  0.2037
  843MPD2    C112385   1.604   2.660  17.523  0.1345 -0.1048 -1.1935
  843MPD2    C212386   1.643   2.764  17.602  0.4558 -0.9606  0.2415
  843MPD2    C312387   1.730   2.861  17.563  0.3018  0.0786  0.5101
  843MPD2    C412388   1.777   2.857  17.436 -0.3943  0.3407 -0.2993
  843MPD2    C512389   1.750   2.750  17.359 -0.0647  0.2516  0.1274
  843MPD2     H12390   1.604   2.774   0.007  0.4383  1.0819  0.0324
  843MPD2    H112391   1.842   2.936  17.399  0.6565  0.4739  1.8593
  843MPD2    H212392   1.633   2.580  17.331 -1.7257  0.0860  0.6056
  843MPD2    H312393   1.796   2.734  17.262  0.2457 -0.9608  0.4722
  843MPD2     N12394   1.759   2.956  17.659  0.9402  0.0400 -0.5420
  843MPD2    H512395   1.747   2.930   0.060  2.3170 -0.7345 -0.5905
  843MPD2    N112396   1.511   2.558  17.563  0.1084 -0.0414 -0.3622
  843MPD2    H712397   1.474   2.502  17.486  1.9946 -1.6700 -0.0636
  844MPD2     C12398   4.564   1.951  16.766  0.3907 -0.5069 -0.6752
  844MPD2    C112399   4.685   1.919  16.713  0.0114  1.0189 -0.0522
  844MPD2    C212400   0.077   1.990  16.747  0.2867 -0.5596  0.1577
  844MPD2    C312401   0.076   2.104  16.832 -0.1324 -0.2430  0.5936
  844MPD2    C412402   4.674   2.143  16.878  0.7911  0.4476 -0.6353
  844MPD2    C512403   4.563   2.061  16.851  0.4162  0.5781  1.0938
  844MPD2     H12404   0.166   1.953  16.699  0.9642  0.6298  0.5107
  844MPD2    H112405   4.657   2.226  16.945  0.0102 -0.1413 -0.1143
  844MPD2    H212406   4.476   1.891  16.742 -0.5182  0.4580  0.2795
  844MPD2    H312407   4.465   2.091  16.886 -1.1518 -1.0392 -1.9259
  844MPD2     N12408   0.196   2.170  16.861  0.2703  0.6668  0.0218
  844MPD2    H512409   0.277   2.120  16.827 -0.6158 -0.6470 -0.1848
  844MPD2    N112410   4.709   1.809  16.630 -0.0149  0.6233  0.1587
  844MPD2    H712411   0.078   1.793  16.593 -1.1623 -0.0439 -2.4528
  845MPD2     C12412   0.494   2.780  17.599 -0.2681  0.2673  0.3886
  845MPD2    C112413   0.375   2.725  17.584 -0.5377  0.2079 -0.1108
  845MPD2    C212414   0.359   2.628  17.492 -0.4400 -0.1684 -0.7690
  845MPD2    C312415   0.464   2.579  17.419  0.3688  0.4628 -0.4954
  845MPD2    C412416   0.591   2.639  17.435  0.3010  0.5731 -0.2549
  845MPD2    C512417   0.600   2.728  17.536  0.0365 -0.0671 -0.0110
  845MPD2     H12418   0.259   2.589  17.475 -0.5814 -0.1954  0.1159
  845MPD2    H112419   0.680   2.614  17.378 -0.5832 -2.7343 -0.1691
  845MPD2    H212420   0.506   2.851  17.679 -1.4626  1.5275 -0.5505
  845MPD2    H312421   0.697   2.772  17.554  0.1417 -0.7305  1.0475
  845MPD2     N12422   0.436   2.488  17.317  0.0364  0.3225 -0.4915
  845MPD2    H512423   0.337   2.467  17.306 -0.4405  1.8439  0.9553
  845MPD2    N112424   0.277   2.772  17.671 -0.1490  0.1204 -0.3733
  845MPD2    H712425   0.296   2.856   0.028  2.3278 -1.1395  0.7404
  846MPD2     C12426   2.590   2.830  13.955  0.0612 -0.3598 -0.9448
  846MPD2    C112427   2.457   2.854  13.926  0.2570 -0.3112 -0.7898
  846MPD2    C212428   2.370   2.862  14.038 -0.5228 -0.3899 -0.6086
  846MPD2    C312429   2.414   2.841  14.166 -0.0196 -1.5254 -0.2125
  846MPD2    C412430   2.546   2.813  14.189  0.4494 -0.4806  0.5168
  846MPD2    C512431   2.634   2.813  14.081  0.3997  0.0993 -0.6504
  846MPD2     H12432   2.263   2.883  14.039 -0.1966  1.2772 -0.7445
  846MPD2    H112433   2.585   2.815  14.290 -1.1619 -1.1911  1.1519
  846MPD2    H212434   2.660   2.824  13.873  2.5606 -0.0098  1.1792
  846MPD2    H312435   2.739   2.794  14.103  0.1253  1.5313  1.8891
  846MPD2     N12436   2.321   2.868  14.269 -0.3046  0.4937 -0.0286
  846MPD2    H512437   2.232   2.910  14.249 -0.5410 -0.7611 -1.6066
  846MPD2    N112438   2.404   2.865  13.796 -0.1727 -0.1737 -0.3499
  846MPD2    H712439   2.469   2.864  13.718  0.7013 -2.2872  0.4358
  847MPD2     C12440   2.143   3.781  13.984  0.2471 -0.0388 -0.1805
  847MPD2    C112441   2.226   3.883  14.024 -0.4407  0.3702  0.4687
  847MPD2    C212442   2.360   3.855  14.052  0.5226  0.4285  0.4834
  847MPD2    C312443   2.411   3.731  14.033 -0.2795 -0.2528 -0.3278
  847MPD2    C412444   2.326   3.629  13.976 -0.5295 -0.2097 -0.2328
  847MPD2    C512445   2.197   3.658  13.943 -0.1080  0.3700  0.1842
  847MPD2     H12446   2.430   3.933  14.080  1.0574  1.3317 -3.2771
  847MPD2    H112447   2.355   3.528  13.950 -0.1279 -0.4694  1.1998
  847MPD2    H212448   2.038   3.800  13.964  0.9263  1.7219 -2.0828
  847MPD2    H312449   2.136   3.577  13.904  1.3367 -0.3195 -0.6578
  847MPD2     N12450   2.551   3.717  14.077 -0.3752  0.1398  0.5952
  847MPD2    H512451   2.594   3.795  14.126  0.1915  1.5796 -2.2121
  847MPD2    N112452   2.191   4.014  14.031 -0.4933 -0.4754 -0.2554
  847MPD2    H712453   2.264   4.081  14.053 -0.7167  0.5803 -2.8088
  848MPD2     C12454   4.503   2.551  16.737 -0.6610 -0.1384  0.1030
  848MPD2    C112455   4.587   2.569  16.847  0.4085  0.3102 -0.0964
  848MPD2    C212456   4.697   2.651  16.829 -0.1107 -0.4695 -0.2002
  848MPD2    C312457   4.712   2.721  16.708 -0.6943  0.4916  0.4638
  848MPD2    C412458   4.621   2.711  16.601  0.3311 -0.0761  0.2514
  848MPD2    C512459   4.518   2.620  16.621 -0.1888  0.0369  0.1139
  848MPD2     H12460   0.034   2.658  16.919  2.2116  0.0922 -1.8076
  848MPD2    H112461   4.622   2.765  16.507 -0.0460  1.2120  0.9928
  848MPD2    H212462   4.413   2.490  16.741 -1.6143  1.2159 -0.5991
  848MPD2    H312463   4.449   2.611  16.538 -1.2327 -2.8259  1.3154
  848MPD2     N12464   0.080   2.821  16.687  1.2516 -0.0531  0.5305
  848MPD2    H512465   0.065   2.882  16.608 -0.2268 -1.1065  0.0040
  848MPD2    N112466   4.579   2.495  16.970 -0.6922  0.1524 -0.0382
  848MPD2    H712467   4.668   2.487  17.018 -0.6154  1.8734  0.1248
  849MPD2     C12468   4.464   1.741  14.429  0.2973 -0.1361 -0.2214
  849MPD2    C112469   4.457   1.753  14.293 -1.1644 -0.6364 -0.7462
  849MPD2    C212470   4.570   1.784  14.220 -0.3058 -0.3888 -0.7723
  849MPD2    C312471   4.692   1.790  14.284  0.3378 -0.8524 -0.0766
  849MPD2    C412472   4.697   1.771  14.419  0.4015 -0.3428  0.1554
  849MPD2    C512473   4.586   1.750  14.492 -0.0560 -0.2405 -0.7165
  849MPD2     H12474   4.561   1.799  14.113 -2.0165  0.7946 -0.4693
  849MPD2    H112475   0.064   1.772  14.480  0.2112  2.4631  0.3886
  849MPD2    H212476   4.371   1.734  14.486  0.1818  2.9042 -0.0455
  849MPD2    H312477   4.597   1.761  14.599 -0.6387 -3.6776 -0.3254
  849MPD2     N12478   0.081   1.818  14.202 -0.8161 -0.2853  0.2587
  849MPD2    H512479   0.067   1.848  14.106  2.2740  0.3364  0.0287
  849MPD2    N112480   4.332   1.784  14.238  0.1291  0.4307 -0.0468
  849MPD2    H712481   4.257   1.808  14.302  0.9784  1.0976  0.7052
  850MPD2     C12482   1.590   0.334  14.791  0.1613  0.0662  0.6420
  850MPD2    C112483   1.692   0.252  14.824  0.5715  0.0553  0.0284
  850MPD2    C212484   1.821   0.276  14.775 -0.2841 -0.0190  0.5958
  850MPD2    C312485   1.851   0.391  14.717  0.2046 -0.5309 -0.2717
  850MPD2    C412486   1.751   0.488  14.696  0.1231  0.2534  0.5969
  850MPD2    C512487   1.619   0.450  14.720 -0.4079  0.1211 -0.1557
  850MPD2     H12488   1.894   0.200  14.802 -0.3439 -0.3479 -0.1686
  850MPD2    H112489   1.771   0.586  14.654 -3.5505 -0.4399 -2.7479
  850MPD2    H212490   1.492   0.303  14.825 -0.3303  1.8872  0.8466
  850MPD2    H312491   1.540   0.523  14.708 -0.2208  1.0459  4.4234
  850MPD2     N12492   1.983   0.436  14.686  0.2354  0.9715 -0.0400
  850MPD2    H512493   1.989   0.536  14.675 -0.9459  0.9469 -0.8465
  850MPD2    N112494   1.658   0.143  14.906  0.8913 -0.5657 -0.0164
  850MPD2    H712495   1.570   0.139  14.957  0.3130 -0.1866 -0.9871
  851MPD2     C12496   2.314   0.051  15.417 -0.4664  0.3127 -0.3889
  851MPD2    C112497   2.242   4.682  15.346 -0.2925  0.7817 -0.4956
  851MPD2    C212498   2.315   4.582  15.282 -0.3431 -0.1729 -0.1153
  851MPD2    C312499   2.455   4.565  15.297  0.2753  0.2595  0.1412
  851MPD2    C412500   2.529   4.665  15.366  0.3478  0.1771 -0.6437
  851MPD2    C512501   2.452   0.030  15.436 -0.4242 -0.7327  0.0825
  851MPD2     H12502   2.267   4.511  15.216  0.2859 -0.2697 -0.4648
  851MPD2    H112503   2.635   4.676  15.389  0.0673  0.3969  0.5387
  851MPD2    H212504   2.261   0.135  15.461  0.5377  0.4641  0.5258
  851MPD2    H312505   2.506   0.110  15.487 -1.7063  1.1956 -1.5910
  851MPD2     N12506   2.511   4.457  15.225 -0.3695  0.3225  0.1014
  851MPD2    H512507   2.451   4.385  15.186 -0.6955  0.9386 -0.5630
  851MPD2    N112508   2.103   4.704  15.318  0.7324  0.2148 -0.2940
  851MPD2    H712509   2.062   0.069  15.346 -0.4291 -0.3094 -0.3771
  852MPD2     C12510   1.622   2.751   9.374  0.2496  0.1266  0.1926
  852MPD2    C112511   1.661   2.728   9.502  0.5971  0.1173 -0.7075
  852MPD2    C212512   1.794   2.733   9.526 -0.3378  0.4367  0.5326
  852MPD2    C312513   1.888   2.790   9.438 -0.0200  0.1058  0.6537
  852MPD2    C412514   1.836   2.828   9.312 -0.1463 -0.5300 -0.0245
  852MPD2    C512515   1.707   2.806   9.281  0.3646 -0.4583 -0.4740
  852MPD2     H12516   1.825   2.726   9.630  0.6918 -1.3551  0.1140
  852MPD2    H112517   1.892   2.866   9.227 -0.0171 -0.6709 -0.0034
  852MPD2    H212518   1.523   2.729   9.338  0.9035 -0.8602 -0.9840
  852MPD2    H312519   1.673   2.825   9.179  0.8408 -0.3004 -0.6007
  852MPD2     N12520   2.015   2.822   9.485  0.1565 -0.1933 -0.1255
  852MPD2    H512521   2.038   2.792   9.579  4.4475 -0.9188 -1.4175
  852MPD2    N112522   1.572   2.706   9.608 -0.5161 -0.1990 -0.2110
  852MPD2    H712523   1.600   2.660   9.694  0.7092  0.7098 -0.1219
  853MPD2     C12524   2.910   2.920  11.838  0.6025  0.1572  0.2838
  853MPD2    C112525   3.009   2.843  11.888 -0.3220 -0.6872 -0.0747
  853MPD2    C212526   3.049   2.729  11.817 -0.5501  0.1266  0.2869
  853MPD2    C312527   2.973   2.696  11.705  0.5351  0.9353  0.2047
  853MPD2    C412528   2.870   2.772  11.663  0.6976 -0.0932  0.0514
  853MPD2    C512529   2.837   2.886  11.731  0.6618  0.0045 -0.6421
  853MPD2     H12530   3.131   2.665  11.848  1.0897  1.0532 -2.1384
  853MPD2    H112531   2.820   2.747  11.571 -0.4107  1.3364  0.2515
  853MPD2    H212532   2.900   3.015  11.889 -1.5635 -0.1464  0.4118
  853MPD2    H312533   2.753   2.948  11.701  0.7068 -0.8243 -2.4671
  853MPD2     N12534   2.997   2.583  11.624  0.6311  0.2643 -0.2708
  853MPD2    H512535   2.925   2.561  11.556  0.7669 -1.3165  0.0866
  853MPD2    N112536   3.061   2.869  12.013 -0.4275  0.5330 -0.1147
  853MPD2    H712537   3.047   2.962  12.051  0.6816 -0.6897  3.2889
  854MPD2     C12538   0.352   2.695  12.865 -0.3206  0.6785 -0.0783
  854MPD2    C112539   0.309   2.666  12.739 -0.9770 -0.4932  0.8543
  854MPD2    C212540   0.344   2.541  12.692  0.1601 -0.0589 -0.2834
  854MPD2    C312541   0.411   2.449  12.777 -0.4196 -0.7612 -0.7671
  854MPD2    C412542   0.452   2.484  12.904 -0.6024 -0.3188  0.4615
  854MPD2    C512543   0.419   2.609  12.948  0.3980 -0.2024 -0.1682
  854MPD2     H12544   0.332   2.526  12.585  1.1710  0.6392 -0.4900
  854MPD2    H112545   0.503   2.414  12.970  1.0651  0.8899  0.4556
  854MPD2    H212546   0.330   2.794  12.902 -3.9074  0.7853 -2.4335
  854MPD2    H312547   0.446   2.651  13.045  0.8969 -1.6820  0.3392
  854MPD2     N12548   0.438   2.316  12.736 -0.4023  0.0235  0.1100
  854MPD2    H512549   0.482   2.248  12.798  4.2094  2.8620 -0.0639
  854MPD2    N112550   0.247   2.774  12.668  0.1099 -0.3909  0.3552
  854MPD2    H712551   0.230   2.859  12.722  0.1754  0.1516 -0.4709
  855MPD2     C12552   1.059   1.874  13.071 -0.1801 -0.1720 -0.2227
  855MPD2    C112553   0.927   1.896  13.113 -0.2927  0.5357 -0.0434
  855MPD2    C212554   0.832   1.936  13.016 -0.1399 -0.3175 -0.2315
  855MPD2    C312555   0.860   1.939  12.882  0.0655 -0.2674  0.3091
  855MPD2    C412556   0.991   1.922  12.841  0.3303 -0.0601  0.1125
  855MPD2    C512557   1.090   1.886  12.943 -0.4205 -0.5477  0.3577
  855MPD2     H12558   0.735   1.941  13.063  0.1459 -0.1436  0.3455
  855MPD2    H112559   1.033   1.939  12.743 -0.0774  1.9361  0.2877
  855MPD2    H212560   1.132   1.831  13.138 -1.7819 -0.1536  1.5502
  855MPD2    H312561   1.193   1.866  12.913 -0.6956 -1.6953  0.2015
  855MPD2     N12562   0.758   1.971  12.795  0.2705  0.1213  0.3576
  855MPD2    H512563   0.671   2.007  12.833  0.8069  1.3729  0.4378
  855MPD2    N112564   0.885   1.858  13.240 -0.1320 -0.3610 -0.0746
  855MPD2    H712565   0.784   1.846  13.248 -0.1645 -1.0308 -1.4440
  856MPD2     C12566   4.004   3.129  13.486 -0.4268 -0.0849  0.3728
  856MPD2    C112567   3.976   3.252  13.542 -0.2707  0.1116 -0.3961
  856MPD2    C212568   3.839   3.290  13.550 -0.5358  0.8058 -0.6664
  856MPD2    C312569   3.735   3.208  13.516 -0.4646 -0.3554 -0.7776
  856MPD2    C412570   3.770   3.090  13.461 -0.0835  0.5738 -0.2645
  856MPD2    C512571   3.902   3.054  13.439  0.4482  0.1742 -0.1619
  856MPD2     H12572   3.817   3.389  13.588 -0.9659  0.3596  0.2542
  856MPD2    H112573   3.695   3.019  13.428 -0.4144 -0.5009  2.8374
  856MPD2    H212574   4.107   3.093  13.480 -0.2802  0.7080 -1.6994
  856MPD2    H312575   3.926   2.955  13.401 -0.8961  0.4823 -1.8129
  856MPD2     N12576   3.594   3.233  13.509 -0.4285  0.4062  0.3976
  856MPD2    H512577   3.549   3.151  13.471  4.3066 -1.4512 -1.0975
  856MPD2    N112578   4.066   3.349  13.591 -0.5580  0.4315 -0.0323
  856MPD2    H712579   4.025   3.434  13.630 -1.3076  0.6981 -1.4157
  857MPD2     C12580   4.215   0.623  12.430  0.0250 -0.1933  0.1187
  857MPD2    C112581   4.343   0.605  12.475 -0.1110  0.2105 -0.7204
  857MPD2    C212582   4.413   0.720  12.506  0.3186  0.0477 -0.4146
  857MPD2    C312583   4.353   0.848  12.503  0.1692  0.1404  0.1065
  857MPD2    C412584   4.219   0.850  12.492 -0.3843 -0.2871 -0.5012
  857MPD2    C512585   4.151   0.742  12.445 -0.1597  0.4345  0.7910
  857MPD2     H12586   4.518   0.721  12.530 -0.0308 -0.0581  1.0811
  857MPD2    H112587   4.151   0.933  12.502 -0.1505 -0.3735  1.8413
  857MPD2    H212588   4.168   0.528  12.406 -0.0837 -0.4208  1.2203
  857MPD2    H312589   4.044   0.751  12.430  0.0590  1.4645 -0.1809
  857MPD2     N12590   4.425   0.960  12.545  0.2077  0.1767  0.1712
  857MPD2    H512591   4.511   0.947  12.597 -0.1436  2.7801  1.3975
  857MPD2    N112592   4.398   0.472  12.475  0.4884  0.1891 -0.3139
  857MPD2    H712593   4.336   0.392  12.463  1.2233 -0.2703 -1.0056
  858MPD2     C12594   0.331   3.991  16.745 -0.1128  0.0331 -0.9060
  858MPD2    C112595   0.467   4.017  16.724 -0.3977 -0.0856  0.0163
  858MPD2    C212596   0.517   4.142  16.754  0.0822  0.6541  0.0598
  858MPD2    C312597   0.436   4.233  16.829  0.4550 -0.3279  0.9744
  858MPD2    C412598   0.305   4.203  16.851 -0.5151 -0.6386  0.3442
  858MPD2    C512599   0.249   4.086  16.802  0.3198 -0.6282  0.0973
  858MPD2     H12600   0.618   4.171  16.727  0.6353 -0.2328  1.1572
  858MPD2    H112601   0.241   4.284  16.886  0.1582  1.3071 -2.9314
  858MPD2    H212602   0.282   3.901  16.711 -0.0836  0.3722 -1.8455
  858MPD2    H312603   0.143   4.068  16.814 -0.3599  2.0894 -1.6510
  858MPD2     N12604   0.481   4.351  16.877 -0.1182 -0.0696  0.4402
  858MPD2    H512605   0.413   4.400  16.936 -1.1352 -1.2411  0.2264
  858MPD2    N112606   0.544   3.919  16.656 -0.0298  0.3087 -0.4204
  858MPD2    H712607   0.497   3.832  16.635 -1.6914  1.0278  0.3796
  859MPD2     C12608   4.284   2.331  15.514  0.7306  0.6417 -0.1219
  859MPD2    C112609   4.275   2.227  15.427 -0.0434 -1.5274  0.3111
  859MPD2    C212610   4.228   2.106  15.469  0.4731 -0.1952  0.5492
  859MPD2    C312611   4.189   2.093  15.602  0.3710  0.2428  0.4730
  859MPD2    C412612   4.211   2.193  15.693 -0.3799  0.3247 -0.2230
  859MPD2    C512613   4.249   2.316  15.646 -0.2601  0.0562 -0.1090
  859MPD2     H12614   4.218   2.030  15.393  0.5652 -0.1939  0.5362
  859MPD2    H112615   4.181   2.187  15.797  1.1313  0.6323  0.2392
  859MPD2    H212616   4.311   2.432  15.485  1.7880  0.6837  1.0473
  859MPD2    H312617   4.262   2.408  15.701 -0.4091  0.2491 -0.3909
  859MPD2     N12618   4.132   1.974  15.652 -0.0181 -0.8075 -0.5173
  859MPD2    H512619   4.101   1.971  15.748  0.3475 -0.7451 -0.3975
  859MPD2    N112620   4.309   2.258  15.293  0.2994 -0.4852  0.5896
  859MPD2    H712621   4.354   2.346  15.271 -1.9745  0.7649  0.9037
  860MPD2     C12622   1.646   2.314  11.141 -0.2541  0.1359  0.6367
  860MPD2    C112623   1.640   2.397  11.252 -0.1518 -0.3438  0.0225
  860MPD2    C212624   1.575   2.343  11.363 -0.2056  0.2000 -0.3633
  860MPD2    C312625   1.509   2.228  11.355 -0.1007  0.1999 -0.0534
  860MPD2    C412626   1.515   2.148  11.236 -0.4212 -0.0800 -0.0784
  860MPD2    C512627   1.591   2.189  11.134  0.0671  0.1162  0.5087
  860MPD2     H12628   1.568   2.396  11.457  2.2760  1.6125 -1.0016
  860MPD2    H112629   1.452   2.059  11.233 -1.3010  0.5187  0.4260
  860MPD2    H212630   1.702   2.347  11.055 -0.9941  2.1873  0.9556
  860MPD2    H312631   1.603   2.143  11.037  3.0597  0.7424  0.6038
  860MPD2     N12632   1.429   2.183  11.471  1.0890  0.4540 -0.6834
  860MPD2    H512633   1.442   2.244  11.551 -0.7441 -0.3042  0.1917
  860MPD2    N112634   1.682   2.529  11.268 -0.3210  0.7548 -0.3826
  860MPD2    H712635   1.694   2.568  11.361  0.1196 -0.1283 -0.0695
  861MPD2     C12636   0.137   0.225  11.039 -0.2980  0.4026  0.8093
  861MPD2    C112637   0.202   0.351  11.014  0.0470  0.1801  0.5723
  861MPD2    C212638   0.154   0.438  10.915  1.1976  0.3218  0.1691
  861MPD2    C312639   0.038   0.416  10.847 -0.0455  0.0858 -0.1424
  861MPD2    C412640   4.696   0.299  10.879 -0.3207  0.0144 -0.1208
  861MPD2    C512641   0.018   0.213  10.966 -0.2102 -0.6336  0.2379
  861MPD2     H12642   0.208   0.532  10.905  1.8709 -0.1225 -0.3284
  861MPD2    H112643   4.610   0.273  10.818 -1.4590 -0.3075  1.6176
  861MPD2    H212644   0.148   0.146  11.113 -0.8480  0.4022  0.8931
  861MPD2    H312645   4.689   0.119  10.976  1.3853 -1.5213  0.2760
  861MPD2     N12646   4.707   0.511  10.757  0.5416  0.0744  0.0893
  861MPD2    H512647   0.034   0.595  10.732 -0.7655  0.8612  0.1222
  861MPD2    N112648   0.302   0.399  11.097 -0.6178 -0.1321 -1.1380
  861MPD2    H712649   0.339   0.492  11.083 -0.7224  0.4584  2.3341
  862MPD2     C12650   4.108   0.707  10.177 -0.0138  0.5160  0.1908
  862MPD2    C112651   4.230   0.643  10.193 -0.5008  0.1051 -0.3582
  862MPD2    C212652   4.290   0.568  10.092  0.2691  0.5083 -0.0962
  862MPD2    C312653   4.217   0.532   9.987  0.4462  0.5362 -0.5102
  862MPD2    C412654   4.101   0.603   9.969 -0.3471  0.0216  0.6067
  862MPD2    C512655   4.043   0.683  10.062  0.4527  1.1062 -0.4630
  862MPD2     H12656   4.385   0.527  10.124  0.5912  0.1388 -1.5418
  862MPD2    H112657   4.043   0.600   9.878  0.6260  3.8379 -0.1418
  862MPD2    H212658   4.058   0.779  10.240  0.9487  1.4529 -0.1171
  862MPD2    H312659   3.943   0.722  10.048  0.1201  0.7664  1.0433
  862MPD2     N12660   4.262   0.439   9.889  0.0965 -0.1353 -0.7796
  862MPD2    H512661   4.228   0.455   9.795 -2.1320 -0.8091 -0.0906
  862MPD2    N112662   4.301   0.652  10.316  0.1988  0.1392 -0.0412
  862MPD2    H712663   4.388   0.605  10.335  0.4463  0.4987 -0.2798
  863MPD2     C12664   3.471   3.313  16.832  0.0182 -0.2814  0.1458
  863MPD2    C112665   3.501   3.447  16.867 -0.4120 -1.2470 -0.2749
  863MPD2    C212666   3.570   3.468  16.984 -0.2915  0.1647 -0.0837
  863MPD2    C312667   3.620   3.356  17.057  0.1799 -0.3039 -0.4067
  863MPD2    C412668   3.593   3.224  17.017  0.0628 -0.1851 -0.2686
  863MPD2    C512669   3.514   3.209  16.907 -0.2367  0.2925  0.7126
  863MPD2     H12670   3.586   3.569  17.020 -2.1326  0.6744 -0.6793
  863MPD2    H112671   3.610   3.134  17.074  1.3378 -0.1737 -0.6348
  863MPD2    H212672   3.423   3.279  16.741  2.7743  1.3239 -1.9176
  863MPD2    H312673   3.481   3.113  16.868  1.4728  0.2041 -0.5130
  863MPD2     N12674   3.704   3.371  17.171  0.2965 -0.2941 -0.4325
  863MPD2    H512675   3.744   3.288  17.214 -1.0245  0.8692  3.0466
  863MPD2    N112676   3.472   3.553  16.775  0.1060  0.3170 -0.2461
  863MPD2    H712677   3.492   3.649  16.800  0.9381  0.5288 -1.7069
  864MPD2     C12678   3.960   0.214  17.270 -0.5286 -0.0040 -0.8586
  864MPD2    C112679   4.025   0.122  17.189 -0.8073 -0.8685 -0.9078
  864MPD2    C212680   4.111   0.181  17.093  0.5780  0.0822  0.2791
  864MPD2    C312681   4.124   0.320  17.081 -0.6471  0.1882  0.0435
  864MPD2    C412682   4.044   0.400  17.156 -1.0902  0.1447  0.8704
  864MPD2    C512683   3.973   0.349  17.252  0.7406  0.1876  0.0439
  864MPD2     H12684   4.171   0.108  17.039  0.4123 -0.5800  0.9955
  864MPD2    H112685   4.038   0.506  17.136  0.8748  0.2305  0.7067
  864MPD2    H212686   3.887   0.183  17.343  1.2313 -0.5714  0.6534
  864MPD2    H312687   3.904   0.414  17.305 -2.8106 -1.7887 -2.1489
  864MPD2     N12688   4.203   0.383  16.982  0.2743  0.8273  0.0756
  864MPD2    H512689   4.194   0.482  16.960  2.3956  0.9752 -0.1370
  864MPD2    N112690   4.011   4.712  17.211 -0.3509  0.4312 -0.4560
  864MPD2    H712691   3.970   4.685  17.300  1.1640 -1.2212 -0.2548
  865MPD2     C12692   4.225   0.493  16.123  0.0233 -0.3847  0.1715
  865MPD2    C112693   4.247   0.424  16.237 -0.3035  0.4350 -1.0666
  865MPD2    C212694   4.229   0.485  16.366  0.2953 -0.4450 -0.1468
  865MPD2    C312695   4.195   0.621  16.358 -0.7307  0.2973  0.0933
  865MPD2    C412696   4.180   0.688  16.243  0.0336 -0.1704 -0.4203
  865MPD2    C512697   4.193   0.621  16.130 -0.0562  0.2603  0.6442
  865MPD2     H12698   4.238   0.436  16.463  0.3858  2.7207  1.4294
  865MPD2    H112699   4.167   0.795  16.237 -1.6866 -0.3345  0.3132
  865MPD2    H212700   4.247   0.451  16.026  0.0660 -0.9905  0.4435
  865MPD2    H312701   4.193   0.677  16.037 -0.8627 -1.8903 -0.6716
  865MPD2     N12702   4.166   0.706  16.471  0.1356 -0.3752 -0.3715
  865MPD2    H512703   4.114   0.791  16.451 -0.8449 -1.0915 -0.8475
  865MPD2    N112704   4.288   0.291  16.220  0.2584 -0.0805  0.4221
  865MPD2    H712705   4.299   0.256  16.125  0.3164 -0.0309  0.4099
  866MPD2     C12706   0.848   1.183  11.423 -0.1577  0.1232  0.1145
  866MPD2    C112707   0.848   1.109  11.310 -0.2837 -0.8078 -0.1495
  866MPD2    C212708   0.744   1.108  11.230  0.7288 -0.2157  0.2497
  866MPD2    C312709   0.622   1.159  11.269 -0.0857 -0.1919 -0.7624
  866MPD2    C412710   0.610   1.212  11.398  0.4672 -0.0478 -0.1538
  866MPD2    C512711   0.725   1.227  11.474 -0.8923 -0.2100  0.0175
  866MPD2     H12712   0.758   1.065  11.131 -5.1563 -3.2449  0.7430
  866MPD2    H112713   0.514   1.240  11.439  1.7637  1.8022  1.6202
  866MPD2    H212714   0.939   1.182  11.483 -0.5514 -0.2854  0.7006
  866MPD2    H312715   0.724   1.280  11.569  0.3266 -1.3289  0.6404
  866MPD2     N12716   0.507   1.153  11.184  0.2251  0.5124 -0.6564
  866MPD2    H512717   0.417   1.166  11.229 -0.4313 -1.9941 -1.2415
  866MPD2    N112718   0.968   1.053  11.270 -0.0387  0.3141 -0.4099
  866MPD2    H712719   1.051   1.072  11.324 -2.2714  0.6778  2.8966
  867MPD2     C12720   3.571   0.143  16.099 -0.1872  0.3254  0.3973
  867MPD2    C112721   3.554   0.136  16.240 -0.3765 -0.7236 -0.1798
  867MPD2    C212722   3.495   0.243  16.307  0.8756  0.0694 -0.8228
  867MPD2    C312723   3.438   0.345  16.229  0.0088 -0.4085  0.2231
  867MPD2    C412724   3.458   0.354  16.101  0.3999  0.3656  0.0934
  867MPD2    C512725   3.531   0.254  16.033  0.0240 -0.3963  0.0611
  867MPD2     H12726   3.487   0.256  16.415  1.9151  0.1022 -0.7545
  867MPD2    H112727   3.431   0.446  16.049  0.5410  1.0607  1.2603
  867MPD2    H212728   3.641   0.074  16.054 -0.4154  1.0228 -1.0409
  867MPD2    H312729   3.548   0.273  15.928  0.8714  0.3649  0.3359
  867MPD2     N12730   3.365   0.455  16.292 -0.3214  0.1404 -0.2530
  867MPD2    H512731   3.326   0.522  16.226  0.3372  0.1432 -0.6452
  867MPD2    N112732   3.610   0.022  16.305  0.4075 -0.4673  0.5550
  867MPD2    H712733   3.662   4.681  16.245  1.8988  2.0470 -0.8813
  868MPD2     C12734   0.194   3.930  12.541 -0.4560 -0.1515  0.7228
  868MPD2    C112735   0.242   3.893  12.664 -0.4930 -0.3530 -0.3576
  868MPD2    C212736   0.160   3.932  12.768 -0.0500  0.9329 -0.3336
  868MPD2    C312737   0.027   3.972  12.750 -0.4595 -0.2248  0.5327
  868MPD2    C412738   4.699   3.984  12.625 -0.6849 -0.6362 -0.4143
  868MPD2    C512739   0.067   3.975  12.520 -0.0136 -0.2242 -0.3761
  868MPD2     H12740   0.186   3.938  12.873 -1.5609 -3.1883  0.3111
  868MPD2    H112741   4.596   4.013  12.609  0.0850  1.7548 -1.0264
  868MPD2    H212742   0.255   3.909  12.453  1.6070  1.2096  1.8336
  868MPD2    H312743   0.026   3.992  12.421 -2.4622 -0.2456  0.6419
  868MPD2     N12744   4.676   4.005  12.866 -0.2211 -0.1479 -0.1560
  868MPD2    H512745   0.003   4.012  12.954  1.1633 -0.1410 -0.9493
  868MPD2    N112746   0.364   3.823  12.679  0.0593  0.3759 -0.2992
  868MPD2    H712747   0.419   3.797  12.598  2.4953  2.4036  0.7300
  869MPD2     C12748   0.270   2.190   1.248 -0.4806 -0.5561  0.3826
  869MPD2    C112749   0.364   2.272   1.300 -0.1881  0.0337 -0.8930
  869MPD2    C212750   0.438   2.361   1.227 -0.6384 -0.0580 -0.0763
  869MPD2    C312751   0.408   2.383   1.094 -0.1326  0.4473  0.0021
  869MPD2    C412752   0.316   2.295   1.037 -0.6564 -0.6858  0.1990
  869MPD2    C512753   0.248   2.203   1.109  0.6326  0.6213  0.1248
  869MPD2     H12754   0.507   2.430   1.274  0.1179 -0.7631 -0.1690
  869MPD2    H112755   0.303   2.295   0.930 -3.5327 -0.0935  0.5502
  869MPD2    H212756   0.212   2.115   1.300  0.6141 -0.0186  2.3606
  869MPD2    H312757   0.183   2.130   1.063  0.0863  1.0624  0.1927
  869MPD2     N12758   0.471   2.479   1.008  0.6367  0.0677  0.0121
  869MPD2    H512759   0.449   2.475   0.909 -1.0894  2.0066  0.3315
  869MPD2    N112760   0.388   2.242   1.440 -0.0845 -0.5733 -0.0907
  869MPD2    H712761   0.333   2.168   1.482  0.0263 -1.2005 -1.0441
  870MPD2     C12762   0.016   1.225   1.621 -0.1350 -0.0523  0.5235
  870MPD2    C112763   0.106   1.173   1.539 -1.0853 -0.9291  0.0955
  870MPD2    C212764   0.071   1.112   1.419  0.2283  0.1396 -0.1065
  870MPD2    C312765   4.670   1.132   1.361 -0.5231 -0.2447  0.0035
  870MPD2    C412766   4.576   1.194   1.441 -0.1736 -0.1275 -0.0380
  870MPD2    C512767   4.608   1.230   1.576 -0.8147 -0.8535  0.0881
  870MPD2     H12768   0.152   1.078   1.356  0.4952  1.3223 -0.4158
  870MPD2    H112769   4.478   1.212   1.398  0.2362  0.8890 -0.5671
  870MPD2    H212770   0.041   1.273   1.716 -1.6246  0.9474  0.4238
  870MPD2    H312771   4.534   1.285   1.634  0.5878 -0.5384  1.5494
  870MPD2     N12772   4.657   1.099   1.230 -0.2742 -0.7468 -0.4162
  870MPD2    H512773   0.007   1.053   1.178  0.4871  1.6130 -1.3967
  870MPD2    N112774   0.236   1.170   1.594 -0.3590 -0.1427 -0.0857
  870MPD2    H712775   0.246   1.217   1.683 -1.1654  2.5694 -1.4271
  871MPD2     C12776   1.746   0.161  16.281 -0.6435 -0.0329  0.2253
  871MPD2    C112777   1.793   0.153  16.417  0.4368 -0.7222  0.7236
  871MPD2    C212778   1.889   0.054  16.445  0.0826  0.2675 -0.1829
  871MPD2    C312779   1.936   4.697  16.343 -0.4975 -0.2169 -0.0897
  871MPD2    C412780   1.890   4.702  16.218 -0.2608  0.5326  0.4299
  871MPD2    C512781   1.791   0.071  16.187  0.6383 -0.5245 -0.9541
  871MPD2     H12782   1.944   0.047  16.539  1.0235 -0.1557 -0.7671
  871MPD2    H112783   1.910   4.619  16.151  0.4895  0.9123  0.1804
  871MPD2    H212784   1.661   0.223  16.252 -1.8523 -2.4878 -1.4495
  871MPD2    H312785   1.756   0.076  16.085 -0.3735 -1.6260 -0.6557
  871MPD2     N12786   2.039   4.601  16.362  0.1542 -0.0017  0.0039
  871MPD2    H512787   2.069   4.554  16.277  2.9338  1.2649  0.2726
  871MPD2    N112788   1.741   0.236  16.519  0.0706  0.2337 -0.1867
  871MPD2    H712789   1.665   0.295  16.487  1.4566  2.5653  0.8558
  872MPD2     C12790   2.788   2.588  13.228 -0.2923 -0.8665 -0.1016
  872MPD2    C112791   2.881   2.602  13.334 -0.6174  0.4365  0.0069
  872MPD2    C212792   2.840   2.579  13.462  0.0778 -0.1133 -0.1839
  872MPD2    C312793   2.712   2.527  13.491  0.0256  0.3063 -0.4899
  872MPD2    C412794   2.624   2.507  13.385 -0.4794  0.0852  0.4091
  872MPD2    C512795   2.661   2.542  13.257  0.1290  0.0982  0.2183
  872MPD2     H12796   2.918   2.592  13.536  0.2848 -1.0082 -0.2521
  872MPD2    H112797   2.524   2.474  13.412 -1.4266  0.3094 -2.8903
  872MPD2    H212798   2.816   2.622  13.129  2.8239 -2.5233  0.1885
  872MPD2    H312799   2.583   2.528  13.183  0.5386 -2.1818  0.2362
  872MPD2     N12800   2.675   2.492  13.620  0.3747  0.7036 -0.2448
  872MPD2    H512801   2.587   2.443  13.626  1.7749 -2.0154 -1.5307
  872MPD2    N112802   3.017   2.639  13.316 -0.1754  0.0267  0.0107
  872MPD2    H712803   3.066   2.664  13.401  0.9768  1.1830 -0.9873
  873MPD2     C12804   4.123   3.045   1.163 -0.8319  0.3119  0.1637
  873MPD2    C112805   4.244   3.107   1.189  0.3320  0.1123 -0.3132
  873MPD2    C212806   4.361   3.033   1.184 -0.5226 -0.1020 -0.0699
  873MPD2    C312807   4.365   2.900   1.148 -0.6472  0.0011 -0.5640
  873MPD2    C412808   4.243   2.853   1.111 -0.5542  0.0668  0.3809
  873MPD2    C512809   4.122   2.913   1.129 -0.2917 -0.5012 -0.1676
  873MPD2     H12810   4.456   3.076   1.216  0.1054  0.0538 -2.1897
  873MPD2    H112811   4.237   2.745   1.103 -2.6824  0.3314 -1.7620
  873MPD2    H212812   4.026   3.092   1.172 -0.9445  0.4205 -1.7040
  873MPD2    H312813   4.027   2.861   1.119 -0.4688 -0.4886  1.3453
  873MPD2     N12814   4.476   2.815   1.156  0.1326  0.3202  0.0149
  873MPD2    H512815   4.477   2.723   1.114 -0.9293  1.6887 -2.9955
  873MPD2    N112816   4.243   3.241   1.222 -0.4124  0.9115  0.1353
  873MPD2    H712817   4.146   3.271   1.221 -1.0218 -1.0077  1.6352
  874MPD2     C12818   4.386   2.815  16.353  0.2087  0.2287 -0.6677
  874MPD2    C112819   4.369   2.886  16.468  0.9601  0.4862  0.9753
  874MPD2    C212820   4.461   2.986  16.506 -0.2062 -0.4165  0.2506
  874MPD2    C312821   4.568   3.011  16.424 -0.0728 -0.0689 -1.2444
  874MPD2    C412822   4.580   2.954  16.303 -0.5601  0.4202  0.1238
  874MPD2    C512823   4.493   2.852  16.271 -0.1642 -1.1138  0.0283
  874MPD2     H12824   4.454   3.036  16.602 -1.3666 -0.1197  0.0204
  874MPD2    H112825   4.661   2.980  16.237 -0.4870  1.3208  0.5757
  874MPD2    H212826   4.326   2.733  16.315  0.1601  0.0375 -0.1683
  874MPD2    H312827   4.506   2.800  16.177  0.8349  0.0625 -0.4978
  874MPD2     N12828   4.675   3.086  16.475  0.6123 -0.0132  0.1712
  874MPD2    H512829   4.658   3.141  16.559  1.3073 -1.4117  1.2319
  874MPD2    N112830   4.274   2.833  16.561 -0.1894  0.3602 -0.4176
  874MPD2    H712831   4.222   2.748  16.539  0.5744 -0.5335  1.2565
  875MPD2     C12832   0.185   1.520  14.609 -0.0747  0.3424 -0.2568
  875MPD2    C112833   0.311   1.469  14.575 -0.0542 -0.2893  0.2710
  875MPD2    C212834   0.394   1.451  14.678  0.4244 -0.2896 -0.2654
  875MPD2    C312835   0.356   1.453  14.812  0.3823  0.2681  0.2423
  875MPD2    C412836   0.229   1.509  14.842 -0.1407  0.0063  0.4421
  875MPD2    C512837   0.143   1.540  14.738  0.0254  0.1907 -0.7599
  875MPD2     H12838   0.491   1.410  14.652 -0.5700 -3.3525  0.8201
  875MPD2    H112839   0.190   1.525  14.942 -0.2284 -0.4985  0.4882
  875MPD2    H212840   0.107   1.542  14.537 -1.1514  1.1968  1.1557
  875MPD2    H312841   0.045   1.577  14.767  1.8220  3.6005  0.9677
  875MPD2     N12842   0.438   1.424  14.922  0.1311 -0.0224  0.1603
  875MPD2    H512843   0.399   1.440  15.014  0.0076  0.9470 -0.0513
  875MPD2    N112844   0.346   1.438  14.441 -0.2678  0.4497 -0.0545
  875MPD2    H712845   0.443   1.415  14.424 -0.9745 -0.9994 -2.0343
  876MPD2     C12846   4.618   2.604  15.813 -0.4848  0.1105 -0.1665
  876MPD2    C112847   4.630   2.498  15.741  0.1970 -0.0529 -0.1355
  876MPD2    C212848   4.583   2.378  15.776  0.4003  0.0258 -0.5872
  876MPD2    C312849   4.505   2.376  15.887 -0.2945  0.2071 -0.2850
  876MPD2    C412850   4.479   2.488  15.962 -0.0654  0.7362 -0.0897
  876MPD2    C512851   4.545   2.604  15.928 -0.0823  0.2019  0.0592
  876MPD2     H12852   4.615   2.298  15.711  2.0804  0.1178  0.1147
  876MPD2    H112853   4.403   2.493  16.040  0.1696  1.3525  0.1051
  876MPD2    H212854   4.671   2.693  15.781 -0.1346 -0.5504 -1.4688
  876MPD2    H312855   4.514   2.694  15.981 -0.8079 -0.1827  0.2950
  876MPD2     N12856   4.456   2.250  15.924 -0.2148 -0.2201  0.4508
  876MPD2    H512857   4.494   2.178  15.863 -1.3778  1.1112 -1.7955
  876MPD2    N112858   4.698   2.516  15.619 -0.0539 -0.1572  0.1068
  876MPD2    H712859   0.011   2.609  15.599  0.3442 -0.3236  0.0684
  877MPD2     C12860   4.582   2.805  14.898  0.1552 -0.0253  0.7849
  877MPD2    C112861   4.718   2.812  14.924  0.6757 -0.1142 -0.0130
  877MPD2    C212862   0.079   2.844  14.819 -0.4049  0.1224  0.3620
  877MPD2    C312863   0.022   2.891  14.701  0.6229  0.3173 -0.5740
  877MPD2    C412864   4.609   2.895  14.683  0.3119  0.8525 -0.7921
  877MPD2    C512865   4.530   2.826  14.769  0.2847 -0.2606 -1.0699
  877MPD2     H12866   0.185   2.857  14.835 -0.3586 -1.4168  1.2501
  877MPD2    H112867   4.575   2.931  14.587 -0.8643  0.2027 -0.6126
  877MPD2    H212868   4.514   2.761  14.970  0.3174  0.7434  1.4126
  877MPD2    H312869   4.426   2.812  14.742  0.2812  1.6412 -2.0107
  877MPD2     N12870   0.109   2.922  14.591  0.0571  0.5474 -0.4941
  877MPD2    H512871   0.064   2.961  14.509 -1.0705 -2.7871 -1.4498
  877MPD2    N112872   0.048   2.776  15.050 -0.2566  0.0334  0.3097
  877MPD2    H712873   0.143   2.803  15.070 -0.3639  1.7867 -1.5410
  878MPD2     C12874   3.901   1.943  13.270  0.9637 -0.3811  0.6975
  878MPD2    C112875   4.004   2.034  13.281 -0.2819  0.0686 -0.1775
  878MPD2    C212876   4.043   2.060  13.412  0.1677 -0.5138 -0.1113
  878MPD2    C312877   3.992   1.983  13.515 -0.0167  0.2753  0.6439
  878MPD2    C412878   3.894   1.891  13.492  0.1489  0.1507 -0.9381
  878MPD2    C512879   3.837   1.883  13.368  0.3523 -0.3376 -0.1777
  878MPD2     H12880   4.119   2.137  13.422 -0.2010 -0.4722  2.3515
  878MPD2    H112881   3.841   1.837  13.570  0.4375  0.9335 -0.2021
  878MPD2    H212882   3.866   1.929  13.168  2.2966  1.0223  0.0327
  878MPD2    H312883   3.755   1.813  13.354  1.1809 -1.4988  0.7799
  878MPD2     N12884   4.049   1.997  13.644 -0.5319  0.3760 -0.0977
  878MPD2    H512885   4.118   2.072  13.634  0.4256 -0.0080  3.6270
  878MPD2    N112886   4.033   2.091  13.152  0.3624  0.0289 -0.9751
  878MPD2    H712887   3.995   2.051  13.066  1.9417 -2.8141 -0.3615
  879MPD2     C12888   4.055   3.570  16.953  0.5519 -0.2946 -0.4582
  879MPD2    C112889   4.077   3.474  17.043 -0.1093  0.0969 -0.2487
  879MPD2    C212890   4.031   3.344  17.017 -0.2292 -0.1038  0.4845
  879MPD2    C312891   3.951   3.322  16.910  0.3710 -0.4215 -0.3670
  879MPD2    C412892   3.912   3.427  16.826 -0.1751 -0.1303 -0.5855
  879MPD2    C512893   3.978   3.545  16.844  0.1414  0.2236 -0.0424
  879MPD2     H12894   4.053   3.261  17.085 -0.7585  2.1322  3.3889
  879MPD2    H112895   3.838   3.412  16.749 -1.3469  1.1856  0.2919
  879MPD2    H212896   4.100   3.667  16.967 -0.3386 -0.1384  1.3065
  879MPD2    H312897   3.958   3.628  16.777 -1.2903  1.0441  1.3895
  879MPD2     N12898   3.891   3.192  16.889 -0.5734  0.3211 -0.3180
  879MPD2    H512899   3.819   3.185  16.818 -0.7578 -1.8826  0.0713
  879MPD2    N112900   4.165   3.500  17.147 -0.3557  0.8359  0.2381
  879MPD2    H712901   4.200   3.594  17.158  1.7034 -0.1213  2.0138
  880MPD2     C12902   1.361   0.673   0.495  0.8296  0.3660 -0.5412
  880MPD2    C112903   1.242   0.612   0.483 -0.2333 -0.3622 -0.6249
  880MPD2    C212904   1.238   0.478   0.491  0.6698 -0.1149  0.8419
  880MPD2    C312905   1.360   0.405   0.505  0.1354 -0.2476 -0.5669
  880MPD2    C412906   1.478   0.474   0.526 -0.7496 -0.8801 -0.1027
  880MPD2    C512907   1.476   0.614   0.531  0.2466  0.6986  0.2621
  880MPD2     H12908   1.144   0.428   0.470  0.4233  0.8896 -0.4289
  880MPD2    H112909   1.566   0.420   0.557 -1.0272 -0.5853  1.1823
  880MPD2    H212910   1.369   0.781   0.493 -1.1085  0.5207 -0.1666
  880MPD2    H312911   1.566   0.671   0.549 -0.5077  1.7678  0.6426
  880MPD2     N12912   1.363   0.263   0.489  0.2319 -0.4160  0.2855
  880MPD2    H512913   1.270   0.222   0.490 -0.6445  1.5624  2.0796
  880MPD2    N112914   1.132   0.693   0.471  0.2962  0.8483  0.2820
  880MPD2    H712915   1.152   0.792   0.457 -0.5494  1.0531  0.5430
  881MPD2     C12916   1.105   1.258  17.582 -0.5572 -0.5896  1.0835
  881MPD2    C112917   1.055   1.134  17.536  0.3197  0.0541 -0.1988
  881MPD2    C212918   0.979   1.063  17.631  0.2484  0.1073 -0.1936
  881MPD2    C312919   0.986   1.099   0.072 -0.0347  0.4518 -0.9109
  881MPD2    C412920   1.057   1.210   0.108  0.0540  0.7276  0.0149
  881MPD2    C512921   1.102   1.299   0.018 -0.3520  0.1696 -0.1467
  881MPD2     H12922   0.931   0.970  17.602  0.4756  0.2986 -1.2072
  881MPD2    H112923   1.062   1.243   0.211 -1.1518 -0.0910  0.3291
  881MPD2    H212924   1.149   1.324  17.509 -0.0533 -1.1940  0.8445
  881MPD2    H312925   1.150   1.391   0.046 -0.4092 -0.1367  0.9412
  881MPD2     N12926   0.930   1.022   0.175 -0.4667  0.1125  0.5140
  881MPD2    H512927   0.967   1.057   0.263 -2.6679  1.6381  0.8385
  881MPD2    N112928   1.053   1.106  17.400  0.4834 -0.3695  0.3006
  881MPD2    H712929   1.092   1.171  17.333 -0.1626 -2.7457 -2.3627
  882MPD2     C12930   0.067   2.650  13.875 -0.3268  0.1244  0.4259
  882MPD2    C112931   0.018   2.725  13.988 -0.0897 -0.3981 -0.5958
  882MPD2    C212932   4.610   2.724  14.022  0.9735  0.1613 -0.1434
  882MPD2    C312933   4.521   2.655  13.940  0.1828 -0.2484  0.0714
  882MPD2    C412934   4.561   2.597  13.820  0.0048  0.8570 -0.5399
  882MPD2    C512935   4.693   2.600  13.784 -0.2930  0.0183 -0.6189
  882MPD2     H12936   4.582   2.767  14.118  1.1450  0.1399 -0.0833
  882MPD2    H112937   4.489   2.556  13.750  1.6203 -0.0763 -1.6370
  882MPD2    H212938   0.169   2.655  13.838 -0.0298  0.9893  1.3648
  882MPD2    H312939   0.008   2.544  13.700 -0.9826 -0.9913 -0.2544
  882MPD2     N12940   4.383   2.662  13.964 -0.9333  0.3155  0.3082
  882MPD2    H512941   4.320   2.621  13.897  1.7274  0.6007 -2.3448
  882MPD2    N112942   0.126   2.794  14.059  0.6956 -0.3521  0.4289
  882MPD2    H712943   0.218   2.788  14.017  0.4753 -1.1153  0.0482
  883MPD2     C12944   1.585   2.539  16.142 -0.0482 -0.0608 -0.8116
  883MPD2    C112945   1.664   2.591  16.041  0.2973 -0.2029 -0.1732
  883MPD2    C212946   1.755   2.686  16.085 -0.0624  0.2322 -0.0699
  883MPD2    C312947   1.778   2.724  16.214  0.1158  0.5719  0.7835
  883MPD2    C412948   1.689   2.679  16.306  0.8016  0.1076  0.0587
  883MPD2    C512949   1.595   2.584  16.267 -0.3670  0.1257 -0.0093
  883MPD2     H12950   1.825   2.721  16.011  1.3702 -0.1311  1.1112
  883MPD2    H112951   1.708   2.682  16.412 -0.2937  1.8112  0.1956
  883MPD2    H212952   1.506   2.466  16.136 -1.5986  1.6208 -0.7975
  883MPD2    H312953   1.543   2.531  16.346 -0.6473  1.2463  0.5551
  883MPD2     N12954   1.896   2.800  16.236 -0.6337  1.0414  0.5197
  883MPD2    H512955   1.963   2.814  16.161 -0.0532 -3.5106  0.1438
  883MPD2    N112956   1.639   2.566  15.905 -0.4042 -0.4478 -0.2414
  883MPD2    H712957   1.704   2.611  15.842 -0.1281 -2.9513 -1.7229
  884MPD2     C12958   3.450   3.108  15.232 -0.0626  0.3178  0.1396
  884MPD2    C112959   3.448   3.180  15.113  0.7798 -0.6644 -0.2541
  884MPD2    C212960   3.324   3.230  15.068 -0.0438 -0.5157  0.5747
  884MPD2    C312961   3.209   3.220  15.140 -0.2266 -0.3621  1.0656
  884MPD2    C412962   3.211   3.144  15.258 -0.0607 -0.5990  0.5435
  884MPD2    C512963   3.335   3.093  15.311 -0.1052  0.3101  0.2601
  884MPD2     H12964   3.319   3.300  14.985  0.8185 -0.5384  0.5040
  884MPD2    H112965   3.117   3.131  15.310  0.4775 -3.5731  0.7275
  884MPD2    H212966   3.543   3.060  15.261  0.6746  0.6868 -1.6017
  884MPD2    H312967   3.339   3.054  15.412 -1.1299 -0.3483  0.0510
  884MPD2     N12968   3.094   3.284  15.092  0.2632 -0.4655  0.6858
  884MPD2    H512969   3.096   3.312  14.994  0.3180  1.0824  1.1341
  884MPD2    N112970   3.568   3.224  15.040 -0.0825  0.1561  0.0084
  884MPD2    H712971   3.553   3.282  14.959 -1.0669 -1.9450 -1.3211
  885MPD2     C12972   1.347   3.729   0.085  0.4321  0.1193  0.0976
  885MPD2    C112973   1.480   3.713   0.063 -0.1739 -0.2794 -0.0586
  885MPD2    C212974   1.538   3.782  17.654 -0.4691 -0.1973  0.1284
  885MPD2    C312975   1.467   3.871  17.577 -0.0432 -0.7133  0.0384
  885MPD2    C412976   1.336   3.887  17.602 -0.6414  0.8832 -0.0210
  885MPD2    C512977   1.276   3.818   0.006  0.2221  0.1553 -1.3192
  885MPD2     H12978   1.641   3.760  17.629 -0.0957  1.1095  0.5225
  885MPD2    H112979   1.273   3.954  17.543  1.0271  0.6576 -2.0595
  885MPD2    H212980   1.301   3.675   0.166 -0.2924  1.2229  0.4210
  885MPD2    H312981   1.171   3.833   0.028  0.3532 -0.0845 -0.5137
  885MPD2     N12982   1.535   3.939  17.477 -0.7733 -0.0078 -0.6766
  885MPD2    H512983   1.635   3.926  17.470 -0.7651  0.1794 -0.9217
  885MPD2    N112984   1.562   3.632   0.147 -0.0338 -0.2786  1.1135
  885MPD2    H712985   1.662   3.642   0.133 -0.0951  0.6110  1.2578
  886MPD2     C12986   2.932   2.191  15.202  0.2472 -0.2208  0.5811
  886MPD2    C112987   3.069   2.163  15.185 -0.6754 -0.3899  0.0792
  886MPD2    C212988   3.133   2.252  15.108 -0.1199 -0.2569  0.1247
  886MPD2    C312989   3.071   2.360  15.048 -0.0675  0.1185 -0.1961
  886MPD2    C412990   2.934   2.379  15.063 -0.2739 -0.0010 -0.2031
  886MPD2    C512991   2.865   2.288  15.137  0.0374 -0.3543 -1.3047
  886MPD2     H12992   3.241   2.241  15.106 -0.0473  0.2003  1.5639
  886MPD2    H112993   2.883   2.465  15.021 -0.6222  0.5248  1.2897
  886MPD2    H212994   2.868   2.120  15.253 -0.1461  1.6806  2.7346
  886MPD2    H312995   2.757   2.290  15.150  0.1318  2.4855 -0.8297
  886MPD2     N12996   3.144   2.453  14.970 -0.4176  0.0609  0.5425
  886MPD2    H512997   3.097   2.539  14.943 -0.8584 -0.5919 -0.7702
  886MPD2    N112998   3.141   2.049  15.242  0.1355 -0.3490  0.4007
  886MPD2    H712999   3.237   2.034  15.214  0.4503  0.5194  1.0437
  887MPD2     C13000   3.773   1.898  15.359 -0.5237  0.3221 -0.6446
  887MPD2    C113001   3.678   1.962  15.428 -0.3457  0.4327 -0.5419
  887MPD2    C213002   3.681   2.098  15.433  0.7297 -0.5279  0.2816
  887MPD2    C313003   3.794   2.166  15.391  0.7783  0.0336 -0.0533
  887MPD2    C413004   3.892   2.099  15.325  0.4187  0.9432 -0.0268
  887MPD2    C513005   3.887   1.961  15.314  0.4280 -0.0729 -0.5049
  887MPD2     H13006   3.598   2.156  15.470  1.2129 -1.1348  2.3555
  887MPD2    H113007   3.983   2.152  15.298  1.4865  0.3839  2.4379
  887MPD2    H213008   3.762   1.791  15.344 -2.0803  0.1322  1.8238
  887MPD2    H313009   3.974   1.911  15.274  0.3121 -1.4398  0.9589
  887MPD2     N13010   3.788   2.304  15.408 -0.2648 -0.1411 -0.5528
  887MPD2    H513011   3.716   2.339  15.471  0.8060  0.1544  0.5149
  887MPD2    N113012   3.552   1.910  15.455 -0.1023  0.0727 -0.5615
  887MPD2    H713013   3.483   1.967  15.503 -0.0154  0.7230 -1.2149
  888MPD2     C13014   1.090   1.948  15.069  0.8033 -0.6765  0.0302
  888MPD2    C113015   0.996   2.026  15.135 -0.8110 -0.6717 -0.6086
  888MPD2    C213016   1.009   2.163  15.138  0.2643  0.3379 -0.4940
  888MPD2    C313017   1.116   2.227  15.073  0.2925 -0.0460  0.9594
  888MPD2    C413018   1.215   2.151  15.014 -0.5124  0.2602  0.1368
  888MPD2    C513019   1.203   2.010  15.014 -0.0318 -0.1281 -1.3769
  888MPD2     H13020   0.935   2.216  15.198 -0.7023 -1.2673 -0.2881
  888MPD2    H113021   1.305   2.187  14.964 -0.1541  0.5662  1.0011
  888MPD2    H213022   1.082   1.840  15.078 -0.3836 -0.6391 -0.5947
  888MPD2    H313023   1.292   1.957  14.983 -0.8888 -1.3771 -1.7092
  888MPD2     N13024   1.111   2.364  15.079  0.2969 -0.5153  0.7224
  888MPD2    H513025   1.029   2.399  15.128  0.9627  1.3938  0.5079
  888MPD2    N113026   0.894   1.962  15.204  0.1083 -0.5495  0.0999
  888MPD2    H713027   0.845   2.016  15.275  1.5671  2.8873 -1.5037
  889MPD2     C13028   4.265   1.814  12.464 -0.0764 -0.3821  0.5732
  889MPD2    C113029   4.355   1.795  12.568 -0.6925  0.7299  0.5812
  889MPD2    C213030   4.430   1.904  12.609 -0.5897  0.3600  0.4691
  889MPD2    C313031   4.401   2.035  12.574  0.0797 -0.2700 -0.5801
  889MPD2    C413032   4.309   2.055  12.472  0.0252 -0.0053 -0.4137
  889MPD2    C513033   4.240   1.946  12.424 -0.2125 -0.5104 -0.2164
  889MPD2     H13034   4.488   1.877  12.696  0.1285 -0.0091 -0.1260
  889MPD2    H113035   4.274   2.152  12.439 -1.3848  0.0355  1.1791
  889MPD2    H213036   4.195   1.734  12.442  0.4109 -0.3721 -1.0537
  889MPD2    H313037   4.154   1.960  12.360 -0.3551  0.1575  0.1166
  889MPD2     N13038   4.472   2.134  12.640 -0.1080 -0.4188 -0.3922
  889MPD2    H513039   4.520   2.099  12.722  0.4704 -1.2063 -1.0656
  889MPD2    N113040   4.397   1.663  12.608  0.4475 -0.1059  0.1119
  889MPD2    H713041   4.480   1.665  12.667  0.8521  1.4116 -0.5135
  890MPD2     C13042   4.197   3.507  14.503  0.4467  0.2973  0.1605
  890MPD2    C113043   4.317   3.546  14.538 -1.0241  0.3981 -0.5130
  890MPD2    C213044   4.409   3.478  14.611  0.1151  0.3545 -0.5863
  890MPD2    C313045   4.366   3.357  14.665  0.5375 -0.1810 -0.3404
  890MPD2    C413046   4.236   3.318  14.656  0.9980  0.0549 -0.1403
  890MPD2    C513047   4.155   3.391  14.573 -0.6354 -0.0091 -1.3101
  890MPD2     H13048   4.510   3.518  14.618 -0.4960  1.9742 -1.1292
  890MPD2    H113049   4.209   3.238  14.724  2.2132 -0.0709  0.1991
  890MPD2    H213050   4.130   3.565  14.441  0.0402  3.1052  3.2386
  890MPD2    H313051   4.051   3.364  14.558 -0.8429 -1.7880  3.3572
  890MPD2     N13052   4.463   3.289  14.744 -0.2655  0.8060 -0.2903
  890MPD2    H513053   4.556   3.330  14.739 -0.0689  0.3846 -0.0785
  890MPD2    N113054   4.368   3.673  14.504 -0.3373  0.3790  0.0035
  890MPD2    H713055   4.456   3.694  14.549 -0.1021  0.7887 -0.6511
  891MPD2     C13056   2.451   2.161  16.211  0.1645  0.0102  0.1113
  891MPD2    C113057   2.356   2.150  16.317 -0.1781 -0.2194  0.1212
  891MPD2    C213058   2.406   2.169  16.444  0.4418  0.3498  0.9688
  891MPD2    C313059   2.541   2.183  16.463  0.0972  1.0421  0.4659
  891MPD2    C413060   2.632   2.188  16.360  0.4529 -0.1986  0.3931
  891MPD2    C513061   2.585   2.171  16.236  0.1795 -0.3388  0.3528
  891MPD2     H13062   2.336   2.159  16.527  0.3340  1.0111  0.9613
  891MPD2    H113063   2.740   2.192  16.375  0.2407  0.4987  1.6655
  891MPD2    H213064   2.421   2.167  16.107 -0.4181 -0.6748  0.2399
  891MPD2    H313065   2.652   2.168  16.151  1.3056  0.9792  1.1945
  891MPD2     N13066   2.585   2.180  16.596  0.0044 -0.4598 -0.9769
  891MPD2    H513067   2.517   2.163  16.670  0.1856 -1.6700 -1.1053
  891MPD2    N113068   2.223   2.139  16.280 -0.6890  0.4107  0.2144
  891MPD2    H713069   2.207   2.127  16.181  1.0587 -0.8664  0.0793
  892MPD2     C13070   3.716   3.065  14.632  0.5138 -0.9441  0.7476
  892MPD2    C113071   3.630   3.021  14.529  0.0065 -0.0601 -0.3433
  892MPD2    C213072   3.699   2.964  14.415 -0.5588 -0.0096  0.1932
  892MPD2    C313073   3.836   2.955  14.413 -0.3250  0.4121 -0.6385
  892MPD2    C413074   3.912   3.004  14.512 -0.0535  0.2867 -0.3220
  892MPD2    C513075   3.852   3.066  14.623  0.2905  0.1040  0.8378
  892MPD2     H13076   3.644   2.938  14.325 -0.0183 -0.6434  0.0459
  892MPD2    H113077   4.020   3.000  14.520 -0.0452  0.6880 -0.2394
  892MPD2    H213078   3.678   3.115  14.721 -1.5620  0.0856 -0.6985
  892MPD2    H313079   3.919   3.120  14.689 -1.1700  0.9273  1.6564
  892MPD2     N13080   3.916   2.889  14.322 -0.2929 -0.0973  0.5766
  892MPD2    H513081   4.014   2.878  14.346  0.1149 -0.5571 -1.2988
  892MPD2    N113082   3.490   3.043  14.523  0.0163 -0.6654 -0.2124
  892MPD2    H713083   3.448   3.040  14.431  2.5568 -1.2173 -1.3577
  893MPD2     C13084   4.453   1.536   0.845  0.1254  0.5391  0.2557
  893MPD2    C113085   4.437   1.551   0.982 -0.0303 -0.2818 -0.9653
  893MPD2    C213086   4.325   1.610   1.032 -0.3316  0.4240 -0.6324
  893MPD2    C313087   4.222   1.651   0.947  0.5393 -0.0990  0.3875
  893MPD2    C413088   4.245   1.636   0.817 -0.4630  0.8172  0.1817
  893MPD2    C513089   4.351   1.568   0.765 -0.0737  0.6368 -0.0433
  893MPD2     H13090   4.330   1.631   1.138  0.7807  0.2843 -0.6500
  893MPD2    H113091   4.165   1.662   0.750 -0.6977 -0.3055  0.0211
  893MPD2    H213092   4.536   1.491   0.792 -1.5509 -0.0471 -1.9076
  893MPD2    H313093   4.363   1.554   0.659  0.9421  0.5813  0.0793
  893MPD2     N13094   4.097   1.696   0.981 -0.3489  0.1827 -0.3342
  893MPD2    H513095   4.044   1.745   0.910 -0.9645  0.2847  0.1986
  893MPD2    N113096   4.550   1.514   1.059  0.5105 -1.3258  0.0845
  893MPD2    H713097   4.628   1.481   1.003  2.0685 -0.4407  1.7002
  894MPD2     C13098   3.081   3.780   0.495  0.4555 -0.2483  0.4537
  894MPD2    C113099   3.030   3.809   0.621 -0.8500  0.6490 -0.7366
  894MPD2    C213100   3.026   3.940   0.662  0.1360  0.3629  0.1793
  894MPD2    C313101   3.080   4.041   0.583  0.5438  0.4851 -0.1817
  894MPD2    C413102   3.137   4.013   0.460 -0.0801  0.9322 -0.5701
  894MPD2    C513103   3.136   3.884   0.423  0.3228 -0.0343  0.0902
  894MPD2     H13104   2.995   3.973   0.761  0.1435 -2.1278  1.0184
  894MPD2    H113105   3.176   4.089   0.394 -1.7443  0.6891 -1.8271
  894MPD2    H213106   3.085   3.678   0.459  1.9059 -0.4572  1.2190
  894MPD2    H313107   3.181   3.860   0.328  0.6159 -0.4042  0.3213
  894MPD2     N13108   3.080   4.168   0.646  0.1506  0.0342 -0.0709
  894MPD2    H513109   3.047   4.184   0.740  2.1835  2.3910  0.2457
  894MPD2    N113110   2.970   3.712   0.705 -0.0739  0.0057  0.1892
  894MPD2    H713111   2.924   3.749   0.788 -1.4903  0.8399 -0.9674
  895MPD2     C13112   2.741   1.806  13.260 -0.1659 -0.4024 -0.3324
  895MPD2    C113113   2.650   1.792  13.160 -0.3074 -0.4202  0.3812
  895MPD2    C213114   2.640   1.667  13.100  0.5006 -0.9114  0.0466
  895MPD2    C313115   2.724   1.567  13.141  0.2585  0.5747  0.1118
  895MPD2    C413116   2.823   1.585  13.239  0.0800 -0.2912  0.4088
  895MPD2    C513117   2.832   1.709  13.298  0.1823 -0.0570 -0.0420
  895MPD2     H13118   2.556   1.644  13.036 -1.8362  3.1996  1.6335
  895MPD2    H113119   2.895   1.509  13.268 -0.8255 -1.0425  0.6645
  895MPD2    H213120   2.751   1.900  13.314  2.2343 -0.2575 -1.0472
  895MPD2    H313121   2.910   1.729  13.369  0.4202 -1.3324  0.0611
  895MPD2     N13122   2.705   1.443  13.069  0.2102 -0.0202 -0.1087
  895MPD2    H513123   2.623   1.437  13.009  0.2818 -1.0622 -0.0938
  895MPD2    N113124   2.572   1.898  13.110  0.3221 -0.4161 -0.1010
  895MPD2    H713125   2.498   1.875  13.045  0.2641  1.2399 -0.6069
  896MPD2     C13126   4.406   0.408   1.471 -0.2610 -0.2089  0.0335
  896MPD2    C113127   4.451   0.278   1.450  0.9880 -0.2981  0.0482
  896MPD2    C213128   4.358   0.182   1.417 -0.2384 -0.3655 -0.2952
  896MPD2    C313129   4.224   0.212   1.407  0.0646 -0.3598 -0.6623
  896MPD2    C413130   4.188   0.348   1.437 -0.1803  0.0654 -0.1863
  896MPD2    C513131   4.275   0.446   1.467  0.9397  0.0650 -0.0083
  896MPD2     H13132   4.377   0.075   1.411 -3.9085 -1.1732  2.1516
  896MPD2    H113133   4.085   0.380   1.428 -0.4686  0.1485  3.1605
  896MPD2    H213134   4.483   0.479   1.497 -0.5173 -0.5056  1.5908
  896MPD2    H313135   4.244   0.550   1.476  0.0955 -0.2525  0.7289
  896MPD2     N13136   4.128   0.109   1.387 -0.5908 -0.8277  0.5514
  896MPD2    H513137   4.173   0.018   1.382  1.7587  0.3065  1.1251
  896MPD2    N113138   4.589   0.263   1.475 -0.4665  0.0836  0.3110
  896MPD2    H713139   4.633   0.350   1.505  3.3111  0.1016 -5.1616
  897MPD2     C13140   1.183   1.435  10.457  0.0510 -0.1149 -0.4506
  897MPD2    C113141   1.108   1.552  10.459 -0.2524  0.0369 -0.4209
  897MPD2    C213142   0.970   1.537  10.477  0.4942  0.4132  0.5068
  897MPD2    C313143   0.923   1.417  10.527 -0.3501  0.5162 -0.8572
  897MPD2    C413144   1.002   1.296  10.519  0.1505  0.3565  0.8012
  897MPD2    C513145   1.131   1.315  10.481  0.1232 -0.1643  0.2448
  897MPD2     H13146   0.915   1.627  10.501 -1.9107 -0.6328 -1.1985
  897MPD2    H113147   0.968   1.201  10.560 -1.2486  0.6164  0.2207
  897MPD2    H213148   1.290   1.441  10.439 -0.2042  2.3493 -1.2087
  897MPD2    H313149   1.202   1.234  10.479 -0.6949 -0.8880  0.3176
  897MPD2     N13150   0.787   1.419  10.568 -0.5268 -0.1714  0.0247
  897MPD2    H513151   0.724   1.495  10.543 -0.6739  0.3531  2.0566
  897MPD2    N113152   1.167   1.668  10.408  0.5051  0.3085 -0.7720
  897MPD2    H713153   1.267   1.665  10.388  0.8805 -1.9986  1.4349
  898MPD2     C13154   2.772   2.210   0.190  0.5584  0.7838 -0.4116
  898MPD2    C113155   2.900   2.256   0.149  0.0628 -0.1023 -0.2308
  898MPD2    C213156   2.907   2.334   0.036  0.5518 -0.8240  0.3492
  898MPD2    C313157   2.790   2.363  17.659 -0.1341 -0.3101  0.4548
  898MPD2    C413158   2.668   2.310  17.692 -0.2494 -0.0312 -0.1869
  898MPD2    C513159   2.664   2.230   0.105  0.2105  0.2947  0.0081
  898MPD2     H13160   3.005   2.365   0.002  0.9912 -1.0438  1.4296
  898MPD2    H113161   2.573   2.327  17.642 -1.0512  0.4320  1.4973
  898MPD2    H213162   2.758   2.137   0.268  1.9075 -1.0024 -1.8519
  898MPD2    H313163   2.572   2.185   0.141  0.7017 -0.2556  0.5750
  898MPD2     N13164   2.807   2.441  17.550 -0.5158  0.0676 -0.0846
  898MPD2    H513165   2.904   2.461  17.526 -0.8999  0.6072 -1.2087
  898MPD2    N113166   3.013   2.219   0.223 -0.0305 -0.0073 -0.1511
  898MPD2    H713167   3.101   2.222   0.172  0.5067 -2.1140  0.6597
  899MPD2     C13168   3.729   2.888  17.450 -0.2907 -0.6682  0.0203
  899MPD2    C113169   3.715   2.988  17.551  0.6106 -0.5092 -0.0817
  899MPD2    C213170   3.652   2.960  17.669  0.6010 -0.1924  0.0346
  899MPD2    C313171   3.578   2.839  17.682 -0.0043 -0.2345  0.4854
  899MPD2    C413172   3.578   2.748  17.575 -0.3621  0.3962  0.5133
  899MPD2    C513173   3.652   2.774  17.466 -0.3721 -0.0511  0.0515
  899MPD2     H13174   3.653   3.032   0.054  1.0531 -0.3435  0.1637
  899MPD2    H113175   3.524   2.654  17.584  0.1851 -0.0672 -0.8838
  899MPD2    H213176   3.763   2.907  17.349 -1.5404 -0.6118 -0.3899
  899MPD2    H313177   3.658   2.693  17.394  0.3140 -0.8311  0.9949
  899MPD2     N13178   3.502   2.795   0.099  0.1369 -0.1798  0.4860
  899MPD2    H513179   3.466   2.700   0.095  0.2884 -0.3185  2.5752
  899MPD2    N113180   3.777   3.107  17.532 -0.4537  0.6004  0.0219
  899MPD2    H713181   3.829   3.102  17.444  3.1617 -1.0206  2.2466
  900MPD2     C13182   3.704   0.119  12.386  0.0453 -0.1660 -0.3573
  900MPD2    C113183   3.626   0.016  12.346  0.5166  0.4980 -0.0563
  900MPD2    C213184   3.495   0.030  12.314 -0.6140 -0.2805  0.2963
  900MPD2    C313185   3.442   0.157  12.323  0.1905 -0.2733 -0.1768
  900MPD2    C413186   3.524   0.266  12.370 -0.7315 -0.1531  0.1179
  900MPD2    C513187   3.656   0.241  12.402 -0.3931 -0.1669  0.5689
  900MPD2     H13188   3.431   4.672  12.281  0.6450 -1.1633  0.0663
  900MPD2    H113189   3.499   0.371  12.382  1.6472  0.2610  1.5424
  900MPD2    H213190   3.811   0.107  12.403 -0.0165 -0.4502 -0.1731
  900MPD2    H313191   3.721   0.326  12.424  0.5875 -0.4619 -1.1868
  900MPD2     N13192   3.309   0.177  12.276 -0.5597  0.2616  0.2714
  900MPD2    H513193   3.251   0.099  12.244  1.9540 -0.3712 -2.7189
  900MPD2    N113194   3.684   4.615  12.341 -0.1373 -0.4856  0.8902
  900MPD2    H713195   3.786   4.611  12.334 -0.1371  0.8067  0.0276
  901MPD2     C13196   3.569   3.598  12.122  0.2518  0.2953  0.3178
  901MPD2    C113197   3.690   3.590  12.186  0.0597 -0.8493  0.4406
  901MPD2    C213198   3.731   3.700  12.255 -0.0147  0.2787  0.0619
  901MPD2    C313199   3.661   3.814  12.254 -0.4106  0.1586  1.0932
  901MPD2    C413200   3.538   3.824  12.185  0.4521 -0.9612  1.4300
  901MPD2    C513201   3.492   3.714  12.114  0.1957 -0.8094 -0.3571
  901MPD2     H13202   3.817   3.686  12.320  0.1235  1.5277  0.1400
  901MPD2    H113203   3.487   3.917  12.162  0.2232 -1.2762  0.6712
  901MPD2    H213204   3.531   3.506  12.077  0.7632  0.5496 -0.6201
  901MPD2    H313205   3.400   3.735  12.061 -0.3849  0.8485  1.3266
  901MPD2     N13206   3.721   3.926  12.320  0.5931 -0.4313  0.5275
  901MPD2    H513207   3.816   3.914  12.354  1.0313 -1.6031 -1.1255
  901MPD2    N113208   3.762   3.464  12.176 -0.3519 -0.1354 -0.3895
  901MPD2    H713209   3.722   3.405  12.104 -3.6560  0.8777  0.5878
  902MPD2     C13210   2.413   2.443  12.623 -0.2990 -0.2356 -0.0375
  902MPD2    C113211   2.400   2.568  12.563 -0.4347 -0.0711 -0.7077
  902MPD2    C213212   2.420   2.569  12.424 -0.1992  0.0734  0.1885
  902MPD2    C313213   2.463   2.461  12.363 -0.3636  0.1403 -0.6709
  902MPD2    C413214   2.494   2.341  12.427  0.2394 -0.0603  0.5584
  902MPD2    C513215   2.468   2.333  12.557  0.3501 -0.4002 -0.1283
  902MPD2     H13216   2.382   2.654  12.368 -0.4981  0.7884  1.4863
  902MPD2    H113217   2.541   2.256  12.379  0.8249  0.4880  0.1571
  902MPD2    H213218   2.405   2.447  12.731  1.9976 -1.6666  0.1813
  902MPD2    H313219   2.479   2.238  12.608 -0.4926 -1.3779 -1.7779
  902MPD2     N13220   2.492   2.447  12.228 -0.4329 -0.2751  0.4160
  902MPD2    H513221   2.523   2.359  12.187  0.6560  0.4335 -0.2913
  902MPD2    N113222   2.348   2.670  12.647  0.0320 -0.2924 -0.1328
  902MPD2    H713223   2.352   2.647  12.746  1.1968  5.1574  1.0584
  903MPD2     C13224   2.473   2.938  11.494  0.0588  0.4110  0.3015
  903MPD2    C113225   2.413   2.814  11.503 -0.6155 -0.2062  0.4687
  903MPD2    C213226   2.302   2.790  11.417 -0.3856 -0.5703 -0.3953
  903MPD2    C313227   2.269   2.888  11.324 -0.3008  0.0509 -0.2572
  903MPD2    C413228   2.339   3.007  11.305  0.1157  0.7750 -0.4234
  903MPD2    C513229   2.435   3.039  11.402 -0.5051  0.1144  0.1471
  903MPD2     H13230   2.244   2.699  11.428  0.2591 -0.8048  1.0457
  903MPD2    H113231   2.313   3.084  11.233  0.8955  1.2270 -0.2187
  903MPD2    H213232   2.557   2.961  11.559  1.4125 -0.7099 -1.0577
  903MPD2    H313233   2.487   3.134  11.393 -1.0936  0.5282  1.0620
  903MPD2     N13234   2.155   2.865  11.251  1.3086  0.1181  0.1238
  903MPD2    H513235   2.111   2.774  11.256  2.1636 -0.1988  1.7890
  903MPD2    N113236   2.440   2.714  11.597 -0.6789 -0.2511  0.8630
  903MPD2    H713237   2.394   2.625  11.578 -0.8693 -0.0849  0.5405
  904MPD2     C13238   2.316   1.233  13.448 -0.3805 -0.0038  0.0139
  904MPD2    C113239   2.407   1.337  13.436 -0.2762  0.2943  0.0545
  904MPD2    C213240   2.538   1.299  13.446 -0.3718 -0.0653  0.2476
  904MPD2    C313241   2.576   1.169  13.435 -0.8192 -0.5622  0.8318
  904MPD2    C413242   2.478   1.070  13.433 -0.7630  0.1994  0.4324
  904MPD2    C513243   2.347   1.109  13.438 -0.5733  0.5889  0.0591
  904MPD2     H13244   2.611   1.377  13.429 -0.6314 -0.1599 -1.2957
  904MPD2    H113245   2.514   0.969  13.424 -0.7195  0.4793 -2.5643
  904MPD2    H213246   2.210   1.247  13.466 -0.2245  4.1488 -2.3110
  904MPD2    H313247   2.276   1.028  13.455  1.8801 -1.5057  0.3071
  904MPD2     N13248   2.715   1.145  13.410 -0.4721  0.2975 -0.1649
  904MPD2    H513249   2.777   1.225  13.402 -2.0902  1.5524 -0.1481
  904MPD2    N113250   2.365   1.469  13.461 -0.4229  0.0097  0.1483
  904MPD2    H713251   2.264   1.472  13.455 -0.4170  0.1371  0.1161
  905MPD2     C13252   2.217   1.723  12.944  0.5745  0.3225 -0.5661
  905MPD2    C113253   2.225   1.641  13.055 -0.0929  0.0017  0.1657
  905MPD2    C213254   2.262   1.506  13.033  0.0645  0.0538  0.6803
  905MPD2    C313255   2.290   1.468  12.906  0.8789  0.4641  0.0055
  905MPD2    C413256   2.288   1.553  12.799  0.1980 -0.0210 -0.1666
  905MPD2    C513257   2.240   1.683  12.817 -0.2557  0.6382 -0.1358
  905MPD2     H13258   2.289   1.454  13.125  1.1765  0.9996  0.8850
  905MPD2    H113259   2.305   1.516  12.699  2.8885  0.8932 -0.0494
  905MPD2    H213260   2.194   1.829  12.956  3.1333  1.1770 -3.2238
  905MPD2    H313261   2.235   1.745  12.728  1.1447  1.1333  0.1252
  905MPD2     N13262   2.353   1.346  12.873 -0.0101  0.5058  0.5025
  905MPD2    H513263   2.381   1.334  12.776 -1.7502  0.5207 -0.0156
  905MPD2    N113264   2.200   1.685  13.188 -0.0450 -0.1957 -0.4853
  905MPD2    H713265   2.204   1.611  13.256 -2.5277  0.9565  0.9322
  906MPD2     C13266   4.246   1.671  11.020  0.8132 -0.5647 -0.0531
  906MPD2    C113267   4.254   1.572  10.919 -0.2423 -0.3287 -0.0933
  906MPD2    C213268   4.263   1.443  10.952 -0.0026  0.5242  0.4672
  906MPD2    C313269   4.240   1.412  11.088  0.1377 -1.3696  0.5195
  906MPD2    C413270   4.226   1.505  11.188 -0.3826 -0.1552  0.3786
  906MPD2    C513271   4.225   1.636  11.155  0.5080 -0.2468 -0.3789
  906MPD2     H13272   4.272   1.369  10.873  0.3142  2.2640 -1.1055
  906MPD2    H113273   4.206   1.486  11.293 -0.9121  0.4737  0.3949
  906MPD2    H213274   4.243   1.778  11.003 -0.8874 -0.8413 -1.4538
  906MPD2    H313275   4.205   1.709  11.232  0.5498 -0.8954  0.2506
  906MPD2     N13276   4.206   1.276  11.093 -0.1095  0.4038 -0.6793
  906MPD2    H513277   4.199   1.210  11.016 -2.1334  0.1489 -0.2656
  906MPD2    N113278   4.278   1.606  10.780 -0.0756 -0.3032  0.1553
  906MPD2    H713279   4.292   1.528  10.716 -0.7600 -0.7560  0.5661
  907MPD2     C13280   2.719   0.728  15.025  0.8040 -0.0512  0.3956
  907MPD2    C113281   2.849   0.699  15.056 -0.0946  0.1038 -0.2629
  907MPD2    C213282   2.922   0.795  15.130  0.7038  0.3239  0.7937
  907MPD2    C313283   2.863   0.914  15.170 -0.5644  0.4766 -0.4904
  907MPD2    C413284   2.739   0.939  15.129 -0.8151  0.2570 -0.2694
  907MPD2    C513285   2.664   0.846  15.067 -0.3226  0.5540 -0.3501
  907MPD2     H13286   3.027   0.770  15.143  0.9061  0.0734 -1.4590
  907MPD2    H113287   2.698   1.036  15.153 -0.4167  0.9200 -2.2214
  907MPD2    H213288   2.657   0.667  14.961 -0.4862 -0.7220  2.2624
  907MPD2    H313289   2.560   0.871  15.049 -0.7276 -0.7516  0.1483
  907MPD2     N13290   2.941   1.011  15.232  0.1487  0.7095 -0.5530
  907MPD2    H513291   3.041   0.995  15.230  0.1990  0.8413  0.7482
  907MPD2    N113292   2.914   0.579  15.026 -0.2029  0.1457  0.2685
  907MPD2    H713293   3.004   0.563  15.069 -0.6552  0.8666  1.4896
  908MPD2     C13294   1.139   1.546   9.602 -0.0640 -0.1681  0.4190
  908MPD2    C113295   1.039   1.531   9.696  0.3679 -0.1096 -0.2079
  908MPD2    C213296   1.047   1.609   9.810  0.1337  1.1002  0.4838
  908MPD2    C313297   1.149   1.703   9.827  0.8454  0.9463 -0.2580
  908MPD2    C413298   1.246   1.717   9.733  0.3343  0.0770 -0.2291
  908MPD2    C513299   1.235   1.640   9.617  0.6719  0.4169  0.1860
  908MPD2     H13300   0.979   1.594   9.893 -0.7416 -0.3840 -0.5079
  908MPD2    H113301   1.335   1.775   9.753  0.8963 -0.7877 -0.1826
  908MPD2    H213302   1.138   1.488   9.511 -1.1608  0.3056  0.1380
  908MPD2    H313303   1.310   1.647   9.539  2.1124 -1.3727  1.3904
  908MPD2     N13304   1.145   1.774   9.946 -0.6402 -0.6011  0.5515
  908MPD2    H513305   1.064   1.773  10.007  1.5915  1.1761  3.5385
  908MPD2    N113306   0.933   1.438   9.680  0.0169 -0.2276 -0.2514
  908MPD2    H713307   0.847   1.453   9.732  0.1985  2.5995 -0.7952
  909MPD2     C13308   1.414   4.167  11.861 -0.4886 -0.5711 -0.6627
  909MPD2    C113309   1.378   4.296  11.818 -0.3925  0.3125 -0.1442
  909MPD2    C213310   1.270   4.354  11.874 -0.2345  0.3996  0.0369
  909MPD2    C313311   1.198   4.290  11.971 -0.3491 -1.5776 -0.6621
  909MPD2    C413312   1.235   4.165  12.015  0.2063 -0.0430 -0.2433
  909MPD2    C513313   1.340   4.106  11.957 -0.3236  0.1141 -0.3686
  909MPD2     H13314   1.242   4.451  11.835 -1.1340 -0.3725 -1.2383
  909MPD2    H113315   1.183   4.111  12.092 -1.9861  1.8693 -0.3712
  909MPD2    H213316   1.496   4.109  11.821  0.7257 -0.6953  2.0106
  909MPD2    H313317   1.360   4.002  11.978 -0.5915 -0.1417 -1.3742
  909MPD2     N13318   1.090   4.362  12.027  0.0261 -0.2082  0.0880
  909MPD2    H513319   1.072   4.451  11.980  0.2790  1.1785  2.6524
  909MPD2    N113320   1.452   4.366  11.722  0.6097 -0.1132  0.3554
  909MPD2    H713321   1.392   4.435  11.677  1.5201 -0.1952 -0.9811
  910MPD2     C13322   2.235   1.508  15.647 -0.0220  0.3827  0.4260
  910MPD2    C113323   2.349   1.475  15.575 -0.3072  0.0943 -0.2459
  910MPD2    C213324   2.374   1.531  15.452 -0.0800 -0.5020  0.2040
  910MPD2    C313325   2.286   1.617  15.392 -0.1532 -0.6300  1.5385
  910MPD2    C413326   2.172   1.649  15.469 -0.0579 -0.6273  0.1344
  910MPD2    C513327   2.157   1.597  15.594 -0.1850  0.1714 -0.3248
  910MPD2     H13328   2.463   1.510  15.394  0.2083  1.2196  0.0323
  910MPD2    H113329   2.111   1.733  15.439 -0.8942 -2.0256 -2.0980
  910MPD2    H213330   2.212   1.464  15.744 -1.1957  0.6300  0.2584
  910MPD2    H313331   2.075   1.639  15.651  0.0907 -0.3901  0.4856
  910MPD2     N13332   2.309   1.694  15.277 -0.2513 -0.0922  0.7233
  910MPD2    H513333   2.232   1.752  15.243  0.6157  0.6681  0.0429
  910MPD2    N113334   2.454   1.387  15.626 -0.1501  0.2432  0.0315
  910MPD2    H713335   2.531   1.371  15.562 -0.1600 -2.0775  0.6300
  911MPD2     C13336   0.436   1.970  16.437  0.4014 -0.3222 -0.4345
  911MPD2    C113337   0.529   2.068  16.477  0.4583 -0.0659  0.3025
  911MPD2    C213338   0.473   2.194  16.507  0.2057 -0.3768  0.0272
  911MPD2    C313339   0.342   2.219  16.475 -0.2973  0.1478 -0.7478
  911MPD2    C413340   0.259   2.128  16.423 -0.1016  0.6230 -0.0360
  911MPD2    C513341   0.303   2.002  16.405 -1.0445 -0.4547  0.5784
  911MPD2     H13342   0.537   2.273  16.544  0.6883 -1.2646  1.0850
  911MPD2    H113343   0.156   2.153  16.398  0.6357  1.2526 -2.4574
  911MPD2    H213344   0.478   1.877  16.401 -1.0923 -1.7961  1.6558
  911MPD2    H313345   0.235   1.931  16.361  0.4125 -0.0094 -2.3976
  911MPD2     N13346   0.283   2.348  16.485 -0.3075 -0.3570 -0.8340
  911MPD2    H513347   0.188   2.358  16.452 -0.2970  0.5106 -0.5811
  911MPD2    N113348   0.668   2.038  16.482  0.3127 -0.1191 -0.0435
  911MPD2    H713349   0.678   1.937  16.478  1.5222  0.0309 -0.9390
  912MPD2     C13350   0.101   2.277  15.968  0.4639 -0.1651  0.4388
  912MPD2    C113351   0.043   2.291  16.090 -0.7942 -0.1997  0.0780
  912MPD2    C213352   4.709   2.181  16.153 -0.0326 -0.6658 -0.1647
  912MPD2    C313353   0.003   2.054  16.099 -0.7370  0.4103  0.2836
  912MPD2    C413354   0.061   2.041  15.975 -0.1380  0.5838 -0.1151
  912MPD2    C513355   0.116   2.153  15.915 -0.2234 -0.0707 -1.1747
  912MPD2     H13356   4.650   2.195  16.243 -0.0557 -0.5554 -0.1974
  912MPD2    H113357   0.076   1.947  15.923 -0.8117  0.9985 -1.0619
  912MPD2    H213358   0.153   2.356  15.915 -0.9405  2.4108  2.8561
  912MPD2    H313359   0.175   2.140  15.825  0.6477  1.3100 -0.8031
  912MPD2     N13360   4.690   1.947  16.187  0.4595 -0.0561  0.6550
  912MPD2    H513361   4.662   1.970  16.282 -1.7476  1.4895 -0.3706
  912MPD2    N113362   0.056   2.417  16.153 -0.0798  0.3925 -0.4586
  912MPD2    H713363   0.093   2.496  16.100  0.3494  0.5387  0.0661
  913MPD2     C13364   0.860   2.760  10.059 -0.3995 -0.3506  0.4017
  913MPD2    C113365   0.933   2.869  10.094  0.9552 -0.0134  0.0881
  913MPD2    C213366   0.912   2.983  10.014 -0.2252  0.2011  0.0861
  913MPD2    C313367   0.826   2.981   9.910  0.1835  0.1480 -0.6672
  913MPD2    C413368   0.777   2.863   9.868  0.0961  0.3274  0.3946
  913MPD2    C513369   0.791   2.754   9.944 -0.2105 -0.1162  0.0507
  913MPD2     H13370   0.971   3.071  10.036  0.9934 -0.9358  1.5047
  913MPD2    H113371   0.723   2.862   9.774  1.5132 -1.5143 -0.4105
  913MPD2    H213372   0.869   2.676  10.127  0.8641 -0.1164  0.5271
  913MPD2    H313373   0.743   2.659   9.922  0.5606 -0.3538 -0.5939
  913MPD2     N13374   0.802   3.087   9.821 -0.2846 -0.1663  0.5476
  913MPD2    H513375   0.751   3.061   9.738 -0.3268 -0.5066  0.6807
  913MPD2    N113376   1.028   2.862  10.202  0.0625  0.3387 -0.6781
  913MPD2    H713377   1.038   2.770  10.242 -0.7701 -0.1043 -1.4938
  914MPD2     C13378   3.304   3.042  11.822  0.2123 -0.0936 -0.2853
  914MPD2    C113379   3.345   3.170  11.849  0.1691  0.2496 -0.4378
  914MPD2    C213380   3.417   3.193  11.965  0.1059 -0.0482  1.2256
  914MPD2    C313381   3.457   3.094  12.044  0.2190 -0.1586 -0.0944
  914MPD2    C413382   3.438   2.963  12.005  0.2379  0.5432 -0.3286
  914MPD2    C513383   3.355   2.942  11.899  0.2380 -0.3110  0.5440
  914MPD2     H13384   3.444   3.294  11.997  1.6732 -0.0107 -0.1909
  914MPD2    H113385   3.495   2.879  12.043  0.9124  1.3680  0.4913
  914MPD2    H213386   3.250   3.022  11.731 -2.0681  2.9135  0.3797
  914MPD2    H313387   3.343   2.838  11.872 -2.5604  0.6414 -1.7605
  914MPD2     N13388   3.553   3.129  12.140 -0.7787 -0.6260  0.6090
  914MPD2    H513389   3.581   3.226  12.144 -2.4779 -0.1754  1.2678
  914MPD2    N113390   3.301   3.264  11.748  0.0854 -0.3322  0.0605
  914MPD2    H713391   3.237   3.239  11.673  0.5624 -1.1263 -0.0828
  915MPD2     C13392   1.956   3.455  15.490  0.4898  0.1299  0.4665
  915MPD2    C113393   1.838   3.414  15.524 -0.2429  0.3204  0.2062
  915MPD2    C213394   1.781   3.457  15.644 -0.0387 -0.4446 -0.0796
  915MPD2    C313395   1.846   3.545  15.729 -0.2753 -0.2606 -0.6153
  915MPD2    C413396   1.980   3.576  15.696 -0.0243  0.1887  0.8387
  915MPD2    C513397   2.033   3.531  15.579 -0.0503 -0.5713 -0.2443
  915MPD2     H13398   1.680   3.433  15.672 -0.5881 -0.4320 -2.0759
  915MPD2    H113399   2.035   3.643  15.761  0.3373  0.3915  0.3247
  915MPD2    H213400   2.001   3.426  15.396 -1.0346 -1.3911  0.2118
  915MPD2    H313401   2.137   3.554  15.557 -0.2992  1.1259  0.3914
  915MPD2     N13402   1.774   3.601  15.838  0.6111  0.0427 -0.1574
  915MPD2    H513403   1.679   3.569  15.851  0.5485  0.5012  0.4889
  915MPD2    N113404   1.769   3.345  15.423 -0.3104  1.0638 -0.7176
  915MPD2    H713405   1.808   3.356  15.330  1.9576 -0.1406  0.1105
  916MPD2     C13406   4.436   1.720  15.563 -0.3298 -0.6828 -0.1001
  916MPD2    C113407   4.394   1.678  15.684  0.1638 -0.6668 -0.5271
  916MPD2    C213408   4.346   1.550  15.696  0.3373 -0.4399 -0.3173
  916MPD2    C313409   4.339   1.459  15.598  0.3164 -0.1000 -0.1551
  916MPD2    C413410   4.399   1.492  15.479 -0.2978 -0.0067  0.0275
  916MPD2    C513411   4.441   1.620  15.463  0.6831 -0.0420  0.0970
  916MPD2     H13412   4.300   1.517  15.788  0.8740 -1.7315 -0.5137
  916MPD2    H113413   4.396   1.422  15.397  0.2614 -0.3406  0.2938
  916MPD2    H213414   4.442   1.826  15.539 -0.2934 -0.8155 -0.6741
  916MPD2    H313415   4.464   1.652  15.362  0.1383  0.6446  0.1942
  916MPD2     N13416   4.283   1.332  15.629  0.2054 -0.0518 -0.0063
  916MPD2    H513417   4.250   1.314  15.723 -0.2958 -0.7498 -0.3211
  916MPD2    N113418   4.393   1.771  15.786  0.3674 -0.3033  0.4384
  916MPD2    H713419   4.416   1.866  15.758 -0.0204 -0.2345  0.3503
  917MPD2     C13420   0.169   3.908  10.725 -0.4838  0.0536  0.2446
  917MPD2    C113421   0.205   3.936  10.852  1.0869 -1.0030 -0.0630
  917MPD2    C213422   0.249   4.065  10.879  0.3324  0.1796  0.1910
  917MPD2    C313423   0.246   4.170  10.786  0.3547  0.0100  0.3397
  917MPD2    C413424   0.202   4.135  10.660 -0.5074 -0.0738 -0.1284
  917MPD2    C513425   0.159   4.006  10.627  0.2998  0.2077 -0.1520
  917MPD2     H13426   0.249   4.095  10.983 -0.6386 -0.3608  0.3523
  917MPD2    H113427   0.200   4.208  10.579  0.6799 -0.5540 -0.5805
  917MPD2    H213428   0.134   3.810  10.696 -0.4141  0.0705  0.1028
  917MPD2    H313429   0.119   3.989  10.527  0.4461  0.0654 -0.1857
  917MPD2     N13430   0.285   4.302  10.820 -0.4756  0.8509  0.1962
  917MPD2    H513431   0.257   4.376  10.757  2.0684  0.8311 -0.9573
  917MPD2    N113432   0.206   3.835  10.944  0.4575  0.1552 -0.0126
  917MPD2    H713433   0.163   3.749  10.910  3.3338 -1.4690  0.5108
  918MPD2     C13434   0.373   4.239  11.766 -0.9254  0.0453  0.0529
  918MPD2    C113435   0.473   4.148  11.716  0.4105 -0.3821 -0.2606
  918MPD2    C213436   0.441   4.033  11.644 -0.3005  0.4557 -0.4632
  918MPD2    C313437   0.305   4.009  11.620 -0.5732 -0.2272 -0.5490
  918MPD2    C413438   0.212   4.099  11.673  0.2238  0.4807 -0.3495
  918MPD2    C513439   0.246   4.220  11.736  0.3947 -0.3684 -0.1891
  918MPD2     H13440   0.516   3.966  11.606 -0.2454  0.0612  0.3399
  918MPD2    H113441   0.108   4.076  11.654  0.3349 -2.4771  2.7346
  918MPD2    H213442   0.386   4.326  11.830 -0.5799  0.0961 -0.0851
  918MPD2    H313443   0.170   4.292  11.765 -2.4262 -2.9780 -1.1513
  918MPD2     N13444   0.271   3.898  11.539  0.4114 -0.2112 -0.4557
  918MPD2    H513445   0.347   3.851  11.492  1.2205  1.7875 -1.1287
  918MPD2    N113446   0.611   4.166  11.748  0.1306  0.0450 -0.0214
  918MPD2    H713447   0.672   4.090  11.721 -1.3794 -0.3495 -2.3206
  919MPD2     C13448   0.586   2.995  11.416 -0.2897  0.0596 -0.1275
  919MPD2    C113449   0.576   2.863  11.395  0.2713 -0.7495  0.0613
  919MPD2    C213450   0.611   2.821  11.269  0.9455  1.1095  0.0778
  919MPD2    C313451   0.657   2.906  11.169  0.2676 -0.3341  0.2645
  919MPD2    C413452   0.672   3.042  11.196 -0.1929  0.0243 -0.0085
  919MPD2    C513453   0.626   3.079  11.315 -0.3490  0.1698  0.9853
  919MPD2     H13454   0.605   2.716  11.244  2.1737  1.0523  0.0600
  919MPD2    H113455   0.698   3.112  11.118 -2.7217 -0.0873 -0.9582
  919MPD2    H213456   0.554   3.035  11.512  2.5875  0.0340  0.8407
  919MPD2    H313457   0.639   3.185  11.332  3.5626  0.2341 -2.3610
  919MPD2     N13458   0.685   2.854  11.038  0.2992  0.2378 -0.3924
  919MPD2    H513459   0.733   2.914  10.972  0.0804 -1.3287 -1.9903
  919MPD2    N113460   0.528   2.776  11.492  0.6352  0.2915  0.4639
  919MPD2    H713461   0.518   2.682  11.457  1.9126 -0.0177  0.9163
  920MPD2     C13462   0.677   3.239  10.175 -0.0551 -0.0523 -0.2453
  920MPD2    C113463   0.577   3.139  10.175  0.0857  0.4311  1.2249
  920MPD2    C213464   0.592   3.024  10.255  0.2896 -0.1802  0.2549
  920MPD2    C313465   0.690   3.017  10.354 -0.3237  0.1567  0.3295
  920MPD2    C413466   0.788   3.119  10.353  0.0379 -0.2292  0.3134
  920MPD2    C513467   0.779   3.225  10.271  0.7633  0.4101  0.3922
  920MPD2     H13468   0.525   2.940  10.242  1.6440 -1.3132  0.6485
  920MPD2    H113469   0.873   3.118  10.421  0.5130 -0.3778 -0.2841
  920MPD2    H213470   0.685   3.319  10.103  1.9632 -0.9988 -1.0700
  920MPD2    H313471   0.857   3.300  10.272  1.8008 -0.6647 -1.2973
  920MPD2     N13472   0.689   2.904  10.434  0.3423  0.4812 -0.3287
  920MPD2    H513473   0.618   2.836  10.412  0.3014  0.0145  1.2827
  920MPD2    N113474   0.463   3.144  10.088 -0.1196 -0.2085  0.0646
  920MPD2    H713475   0.397   3.067  10.099  0.3806 -0.5594  0.6343
  921MPD2     C13476   1.532   2.450  16.688  0.3991  0.8074 -0.5185
  921MPD2    C113477   1.534   2.345  16.601  0.9727  0.7162  0.9844
  921MPD2    C213478   1.431   2.254  16.603 -0.6703  0.1805 -0.0858
  921MPD2    C313479   1.328   2.276  16.691 -0.0416  0.9830 -0.0310
  921MPD2    C413480   1.332   2.376  16.786 -0.0126  0.2198  0.5117
  921MPD2    C513481   1.434   2.466  16.784  0.3802 -0.1234 -0.6123
  921MPD2     H13482   1.425   2.173  16.531 -0.3801 -0.3384  0.4736
  921MPD2    H113483   1.255   2.390  16.861 -0.8640  1.1478 -0.5242
  921MPD2    H213484   1.618   2.515  16.703  0.0213  1.1592  0.1433
  921MPD2    H313485   1.436   2.557  16.842  0.4469 -0.0895 -0.6681
  921MPD2     N13486   1.222   2.186  16.711  0.2251  0.7122  0.1352
  921MPD2    H513487   1.132   2.214  16.749 -1.1152  0.8059 -3.0861
  921MPD2    N113488   1.651   2.331  16.512  0.1477 -0.6803 -0.4489
  921MPD2    H713489   1.723   2.402  16.516  0.0360 -0.6505  0.9963
  922MPD2     C13490   2.962   0.307  16.490  0.6438 -0.1887 -0.0863
  922MPD2    C113491   3.002   0.234  16.596  0.2405  0.0874  0.9240
  922MPD2    C213492   2.945   0.243  16.724 -0.4945 -0.8825 -0.1546
  922MPD2    C313493   2.841   0.328  16.735 -0.3142 -0.0639  0.3902
  922MPD2    C413494   2.793   0.391  16.623  0.5279  0.1092  0.3408
  922MPD2    C513495   2.849   0.383  16.504  0.0371 -0.3188  0.2541
  922MPD2     H13496   2.985   0.196  16.813 -0.0157 -0.2999 -0.0663
  922MPD2    H113497   2.692   0.427  16.637  0.2273 -0.7068  0.2871
  922MPD2    H213498   3.011   0.301  16.393  0.6965  3.1169 -0.2578
  922MPD2    H313499   2.805   0.438  16.422  0.1090 -0.1156  0.3524
  922MPD2     N13500   2.791   0.344  16.868 -0.2745 -1.1721 -0.2315
  922MPD2    H513501   2.837   0.293  16.943  1.0327 -2.6447 -2.0513
  922MPD2    N113502   3.118   0.154  16.590 -0.2425  0.1019  0.0259
  922MPD2    H713503   3.143   0.102  16.673 -0.0057 -1.0196 -0.7418
  923MPD2     C13504   3.079   2.051   8.759  0.3390 -0.3462  0.1185
  923MPD2    C113505   3.158   2.141   8.832  0.0402  0.6213  0.4417
  923MPD2    C213506   3.288   2.110   8.861  0.6175  0.3909 -0.5085
  923MPD2    C313507   3.349   1.995   8.803  0.6140  0.1273  0.1116
  923MPD2    C413508   3.272   1.909   8.734 -0.1037  0.1631 -0.6607
  923MPD2    C513509   3.141   1.935   8.705 -0.1776  0.4860 -0.1315
  923MPD2     H13510   3.343   2.165   8.936 -0.8581 -0.6551  1.3359
  923MPD2    H113511   3.326   1.828   8.686  0.9486 -0.1161  1.0080
  923MPD2    H213512   2.972   2.069   8.749  0.1986 -0.8237  0.7691
  923MPD2    H313513   3.084   1.871   8.639 -2.5144  2.1410  0.2899
  923MPD2     N13514   3.476   1.957   8.829 -0.2076  0.0600 -0.2948
  923MPD2    H513515   3.514   1.875   8.783  2.5939  1.6296 -0.7816
  923MPD2    N113516   3.093   2.251   8.892  0.2912  0.3155 -0.5083
  923MPD2    H713517   2.992   2.244   8.895  0.3605 -0.7935 -0.9125
  924MPD2     C13518   3.799   0.872  15.430  0.0878  0.0844  0.8907
  924MPD2    C113519   3.675   0.816  15.419  0.3651 -0.9715 -0.0968
  924MPD2    C213520   3.565   0.897  15.389  0.5104 -0.5302 -0.4128
  924MPD2    C313521   3.584   1.035  15.378 -0.2560  0.0759  0.1524
  924MPD2    C413522   3.707   1.091  15.401 -0.1814  0.5706 -0.3402
  924MPD2    C513523   3.819   1.007  15.425 -0.4919 -0.3518 -0.2887
  924MPD2     H13524   3.471   0.844  15.380  0.5949 -0.3528 -2.4117
  924MPD2    H113525   3.722   1.197  15.388  1.1898  0.2066 -1.8278
  924MPD2    H213526   3.887   0.815  15.458  0.5603  1.1614  1.6071
  924MPD2    H313527   3.917   1.052  15.439 -1.6049  1.4089  1.8359
  924MPD2     N13528   3.479   1.123  15.348 -0.1103 -0.1633  0.3324
  924MPD2    H513529   3.496   1.221  15.370  0.0281 -0.0764 -0.1731
  924MPD2    N113530   3.660   0.687  15.460 -0.0099  0.0037 -0.0451
  924MPD2    H713531   3.727   0.639  15.520  0.1606 -1.2659 -1.2396
  925MPD2     C13532   2.912   2.433  14.470 -0.2699  0.2789 -0.1699
  925MPD2    C113533   2.776   2.417  14.455  0.2528 -0.5567  0.4901
  925MPD2    C213534   2.689   2.383  14.564  0.2281  0.8236  0.0973
  925MPD2    C313535   2.744   2.378  14.687 -0.1524 -0.3794  0.2109
  925MPD2    C413536   2.875   2.403  14.704 -0.1620 -0.5635  0.0251
  925MPD2    C513537   2.956   2.423  14.598  0.2165  0.0630  0.0394
  925MPD2     H13538   2.583   2.367  14.543 -0.1169  0.0339  2.5004
  925MPD2    H113539   2.920   2.416  14.802 -2.5754  0.3042  1.0084
  925MPD2    H213540   2.982   2.456  14.390  0.1651  2.6189  0.8913
  925MPD2    H313541   3.058   2.445  14.629  1.1592 -1.3701 -1.9877
  925MPD2     N13542   2.672   2.334  14.803 -1.0214  0.0907  0.6032
  925MPD2    H513543   2.720   2.293  14.883  0.0226 -2.1245 -1.1626
  925MPD2    N113544   2.720   2.418  14.331 -0.1686  0.5005 -0.4466
  925MPD2    H713545   2.632   2.367  14.322  2.7816 -4.7999  0.7509
  926MPD2     C13546   1.053   0.799  13.080  0.1239  0.3366  0.3820
  926MPD2    C113547   0.941   0.842  13.012 -0.2083 -0.7887 -0.1318
  926MPD2    C213548   0.952   0.937  12.915 -0.2814  0.4871  0.2457
  926MPD2    C313549   1.071   1.013  12.897  0.1872  0.4586  0.4946
  926MPD2    C413550   1.186   0.967  12.965  0.8231  0.0587 -0.0748
  926MPD2    C513551   1.174   0.856  13.047 -0.5139 -0.1834  0.3080
  926MPD2     H13552   0.869   0.968  12.852  0.2186 -1.4389 -1.3814
  926MPD2    H113553   1.282   1.017  12.957  0.0890  1.3020 -1.1118
  926MPD2    H213554   1.054   0.714  13.148  1.7866 -1.5180 -1.9699
  926MPD2    H313555   1.263   0.811  13.089 -1.9403 -2.3326  1.0606
  926MPD2     N13556   1.079   1.128  12.815  0.6444 -0.7457 -0.1131
  926MPD2    H513557   1.169   1.175  12.809  0.0469  0.4972  0.6299
  926MPD2    N113558   0.815   0.787  13.044  0.3955 -0.1153  0.3518
  926MPD2    H713559   0.735   0.828  12.998  2.2694  2.0430 -0.9468
  927MPD2     C13560   0.868   3.284   0.309 -0.3867 -0.8712  0.8370
  927MPD2    C113561   0.943   3.401   0.288  0.3852  1.1302  0.2026
  927MPD2    C213562   1.073   3.382   0.231 -1.0084  0.2737 -0.3750
  927MPD2    C313563   1.121   3.261   0.194  0.0213 -0.5814 -0.2555
  927MPD2    C413564   1.044   3.151   0.225 -0.0070 -0.1950 -0.3520
  927MPD2    C513565   0.923   3.164   0.287 -0.1582  0.0618  0.5551
  927MPD2     H13566   1.140   3.464   0.210 -2.0977  1.3744  0.3759
  927MPD2    H113567   1.071   3.051   0.194 -0.0003  0.3485 -2.0774
  927MPD2    H213568   0.768   3.288   0.350 -1.1632  3.6846 -1.4824
  927MPD2    H313569   0.862   3.078   0.312  0.4772  0.0338  2.0193
  927MPD2     N13570   1.244   3.259   0.126 -0.0093  0.5342 -0.2006
  927MPD2    H513571   1.290   3.350   0.127  0.1159  0.4652  0.3498
  927MPD2    N113572   0.888   3.529   0.318  0.3360 -0.0761  0.5128
  927MPD2    H713573   0.791   3.526   0.345  0.2318  2.6962  0.5166
  928MPD2     C13574   4.227   1.862   1.606  0.0119 -0.6840  0.3978
  928MPD2    C113575   4.140   1.969   1.625  0.0160 -0.1713 -0.1085
  928MPD2    C213576   4.093   2.037   1.514 -0.8699 -0.2605  0.1021
  928MPD2    C313577   4.141   2.006   1.392  0.0385 -0.4866  0.0848
  928MPD2    C413578   4.232   1.902   1.375 -0.4081 -0.0449  0.0596
  928MPD2    C513579   4.269   1.827   1.480 -0.4858 -0.0232 -0.2900
  928MPD2     H13580   4.018   2.115   1.527  3.2243  3.3509  2.2845
  928MPD2    H113581   4.269   1.884   1.275  0.5391 -0.0925  0.4205
  928MPD2    H213582   4.251   1.798   1.690  1.6103  0.0233  0.4885
  928MPD2    H313583   4.341   1.747   1.463  0.7749  1.0833 -0.2008
  928MPD2     N13584   4.092   2.064   1.277 -0.1613  0.1712  0.5312
  928MPD2    H513585   4.137   2.032   1.192 -3.8439 -0.0163 -1.3640
  928MPD2    N113586   4.098   1.999   1.758  0.4011  0.1347 -0.1264
  928MPD2    H713587   4.117   1.939   1.838 -1.1309  0.1757  0.2610
  929MPD2     C13588   3.963   1.705  10.188  0.6101  0.8237 -0.4218
  929MPD2    C113589   3.886   1.588  10.172 -0.2089 -0.1040 -0.4939
  929MPD2    C213590   3.832   1.562  10.048  0.3484 -0.0821  0.4896
  929MPD2    C313591   3.847   1.650   9.938  0.5033  0.3329  1.0385
  929MPD2    C413592   3.918   1.767   9.956 -1.1397 -0.1241 -0.5340
  929MPD2    C513593   3.974   1.788  10.081 -0.6034  0.6452 -0.3892
  929MPD2     H13594   3.758   1.483  10.041 -1.4776  1.8118 -1.7781
  929MPD2    H113595   3.933   1.841   9.879 -4.2176  1.5439  0.4823
  929MPD2    H213596   4.021   1.730  10.276  0.0913  0.8259 -0.0778
  929MPD2    H313597   4.046   1.869  10.093  2.2903 -2.0074  0.0824
  929MPD2     N13598   3.775   1.631   9.819  1.0491  0.3951 -0.0870
  929MPD2    H513599   3.782   1.694   9.740  0.2051  2.0541  1.1665
  929MPD2    N113600   3.872   1.501  10.282  0.7961 -0.4889 -0.2478
  929MPD2    H713601   3.921   1.533  10.365 -0.1493 -3.5041  1.5081
  930MPD2     C13602   1.206   3.387  13.750  0.2787  0.0856  0.4872
  930MPD2    C113603   1.134   3.510  13.729 -0.4495  0.9654  0.0882
  930MPD2    C213604   1.057   3.516  13.611 -0.8195 -0.6495  0.3704
  930MPD2    C313605   1.061   3.418  13.519 -0.3350 -0.2238 -0.5254
  930MPD2    C413606   1.125   3.297  13.546 -0.4242  0.0102  0.6997
  930MPD2    C513607   1.198   3.286  13.659  0.1600 -0.2016 -0.2298
  930MPD2     H13608   1.005   3.609  13.594  0.0408 -0.5763 -1.7927
  930MPD2    H113609   1.129   3.219  13.472 -0.4773  0.2095  0.4885
  930MPD2    H213610   1.267   3.383  13.840  1.4097  1.3050 -0.2200
  930MPD2    H313611   1.245   3.189  13.675 -0.4697 -0.4433  0.1268
  930MPD2     N13612   0.981   3.427  13.392 -0.5890  0.0541 -0.6357
  930MPD2    H513613   1.001   3.354  13.324 -0.9183 -0.9642  0.3516
  930MPD2    N113614   1.148   3.619  13.816 -0.0449  0.0826 -0.2023
  930MPD2    H713615   1.176   3.597  13.911 -0.6718  0.1353 -0.0008
  931MPD2     C13616   0.739   4.275   0.793  0.3971  0.2539  0.5348
  931MPD2    C113617   0.816   4.165   0.779 -0.3801 -0.3943 -0.1902
  931MPD2    C213618   0.880   4.109   0.889 -0.6464 -0.0446 -0.9670
  931MPD2    C313619   0.824   4.145   1.013  0.5089  0.1516  0.5978
  931MPD2    C413620   0.746   4.256   1.026  0.5072  0.5865 -0.0182
  931MPD2    C513621   0.700   4.324   0.918 -0.4544 -0.4260 -0.3515
  931MPD2     H13622   0.939   4.018   0.892  2.5560  2.1100  1.5752
  931MPD2    H113623   0.694   4.278   1.118  4.2812 -1.0442  2.5190
  931MPD2    H213624   0.705   4.333   0.708 -0.6840  3.8686  3.4775
  931MPD2    H313625   0.647   4.417   0.937  0.3497 -0.4363  1.8986
  931MPD2     N13626   0.843   4.078   1.137  0.5377 -0.2465  0.3186
  931MPD2    H513627   0.786   4.114   1.212  0.5731 -2.2065  1.2881
  931MPD2    N113628   0.818   4.115   0.648  0.0498  0.0964  0.4166
  931MPD2    H713629   0.761   4.163   0.579  1.1655 -0.5239 -0.9468
  932MPD2     C13630   2.104   2.950  10.804  0.0441  0.1369  0.4405
  932MPD2    C113631   2.187   2.844  10.791  0.6047 -0.2226 -0.5822
  932MPD2    C213632   2.142   2.712  10.797 -0.4665 -0.1803  0.4882
  932MPD2    C313633   2.004   2.691  10.816  0.1319  0.2880 -0.2494
  932MPD2    C413634   1.915   2.801  10.832  0.6599 -0.6339 -0.3039
  932MPD2    C513635   1.973   2.924  10.816  0.3081  0.0057 -0.8014
  932MPD2     H13636   2.213   2.631  10.787 -0.1047 -0.1509  2.9745
  932MPD2    H113637   1.811   2.785  10.855  0.9913 -0.8630  1.0257
  932MPD2    H213638   2.135   3.054  10.806 -2.4120  0.8709  0.5553
  932MPD2    H313639   1.907   3.011  10.821  1.7763  1.0222  0.9791
  932MPD2     N13640   1.959   2.559  10.830  0.2717 -0.0275  0.3982
  932MPD2    H513641   1.875   2.544  10.885 -0.3344  1.2389 -0.1504
  932MPD2    N113642   2.326   2.859  10.798  0.1236 -0.0094 -0.4061
  932MPD2    H713643   2.389   2.780  10.795  2.3065  1.6937  0.3328
  933MPD2     C13644   3.680   2.197   2.555  0.6811  0.0606 -0.1816
  933MPD2    C113645   3.657   2.220   2.421  0.0185 -0.5329 -0.1194
  933MPD2    C213646   3.528   2.257   2.380  1.1120 -0.2946 -0.3093
  933MPD2    C313647   3.423   2.263   2.478 -0.2608  0.7465 -0.1529
  933MPD2    C413648   3.454   2.260   2.610  0.2831 -0.4640 -0.6242
  933MPD2    C513649   3.586   2.226   2.643  0.5853  0.8774 -0.2167
  933MPD2     H13650   3.518   2.267   2.272  2.5586  0.6986 -0.3455
  933MPD2    H113651   3.383   2.281   2.689 -0.6318 -1.3386 -1.2039
  933MPD2    H213652   3.777   2.170   2.595  0.7313 -1.7335 -1.5267
  933MPD2    H313653   3.606   2.222   2.750  0.7419  0.2120 -0.2702
  933MPD2     N13654   3.296   2.287   2.426  0.4242  0.3183 -0.5833
  933MPD2    H513655   3.288   2.279   2.325  0.6638 -1.2073 -0.4726
  933MPD2    N113656   3.768   2.207   2.336 -0.0691 -0.1506  0.3912
  933MPD2    H713657   3.854   2.216   2.390  1.2639  1.8085 -2.0726
  934MPD2     C13658   4.013   0.001   1.835  0.4242 -0.5543  0.7453
  934MPD2    C113659   4.127   4.665   1.766 -0.0011 -0.4299  0.6475
  934MPD2    C213660   4.095   4.554   1.698  0.8160 -1.0714 -0.1971
  934MPD2    C313661   3.972   4.490   1.691  0.3413 -0.2992  0.1000
  934MPD2    C413662   3.866   4.553   1.761  0.4375 -0.7190  0.4434
  934MPD2    C513663   3.889   4.672   1.827 -0.6665 -0.2326  0.2414
  934MPD2     H13664   4.182   4.510   1.651  1.4763 -0.7661  0.7426
  934MPD2    H113665   3.765   4.517   1.750  0.3845 -0.7881  1.1612
  934MPD2    H213666   4.026   0.098   1.882  0.1420 -0.4407  0.5892
  934MPD2    H313667   3.801   4.720   1.869 -1.0305  0.5122 -1.3969
  934MPD2     N13668   3.934   4.374   1.621 -0.6006 -0.3852  0.4933
  934MPD2    H513669   3.841   4.335   1.633  0.1663 -1.8744  1.6793
  934MPD2    N113670   4.255   4.718   1.760 -0.0662 -0.4830  0.0032
  934MPD2    H713671   4.326   4.668   1.706  1.2206 -1.2586  2.4232
  935MPD2     C13672   4.490   3.770   1.052 -1.2221  0.5073  0.0568
  935MPD2    C113673   4.363   3.714   1.040  0.4906  1.3030 -0.4628
  935MPD2    C213674   4.250   3.779   1.090  0.2102 -0.9731 -0.3201
  935MPD2    C313675   4.260   3.906   1.146  1.1332 -0.2165  0.5490
  935MPD2    C413676   4.385   3.964   1.159 -0.0978 -0.0103 -0.1012
  935MPD2    C513677   4.502   3.893   1.124  0.3052  0.9789 -0.3096
  935MPD2     H13678   4.157   3.724   1.093  0.2909 -1.0271  1.1808
  935MPD2    H113679   4.398   4.063   1.200  1.9669 -0.8889  1.3480
  935MPD2    H213680   4.577   3.725   1.006 -0.9040  0.5087  0.6547
  935MPD2    H313681   4.595   3.946   1.131  0.6801  0.2686  0.1100
  935MPD2     N13682   4.157   3.989   1.191 -0.2789  0.0519  0.0578
  935MPD2    H513683   4.183   4.086   1.203 -0.6431  0.1870 -0.2557
  935MPD2    N113684   4.341   3.589   0.983 -0.6585 -0.0116 -0.1637
  935MPD2    H713685   4.243   3.563   0.978 -0.7243  0.7640 -2.8221
  936MPD2     C13686   2.674   1.394  12.105 -0.1252  0.3020 -0.1901
  936MPD2    C113687   2.758   1.289  12.114 -0.4995 -0.0689  0.0725
  936MPD2    C213688   2.867   1.274  12.033  0.2286 -0.4765 -0.7927
  936MPD2    C313689   2.903   1.372  11.944 -0.0569  0.1587 -0.0571
  936MPD2    C413690   2.831   1.488  11.941 -0.7750  0.6783  0.0419
  936MPD2    C513691   2.711   1.493  12.014  0.1888  0.2897  0.7061
  936MPD2     H13692   2.917   1.179  12.049  0.9351 -0.0726 -0.5945
  936MPD2    H113693   2.864   1.569  11.876 -0.6432  2.0280  1.7906
  936MPD2    H213694   2.599   1.421  12.179 -0.1449  0.2178 -0.1802
  936MPD2    H313695   2.666   1.591  12.009  1.4086  0.7333 -1.7527
  936MPD2     N13696   3.022   1.372  11.869  0.2971 -0.4921 -0.2408
  936MPD2    H513697   3.046   1.450  11.809 -2.4477  0.5481 -0.0184
  936MPD2    N113698   2.747   1.189  12.210  0.4854 -0.6118 -0.2868
  936MPD2    H713699   2.816   1.114  12.218  0.9231 -0.3091 -1.2688
  937MPD2     C13700   0.809   2.192  11.575  0.0440 -0.4434  0.4211
  937MPD2    C113701   0.852   2.314  11.621 -0.1380 -0.3800 -0.3723
  937MPD2    C213702   0.970   2.368  11.560  0.4668 -0.0129 -0.3161
  937MPD2    C313703   1.037   2.306  11.459  0.1431 -0.7535 -0.6932
  937MPD2    C413704   0.997   2.178  11.421  0.7366 -0.1691 -0.5049
  937MPD2    C513705   0.880   2.130  11.476 -0.4054 -0.4811 -0.3694
  937MPD2     H13706   0.988   2.468  11.597 -4.8512  0.2359  1.6879
  937MPD2    H113707   1.047   2.128  11.340  1.2320  1.4377 -1.2004
  937MPD2    H213708   0.716   2.140  11.599 -0.8392  2.6173  3.5835
  937MPD2    H313709   0.849   2.029  11.453 -1.3344 -0.0589 -0.9793
  937MPD2     N13710   1.134   2.388  11.390  0.6739  0.0457 -0.0961
  937MPD2    H513711   1.157   2.475  11.437  0.3741 -0.2278  0.5590
  937MPD2    N113712   0.766   2.409  11.676 -0.7218 -0.2751  0.9468
  937MPD2    H713713   0.801   2.505  11.676  0.5226 -0.7229 -1.3409
  938MPD2     C13714   3.198   3.469   0.925 -0.2332 -0.9948 -0.7045
  938MPD2    C113715   3.197   3.601   0.947 -0.3322  0.0168 -0.3705
  938MPD2    C213716   3.138   3.655   1.059  0.1879  0.6265  0.1068
  938MPD2    C313717   3.089   3.565   1.153 -0.4458 -0.1469  0.2828
  938MPD2    C413718   3.094   3.433   1.129 -0.1894 -0.2679 -0.0411
  938MPD2    C513719   3.151   3.380   1.019  0.4934  0.7586 -0.2010
  938MPD2     H13720   3.138   3.762   1.070 -0.4088  0.6428 -0.0519
  938MPD2    H113721   3.064   3.359   1.202  0.4160  1.0920  1.5920
  938MPD2    H213722   3.243   3.422   0.838  0.9766 -0.4161 -0.4048
  938MPD2    H313723   3.150   3.272   1.009  2.0632  0.7517 -0.2362
  938MPD2     N13724   3.025   3.611   1.270 -0.1509  0.0301 -1.0590
  938MPD2    H513725   3.005   3.541   1.341  0.3519  1.0840  0.1214
  938MPD2    N113726   3.274   3.690   0.866  0.1297  0.1238 -0.1089
  938MPD2    H713727   3.293   3.778   0.913  0.1718  0.3651 -0.5725
  939MPD2     C13728   0.171   0.306   1.060 -0.0148 -1.1013  0.0757
  939MPD2    C113729   0.072   0.249   0.978 -0.0078 -0.3298  0.4356
  939MPD2    C213730   0.116   0.212   0.851 -0.6172 -0.3678 -0.1060
  939MPD2    C313731   0.250   0.209   0.811  0.8575 -0.3097  0.3525
  939MPD2    C413732   0.341   0.263   0.897  0.3962  0.4610 -1.0559
  939MPD2    C513733   0.300   0.314   1.018 -0.5363  0.8452 -0.0988
  939MPD2     H13734   0.048   0.164   0.782  0.5625  1.7278 -2.7066
  939MPD2    H113735   0.446   0.280   0.874  0.5817 -0.4783 -0.8781
  939MPD2    H213736   0.149   0.358   1.152  0.1671  0.9165 -1.0262
  939MPD2    H313737   0.367   0.360   1.090 -0.2014  0.7732 -0.3658
  939MPD2     N13738   0.275   0.157   0.678  0.1915 -0.2777  0.2560
  939MPD2    H513739   0.194   0.125   0.626 -0.6137  1.6218  0.3131
  939MPD2    N113740   4.657   0.258   1.005  0.7169 -0.1583  0.1372
  939MPD2    H713741   4.642   0.301   1.096  2.4075  0.5877  0.0738
  940MPD2     C13742   3.663   0.615  12.565 -0.3471  0.8233 -0.2754
  940MPD2    C113743   3.659   0.739  12.627 -0.5956 -0.3847 -0.2356
  940MPD2    C213744   3.727   0.849  12.569  0.6921  0.0158  0.6569
  940MPD2    C313745   3.791   0.836  12.450 -0.3606  0.6998 -0.4658
  940MPD2    C413746   3.783   0.712  12.388 -0.1910 -0.3044 -0.3960
  940MPD2    C513747   3.716   0.605  12.440 -0.4824  0.4129  0.3235
  940MPD2     H13748   3.725   0.945  12.619  0.6336  0.7821 -0.8310
  940MPD2    H113749   3.837   0.692  12.296  1.6691  3.6520 -0.1661
  940MPD2    H213750   3.607   0.527  12.596 -0.8026  1.0058 -0.5730
  940MPD2    H313751   3.694   0.515  12.383  1.1239 -0.0013  0.3627
  940MPD2     N13752   3.836   0.940  12.369 -0.2321 -0.2637 -0.6397
  940MPD2    H513753   3.865   0.916  12.275  0.7763 -0.2847 -0.3233
  940MPD2    N113754   3.577   0.747  12.747 -0.0391 -1.1020  0.2231
  940MPD2    H713755   3.519   0.665  12.764 -0.7846 -0.6313 -0.0263
  941MPD2     C13756   2.542   0.281   9.425  0.4456  0.4389  0.1181
  941MPD2    C113757   2.642   0.259   9.514  0.5959  0.0854 -0.5674
  941MPD2    C213758   2.628   0.149   9.590 -0.0655 -0.8833  0.3753
  941MPD2    C313759   2.525   0.064   9.580 -0.8016  0.5701 -0.0855
  941MPD2    C413760   2.410   0.104   9.511 -0.3388 -0.7358  0.0050
  941MPD2    C513761   2.424   0.213   9.431 -0.0906  1.0052 -0.3579
  941MPD2     H13762   2.714   0.129   9.653  0.7050 -1.5053 -0.8774
  941MPD2    H113763   2.329   0.036   9.488  0.1039 -0.6232 -1.9059
  941MPD2    H213764   2.547   0.363   9.355  2.1241  0.9737  0.8680
  941MPD2    H313765   2.342   0.248   9.370  0.0143  1.4721 -0.2314
  941MPD2     N13766   2.540   4.656   9.623 -0.0053  0.6990 -0.1437
  941MPD2    H513767   2.456   4.599   9.632  0.1722  0.3826 -0.5007
  941MPD2    N113768   2.757   0.332   9.519 -0.4568 -0.4345 -0.2778
  941MPD2    H713769   2.815   0.301   9.595  0.7323  0.8356 -0.6564
  942MPD2     C13770   2.762   2.227   9.287 -0.2365 -0.1992 -0.6820
  942MPD2    C113771   2.715   2.138   9.195 -0.2216 -0.1585  0.5491
  942MPD2    C213772   2.798   2.041   9.142  0.4939  0.4389 -1.0816
  942MPD2    C313773   2.928   2.034   9.181  0.1845  0.6737 -0.0132
  942MPD2    C413774   2.976   2.117   9.283 -0.0144  0.8521  0.1152
  942MPD2    C513775   2.894   2.222   9.325  0.5165 -0.4750 -0.3792
  942MPD2     H13776   2.759   1.959   9.082 -2.1915 -0.1721  1.4982
  942MPD2    H113777   3.065   2.090   9.339 -0.0688 -0.0312 -0.2181
  942MPD2    H213778   2.695   2.286   9.348 -0.6077 -1.3842  0.0479
  942MPD2    H313779   2.932   2.288   9.403  0.0627 -0.1345 -0.4464
  942MPD2     N13780   3.022   1.935   9.144 -0.4309  0.1412  0.2938
  942MPD2    H513781   3.110   1.933   9.194 -0.2995 -0.2810  0.0429
  942MPD2    N113782   2.581   2.126   9.170 -0.1102  0.0529 -0.0467
  942MPD2    H713783   2.553   2.056   9.102  1.3711 -1.4596  0.9061
  943MPD2     C13784   1.314   0.192   9.419 -0.1266 -0.5184 -0.2538
  943MPD2    C113785   1.252   0.116   9.520  0.0220 -0.4748  0.1241
  943MPD2    C213786   1.272   0.149   9.653 -0.7674  0.1867 -0.5136
  943MPD2    C313787   1.343   0.266   9.697  0.5157  0.7408 -0.2621
  943MPD2    C413788   1.411   0.331   9.596 -0.6564  0.4999  0.2069
  943MPD2    C513789   1.403   0.295   9.463 -0.0176 -0.4949  0.3293
  943MPD2     H13790   1.213   0.104   9.732  1.3610  1.0674  1.5752
  943MPD2    H113791   1.467   0.422   9.614  0.9294 -0.2914 -0.7027
  943MPD2    H213792   1.313   0.160   9.316  2.0251 -1.8748  0.1363
  943MPD2    H313793   1.469   0.352   9.400 -0.2584 -1.2257 -0.5880
  943MPD2     N13794   1.353   0.310   9.835  0.2045 -0.2888 -0.2693
  943MPD2    H513795   1.413   0.391   9.851  1.2011 -0.7833 -1.4691
  943MPD2    N113796   1.187   4.720   9.485 -0.3118 -0.3430 -0.2645
  943MPD2    H713797   1.165   4.702   9.387 -1.5705  0.0496 -0.0533
  944MPD2     C13798   1.100   3.261  10.460  0.7966 -0.1167  0.1704
  944MPD2    C113799   1.158   3.376  10.401  0.4799  0.0197  0.0565
  944MPD2    C213800   1.182   3.485  10.482  0.0916  0.0985 -0.1087
  944MPD2    C313801   1.176   3.477  10.619  0.1665 -0.8591  0.4018
  944MPD2    C413802   1.120   3.366  10.678 -0.9150 -0.5332  0.0507
  944MPD2    C513803   1.080   3.263  10.596  0.7427 -0.1414 -0.1694
  944MPD2     H13804   1.234   3.569  10.437  0.7225  0.3569  1.1090
  944MPD2    H113805   1.109   3.353  10.785  1.0933  1.1614  0.4598
  944MPD2    H213806   1.065   3.176  10.403  2.8491 -1.0121  0.2466
  944MPD2    H313807   1.034   3.172  10.635 -1.2239  1.4058  1.1474
  944MPD2     N13808   1.223   3.588  10.691  0.0672 -0.4594 -0.2095
  944MPD2    H513809   1.267   3.661  10.636  0.3985 -0.6496 -0.1933
  944MPD2    N113810   1.176   3.379  10.257  0.3950 -0.1435 -0.8075
  944MPD2    H713811   1.158   3.291  10.210 -0.1501 -0.6400  0.3386
    1TCq1    O113812   4.699   4.434  13.812 -0.6480 -0.2231 -0.7479
    1TCq1    C113813   4.580   4.427  13.882  0.2607  1.1207 -0.0196
    1TCq1    O213814   4.468   4.468  13.859 -0.1901  0.2441  0.0219
    1TCq1    C213815   4.628   4.432  14.019  1.0131 -0.8746  0.7135
    1TCq1    C313816   4.688   4.317  14.069  0.3095 -0.5204  0.5765
    1TCq1    C413817   4.723   4.319  14.202  0.2872  0.8773  0.0746
    1TCq1    C513818   4.693   4.428  14.277 -0.1257  0.0219  0.1525
    1TCq1    C613819   4.632   4.537  14.226  0.4649 -0.1640 -0.1957
    1TCq1    C713820   4.603   4.545  14.098  0.0656 -0.3849 -0.3926
    1TCq1    C813821   4.586   4.637  14.322 -0.4786 -0.2982  0.6134
    1TCq1    O413822   4.620   4.622  14.440  0.3711  0.0864 -0.2095
    1TCq1    C913823   0.049   4.194  14.269  0.7505  0.3503  0.0138
    1TCq1    O513824   0.090   4.204  14.385  0.5805 -0.1824 -0.2879
    1TCq1    O613825   0.049   4.089  14.198 -0.0835  0.2986 -0.4631
    1TCq1    H113826   0.056   4.421  13.867 -0.2146  0.8504 -1.1395
    1TCq1    H213827   4.695   4.232  14.002  0.8776  1.0511 -1.3638
    1TCq1    H313828   4.699   4.417  14.385 -1.3423 -0.0498  0.2177
    1TCq1    H413829   4.546   4.622  14.048 -0.2202 -0.0709  0.4171
    2MPD2     C13830   4.495   0.408  14.411  0.3431 -0.1645  0.2380
    2MPD2    C113831   4.453   0.380  14.288  0.0762  0.3228 -0.5873
    2MPD2    C213832   4.459   0.247  14.242  0.5783  0.2261 -0.0307
    2MPD2    C313833   4.512   0.150  14.320  0.4780  0.1972  0.2993
    2MPD2    C413834   4.556   0.182  14.449 -0.0551  0.8268 -0.3763
    2MPD2    C513835   4.536   0.307  14.497 -0.0950 -1.2571 -0.6175
    2MPD2     H13836   4.421   0.226  14.143  0.8945  2.7327 -0.6982
    2MPD2    H113837   4.602   0.111  14.517 -1.7937 -0.6726 -0.7574
    2MPD2    H213838   4.496   0.511  14.447  1.1229  0.4804 -1.6249
    2MPD2    H313839   4.570   0.331  14.597  0.2213  0.5003 -1.1393
    2MPD2     N13840   4.526   0.021  14.265 -0.3026  0.1025 -0.0172
    2MPD2    H513841   4.516   0.006  14.165  1.1526 -2.9239  0.2536
    2MPD2    N113842   4.410   0.490  14.209 -0.3822  0.2322 -0.0399
    2MPD2    H713843   4.394   0.573  14.266 -0.5201  0.0623  0.1705
    3TMC2    C113844   4.347   0.623  14.024 -0.4006 -0.1980  0.0656
    3TMC2    C213845   4.398   0.731  14.084 -0.5543 -0.2317  0.7820
    3TMC2    C313846   4.408   0.850  14.015 -0.5733  0.1547  0.1133
    3TMC2    C413847   4.323   0.622  13.889 -0.2227  0.1128 -0.3717
    3TMC2    C513848   4.329   0.741  13.822  0.1715 -0.2722 -0.1394
    3TMC2    C613849   4.354   0.859  13.887 -0.3526 -0.8187 -0.4243
    3TMC2     C13850   4.386   0.490  14.075  0.1046 -0.3369 -1.0220
    3TMC2     O13851   4.363   0.392  14.005  0.4918  0.4182  0.4759
    3TMC2     H13852   4.451   0.722  14.179 -0.2939  1.0925  0.7534
    3TMC2    H113853   4.295   0.529  13.840 -0.5521  0.9706 -1.8108
    3TMC2    H213854   4.346   0.955  13.836 -0.9348  0.4590  2.0806
    3TMC2    C713855   4.284   0.736  13.682 -0.4753 -0.5300  0.8406
    3TMC2    C813856   4.473   0.963  14.076 -0.0458 -0.0139 -0.4429
    3TMC2    O113857   4.295   0.627  13.628  0.0495  0.7903  0.6554
    3TMC2    O213858   4.493   0.966  14.196 -0.5227 -0.0541  0.4681
    3TMC2    O513859   4.536   1.038  13.984 -0.1860  0.3988  0.3910
    3TMC2    H513860   4.526   1.004  13.892  1.0101 -0.4309  0.5709
    4MPD2     C13861   3.138   1.069  12.968 -0.6983 -0.2044  0.0469
    4MPD2    C113862   3.215   1.169  12.901 -0.3189  0.4542  0.0114
    4MPD2    C213863   3.325   1.221  12.965  0.5085  0.0303 -0.2449
    4MPD2    C313864   3.375   1.156  13.081  0.7020 -0.0975 -0.5499
    4MPD2    C413865   3.302   1.048  13.136  0.5803 -0.4073 -0.2763
    4MPD2    C513866   3.183   1.012  13.083  0.1240  0.3497 -0.0703
    4MPD2     H13867   3.381   1.302  12.920  1.7541 -0.0093  1.2062
    4MPD2    H113868   3.348   0.990  13.215 -0.7185 -0.9246  0.0843
    4MPD2    H213869   3.050   1.023  12.924 -0.3229 -0.7504 -0.1370
    4MPD2    H313870   3.130   0.932  13.134  0.2537 -0.3990 -1.1276
    4MPD2     N13871   3.487   1.220  13.148 -0.0010  0.5597  0.3865
    4MPD2    H513872   3.527   1.297  13.096  0.6407 -1.2409 -1.7468
    4MPD2    N113873   3.165   1.217  12.780  0.0526  0.1127  0.2345
    4MPD2    H713874   3.082   1.180  12.736  0.5122 -0.8761  0.2005
    5TCq2    C113875   3.544   1.184  13.268 -0.9089  0.5578 -0.0487
    5TCq2    O213876   3.526   1.084  13.337 -0.1360 -0.1679  0.1540
    5TCq2    C213877   3.658   1.274  13.301 -0.6129  0.2882  0.1798
    5TCq2    C313878   3.673   1.382  13.221 -0.2005  0.1182  0.2542
    5TCq2    C413879   3.785   1.458  13.237 -0.9388 -0.4703 -0.5465
    5TCq2    C513880   3.887   1.430  13.324  0.7480  0.2920 -0.4207
    5TCq2    C613881   3.868   1.317  13.400 -0.3169 -0.5063 -0.2944
    5TCq2    C713882   3.750   1.239  13.397  0.1980  0.1595 -0.9291
    5TCq2    C813883   3.987   1.239  13.424  0.1566 -0.1668  0.6079
    5TCq2    O413884   4.080   1.283  13.492  0.4610  0.6538 -0.3965
    5TCq2    C913885   3.795   1.582  13.158  0.0596  0.2208 -0.4848
    5TCq2    O513886   3.703   1.612  13.079  0.0076 -0.0276  0.1685
    5TCq2    O613887   3.900   1.644  13.166 -0.2980 -0.8483  0.5788
    5TCq2    H213888   3.601   1.429  13.155 -1.2453 -0.6752  0.8403
    5TCq2    H313889   3.977   1.491  13.318 -0.5730  1.9861 -3.1525
    5TCq2    H413890   3.758   1.137  13.430  2.0972 -0.2102 -2.4814
    6MPD1     C13891   2.564   3.060  12.368  0.7252 -0.1329  0.9189
    6MPD1    C113892   2.575   2.979  12.256 -0.1035  0.3878 -0.0363
    6MPD1    C213893   2.649   2.866  12.263 -0.7824  0.1978 -0.1452
    6MPD1    C313894   2.713   2.830  12.379 -0.6469 -0.5716  0.0786
    6MPD1    C413895   2.718   2.918  12.483 -0.0046 -0.3385 -0.3851
    6MPD1    C513896   2.642   3.035  12.475 -0.3785  0.2696 -0.1822
    6MPD1     H13897   2.641   2.797  12.179  2.2476  0.9931 -1.0971
    6MPD1    H113898   2.774   2.894  12.573  2.4198 -0.5688 -1.9661
    6MPD1    H213899   2.510   3.154  12.364  0.2380 -0.4136  0.8336
    6MPD1    H313900   2.642   3.098  12.563  0.1966 -1.0453  0.7565
    6MPD1     N13901   2.754   2.698  12.397  0.1447  0.9616 -0.1870
    6MPD1    H513902   2.766   2.672  12.495  0.1724  0.3149 -0.3594
    6MPD1    N113903   2.490   3.003  12.153  0.1299  0.3352 -0.3136
    6MPD1    H613904   2.483   3.104  12.155  0.3498  0.3671 -1.1717
    6MPD1    H713905   2.540   2.998  12.064 -1.4632 -1.2741 -1.1145
    7MPD2     C13906   2.799   2.006  12.798 -0.1200 -0.0573 -0.5327
    7MPD2    C113907   2.796   1.981  12.667  0.1652 -0.7540 -0.0798
    7MPD2    C213908   2.823   1.854  12.628 -0.5016  0.3339  0.2339
    7MPD2    C313909   2.840   1.747  12.711  0.3713  0.5539 -0.2271
    7MPD2    C413910   2.847   1.774  12.846  0.4085 -0.5018 -0.2584
    7MPD2    C513911   2.813   1.902  12.887 -0.4111  0.2328  0.3789
    7MPD2     H13912   2.824   1.842  12.520 -0.1477 -1.6828  0.4581
    7MPD2    H113913   2.871   1.688  12.907 -0.2608 -2.0480 -2.1388
    7MPD2    H213914   2.795   2.105  12.841 -0.1627  0.3079 -1.3808
    7MPD2    H313915   2.818   1.931  12.991 -0.2415  0.0106  0.4314
    7MPD2     N13916   2.869   1.618  12.661 -0.2043  0.2861 -0.3604
    7MPD2    H513917   2.905   1.552  12.729  0.9784 -0.7451 -1.9916
    7MPD2    N113918   2.792   2.080  12.569 -0.4185 -0.0484 -0.1216
    7MPD2    H713919   2.800   2.040  12.477  0.4434  3.0724 -1.4054
    8TMC3    C113920   2.950   1.451  12.506  0.4748  0.5123 -0.2950
    8TMC3    C213921   3.012   1.392  12.617 -0.5785  0.0325 -0.4470
    8TMC3    C313922   3.142   1.351  12.594  0.3319  0.5329  0.3069
    8TMC3    C413923   3.007   1.454  12.382  0.2724 -0.2030  0.2577
    8TMC3    C513924   3.144   1.424  12.366  0.5337 -0.2533  0.7276
    8TMC3    C613925   3.212   1.369  12.475 -0.0997  0.0943 -0.6139
    8TMC3     C13926   2.891   1.584  12.528  0.2757  0.5197  0.4146
    8TMC3     O13927   2.896   1.655  12.430  0.4175 -0.2428  0.0241
    8TMC3     H13928   2.962   1.401  12.712 -0.9459  1.8247 -0.8189
    8TMC3    H113929   2.950   1.478  12.293 -2.9289 -1.1456  2.0753
    8TMC3    H213930   3.312   1.330  12.460  0.0334  0.0224  0.5267
    8TMC3    C713931   3.217   1.519  12.292  0.3160 -0.1371 -0.5610
    8TMC3    C813932   3.228   1.311  12.710 -0.1244  0.3075 -1.2072
    8TMC3    O113933   3.337   1.506  12.278 -0.2384 -0.7895 -0.2437
    8TMC3    O213934   3.345   1.353  12.709 -0.0151 -0.2968  0.1464
    9TMC3    C113935   2.852   2.488  12.358  0.6276 -0.3289 -1.1907
    9TMC3    C213936   2.945   2.439  12.275 -0.5152  0.2832  0.2384
    9TMC3    C313937   2.983   2.312  12.296 -0.2206  0.6396  0.1247
    9TMC3    C413938   2.788   2.413  12.456 -0.5573 -0.3320  0.0767
    9TMC3    C513939   2.836   2.289  12.479 -0.2635  0.1130  0.3035
    9TMC3    C613940   2.927   2.232  12.397 -0.0307 -0.2025  0.0560
    9TMC3     C13941   2.788   2.606  12.294 -0.0425  0.3153 -0.2665
    9TMC3     O13942   2.810   2.620  12.175  0.5225  0.0514 -0.2807
    9TMC3     H13943   2.993   2.502  12.200  0.0732 -0.3204  0.1065
    9TMC3    H113944   2.708   2.455  12.515  0.2190  0.8807  0.2432
    9TMC3    H213945   2.963   2.134  12.426 -2.6841 -1.0655  0.3942
    9TMC3    C713946   2.790   2.216  12.592  0.0576  0.7311 -0.1020
    9TMC3    C813947   3.071   2.239  12.212  0.3729 -0.1745 -0.4617
    9TMC3    O113948   2.754   2.280  12.692 -0.3356 -0.4379 -0.8412
    9TMC3    O213949   3.136   2.299  12.125 -0.0728 -0.0255 -0.1591
   10MPD2     C13950   3.330   1.796  12.222  0.9581  0.3846 -0.5704
   10MPD2    C113951   3.192   1.768  12.245  0.1534 -0.0009  0.1583
   10MPD2    C213952   3.099   1.870  12.237  0.1349  0.1084 -0.1272
   10MPD2    C313953   3.138   1.998  12.202  1.2631 -0.3885  0.0537
   10MPD2    C413954   3.269   2.024  12.178  0.2179  0.5618 -0.3998
   10MPD2    C513955   3.363   1.922  12.189  0.4248  0.2793 -0.1360
   10MPD2     H13956   2.994   1.855  12.261  0.2324  0.3667  0.4608
   10MPD2    H113957   3.306   2.122  12.152  2.1693  0.9854  3.8547
   10MPD2    H213958   3.408   1.722  12.232  0.4523 -0.0190  0.3530
   10MPD2    H313959   3.468   1.940  12.172  0.5437 -0.4507 -0.1732
   10MPD2     N13960   3.047   2.104  12.217 -0.2296  0.1950 -0.7287
   10MPD2    H513961   2.952   2.088  12.250 -0.1142 -1.0986 -1.0538
   10MPD2    N113962   3.144   1.637  12.281 -0.2995 -0.0490  0.5392
   10MPD2    H713963   3.044   1.625  12.299 -1.0852 -0.2337 -4.1680
   11MPD2     C13964   4.213   0.791  13.401  0.3532  0.0432  0.6326
   11MPD2    C113965   4.189   0.877  13.508  0.4679 -0.0814 -0.3457
   11MPD2    C213966   4.124   0.996  13.481  0.0639 -0.2787 -0.4403
   11MPD2    C313967   4.075   1.025  13.356  0.1899  1.1997  0.1544
   11MPD2    C413968   4.088   0.933  13.251 -0.2379 -0.9381 -0.8230
   11MPD2    C513969   4.159   0.817  13.277  0.4878 -0.2057 -0.6266
   11MPD2     H13970   4.118   1.068  13.562  0.2355  0.5842 -1.1946
   11MPD2    H113971   4.056   0.961  13.152 -0.1766 -0.9402 -0.8435
   11MPD2    H213972   4.258   0.693  13.409 -0.3029 -0.3616 -0.7958
   11MPD2    H313973   4.183   0.757  13.190  0.8290  1.3630 -1.6210
   11MPD2     N13974   3.993   1.140  13.327  0.8223 -0.0563 -0.5437
   11MPD2    H513975   3.931   1.137  13.247 -0.0647  2.6115  0.0422
   11MPD2    N113976   4.234   0.850  13.639  0.6189  0.1681  0.4102
   11MPD2    H713977   4.249   0.922  13.709 -0.6737 -0.4249  1.3012
    1MPD1     C13978   1.617   2.196  17.148  0.0178  0.0862  0.0631
    1MPD1    C113979   1.685   2.285  17.223 -0.1237 -0.2627  0.0212
    1MPD1    C213980   1.777   2.363  17.148 -0.0893  0.3099  0.1740
    1MPD1    C313981   1.816   2.318  17.018 -0.2808  0.2155 -0.0726
    1MPD1    C413982   1.757   2.213  16.951  0.8596  0.6344  1.3356
    1MPD1    C513983   1.648   2.167  17.017 -0.1374 -0.0739  0.3883
    1MPD1     H13984   1.814   2.454  17.193 -0.1073  0.4799 -0.1532
    1MPD1    H113985   1.779   2.193  16.847  0.0506  1.6784  0.9716
    1MPD1    H213986   1.524   2.150  17.181  1.1716 -1.1282  1.6640
    1MPD1    H313987   1.584   2.098  16.962  0.6656  0.2398 -0.9401
    1MPD1     N13988   1.911   2.391  16.936 -0.7119  0.2127 -0.4875
    1MPD1    H513989   1.932   2.331  16.857 -0.5962 -2.3239  1.4682
    1MPD1    N113990   1.648   2.326  17.356 -0.2436 -0.3353 -0.1013
    1MPD1    H613991   1.714   2.384  17.407  1.0308 -1.1500 -0.8399
    1MPD1    H713992   1.609   2.251  17.412 -0.4176  0.3810  0.7375
    2MPD1     C13993   2.540   3.173  17.113 -0.8604  1.0864  0.1916
    2MPD1    C113994   2.482   3.074  17.191  0.4087 -0.6764  0.5483
    2MPD1    C213995   2.411   2.973  17.130  0.4561  0.6834  0.2319
    2MPD1    C313996   2.406   2.977  16.992 -0.2474  0.0916 -0.3584
    2MPD1    C413997   2.468   3.077  16.907 -0.4211  0.2551  0.1009
    2MPD1    C513998   2.534   3.175  16.974 -0.0327 -0.5420  0.3785
    2MPD1     H13999   2.361   2.896  17.188  3.2938 -2.0594 -0.9899
    2MPD1    H114000   2.471   3.067  16.799 -0.4551  3.0670 -0.1478
    2MPD1    H214001   2.579   3.257  17.169 -0.9428  1.4103 -0.2344
    2MPD1    H314002   2.580   3.259  16.923 -1.9191 -0.1636 -0.6635
    2MPD1     N14003   2.318   2.872  16.944 -0.0651 -0.2873 -0.3157
    2MPD1    H514004   2.269   2.830  17.022  0.8505 -3.0570 -1.2291
    2MPD1    N114005   2.469   3.093  17.324 -0.1757 -0.9115  0.3885
    2MPD1    H614006   2.564   3.111  17.356  0.4473 -2.2683 -0.7290
    2MPD1    H714007   2.454   3.002  17.367 -0.3990 -1.8200 -1.6408
    3TMC3    C114008   2.193   2.734  16.789 -0.0135  0.0866 -0.1141
    3TMC3    C214009   2.173   2.705  16.653  0.2430 -0.3779 -0.2754
    3TMC3    C314010   2.087   2.602  16.623  0.3736 -0.3342  0.2409
    3TMC3    C414011   2.125   2.680  16.890 -0.2989  0.4041  0.0443
    3TMC3    C514012   2.047   2.575  16.859 -0.0035 -0.6751 -0.4691
    3TMC3    C614013   2.018   2.542  16.730  0.0105 -0.2347 -0.1354
    3TMC3     C14014   2.283   2.852  16.813 -0.7606  0.6307 -0.3420
    3TMC3     O14015   2.323   2.911  16.712 -0.0805  0.2476  0.2447
    3TMC3     H14016   2.242   2.746  16.581  1.6659  0.5166  1.5976
    3TMC3    H114017   2.143   2.707  16.994  1.2271  1.9142 -0.6154
    3TMC3    H214018   1.948   2.461  16.713 -1.4549  0.6612  1.5756
    3TMC3    C714019   1.981   2.503  16.966 -0.1537  0.0445  0.0100
    3TMC3    C814020   2.058   2.544  16.496 -0.1701 -0.0058 -0.7675
    3TMC3    O114021   1.989   2.561  17.077  0.2062 -0.4298 -0.2148
    3TMC3    O214022   1.945   2.501  16.474 -0.3416  0.5607 -0.1123
    4MPD1     C14023   2.179   2.437  16.002 -0.1529 -0.5518 -0.3812
    4MPD1    C114024   2.296   2.443  16.082  0.0570 -0.5279  0.4450
    4MPD1    C214025   2.281   2.484  16.215 -0.0086 -0.4829 -0.3368
    4MPD1    C314026   2.152   2.498  16.272  0.3629 -0.3422 -0.3707
    4MPD1    C414027   2.039   2.470  16.196 -0.2809 -0.1058  0.3075
    4MPD1    C514028   2.057   2.455  16.061  0.1518  0.4561 -0.2804
    4MPD1     H14029   2.369   2.515  16.271 -0.5669 -1.3825  1.0256
    4MPD1    H114030   1.941   2.477  16.243 -0.7598 -0.2160 -0.6757
    4MPD1    H214031   2.192   2.414  15.897 -0.5034 -0.0630 -0.5288
    4MPD1    H314032   1.969   2.456  15.998 -1.2625 -0.1326  1.6848
    4MPD1     N14033   2.157   2.551  16.409  0.1573  0.1567 -0.4229
    4MPD1    H514034   2.254   2.567  16.434 -0.0576  0.1502  0.4113
    4MPD1    N114035   2.422   2.453  16.021 -0.1640  0.3781 -0.3261
    4MPD1    H614036   2.500   2.430  16.083 -1.5730 -1.7170  0.6676
    4MPD1    H714037   2.433   2.391  15.941  1.0984  0.1024  0.0621
    1TCq1    O114038   2.824   2.239  11.983  0.3856  0.7596  0.2246
    1TCq1    C114039   2.814   2.119  11.922  0.4535  0.2181  0.3082
    1TCq1    O214040   2.751   2.025  11.967  0.2710 -0.1567  0.0614
    1TCq1    C214041   2.841   2.136  11.778 -0.6071  0.0360 -0.4873
    1TCq1    C314042   2.816   2.017  11.718 -0.1997 -0.8703 -0.5669
    1TCq1    C414043   2.782   2.013  11.589  0.1145  0.0404  0.4430
    1TCq1    C514044   2.728   2.123  11.540  0.3837  0.3547  0.1959
    1TCq1    C614045   2.744   2.244  11.598 -0.4475  0.4373 -0.3543
    1TCq1    C714046   2.805   2.253  11.719 -0.1071 -0.0238 -0.5258
    1TCq1    C814047   2.719   2.365  11.520 -0.0467  0.0875  0.9398
    1TCq1    O414048   2.765   2.469  11.564  0.2123 -0.4255 -0.7007
    1TCq1    C914049   2.767   1.887  11.529  0.0972  0.8792  0.0157
    1TCq1    O514050   2.701   1.878  11.424 -0.4832 -0.7880  0.1173
    1TCq1    O614051   2.797   1.789  11.599  0.9164  0.0359  0.3678
    1TCq1    H114052   2.851   2.322  11.939  1.2446 -1.4347 -3.3805
    1TCq1    H214053   2.845   1.926  11.768  1.5299 -0.4875 -0.8763
    1TCq1    H314054   2.691   2.118  11.438 -0.9959  0.1572  0.7141
    1TCq1    H414055   2.830   2.350  11.762 -1.5573 -0.4509  1.2737
    2MPD1     C14056   2.500   2.610  11.132  0.4933  0.3561  0.6350
    2MPD1    C114057   2.469   2.476  11.115  0.1102 -0.6379 -0.2022
    2MPD1    C214058   2.508   2.390  11.214 -0.1231 -0.4261  0.1358
    2MPD1    C314059   2.585   2.438  11.319  0.3095 -0.0408  0.7638
    2MPD1    C414060   2.615   2.566  11.334 -0.2215  0.0483 -0.5058
    2MPD1    C514061   2.570   2.652  11.240 -0.2902 -0.5650  0.5165
    2MPD1     H14062   2.481   2.286  11.201  0.5747 -0.4695 -0.9855
    2MPD1    H114063   2.653   2.617  11.422 -1.1085 -0.5956  0.2463
    2MPD1    H214064   2.459   2.689  11.070 -1.9356  0.5278  2.4760
    2MPD1    H314065   2.588   2.757  11.257  0.3000 -1.0154  2.8200
    2MPD1     N14066   2.635   2.343  11.411  0.2943 -0.6147  0.1730
    2MPD1    H514067   2.608   2.249  11.384 -0.8384 -0.0668 -0.6007
    2MPD1    N114068   2.380   2.437  11.021 -0.3212 -0.1181 -0.2112
    2MPD1    H614069   2.380   2.499  10.940  3.7770 -0.7996 -0.7634
    2MPD1    H714070   2.403   2.346  10.982 -3.0655 -1.2276  0.8045
    1TCq1    O114071   1.570   0.052   1.136 -0.4714  0.3280  0.2419
    1TCq1    C114072   1.677   4.706   1.103  1.2763  0.2932  0.2555
    1TCq1    O214073   1.717   4.608   1.164 -0.3518  0.5659 -0.6138
    1TCq1    C214074   1.769   0.071   1.049 -0.0269  0.1943  0.0963
    1TCq1    C314075   1.772   0.204   1.077 -0.4852  0.2330 -0.3239
    1TCq1    C414076   1.876   0.278   1.021  0.3211 -0.2535  0.4094
    1TCq1    C514077   1.973   0.221   0.940  0.1401  0.4836  0.3364
    1TCq1    C614078   1.949   0.083   0.903 -0.0021 -0.2817  0.7809
    1TCq1    C714079   1.866   0.009   0.977  0.5800 -0.0724  0.2699
    1TCq1    C814080   2.036   0.023   0.806 -0.5038  0.2724 -0.2837
    1TCq1    O414081   1.987   4.665   0.727  0.3826 -0.2186  1.1121
    1TCq1    C914082   1.844   0.415   0.994 -0.2106  0.5122 -0.0555
    1TCq1    O514083   1.779   0.475   1.085 -0.1863 -0.1843 -0.0533
    1TCq1    O614084   1.909   0.473   0.903 -0.1557  0.6251  0.6513
    1TCq1    H114085   1.564   0.141   1.094 -1.0344 -0.0884 -0.5779
    1TCq1    H214086   1.690   0.267   1.111 -1.2968  0.4302 -2.6226
    1TCq1    H314087   2.027   0.287   0.873  1.4823 -0.1275  0.8021
    1TCq1    H414088   1.862   4.625   0.961  1.1029  0.7393 -5.3071
    2MPD1     C14089   2.487   4.695   0.599 -0.5460 -0.7304  0.1005
    2MPD1    C114090   2.502   0.015   0.728 -0.3018 -0.0089  0.0051
    2MPD1    C214091   2.387   0.058   0.785 -0.0574 -1.2887  0.6150
    2MPD1    C314092   2.265   0.054   0.728 -1.7000 -0.3677 -0.4980
    2MPD1    C414093   2.251   0.005   0.598  0.3525 -0.2036  0.4397
    2MPD1    C514094   2.365   4.701   0.530  0.2558 -0.0556 -0.4140
    2MPD1     H14095   2.395   0.101   0.885  1.3575  0.9407 -0.4623
    2MPD1    H114096   2.155   4.716   0.548  1.0856 -0.0926 -1.0140
    2MPD1    H214097   2.578   4.665   0.549 -0.2186 -1.4952  1.1413
    2MPD1    H314098   2.363   4.665   0.427 -2.3325  0.5524 -0.5653
    2MPD1     N14099   2.156   0.077   0.812  0.3514 -0.0180  0.6871
    2MPD1    H514100   2.182   0.123   0.899  1.2383  2.5007 -0.9446
    2MPD1    N114101   2.620   0.022   0.804 -0.5133  0.3185  0.3449
    2MPD1    H614102   2.704   0.038   0.749 -1.4971  0.6884 -1.0541
    2MPD1    H714103   2.620   0.059   0.899 -0.5887 -2.0980  1.2737
    1MPD1     C14104   3.995   2.114  12.077  0.9357  0.1607 -0.0739
    1MPD1    C114105   4.008   2.248  12.043  0.0548 -0.2166 -0.2949
    1MPD1    C214106   4.127   2.297  11.996 -0.3385  0.0872 -0.4303
    1MPD1    C314107   4.230   2.205  11.969  0.5300 -0.7245 -0.7046
    1MPD1    C414108   4.219   2.071  12.000 -0.2629  1.0098  0.3239
    1MPD1    C514109   4.103   2.029  12.062  0.4546 -0.5330  0.2889
    1MPD1     H14110   4.149   2.402  11.981 -0.1235 -0.1445 -1.7477
    1MPD1    H114111   4.302   2.006  11.975 -2.1043 -0.9329 -0.7411
    1MPD1    H214112   3.905   2.083  12.128  0.2424  3.1371  0.4848
    1MPD1    H314113   4.092   1.923  12.081  2.3920 -0.4570  1.8234
    1MPD1     N14114   4.342   2.270  11.920 -0.4870  0.5974  0.4116
    1MPD1    H514115   4.335   2.370  11.904 -1.7969  0.3239 -0.7531
    1MPD1    N114116   3.903   2.336  12.062  0.3230  0.0854 -0.3493
    1MPD1    H614117   3.901   2.408  11.989 -1.8794 -1.4117 -1.7604
    1MPD1    H714118   3.814   2.287  12.070  1.0152 -0.8015  1.6483
    2MPD1     C14119   4.057   2.932  10.074  0.5907 -0.1027 -0.0751
    2MPD1    C114120   4.182   2.890  10.111 -0.0219 -0.0836 -0.2456
    2MPD1    C214121   4.193   2.781  10.195 -0.3009 -0.5367  0.5462
    2MPD1    C314122   4.080   2.706  10.228  0.3979 -0.7866 -0.2579
    2MPD1    C414123   3.958   2.749  10.186 -0.0788  0.0610 -0.4347
    2MPD1    C514124   3.946   2.862  10.112  0.2782  0.1150 -0.3835
    2MPD1     H14125   4.285   2.748  10.241 -0.2007 -0.7936  0.1648
    2MPD1    H114126   3.866   2.692  10.196  0.0619  0.4091  3.0779
    2MPD1    H214127   4.048   3.014  10.004 -0.0829 -1.7460 -1.9089
    2MPD1    H314128   3.849   2.894  10.075  1.5679  2.4148 -1.8001
    2MPD1     N14129   4.078   2.602  10.326 -0.0840  0.1055  0.4858
    2MPD1    H514130   3.986   2.589  10.368 -0.1311  0.7095  0.5729
    2MPD1    N114131   4.293   2.969  10.080  0.0484 -0.2153  0.7609
    2MPD1    H614132   4.292   3.037  10.005  2.6352 -1.1162 -0.0908
    2MPD1    H714133   4.377   2.913  10.066 -0.8670 -1.6784  1.0650
    3MPD1     C14134   3.594   2.251  11.100  0.0360 -0.3020  0.3860
    3MPD1    C114135   3.701   2.157  11.095 -0.0342  0.5111  0.0626
    3MPD1    C214136   3.800   2.174  10.995  0.1999 -0.1314  0.4017
    3MPD1    C314137   3.806   2.293  10.929 -0.1879 -0.1035 -1.0623
    3MPD1    C414138   3.713   2.392  10.955  0.2066 -0.1944  0.1871
    3MPD1    C514139   3.604   2.366  11.035  0.4400  0.0042 -0.7133
    3MPD1     H14140   3.873   2.096  10.973  2.0258  0.9522  2.6719
    3MPD1    H114141   3.714   2.486  10.901 -0.3368  0.7504  1.8154
    3MPD1    H214142   3.514   2.231  11.170 -0.1326 -0.8034  0.0475
    3MPD1    H314143   3.533   2.444  11.062  2.2719  1.3104  0.3673
    3MPD1     N14144   3.919   2.305  10.835 -0.5115 -0.0698  0.3729
    3MPD1    H514145   3.993   2.235  10.837 -0.3712  0.0713  0.0531
    3MPD1    N114146   3.694   2.024  11.156  0.3154  0.3212  0.4584
    3MPD1    H614147   3.653   2.039  11.248  1.3723  2.1480  0.6455
    3MPD1    H714148   3.787   1.987  11.174  0.7582  0.7463 -0.9416
    4MPD2     C14149   4.655   2.745  11.445  0.0104 -0.0505  0.8672
    4MPD2    C114150   0.012   2.658  11.512 -0.1867 -0.6226 -0.1509
    4MPD2    C214151   0.127   2.619  11.435 -0.2022  0.8528  0.2824
    4MPD2    C314152   0.152   2.669  11.306 -1.1091  0.1349 -0.6230
    4MPD2    C414153   0.057   2.748  11.247  0.1104 -0.0546 -0.6068
    4MPD2    C514154   4.677   2.789  11.316  0.4255  0.2656  0.8426
    4MPD2     H14155   0.193   2.546  11.480  0.9508  0.3504 -2.1839
    4MPD2    H114156   0.066   2.776  11.142 -2.9712 -0.3787 -0.9507
    4MPD2    H214157   4.569   2.783  11.500  0.2887  0.4740  0.9396
    4MPD2    H314158   4.607   2.861  11.274 -1.5200 -1.9523  0.2620
    4MPD2     N14159   0.256   2.622  11.226  0.0328  0.6011  0.1479
    4MPD2    H514160   0.252   2.642  11.126  0.9185 -1.8257 -0.3725
    4MPD2    N114161   4.722   2.609  11.644  0.7025  0.5057 -0.0806
    4MPD2    H714162   0.080   2.568  11.689  0.4834  0.4610  0.2709
    5TMC3    C114163   4.623   2.545  11.835 -0.6267 -0.4674  0.6487
    5TMC3    C214164   4.525   2.454  11.859  0.1691  0.1495  0.6206
    5TMC3    C314165   4.567   2.325  11.891 -0.0810  0.1991 -0.1417
    5TMC3    C414166   0.035   2.512  11.855  0.1060 -0.0434  0.4504
    5TMC3    C514167   0.069   2.382  11.881 -0.6136 -0.2511 -0.5493
    5TMC3    C614168   4.697   2.292  11.908 -0.4248  0.2892 -0.0604
    5TMC3     C14169   4.606   2.621  11.714  0.0311  0.1559 -0.6297
    5TMC3     O14170   4.496   2.661  11.678 -0.0959  1.3279  0.0536
    5TMC3     H14171   4.427   2.488  11.827  0.1472 -1.1612 -0.7347
    5TMC3    H114172   0.107   2.593  11.854 -0.3691  0.3581 -1.7392
    5TMC3    H214173   0.001   2.188  11.917 -1.7092 -0.2120 -2.0124
    5TMC3    C714174   0.178   2.343  11.795 -0.1210 -1.0602 -0.4398
    5TMC3    C814175   4.469   2.216  11.909  0.6625 -0.6026 -0.4800
    5TMC3    O114176   0.219   2.438  11.726  0.1152 -0.1903 -0.2928
    5TMC3    O214177   4.506   2.098  11.936  0.2699 -0.3618 -0.2078
    6TMC3    C114178   4.166   2.441  10.478  0.2245 -0.4167  0.2327
    6TMC3    C214179   4.044   2.444  10.540  0.2103 -0.1901 -0.6209
    6TMC3    C314180   4.051   2.398  10.668 -0.0017 -0.1621 -0.5504
    6TMC3    C414181   4.282   2.396  10.527 -0.1776  0.8050  0.0227
    6TMC3    C514182   4.281   2.349  10.661 -0.2679 -0.2997  0.0122
    6TMC3    C614183   4.161   2.351  10.735  0.2847  0.4198  0.6708
    6TMC3     C14184   4.188   2.526  10.366  1.2416  0.0958  0.8205
    6TMC3     O14185   4.300   2.534  10.316  0.1585 -0.1343 -0.3832
    6TMC3     H14186   3.950   2.459  10.489 -0.1681 -0.2585  0.0591
    6TMC3    H114187   4.377   2.396  10.476 -3.2402  2.5418 -5.6794
    6TMC3    H214188   4.162   2.336  10.842 -0.7019  1.3968  0.8203
    6TMC3    C714189   4.400   2.301  10.722  0.7476 -0.4551 -0.5315
    6TMC3    C814190   3.928   2.409  10.748  0.5521 -0.0609 -0.0820
    6TMC3    O114191   4.507   2.343  10.671 -0.2804  0.3727 -0.0664
    6TMC3    O214192   3.856   2.493  10.691 -0.0340 -0.0935 -0.0045
    7MPD2     C14193   0.463   2.005  11.530  0.5744  0.0056 -0.4193
    7MPD2    C114194   0.436   2.140  11.508 -0.1724  0.3676  0.1337
    7MPD2    C214195   0.368   2.211  11.603 -0.5086  0.4948 -0.1494
    7MPD2    C314196   0.319   2.153  11.720 -0.1738  0.5350  0.2518
    7MPD2    C414197   0.342   2.021  11.745  0.7173 -0.3115 -0.3011
    7MPD2    C514198   0.416   1.951  11.650 -0.6294  0.5939  0.4579
    7MPD2     H14199   0.358   2.318  11.595 -0.9556  0.4854  0.2934
    7MPD2    H114200   0.299   1.974  11.833  0.2818 -0.7254 -0.7329
    7MPD2    H214201   0.512   1.940  11.459 -0.7862 -0.0259 -1.3269
    7MPD2    H314202   0.435   1.846  11.670 -1.1909  0.1855 -1.1902
    7MPD2     N14203   0.233   2.215  11.820  0.2387 -0.7135 -0.5399
    7MPD2    H514204   0.209   2.159  11.902 -1.8051  2.1295  0.7970
    7MPD2    N114205   0.453   2.201  11.381 -0.5105 -0.2406  0.5183
    7MPD2    H714206   0.424   2.298  11.379 -0.8004 -0.3394 -0.3183
    8TMC3    C114207   0.484   2.226  11.154 -0.6589 -0.7361  0.2170
    8TMC3    C214208   0.386   2.195  11.055  0.9176  0.3381 -0.4330
    8TMC3    C314209   0.312   2.293  10.997  0.0130 -0.3620 -0.3580
    8TMC3    C414210   0.494   2.356  11.192 -0.0546  0.0157 -0.2808
    8TMC3    C514211   0.404   2.447  11.161  0.4646 -0.1930 -0.2220
    8TMC3    C614212   0.321   2.416  11.051  0.1441  0.0257  0.7897
    8TMC3     C14213   0.490   2.134  11.267  0.2115 -0.2130 -0.0970
    8TMC3     O14214   0.500   2.015  11.248  0.3770  0.8314 -0.0048
    8TMC3     H14215   0.375   2.088  11.038 -0.8281  0.2797  1.0140
    8TMC3    H114216   0.565   2.381  11.271  0.3291 -1.3501 -0.1832
    8TMC3    H214217   0.261   2.496  11.007  1.2284  0.3225 -0.1467
    8TMC3    C714218   0.358   2.543  11.265 -0.5616 -0.0496 -0.5550
    8TMC3    C814219   0.177   2.276  10.951 -0.3605 -0.1736 -0.3052
    8TMC3    O114220   0.397   2.515  11.376  0.0779 -0.7162  0.6237
    8TMC3    O214221   0.127   2.364  10.883 -0.1506 -0.1849 -0.2972
    9MPD2     C14222   4.687   1.980  10.999 -0.6177 -0.3187 -0.4024
    9MPD2    C114223   4.720   2.109  10.953 -0.4623  0.1436 -0.6859
    9MPD2    C214224   4.627   2.186  10.881  0.4674  0.1282  0.0247
    9MPD2    C314225   4.498   2.132  10.868 -0.0710  0.1217  0.0243
    9MPD2    C414226   4.474   2.000  10.915 -0.2301  1.1885  0.1570
    9MPD2    C514227   4.568   1.921  10.978  0.7229  0.0493 -0.0510
    9MPD2     H14228   4.639   2.290  10.854  3.1578 -0.1932 -0.0020
    9MPD2    H114229   4.369   1.975  10.918  0.5035 -1.6490  2.4007
    9MPD2    H214230   0.046   1.934  11.052  0.0669  0.8633 -0.4237
    9MPD2    H314231   4.542   1.826  11.023  0.2502  0.9313  1.5518
    9MPD2     N14232   4.386   2.192  10.805  0.2279 -0.0466  0.4822
    9MPD2    H514233   4.295   2.146  10.808  1.3249 -2.2059  0.3234
    9MPD2    N114234   0.127   2.152  10.977  0.0212  0.1490 -0.1615
    9MPD2    H714235   0.191   2.086  11.021  0.2162 -0.6458 -1.6336
    1MPD1     C14236   0.329   1.259  17.437  0.3244  0.0219  0.3259
    1MPD1    C114237   0.354   1.132  17.387 -0.3390  0.0312 -0.1723
    1MPD1    C214238   0.355   1.119  17.249 -0.9232 -0.4150 -0.2036
    1MPD1    C314239   0.352   1.231  17.166 -0.2548 -0.4528  0.5091
    1MPD1    C414240   0.333   1.354  17.226 -0.6741 -0.2039  0.4125
    1MPD1    C514241   0.318   1.368  17.361 -0.3451 -0.7834  0.3262
    1MPD1     H14242   0.360   1.019  17.208 -2.4467 -0.2148 -0.9128
    1MPD1    H114243   0.335   1.439  17.158  1.6041 -0.7141 -0.1679
    1MPD1    H214244   0.332   1.267  17.545 -1.4193 -2.2504  0.5501
    1MPD1    H314245   0.303   1.465  17.409  0.7170 -0.7462  0.5955
    1MPD1     N14246   0.347   1.217  17.028  0.0376  0.1046 -0.1873
    1MPD1    H514247   0.352   1.306  16.981  0.8881  0.0077 -0.2919
    1MPD1    N114248   0.328   1.022  17.468  0.1107  0.5882  0.0382
    1MPD1    H614249   0.317   1.045  17.566 -2.6815 -0.7161  0.0513
    1MPD1    H714250   0.387   0.940  17.459 -0.4549  0.2265 -0.4161
    2MPD1     C14251   0.195   0.680  16.068 -0.3156  0.1837 -0.3243
    2MPD1    C114252   0.174   0.817  16.046  0.0752 -0.4065 -0.2287
    2MPD1    C214253   0.207   0.910  16.148  0.0206  0.0389 -0.1676
    2MPD1    C314254   0.250   0.859  16.271 -0.3821 -0.4267 -0.4250
    2MPD1    C414255   0.252   0.719  16.294  0.1907  0.7745  1.1218
    2MPD1    C514256   0.230   0.639  16.191  0.2597 -0.2887  0.4875
    2MPD1     H14257   0.202   1.016  16.128  0.4896 -0.1305 -1.1844
    2MPD1    H114258   0.268   0.677  16.392  0.1535  0.2379  0.9016
    2MPD1    H214259   0.183   0.614  15.983 -2.0411  1.1136 -0.8152
    2MPD1    H314260   0.239   0.531  16.204 -0.4699 -0.0030  3.4128
    2MPD1     N14261   0.280   0.956  16.369  0.3223  0.1447  0.5082
    2MPD1    H514262   0.271   1.052  16.338  0.1934 -0.3121 -0.8690
    2MPD1    N114263   0.143   0.865  15.913  0.1777 -0.4476 -0.0096
    2MPD1    H614264   0.083   0.805  15.857 -0.8729  0.6655 -0.0759
    2MPD1    H714265   0.102   0.958  15.912  0.9484 -0.1095 -0.3112
    3TCq2    C114266   0.308   0.923  16.498  0.2890 -0.0231  0.1863
    3TCq2    O214267   0.322   0.809  16.538  0.3871 -0.1651  0.6184
    3TCq2    C214268   0.310   1.043  16.587 -0.2619  0.5391 -0.0115
    3TCq2    C314269   0.274   1.165  16.539  0.4405  0.6134  0.2772
    3TCq2    C414270   0.245   1.263  16.623 -0.6294  0.2203 -0.1043
    3TCq2    C514271   0.277   1.243  16.758  0.0662 -0.3190  0.3941
    3TCq2    C614272   0.335   1.128  16.809 -0.1703  0.0447 -0.5679
    3TCq2    C714273   0.347   1.023  16.719  0.1897 -0.3730  0.7182
    3TCq2    C814274   0.345   1.104  16.949  0.4462  0.4041  0.0308
    3TCq2    O414275   0.337   0.982  16.984 -0.0240 -0.0623 -0.1415
    3TCq2    C914276   0.186   1.384  16.575  0.8088 -0.1805  0.2981
    3TCq2    O514277   0.150   1.394  16.457 -0.0336 -0.1235  0.5502
    3TCq2    O614278   0.170   1.479  16.662 -0.1908  0.6359 -0.0990
    3TCq2    H214279   0.241   1.184  16.438  1.3732 -0.3738 -0.2205
    3TCq2    H314280   0.259   1.328  16.823 -0.1385 -0.8191  0.9929
    3TCq2    H414281   0.365   0.922  16.754 -0.1229 -1.3099 -1.8939
    1TCq1    O114282   2.320   0.124  13.268 -0.1005 -0.2864  0.1500
    1TCq1    C114283   2.229   0.205  13.217  0.3325  0.1753  0.9002
    1TCq1    O214284   2.163   0.287  13.275  0.0107  0.5256 -0.9430
    1TCq1    C214285   2.252   0.189  13.075 -0.3930  0.1019  0.5024
    1TCq1    C314286   2.141   0.181  12.994  0.1533 -0.2054  0.0182
    1TCq1    C414287   2.154   0.159  12.860  0.3158  0.3336  0.0448
    1TCq1    C514288   2.282   0.160  12.804 -0.0911 -0.2568  0.2146
    1TCq1    C614289   2.385   0.169  12.885  0.3168 -0.2859 -0.4409
    1TCq1    C714290   2.376   0.184  13.022  0.0448  0.3808  0.1112
    1TCq1    C814291   2.511   0.213  12.835  0.4258 -0.1536  0.3992
    1TCq1    O414292   2.509   0.301  12.753  0.3135  0.4023 -0.3305
    1TCq1    C914293   2.037   0.144  12.773  0.0223 -0.3851  0.2333
    1TCq1    O514294   2.053   0.122  12.651 -0.5310 -0.3100 -0.3377
    1TCq1    O614295   1.929   0.168  12.833 -0.1258 -0.8270 -0.2003
    1TCq1    H114296   2.348   0.067  13.193  0.2408 -0.3865  0.3574
    1TCq1    H214297   2.038   0.200  13.023  0.7974 -0.2336  2.2926
    1TCq1    H314298   2.285   0.158  12.695  1.5890  1.7194  0.2286
    1TCq1    H414299   2.460   0.209  13.085 -0.4521 -1.4037  1.4666
    2MPD2     C14300   2.802   0.280  12.823  0.8137  1.1330 -0.0648
    2MPD2    C114301   2.754   0.163  12.881  0.1741  0.8801  0.6317
    2MPD2    C214302   2.844   0.073  12.942  0.4122 -0.4497 -0.3778
    2MPD2    C314303   2.978   0.098  12.937  0.0510 -0.3877  0.4850
    2MPD2    C414304   3.028   0.214  12.884 -0.1307 -0.2410  0.0296
    2MPD2    C514305   2.939   0.304  12.822  0.5629  0.4157  0.0362
    2MPD2     H14306   2.816   4.704  12.991  0.1509 -0.4203 -0.4738
    2MPD2    H114307   3.134   0.233  12.875  0.1215 -2.6276 -1.9249
    2MPD2    H214308   2.745   0.360  12.777  0.7636  0.9703 -0.2878
    2MPD2    H314309   2.974   0.387  12.763 -1.4021 -0.4397 -2.3042
    2MPD2     N14310   3.052   0.000  12.991  0.1446  0.0579  0.2612
    2MPD2    H514311   3.018   4.630  13.010  0.6593 -0.5585 -1.9210
    2MPD2    N114312   2.611   0.139  12.892 -0.3786  0.7461  0.4684
    2MPD2    H714313   2.584   0.056  12.945 -0.4897 -0.7345 -1.8922
    3TCq1    O114314   3.149   4.185  13.223  0.1792  0.4092  0.7596
    3TCq1    C114315   3.094   4.309  13.232 -0.2660 -0.0758  0.0173
    3TCq1    O214316   2.975   4.339  13.236  0.1112 -0.1214 -0.2513
    3TCq1    C214317   3.194   4.403  13.193 -0.7680 -0.7639 -0.1462
    3TCq1    C314318   3.328   4.385  13.212  0.2247  0.3216  0.2069
    3TCq1    C414319   3.411   4.477  13.154  0.6297  0.0240  0.1628
    3TCq1    C514320   3.364   4.584  13.082 -0.4304 -0.0852  0.1649
    3TCq1    C614321   3.231   4.613  13.085  0.1478 -0.1894  0.1859
    3TCq1    C714322   3.143   4.518  13.136  0.0171  0.1365 -0.3645
    3TCq1    C814323   3.184   0.007  13.021 -0.4406  0.0959 -0.3871
    3TCq1    O414324   3.261   0.104  13.026 -0.1823 -0.2236 -0.2216
    3TCq1    C914325   3.556   4.464  13.144 -0.0795 -0.6493 -0.4077
    3TCq1    O514326   3.630   4.544  13.076 -0.1622  0.7162  0.0410
    3TCq1    O614327   3.599   4.375  13.224  0.4375  0.5206 -0.2157
    3TCq1    H114328   3.245   4.175  13.207  0.0980  1.8572 -0.5472
    3TCq1    H214329   3.366   4.307  13.278  0.8796 -0.4268 -1.0454
    3TCq1    H314330   3.425   4.661  13.036 -0.8753  0.5512  0.6193
    3TCq1    H414331   3.044   4.550  13.168  0.3197  0.7757 -0.0656
    1MPD2     C14332   1.882   1.020  14.670 -0.4149 -0.7593 -0.1993
    1MPD2    C114333   1.767   0.943  14.667  0.4092  0.6854 -0.4797
    1MPD2    C214334   1.715   0.895  14.787 -0.8693  0.2475 -0.1146
    1MPD2    C314335   1.771   0.930  14.909 -0.2177  0.6552 -0.2605
    1MPD2    C414336   1.891   0.997  14.910 -0.7361  0.2465  1.2603
    1MPD2    C514337   1.947   1.039  14.791  1.1250 -0.1674  0.0292
    1MPD2     H14338   1.626   0.834  14.792 -0.1610 -0.6872  1.2911
    1MPD2    H114339   1.945   1.015  15.002  1.4266  3.2100 -0.5923
    1MPD2    H214340   1.921   1.063  14.578 -0.4916  0.0373  0.1395
    1MPD2    H314341   2.043   1.089  14.793  1.1798 -0.1564 -2.5964
    1MPD2     N14342   1.704   0.894  15.025  0.5673  0.2715 -0.3336
    1MPD2    H514343   1.611   0.858  15.008  0.2687  1.1318 -0.4992
    1MPD2    N114344   1.702   0.923  14.545 -0.7504 -0.1419  0.7807
    1MPD2    H714345   1.746   0.954  14.459 -3.8748  1.1204 -0.3808
    2TMC3    C114346   1.517   0.878  14.400  0.3139  0.1921  0.5188
    2TMC3    C214347   1.406   0.809  14.392 -0.5595 -0.1925  0.2425
    2TMC3    C314348   1.288   0.858  14.349  0.4366 -0.7433 -0.2161
    2TMC3    C414349   1.514   1.007  14.353  0.2872 -0.1240 -0.3923
    2TMC3    C514350   1.395   1.058  14.305  0.5750  0.6765 -0.3131
    2TMC3    C614351   1.279   0.983  14.290  0.2259 -0.0185  0.3401
    2TMC3     C14352   1.580   0.863  14.527 -0.0532 -0.6420  0.0225
    2TMC3     O14353   1.507   0.818  14.615 -1.1226  0.1073 -0.1264
    2TMC3     H14354   1.400   0.710  14.434 -0.8395 -0.5522 -0.6394
    2TMC3    H114355   1.597   1.076  14.365 -0.8365  0.8944  1.4628
    2TMC3    H214356   1.180   1.018  14.260  0.4701 -0.8347 -1.4274
    2TMC3    C714357   1.395   1.191  14.236 -0.3617  0.6050  0.8088
    2TMC3    C814358   1.177   0.835  14.440  0.5667  0.6477  0.5000
    2TMC3    O114359   1.290   1.248  14.217 -0.5279 -0.1210 -0.1959
    2TMC3    O214360   1.067   0.886  14.418  0.0387 -0.3449 -0.4417
    3TCq1    O114361   2.447   1.871  13.870 -0.7040  0.5631  0.1226
    3TCq1    C114362   2.316   1.865  13.836  0.0732 -0.2444 -0.6667
    3TCq1    O214363   2.261   1.940  13.755 -0.2214  0.4769  0.0636
    3TCq1    C214364   2.257   1.746  13.901 -0.4647  0.5490  0.2360
    3TCq1    C314365   2.335   1.643  13.958 -0.5899  0.0944  0.3843
    3TCq1    C414366   2.267   1.536  14.005 -0.7627 -0.9614 -0.5722
    3TCq1    C514367   2.133   1.519  13.997  0.3605  0.1667 -0.1118
    3TCq1    C614368   2.063   1.610  13.924 -0.8171  0.4179 -0.0071
    3TCq1    C714369   2.126   1.724  13.871 -0.0669 -0.4331  0.1119
    3TCq1    C814370   1.920   1.622  13.925 -0.2313  0.3099 -0.0471
    3TCq1    O414371   1.860   1.719  13.885  0.4331  0.4950 -0.1044
    3TCq1    C914372   2.346   1.428  14.063  0.2236  0.1569 -0.2645
    3TCq1    O514373   2.288   1.344  14.141 -0.4029 -0.0260  0.3099
    3TCq1    O614374   2.468   1.436  14.056 -0.3633  0.1961  0.0228
    3TCq1    H114375   2.476   1.831  13.955 -0.1485 -1.3234 -0.9465
    3TCq1    H214376   2.441   1.658  13.972 -0.7226  0.1664  1.2729
    3TCq1    H314377   2.091   1.436  14.053 -2.4492 -0.0257 -2.4890
    3TCq1    H414378   2.070   1.807  13.829 -1.0692 -1.2592 -0.1816
    4MPD2     C14379   1.635   1.575  13.992 -0.1729  0.1279  0.5944
    4MPD2    C114380   1.730   1.485  14.024  0.0533 -0.4313  0.6327
    4MPD2    C214381   1.689   1.365  14.087 -0.9429  0.4551  0.1725
    4MPD2    C314382   1.558   1.346  14.128 -0.1678  0.1864 -0.1566
    4MPD2    C414383   1.468   1.448  14.096  0.3941  0.1092 -0.0118
    4MPD2    C514384   1.507   1.560  14.025 -0.8126 -0.0376  0.7856
    4MPD2     H14385   1.766   1.290  14.104 -0.7814  0.8320  1.1224
    4MPD2    H114386   1.362   1.449  14.118  0.2591 -1.7474 -0.5574
    4MPD2    H214387   1.649   1.674  13.949 -0.9276  0.9261  2.1961
    4MPD2    H314388   1.429   1.625  13.987 -0.9616 -0.8069 -0.2050
    4MPD2     N14389   1.520   1.218  14.185  0.2740 -0.6572 -0.6606
    4MPD2    H514390   1.594   1.153  14.209  2.0060  1.0593 -1.3571
    4MPD2    N114391   1.866   1.514  13.990 -0.6046  0.1032 -0.4514
    4MPD2    H714392   1.937   1.447  14.021 -0.4610  0.6404  0.3782
    5TMC2    C114393   1.429   0.826  15.179 -0.4480 -0.0693 -0.1646
    5TMC2    C214394   1.381   0.945  15.232  0.7572  0.5552 -0.2562
    5TMC2    C314395   1.471   1.013  15.311 -0.3101  0.2546 -0.2548
    5TMC2    C414396   1.556   0.788  15.182 -0.0983  0.5006 -0.1234
    5TMC2    C514397   1.641   0.869  15.243  0.4896 -0.2206  0.1195
    5TMC2    C614398   1.603   0.978  15.314 -0.0336  0.4154  0.6926
    5TMC2     C14399   1.365   0.794  15.053  0.1365  0.6799 -0.5038
    5TMC2     O14400   1.451   0.772  14.974  0.0033  0.4676  0.1951
    5TMC2     H14401   1.277   0.976  15.226  0.5786  0.0881  0.3309
    5TMC2    H114402   1.585   0.692  15.141 -3.7618 -0.3127 -0.8701
    5TMC2    H214403   1.677   1.047  15.351 -0.2015  0.6606  0.5696
    5TMC2    C714404   1.742   0.915  15.151  0.1992  0.7689  0.4692
    5TMC2    C814405   1.424   1.126  15.387 -0.9105 -0.0772  0.2040
    5TMC2    O114406   1.836   0.978  15.193  0.0374 -0.2164  0.1001
    5TMC2    O214407   1.312   1.177  15.368 -0.5064 -0.4968 -0.2475
    5TMC2    O514408   1.486   1.098  15.508 -0.3347  0.4335 -0.2578
    5TMC2    H514409   1.561   1.034  15.516 -2.3377 -1.8577  0.0101
    6MPD2     C14410   1.011   0.809  14.690 -0.6781  0.0248 -0.8352
    6MPD2    C114411   1.145   0.778  14.684 -0.3789  0.0752 -0.1472
    6MPD2    C214412   1.215   0.772  14.806 -0.4167 -0.4505 -0.2956
    6MPD2    C314413   1.159   0.804  14.928  0.9922  0.4463  0.2609
    6MPD2    C414414   1.021   0.821  14.932  0.2611 -0.5968  0.7434
    6MPD2    C514415   0.951   0.818  14.811 -0.1570  0.0707 -0.6239
    6MPD2     H14416   1.321   0.753  14.795 -0.0906  0.8803  0.4561
    6MPD2    H114417   0.958   0.830  15.019  1.8068 -0.9265  1.9074
    6MPD2    H214418   0.946   0.816  14.603 -0.1585 -0.9454 -1.3087
    6MPD2    H314419   0.843   0.826  14.816  0.0243  1.4554  1.1041
    6MPD2     N14420   1.233   0.813  15.045  0.6987  0.0113 -0.1162
    6MPD2    H514421   1.181   0.832  15.130  0.8060 -1.1081  0.1945
    6MPD2    N114422   1.219   0.777  14.562 -0.1524 -0.6206  0.3536
    6MPD2    H714423   1.319   0.780  14.579 -0.3259  2.1866  0.8602
  945NH3     N114424   1.906   2.229  15.241 -0.3825 -0.2048  0.0402
  945NH3     H214425   1.810   2.242  15.213  0.4073  0.6473 -2.2540
  945NH3     H314426   1.955   2.298  15.186 -3.2606 -0.5663 -2.9349
  945NH3     H414427   1.919   2.277  15.330  0.1201  0.5309 -0.4362
  946SOD     NA14428   3.227   0.839  14.168  0.2876  0.2253  0.0498
  947SOD     NA14429   4.118   3.943  12.144  0.3328 -0.0028  0.1602
  948SOD     NA14430   3.081   2.329  16.505  0.2364 -0.5265  0.2211
  949SOD     NA14431   0.469   4.098  11.140  0.2752 -0.1921  0.2367
  950SOD     NA14432   2.797   0.617   9.951  0.4367 -0.3404  0.2073
  951SOD     NA14433   3.934   4.714   0.783  0.2996 -0.4645  0.1761
  952SOD     NA14434   1.550   3.520  11.703 -0.4945 -0.1113  0.4341
  953SOD     NA14435   2.328   2.844  12.258  0.6002 -0.0953 -0.0879
  954SOD     NA14436   4.603   3.410   3.243  0.2943  0.3427  0.4533
  955SOD     NA14437   0.793   2.642  16.763 -0.1137  0.0302  0.1680
  956SOD     NA14438   0.296   0.126   2.259  0.0712  0.4005  0.3821
  957SOD     NA14439   1.261   2.235   5.309 -0.6640  0.5963  0.1716
  958SOD     NA14440   2.486   0.213  11.595  0.3575 -0.1966 -0.7605
  959SOD     NA14441   0.630   0.319  13.559  0.3163 -0.0808  0.3825
  960SOD     NA14442   3.257   0.809  17.660 -0.2792 -0.5354  0.0129
  961SOD     NA14443   2.782   0.198   3.305  0.3171 -0.4199 -0.0208
  962SOD     NA14444   2.148   0.044  12.466 -0.7749 -0.9429  0.0249
  963SOD     NA14445   0.035   0.658  17.515  0.9891 -0.6692 -0.2217
  964SOD     NA14446   3.568   1.411  12.742  0.5944  0.1949 -0.1543
  965SOD     NA14447   0.219   3.182   1.081 -0.2446  0.0580  0.0289
  966SOD     NA14448   1.942   0.066  14.077 -0.1319 -0.0284  0.0417
  967SOD     NA14449   3.141   4.567  12.115  0.2152 -0.3082 -0.0749
  968SOD     NA14450   0.922   2.670   1.416  0.3513 -0.1610 -0.0725
  969SOD     NA14451   2.232   3.672  10.688  0.5849 -0.4830  0.2177
  970SOD     NA14452   2.669   0.447  11.721 -0.2832  0.1311  0.3960
  971SOD     NA14453   1.758   4.045  14.488  0.3196  0.2026 -0.3265
  972SOD     NA14454   0.998   1.971   9.308 -0.3347  0.5909  0.0109
  973SOD     NA14455   2.281   3.557   7.556 -0.0909  0.6185  0.6869
  974SOD     NA14456   1.603   3.951  13.657 -0.0984  0.1835 -0.2166
  975SOD     NA14457   1.796   3.474   8.687 -0.1378 -0.5001 -0.6839
  976SOD     NA14458   3.547   0.477  13.527  0.2340  0.1385 -0.1071
  977SOD     NA14459   1.665   0.650  10.431 -0.0183  0.1475  0.3801
  978SOD     NA14460   2.184   4.540  10.546 -0.0123  0.4314  0.0218
  979SOD     NA14461   0.929   4.006  12.630  0.7179  0.6376 -0.2736
  980SOD     NA14462   3.542   0.774  14.705 -0.0446 -0.4223  0.0951
  981SOD     NA14463   2.963   3.834   2.081 -0.1989  0.2156  0.4731
  982SOD     NA14464   3.935   2.586   4.012  0.0949 -0.2120  0.1415
  983SOD     NA14465   0.415   4.131  14.830  0.2769 -0.4799  0.1161
  984SOD     NA14466   3.150   0.671  11.778 -0.1496 -0.1906 -0.0936
  985SOD     NA14467   4.099   0.033   2.560 -0.2128 -0.4504  0.4099
  986SOD     NA14468   3.216   3.414   0.533 -0.0181  0.5487  0.2436
  987SOD     NA14469   1.928   3.736  10.283 -0.3837 -0.5315 -0.1073
  988SOD     NA14470   2.511   3.653  10.484  0.5229 -0.0550 -0.3274
  989SOD     NA14471   2.852   1.612  11.504  0.1500 -0.4430 -0.1919
  990SOD     NA14472   2.138   1.025   0.417  0.1594 -0.1492  0.3279
  991SOD     NA14473   2.504   1.260  14.210 -0.2760  0.4488 -0.2025
  992SOD     NA14474   1.401   2.725  12.900  0.3363 -0.6795  0.4209
  993SOD     NA14475   4.262   4.553   0.933 -0.1674 -0.5111 -0.2159
  994SOD     NA14476   1.637   0.981  10.595 -0.4658  0.0305 -0.0017
  995SOD     NA14477   3.785   0.344  13.936 -0.3074  0.2505 -0.3617
  996SOD     NA14478   3.125   3.006  17.286 -0.4269 -0.1173  0.1611
  997SOD     NA14479   1.890   2.543   8.791  0.6439 -0.2922 -0.0708
  998SOD     NA14480   4.456   4.540  17.538  0.4343 -0.1428  0.1310
  999SOD     NA14481   2.718   1.341   4.659 -0.3510  0.3789 -0.1255
 1000SOD     NA14482   2.628   0.983   7.707 -0.2818 -0.0472 -0.0824
 1001SOD     NA14483   0.129   4.471   8.864  0.7333 -0.0423  0.1121
 1002SOD     NA14484   4.365   0.783  12.971 -0.3518  1.1129  0.2390
 1003SOD     NA14485   1.716   0.182  12.776 -0.7419 -0.0804 -0.2267
 1004SOD     NA14486   4.569   4.715   0.694  0.7191 -0.4556 -0.3231
 1005SOD     NA14487   4.152   3.689  14.113 -0.0750  0.2936 -0.0178
 1006SOD     NA14488   1.445   0.782   3.578  0.2659  0.0889 -0.2632
 1007SOD     NA14489   3.540   0.771  11.315 -0.4601 -0.0209 -0.1326
 1008SOD     NA14490   2.202   1.364  14.334  0.2497  0.6244 -0.1775
 1009SOD     NA14491   1.989   2.002  15.200 -0.3450 -0.0373 -0.3262
 1010SOD     NA14492   1.522   3.856   9.704  0.2379  0.2037 -0.2239
 1011SOD     NA14493   3.651   0.303  10.965 -0.1518  0.0721 -0.3617
 1012SOL     OW14494   1.279   2.249   9.230 -0.0663  0.1378 -0.0447
 1012SOL    HW114495   1.347   2.188   9.259  0.0668  0.8115  1.1046
 1012SOL    HW214496   1.200   2.215   9.270  0.0550 -0.6110 -0.4523
 1013SOL     OW14497   0.083   3.435   1.995  0.4411  0.5600  0.9175
 1013SOL    HW114498   0.153   3.382   2.035 -0.2702 -1.6746 -0.8000
 1013SOL    HW214499   0.111   3.523   2.019 -0.6654  1.2260 -0.3366
 1014SOL     OW14500   4.165   4.289   5.616  0.2353 -0.3510 -0.6571
 1014SOL    HW114501   4.214   4.292   5.533  0.3381  0.1856 -0.5783
 1014SOL    HW214502   4.230   4.255   5.678  1.0670  1.4265 -0.5651
 1015SOL     OW14503   1.409   0.039  16.441 -0.8166  0.0099 -0.1540
 1015SOL    HW114504   1.441   0.015  16.354 -2.3238  0.0094 -0.6918
 1015SOL    HW214505   1.440   0.129  16.442  0.6646 -0.4929  0.1760
 1016SOL     OW14506   1.003   3.663   7.008 -0.2071 -0.3799  0.0163
 1016SOL    HW114507   0.964   3.728   7.068  1.9851  1.6475 -0.7323
 1016SOL    HW214508   0.975   3.701   6.925  1.3635  0.1526 -0.2580
 1017SOL     OW14509   1.030   4.165   9.026 -0.2059 -0.1824  0.5119
 1017SOL    HW114510   0.935   4.176   9.021 -0.1066  1.2868  2.1671
 1017SOL    HW214511   1.035   4.155   9.121  1.6384 -1.1314  0.3162
 1018SOL     OW14512   2.206   0.916   4.749 -0.2075  0.2521  0.3351
 1018SOL    HW114513   2.241   1.005   4.754 -1.1271  0.5131  2.2062
 1018SOL    HW214514   2.278   0.857   4.772 -1.8383 -2.2662 -1.0181
 1019SOL     OW14515   2.647   3.600   3.003  0.2130  0.7339 -0.1968
 1019SOL    HW114516   2.565   3.553   3.017 -0.2005  1.3102 -0.6501
 1019SOL    HW214517   2.609   3.680   2.966  1.2704  0.4952 -1.7869
 1020SOL     OW14518   3.736   0.862  11.882 -0.5642  0.4007  0.3765
 1020SOL    HW114519   3.711   0.953  11.902 -1.1818  0.2277  0.3799
 1020SOL    HW214520   3.718   0.869  11.788  0.1573 -1.7863  0.0954
 1021SOL     OW14521   3.184   2.475  15.695 -0.0699 -0.0688  0.0153
 1021SOL    HW114522   3.250   2.431  15.749 -0.6909 -0.5470  0.3961
 1021SOL    HW214523   3.190   2.428  15.613 -1.7654 -1.2248  0.5428
 1022SOL     OW14524   1.425   4.186   4.136  0.0118  0.6807 -0.2119
 1022SOL    HW114525   1.482   4.110   4.149  1.5743  2.5173  3.7147
 1022SOL    HW214526   1.345   4.147   4.172  1.4846 -1.9626  0.2161
 1023SOL     OW14527   4.712   0.793   4.662 -0.5548  0.2552  0.7277
 1023SOL    HW114528   4.687   0.868   4.716  1.2786  0.3338  1.4624
 1023SOL    HW214529   4.703   0.727   4.731  2.8305 -0.7923  0.1355
 1024SOL     OW14530   4.013   2.293   9.640 -0.1158  0.0717  0.5407
 1024SOL    HW114531   3.934   2.346   9.630  0.4398  0.3487 -2.3835
 1024SOL    HW214532   4.086   2.351   9.617 -0.4789  0.1078 -0.5162
 1025SOL     OW14533   0.851   1.048   7.523 -0.2653 -0.7800 -0.2233
 1025SOL    HW114534   0.806   1.011   7.447  1.5530  0.5624 -1.9446
 1025SOL    HW214535   0.885   0.975   7.575 -1.1430 -0.8672  0.2196
 1026SOL     OW14536   3.554   1.106   8.113 -0.2968  0.2704  0.0487
 1026SOL    HW114537   3.488   1.085   8.047  0.5471 -0.5050 -0.5459
 1026SOL    HW214538   3.615   1.158   8.061 -1.0849  2.3192  1.1284
 1027SOL     OW14539   1.480   3.911  13.448  0.1129  0.0863  0.2673
 1027SOL    HW114540   1.445   3.995  13.420 -0.7875 -0.0208  1.1029
 1027SOL    HW214541   1.553   3.895  13.387 -0.6007 -2.2795  0.0251
 1028SOL     OW14542   1.783   2.494   0.871 -0.2715 -0.4144 -0.3056
 1028SOL    HW114543   1.821   2.439   0.939  0.2289 -0.8710 -0.9449
 1028SOL    HW214544   1.854   2.493   0.806  0.4512 -0.1928  0.4867
 1029SOL     OW14545   3.787   1.707   6.193 -0.1963  0.4018 -0.2695
 1029SOL    HW114546   3.786   1.742   6.104  1.3638  1.7413  0.2478
 1029SOL    HW214547   3.874   1.667   6.198 -1.9957 -3.3779  0.9602
 1030SOL     OW14548   2.237   0.374   0.139  0.0440 -0.0708  0.6225
 1030SOL    HW114549   2.325   0.408   0.155 -0.1132  0.8519 -0.5619
 1030SOL    HW214550   2.245   0.373   0.044  1.4998 -1.8948  0.7613
 1031SOL     OW14551   4.628   4.303  10.530  0.3708  0.2656 -0.2317
 1031SOL    HW114552   4.588   4.232  10.480 -0.5718  1.0077 -0.5417
 1031SOL    HW214553   4.618   4.263  10.616 -0.6727  0.9228 -0.0459
 1032SOL     OW14554   4.352   0.003  11.098  0.6228 -0.2319  0.1665
 1032SOL    HW114555   4.323   0.015  11.189 -0.0508  1.8351 -0.3016
 1032SOL    HW214556   4.353   0.091  11.059  0.9872  0.3023  1.3729
 1033SOL     OW14557   1.972   1.547  11.127  0.4205  0.5174  0.3203
 1033SOL    HW114558   2.025   1.525  11.204  1.6982 -2.4292 -1.4139
 1033SOL    HW214559   2.008   1.630  11.099  1.4344 -0.5806 -1.5721
 1034SOL     OW14560   2.958   1.787   7.639 -0.2891 -0.1395  0.0451
 1034SOL    HW114561   3.010   1.760   7.564  0.6212  1.6003  0.0369
 1034SOL    HW214562   3.005   1.858   7.684  1.4701 -1.8070  0.8206
 1035SOL     OW14563   2.427   4.007   4.292 -0.3252 -0.3849 -0.1001
 1035SOL    HW114564   2.337   4.038   4.282  0.0473  0.4790 -0.7819
 1035SOL    HW214565   2.482   4.086   4.283  0.6134 -0.9941  0.2824
 1036SOL     OW14566   1.531   2.081   6.380 -0.3180 -0.4916 -0.6355
 1036SOL    HW114567   1.531   1.989   6.352  2.9176 -0.9256  0.7844
 1036SOL    HW214568   1.448   2.083   6.429  0.5308  1.3374  0.7215
 1037SOL     OW14569   3.868   2.037   8.023  0.0731  0.9399  0.0469
 1037SOL    HW114570   3.952   1.991   8.023  0.6207  1.9372 -1.9423
 1037SOL    HW214571   3.844   2.031   8.116  0.9905 -0.2753  0.1995
 1038SOL     OW14572   3.913   1.730   5.527 -0.2586 -0.0573 -0.3308
 1038SOL    HW114573   3.992   1.715   5.476  0.7142  2.4255  0.4736
 1038SOL    HW214574   3.934   1.804   5.583  1.4423  0.4329 -1.6237
 1039SOL     OW14575   0.580   4.349   4.741  0.4787 -0.0847  0.4924
 1039SOL    HW114576   0.608   4.344   4.649  0.2066  1.1065  0.3441
 1039SOL    HW214577   0.660   4.391   4.773  0.6306 -0.0654  0.0986
 1040SOL     OW14578   0.022   2.657   4.556  0.2568 -0.7415 -0.6645
 1040SOL    HW114579   4.653   2.676   4.542  0.2515  0.0173  0.3965
 1040SOL    HW214580   0.041   2.739   4.603  0.1379 -0.4089 -1.1981
 1041SOL     OW14581   4.354   1.253   6.641  0.0527 -0.3857 -0.0766
 1041SOL    HW114582   4.307   1.188   6.588  1.5608 -1.9411  0.5050
 1041SOL    HW214583   4.435   1.243   6.592  0.8389 -0.0190  1.1576
 1042SOL     OW14584   0.161   3.344   7.870  0.0490 -0.1582 -0.3354
 1042SOL    HW114585   0.091   3.326   7.933 -0.1947  1.4698 -0.1331
 1042SOL    HW214586   0.172   3.262   7.822  0.2339 -1.4688  1.9674
 1043SOL     OW14587   4.180   0.062   5.795  0.5730 -0.0088  0.0892
 1043SOL    HW114588   4.111   4.720   5.782  0.4499 -0.1525  1.5224
 1043SOL    HW214589   4.243   0.007   5.841 -0.3000 -0.6153  0.5583
 1044SOL     OW14590   1.242   3.246   7.960 -0.1914  0.0628 -0.1578
 1044SOL    HW114591   1.321   3.196   7.984 -0.4755 -0.0798  0.4811
 1044SOL    HW214592   1.200   3.175   7.911 -0.5278 -0.9786  1.6027
 1045SOL     OW14593   0.620   3.320   9.256 -0.3926 -0.3559  0.3816
 1045SOL    HW114594   0.676   3.382   9.210 -1.4174  0.6159  0.4482
 1045SOL    HW214595   0.543   3.335   9.202  0.0895  1.7499  0.2969
 1046SOL     OW14596   4.695   3.782  10.505 -0.7254  0.1117  0.1312
 1046SOL    HW114597   4.695   3.795  10.410 -2.9470  1.2568  0.2897
 1046SOL    HW214598   4.715   3.689  10.519 -0.3075  0.1992  0.1371
 1047SOL     OW14599   1.719   1.368  10.305 -0.3553  0.2545 -0.0267
 1047SOL    HW114600   1.739   1.295  10.363  0.4245 -0.4872 -1.2435
 1047SOL    HW214601   1.789   1.360  10.240 -1.5300 -0.6416 -1.1892
 1048SOL     OW14602   2.110   3.969   4.924 -0.0410 -0.3735 -0.3676
 1048SOL    HW114603   2.190   3.933   4.962 -0.1566 -0.4734 -0.2214
 1048SOL    HW214604   2.100   4.043   4.983  3.6193 -0.3294  0.2157
 1049SOL     OW14605   1.474   2.802   5.714  0.6803  0.1761  0.5816
 1049SOL    HW114606   1.564   2.828   5.732  0.2655  0.1044  2.7388
 1049SOL    HW214607   1.436   2.790   5.800  3.3310  1.2893  1.9029
 1050SOL     OW14608   1.328   0.334   2.757 -0.0066  0.5351 -0.2800
 1050SOL    HW114609   1.384   0.320   2.681 -0.4504  0.1136 -0.5271
 1050SOL    HW214610   1.238   0.332   2.724  0.1064 -0.1442 -0.5423
 1051SOL     OW14611   2.449   4.130   7.923 -0.0661 -0.7044  0.2206
 1051SOL    HW114612   2.434   4.204   7.982 -0.2938 -0.9807  0.5069
 1051SOL    HW214613   2.540   4.105   7.938 -0.3383 -0.0046  3.0012
 1052SOL     OW14614   2.873   2.877   7.644  0.1660  0.6601  0.6950
 1052SOL    HW114615   2.922   2.845   7.569  1.1625  0.3691  1.4730
 1052SOL    HW214616   2.853   2.795   7.689 -1.3582  0.9458  0.5481
 1053SOL     OW14617   3.951   2.729   5.759  0.0228 -0.4752  0.8579
 1053SOL    HW114618   3.965   2.698   5.670 -0.4085  1.4807  0.1012
 1053SOL    HW214619   3.863   2.765   5.748  1.4614  1.8330 -2.9026
 1054SOL     OW14620   3.548   3.198  13.965  0.2532  0.4480  0.4918
 1054SOL    HW114621   3.627   3.198  13.911 -0.4754  0.4837 -0.5672
 1054SOL    HW214622   3.497   3.128  13.925  1.4083 -1.4743  2.4208
 1055SOL     OW14623   2.357   2.199   3.226 -0.4072 -0.0229 -0.5884
 1055SOL    HW114624   2.383   2.133   3.291  0.8884  1.3284  0.2615
 1055SOL    HW214625   2.416   2.180   3.153  0.9561  1.4486  0.1378
 1056SOL     OW14626   3.484   1.875   5.184  0.4953 -0.7699  0.1742
 1056SOL    HW114627   3.542   1.879   5.261  2.0435 -3.2594 -0.8417
 1056SOL    HW214628   3.481   1.968   5.165 -0.5664 -0.8101  0.1091
 1057SOL     OW14629   4.214   1.050   6.342  0.3378  0.4768  0.3131
 1057SOL    HW114630   4.190   1.121   6.283 -0.7820 -1.0432 -1.0845
 1057SOL    HW214631   4.193   1.089   6.427 -0.5697  1.1338 -0.2118
 1058SOL     OW14632   2.631   2.529   7.125  0.9414 -0.2280  0.1710
 1058SOL    HW114633   2.544   2.503   7.093  0.9308  1.4436 -1.1841
 1058SOL    HW214634   2.621   2.624   7.127 -1.1025 -0.4606  0.7892
 1059SOL     OW14635   0.066   1.500   3.669 -0.7882  0.0848 -0.4592
 1059SOL    HW114636   0.075   1.512   3.574 -0.9091 -0.5769 -0.5506
 1059SOL    HW214637   0.080   1.591   3.697  0.2797 -0.2090 -0.0835
 1060SOL     OW14638   3.851   0.750   1.539  0.2509  0.2192  0.5356
 1060SOL    HW114639   3.833   0.698   1.617 -0.4644 -1.8001 -0.9738
 1060SOL    HW214640   3.852   0.685   1.469  0.0186  0.2116  0.5410
 1061SOL     OW14641   0.081   1.164   5.517 -0.1932 -0.6796 -0.1831
 1061SOL    HW114642   0.043   1.083   5.549 -1.4354  0.5759  1.5060
 1061SOL    HW214643   0.006   1.223   5.504 -0.0370 -0.2989  0.6412
 1062SOL     OW14644   0.091   1.381   7.264 -0.3075  0.3674 -0.4615
 1062SOL    HW114645   0.032   1.306   7.257 -0.5229  0.6698 -1.8521
 1062SOL    HW214646   0.143   1.347   7.337 -1.0948 -0.1871 -0.1508
 1063SOL     OW14647   0.900   0.620   8.217 -0.2959  0.3685 -0.1106
 1063SOL    HW114648   0.933   0.547   8.164 -0.3271 -0.2177  0.6819
 1063SOL    HW214649   0.835   0.590   8.280 -1.2782 -1.4002 -1.9519
 1064SOL     OW14650   2.682   3.612   7.906  0.2189 -0.2458  0.4568
 1064SOL    HW114651   2.679   3.522   7.872 -1.4150 -0.5431  1.3749
 1064SOL    HW214652   2.655   3.590   7.995 -1.1310 -0.7444 -0.0652
 1065SOL     OW14653   2.043   2.607  17.348 -0.4954  0.3916 -0.4652
 1065SOL    HW114654   2.019   2.610  17.256 -1.0421  1.8829 -0.2718
 1065SOL    HW214655   2.137   2.624  17.346  0.1387 -3.0484 -0.2666
 1066SOL     OW14656   3.019   0.328   0.818 -0.6478  0.0164 -0.3597
 1066SOL    HW114657   2.959   0.389   0.861  0.4686  0.1335  1.0486
 1066SOL    HW214658   2.960   0.262   0.781  1.6093 -0.2930 -3.4365
 1067SOL     OW14659   2.877   4.339  11.276  0.0801  0.4263  0.0462
 1067SOL    HW114660   2.915   4.284  11.207  0.0743 -1.6051  1.6864
 1067SOL    HW214661   2.807   4.281  11.305  0.9063 -0.4958  0.2085
 1068SOL     OW14662   2.483   0.466   0.190 -0.2560 -0.2658  0.3126
 1068SOL    HW114663   2.527   0.538   0.236 -2.0761  1.0760 -0.0420
 1068SOL    HW214664   2.552   0.404   0.167  1.1782  1.7061 -0.7884
 1069SOL     OW14665   1.773   0.691   9.303  0.2890 -0.3677  0.5722
 1069SOL    HW114666   1.862   0.717   9.277 -0.2939  1.2183  0.1222
 1069SOL    HW214667   1.750   0.752   9.374 -0.3291 -0.5248  0.5061
 1070SOL     OW14668   0.570   1.886   7.293 -0.2178  0.9256  0.2161
 1070SOL    HW114669   0.664   1.884   7.277 -0.2057 -0.6727  0.5672
 1070SOL    HW214670   0.557   1.828   7.368 -2.0395 -0.6605 -1.3129
 1071SOL     OW14671   0.933   2.705  12.299  0.4949  0.1401  0.0984
 1071SOL    HW114672   0.916   2.767  12.228 -0.8151 -2.4847 -1.9244
 1071SOL    HW214673   0.846   2.684  12.332  0.4332 -1.2097 -0.8914
 1072SOL     OW14674   1.319   1.287   7.342  0.4678 -0.3582 -0.1957
 1072SOL    HW114675   1.245   1.257   7.393  1.5792 -1.6893  0.6365
 1072SOL    HW214676   1.316   1.218   7.276  0.3763  0.5063 -1.0984
 1073SOL     OW14677   2.090   1.751   0.760 -0.0985 -0.2522  0.3946
 1073SOL    HW114678   2.028   1.679   0.744  1.0536 -1.0490 -0.5165
 1073SOL    HW214679   2.167   1.694   0.775  0.5733  0.6841  0.4836
 1074SOL     OW14680   4.603   1.807   4.377 -0.2423  0.2452 -0.5895
 1074SOL    HW114681   4.669   1.797   4.446  0.4278 -0.4082 -1.3259
 1074SOL    HW214682   4.541   1.863   4.422  0.7660  1.9662 -1.3401
 1075SOL     OW14683   3.038   3.632   8.719  0.0191  0.3379  0.2978
 1075SOL    HW114684   2.956   3.671   8.747 -1.9321 -3.0487 -0.7213
 1075SOL    HW214685   3.014   3.562   8.658  0.1989  1.1103 -0.6674
 1076SOL     OW14686   4.208   3.061   7.085 -0.3272 -0.0595  0.0850
 1076SOL    HW114687   4.228   3.155   7.086 -0.2706 -0.0345 -2.4147
 1076SOL    HW214688   4.137   3.052   7.022 -1.8645  0.2925  1.7756
 1077SOL     OW14689   4.139   3.339   6.829 -0.7920 -0.6148 -0.3051
 1077SOL    HW114690   4.213   3.283   6.803 -0.0296 -0.2187  1.0147
 1077SOL    HW214691   4.150   3.345   6.924 -2.9081  1.5881 -0.2115
 1078SOL     OW14692   1.221   1.244   8.779  0.4237  0.0150  0.1647
 1078SOL    HW114693   1.232   1.311   8.711 -1.0894  0.9412  0.8260
 1078SOL    HW214694   1.186   1.302   8.846 -0.5545 -0.5578  0.1476
 1079SOL     OW14695   2.211   0.753  16.093  0.1967 -0.3151 -0.0453
 1079SOL    HW114696   2.132   0.722  16.137  0.3511  0.9858  1.1550
 1079SOL    HW214697   2.264   0.673  16.094  0.5425 -0.0726  1.4222
 1080SOL     OW14698   2.511   3.366   9.618 -0.0387  0.8186  0.3163
 1080SOL    HW114699   2.495   3.394   9.708 -0.1596  0.9922  0.2408
 1080SOL    HW214700   2.438   3.414   9.579  0.0587  0.9606  0.3079
 1081SOL     OW14701   0.597   1.388   1.388  0.1908 -0.2240  0.2593
 1081SOL    HW114702   0.664   1.376   1.455 -1.8286 -1.8542  1.9779
 1081SOL    HW214703   0.587   1.483   1.380 -0.3867 -0.4209 -1.3064
 1082SOL     OW14704   0.424   2.195   8.254  0.3838 -0.0858  0.1101
 1082SOL    HW114705   0.420   2.139   8.177  1.9260  2.5812 -1.8890
 1082SOL    HW214706   0.511   2.172   8.287 -0.9196 -1.1926  2.8366
 1083SOL     OW14707   3.652   0.945  14.311  0.0708  0.6926 -0.3365
 1083SOL    HW114708   3.676   0.935  14.403  1.3274  0.9654 -0.6382
 1083SOL    HW214709   3.739   0.931  14.274  0.1487  1.5528 -0.4828
 1084SOL     OW14710   3.369   3.218   2.191  0.0775  0.3616  0.0443
 1084SOL    HW114711   3.462   3.241   2.182 -0.6946  3.8012  1.0679
 1084SOL    HW214712   3.318   3.297   2.209  3.1973  2.0363  1.5191
 1085SOL     OW14713   2.301   0.605   1.015 -0.1538  0.3180  0.4413
 1085SOL    HW114714   2.315   0.626   1.108 -1.9361  0.1353  0.7484
 1085SOL    HW214715   2.248   0.681   0.991  1.0844  0.9200 -0.3703
 1086SOL     OW14716   2.381   0.304  10.863 -0.0730  0.5414  0.0834
 1086SOL    HW114717   2.325   0.370  10.823  0.1830 -0.4722 -1.9557
 1086SOL    HW214718   2.400   0.244  10.791 -1.4248 -1.0532  1.0530
 1087SOL     OW14719   3.883   2.724  12.404  0.1745 -0.5692  0.4025
 1087SOL    HW114720   3.908   2.740  12.314 -0.1473 -0.7015  0.2890
 1087SOL    HW214721   3.863   2.631  12.391  0.9492 -0.6916  0.0941
 1088SOL     OW14722   3.422   2.878   4.611  0.0556 -0.2796 -0.4746
 1088SOL    HW114723   3.472   2.955   4.640 -2.0865  0.9330 -0.0293
 1088SOL    HW214724   3.426   2.880   4.516  0.0437 -2.0974 -0.5153
 1089SOL     OW14725   2.010   0.736  14.659  0.3150  0.1857 -0.0025
 1089SOL    HW114726   1.933   0.793  14.664  0.5468  0.4825  0.2394
 1089SOL    HW214727   2.065   0.781  14.724  0.0694 -1.5682  1.4178
 1090SOL     OW14728   1.025   0.320   4.592 -0.4677 -0.5090  0.6487
 1090SOL    HW114729   0.996   0.410   4.606 -0.3078 -0.6673  2.0551
 1090SOL    HW214730   1.043   0.314   4.498  0.2473  1.4411  0.6616
 1091SOL     OW14731   0.491   0.027   4.818  0.0423  0.3208  0.4513
 1091SOL    HW114732   0.442   4.684   4.770  0.3700 -0.7538  1.6067
 1091SOL    HW214733   0.436   0.059   4.890 -0.6845  0.6335 -0.2430
 1092SOL     OW14734   0.848   1.417   4.246  0.1824  0.2434  0.1937
 1092SOL    HW114735   0.807   1.503   4.240  1.2678  0.8212  1.1772
 1092SOL    HW214736   0.940   1.437   4.261  0.6164 -0.0548 -2.0536
 1093SOL     OW14737   1.290   4.213   9.428  0.5791  0.1551 -0.0100
 1093SOL    HW114738   1.329   4.176   9.349 -1.3032  0.6679 -1.1859
 1093SOL    HW214739   1.362   4.262   9.467  1.3593 -0.9740 -0.0405
 1094SOL     OW14740   3.452   0.065  13.862  0.3782 -0.0942 -0.1609
 1094SOL    HW114741   3.405   0.010  13.800  2.1721 -1.8444 -0.0023
 1094SOL    HW214742   3.386   0.132  13.880  2.7985  1.9739  1.0114
 1095SOL     OW14743   4.622   3.697  13.110 -0.0121 -0.2930 -0.2693
 1095SOL    HW114744   4.568   3.716  13.187  1.1454 -1.1252  0.7493
 1095SOL    HW214745   4.711   3.705  13.143 -0.2633  0.9247  0.1234
 1096SOL     OW14746   1.128   3.314  11.359  0.2458  0.4963 -0.1086
 1096SOL    HW114747   1.074   3.340  11.433 -0.4346 -0.2687 -0.3307
 1096SOL    HW214748   1.115   3.387  11.298 -1.4943  0.1605 -0.1621
 1097SOL     OW14749   2.151   1.744   9.004 -0.4345 -0.3187  0.0610
 1097SOL    HW114750   2.206   1.717   8.931  0.1260 -2.4586  1.2801
 1097SOL    HW214751   2.191   1.681   9.064  0.4612 -0.3772 -0.6037
 1098SOL     OW14752   4.621   2.909  10.371  0.5242 -0.4748 -1.0054
 1098SOL    HW114753   4.604   2.903  10.465  1.8508 -1.0257 -0.7951
 1098SOL    HW214754   4.569   2.987  10.355  0.9525 -0.1000 -0.5775
 1099SOL     OW14755   0.244   0.284   7.880  0.2610  0.1623 -0.1217
 1099SOL    HW114756   0.223   0.216   7.945 -0.4019 -0.6082 -1.1316
 1099SOL    HW214757   0.238   0.366   7.927 -0.5615 -1.1124  2.0046
 1100SOL     OW14758   0.757   2.633  16.170  0.1319  0.1774 -0.0130
 1100SOL    HW114759   0.777   2.595  16.084  1.0184  0.0056  0.2681
 1100SOL    HW214760   0.662   2.631  16.166  0.2580 -0.7336 -2.7790
 1101SOL     OW14761   0.157   1.998   9.810  0.3853 -0.0599 -0.5444
 1101SOL    HW114762   0.200   1.917   9.781  1.9729  1.0186 -1.2155
 1101SOL    HW214763   0.073   2.007   9.765  1.5110 -0.9074 -2.8149
 1102SOL     OW14764   0.984   3.258   9.138 -0.3086 -0.3853  0.0788
 1102SOL    HW114765   1.061   3.291   9.185 -1.2708  0.8781  0.7628
 1102SOL    HW214766   0.918   3.322   9.165  1.9262  1.5989  0.8591
 1103SOL     OW14767   4.099   1.221   7.727 -0.5338 -0.0365  0.1053
 1103SOL    HW114768   4.019   1.181   7.693 -0.6198 -0.0148  0.2855
 1103SOL    HW214769   4.075   1.287   7.792  2.5808  1.0024  0.2275
 1104SOL     OW14770   4.070   2.367  12.315 -0.5114 -0.1686 -0.5429
 1104SOL    HW114771   4.023   2.443  12.349 -3.1305 -0.8287 -2.7726
 1104SOL    HW214772   4.017   2.347  12.238  0.1298 -0.0219 -1.0287
 1105SOL     OW14773   3.709   0.066   0.723 -0.2349 -0.2377 -0.1345
 1105SOL    HW114774   3.615   0.054   0.712 -0.1127  0.3709 -1.8093
 1105SOL    HW214775   3.714   0.151   0.678  0.0013  1.1216  2.4354
 1106SOL     OW14776   0.889   2.199   4.438  0.0021 -0.2959  0.0617
 1106SOL    HW114777   0.846   2.199   4.353  0.1415 -2.0591  0.0026
 1106SOL    HW214778   0.946   2.275   4.430 -0.7879  0.3412  0.4489
 1107SOL     OW14779   3.327   3.740   2.536 -0.1282 -0.0843  0.1128
 1107SOL    HW114780   3.316   3.654   2.576  2.3067  0.4454  1.9053
 1107SOL    HW214781   3.420   3.728   2.514 -0.4190 -1.2512 -0.4704
 1108SOL     OW14782   2.478   3.649   5.182 -0.5121  0.1817  0.7227
 1108SOL    HW114783   2.399   3.597   5.200  0.7539 -1.1875  2.2738
 1108SOL    HW214784   2.552   3.591   5.197  0.5551  1.6580  1.1773
 1109SOL     OW14785   2.548   0.675  16.387  0.7285 -0.4670 -0.0994
 1109SOL    HW114786   2.530   0.629  16.305  1.7665 -0.4946 -0.3101
 1109SOL    HW214787   2.628   0.717  16.356 -0.7091  2.5650  0.3060
 1110SOL     OW14788   2.959   3.098   7.927  0.5004 -0.5244 -0.5473
 1110SOL    HW114789   2.984   3.165   7.991 -0.1669 -0.1388 -0.6861
 1110SOL    HW214790   3.038   3.101   7.873  1.7854  1.7415  1.4249
 1111SOL     OW14791   0.149   1.150   4.330 -0.0770  0.3408  0.0471
 1111SOL    HW114792   0.056   1.143   4.307  0.1948  3.4610 -1.9444
 1111SOL    HW214793   0.164   1.065   4.371  0.1080 -0.1056 -0.9469
 1112SOL     OW14794   0.507   3.129   3.171 -0.5363  0.1041  0.5848
 1112SOL    HW114795   0.551   3.212   3.188 -0.5703  0.2831 -0.2068
 1112SOL    HW214796   0.537   3.123   3.081 -2.2258  0.0370  0.0309
 1113SOL     OW14797   1.961   2.693   5.580  0.6485 -0.4888  0.4130
 1113SOL    HW114798   1.966   2.655   5.667  2.2506  0.7905  0.8715
 1113SOL    HW214799   1.900   2.767   5.588  0.9278 -0.4637  2.2025
 1114SOL     OW14800   1.414   0.168  14.511  0.5881 -0.0527  0.0868
 1114SOL    HW114801   1.378   0.168  14.423  1.8503 -1.0874 -0.4334
 1114SOL    HW214802   1.334   0.153  14.561 -0.3192 -2.4813 -2.1260
 1115SOL     OW14803   1.226   1.177  14.965  0.0041  0.4507  0.3620
 1115SOL    HW114804   1.281   1.108  14.927 -0.7532 -1.0549  2.0034
 1115SOL    HW214805   1.274   1.213  15.040  1.8971 -2.5074  0.5762
 1116SOL     OW14806   3.101   0.203   7.985 -0.2030 -0.0385  0.0929
 1116SOL    HW114807   3.064   0.289   7.966 -2.0537 -1.0800 -1.0101
 1116SOL    HW214808   3.023   0.148   7.987  0.7594 -1.4150  0.1161
 1117SOL     OW14809   3.152   4.369   5.605 -0.0762 -0.3014  0.7345
 1117SOL    HW114810   3.082   4.333   5.550  1.7413 -2.4993 -0.1286
 1117SOL    HW214811   3.233   4.344   5.560 -1.0180 -0.1761 -1.0368
 1118SOL     OW14812   4.476   1.723   7.904 -0.0912  0.4323  0.1120
 1118SOL    HW114813   4.440   1.756   7.987 -0.8862  0.8733 -0.4040
 1118SOL    HW214814   4.567   1.708   7.928 -0.2445 -1.5374 -0.5910
 1119SOL     OW14815   0.358   0.892   7.658  0.7948 -0.0869  0.4558
 1119SOL    HW114816   0.317   0.889   7.744 -0.8598  1.6376 -0.2976
 1119SOL    HW214817   0.305   0.959   7.615  0.1909  0.0242  1.3855
 1120SOL     OW14818   1.789   4.059  14.257  0.1533  0.5021 -0.3098
 1120SOL    HW114819   1.834   3.988  14.211  0.8851  0.6533  0.1889
 1120SOL    HW214820   1.718   4.071  14.194  1.4170 -1.5357 -2.1254
 1121SOL     OW14821   2.809   4.538   3.372 -0.0897 -0.3106 -0.2702
 1121SOL    HW114822   2.770   4.527   3.459 -1.5903 -2.0068 -1.1574
 1121SOL    HW214823   2.840   4.451   3.348  0.8835  0.7562 -2.8904
 1122SOL     OW14824   4.125   3.482   6.599  0.2395  0.0481 -0.7719
 1122SOL    HW114825   4.112   3.442   6.685 -1.2098  3.8697  0.7798
 1122SOL    HW214826   4.165   3.566   6.621 -0.5624  0.0544  0.6458
 1123SOL     OW14827   0.705   0.484   6.374 -0.2184 -0.1981 -0.2706
 1123SOL    HW114828   0.701   0.543   6.300 -1.5007  0.6180  0.4572
 1123SOL    HW214829   0.623   0.490   6.423  0.1557  2.7007  0.0032
 1124SOL     OW14830   2.675   2.462   4.387 -0.0128  0.0371 -0.4559
 1124SOL    HW114831   2.748   2.403   4.403  1.7710  2.9302  2.2537
 1124SOL    HW214832   2.712   2.530   4.331 -0.2379  1.2111  0.7946
 1125SOL     OW14833   3.214   0.900   6.861 -0.3900  0.0520 -0.4866
 1125SOL    HW114834   3.143   0.845   6.894 -3.1312  1.7687 -3.5832
 1125SOL    HW214835   3.202   0.966   6.930 -1.2315  1.3317 -1.8488
 1126SOL     OW14836   0.277   1.369   4.419 -0.1318 -0.7678  0.0230
 1126SOL    HW114837   0.204   1.320   4.380 -0.5577 -1.3120  1.5053
 1126SOL    HW214838   0.345   1.302   4.424 -0.0536 -0.5464  1.7419
 1127SOL     OW14839   0.966   3.535   1.869  0.3919  0.1282 -0.5170
 1127SOL    HW114840   0.972   3.623   1.832  0.7343  0.3887  0.1684
 1127SOL    HW214841   0.947   3.476   1.796 -0.6815 -0.0168 -0.1219
 1128SOL     OW14842   2.846   1.284  10.080 -0.4060 -0.4275 -0.3179
 1128SOL    HW114843   2.873   1.266  10.170 -0.0613 -1.1178 -0.5571
 1128SOL    HW214844   2.752   1.294  10.097 -0.3037  0.6042 -0.3782
 1129SOL     OW14845   4.532   3.953   3.958 -0.7629  0.1406 -0.5159
 1129SOL    HW114846   4.522   3.859   3.973 -0.6658  0.0952 -0.7418
 1129SOL    HW214847   4.598   3.964   3.890  0.6269 -2.3583  0.4480
 1130SOL     OW14848   2.487   0.462   1.333  0.3063 -0.5750 -0.0571
 1130SOL    HW114849   2.402   0.506   1.332  0.4778 -0.1911  1.9673
 1130SOL    HW214850   2.528   0.507   1.406  0.3067 -0.6579 -0.0065
 1131SOL     OW14851   3.968   2.525  11.855  0.1518 -0.6202  0.3527
 1131SOL    HW114852   4.045   2.551  11.906 -0.9537 -0.1849  1.8118
 1131SOL    HW214853   4.013   2.533  11.771 -2.7851 -0.1244 -1.1404
 1132SOL     OW14854   3.988   2.029  14.983  0.3532  0.1286  0.0865
 1132SOL    HW114855   4.060   2.025  15.046  0.9793 -0.9428 -0.6881
 1132SOL    HW214856   3.942   1.946  14.991  0.7696 -0.2162 -1.0786
 1133SOL     OW14857   2.635   2.135   1.424  0.0088 -0.5572 -0.1626
 1133SOL    HW114858   2.548   2.141   1.385 -0.2308  0.5397  0.5306
 1133SOL    HW214859   2.695   2.112   1.353 -0.4402  1.5453 -1.2190
 1134SOL     OW14860   3.596   1.003  14.792  0.3352 -0.6794  0.1717
 1134SOL    HW114861   3.604   0.961  14.878  2.8093  0.5718  0.5487
 1134SOL    HW214862   3.637   1.088  14.810 -2.5932  0.8357 -0.3313
 1135SOL     OW14863   4.084   3.444  12.723 -0.4341  0.1515  0.2516
 1135SOL    HW114864   4.079   3.372  12.659 -1.3975 -0.3515  0.9028
 1135SOL    HW214865   4.011   3.429  12.782  0.1854 -1.6078  0.5842
 1136SOL     OW14866   0.253   0.986  12.575 -0.4363 -0.0025 -0.1854
 1136SOL    HW114867   0.232   0.892  12.567  1.3191 -0.3372 -0.8346
 1136SOL    HW214868   0.229   0.995  12.667  0.9466 -1.8343  0.3704
 1137SOL     OW14869   4.598   4.693   2.271 -0.3397 -0.8470  0.2724
 1137SOL    HW114870   4.587   0.061   2.297  1.2554 -0.5729 -0.0165
 1137SOL    HW214871   4.519   4.652   2.306 -1.5288  0.4086 -0.9466
 1138SOL     OW14872   1.366   1.996   5.649  0.1793 -0.0289  0.3125
 1138SOL    HW114873   1.277   1.968   5.626  0.2504  0.1412 -0.1562
 1138SOL    HW214874   1.338   2.042   5.729  0.1109  1.0466 -0.3361
 1139SOL     OW14875   0.850   3.737   8.641 -0.1249  0.3832 -0.4654
 1139SOL    HW114876   0.791   3.764   8.712 -0.5326 -0.4986 -0.4726
 1139SOL    HW214877   0.791   3.707   8.571  1.0249  0.8469 -1.6292
 1140SOL     OW14878   3.755   1.483   3.779  0.1424  0.4138  0.3998
 1140SOL    HW114879   3.794   1.455   3.862  2.1025 -0.6598 -0.8746
 1140SOL    HW214880   3.815   1.445   3.714 -1.0649 -2.9044  1.2668
 1141SOL     OW14881   3.224   2.370   3.602 -0.1394 -0.1086 -0.7621
 1141SOL    HW114882   3.153   2.311   3.576  0.5025 -2.1804  2.3012
 1141SOL    HW214883   3.194   2.400   3.687 -1.5363  2.4211 -2.1271
 1142SOL     OW14884   4.277   0.502   2.196  0.2277  0.0779 -0.0713
 1142SOL    HW114885   4.334   0.574   2.168 -1.3734  1.0791 -0.7694
 1142SOL    HW214886   4.193   0.530   2.160 -0.9723 -2.5803  0.7499
 1143SOL     OW14887   4.475   0.764   4.515  0.1457  0.3835  0.1570
 1143SOL    HW114888   4.421   0.769   4.594  2.8570  3.6317  1.8083
 1143SOL    HW214889   4.565   0.772   4.547  0.4932 -0.8816 -0.4909
 1144SOL     OW14890   1.749   1.722   5.577  0.2420 -0.9216  0.2933
 1144SOL    HW114891   1.667   1.725   5.625 -0.1808 -0.1625 -0.4949
 1144SOL    HW214892   1.812   1.704   5.648  0.1364  1.1532  0.9167
 1145SOL     OW14893   3.692   0.456   1.006  0.7040 -0.2702  0.0366
 1145SOL    HW114894   3.681   0.403   1.084  0.4012  1.2724  1.0289
 1145SOL    HW214895   3.760   0.406   0.959  1.7038  2.5569 -1.5400
 1146SOL     OW14896   4.300   0.855   7.042 -0.4372  0.2150  0.1576
 1146SOL    HW114897   4.360   0.877   7.113  0.0118  1.5889 -0.6454
 1146SOL    HW214898   4.307   0.935   6.990  0.1729  0.2517  0.2932
 1147SOL     OW14899   0.313   2.570   4.915 -0.5370 -0.2423  0.3893
 1147SOL    HW114900   0.347   2.628   4.846  0.6119  0.1012  1.2488
 1147SOL    HW214901   0.388   2.519   4.943 -2.1176 -0.9662  3.3599
 1148SOL     OW14902   3.385   1.870  14.529 -0.3567 -0.6845 -0.0637
 1148SOL    HW114903   3.449   1.930  14.491 -1.5033  0.7101  0.2311
 1148SOL    HW214904   3.424   1.873  14.617 -0.3599 -1.1047 -0.0476
 1149SOL     OW14905   2.712   4.466   0.775 -0.2241  0.1329  0.0680
 1149SOL    HW114906   2.686   4.416   0.698  1.9741  0.6194 -0.9769
 1149SOL    HW214907   2.666   4.548   0.756 -0.7920 -0.3643 -0.6889
 1150SOL     OW14908   0.268   3.540   6.640 -0.0395 -0.0125 -0.6338
 1150SOL    HW114909   0.352   3.525   6.685  2.2009  3.5055 -3.6704
 1150SOL    HW214910   0.237   3.614   6.691 -1.6770 -0.7050 -0.6368
 1151SOL     OW14911   2.105   2.126   3.738  0.2079 -0.0382 -0.1085
 1151SOL    HW114912   2.112   2.105   3.645  0.4373 -1.3095  0.1835
 1151SOL    HW214913   2.161   2.202   3.754 -0.7485  0.8120 -0.8657
 1152SOL     OW14914   0.253   0.643   3.982  0.0189  0.1251 -0.0840
 1152SOL    HW114915   0.299   0.648   3.898 -0.0192 -0.4861 -0.1417
 1152SOL    HW214916   0.222   0.732   3.998 -1.3698 -0.2070 -0.9235
 1153SOL     OW14917   3.241   3.039  10.244 -0.6805 -0.4111  0.0086
 1153SOL    HW114918   3.186   3.018  10.320  1.3637 -0.5866  1.4416
 1153SOL    HW214919   3.199   3.116  10.207  0.1859  0.7237  1.4252
 1154SOL     OW14920   0.054   4.347  13.476 -0.5863 -0.1208  0.0929
 1154SOL    HW114921   0.042   4.262  13.434  0.4579 -0.7331  1.0232
 1154SOL    HW214922   0.025   4.337  13.567 -1.5650  1.5520 -0.0299
 1155SOL     OW14923   1.189   1.359  16.184  0.2630  0.0805 -0.2651
 1155SOL    HW114924   1.161   1.269  16.167  0.4433 -0.0218 -0.0059
 1155SOL    HW214925   1.122   1.403  16.132  2.5717  0.0634 -3.2840
 1156SOL     OW14926   3.976   4.057  15.956 -0.0455  0.3684  0.1386
 1156SOL    HW114927   4.025   4.072  16.037 -0.5004  0.2183  0.4379
 1156SOL    HW214928   3.897   4.023  15.998 -1.2835 -0.9610 -3.3223
 1157SOL     OW14929   3.390   4.722   3.008  0.4684  0.0220  0.0953
 1157SOL    HW114930   3.447   0.029   3.079  2.4136 -1.9976 -0.5953
 1157SOL    HW214931   3.429   0.026   2.925 -2.0973  1.5403 -0.6102
 1158SOL     OW14932   2.346   2.924   4.754 -0.0954 -0.1294 -0.2261
 1158SOL    HW114933   2.410   2.945   4.822 -0.4532  0.8372 -0.1867
 1158SOL    HW214934   2.331   3.014   4.725 -1.8147 -0.4969 -0.5073
 1159SOL     OW14935   4.497   1.940   3.912  0.1379  0.3982 -0.2437
 1159SOL    HW114936   4.543   1.915   3.833  0.6297 -3.4643  1.2772
 1159SOL    HW214937   4.466   1.853   3.938  1.3980  0.3733  1.2219
 1160SOL     OW14938   0.122   0.607   1.158  0.5000 -0.0262  0.1480
 1160SOL    HW114939   0.203   0.569   1.192  1.2822  1.9893  0.5348
 1160SOL    HW214940   0.153   0.643   1.075 -1.4268 -0.4529 -0.7748
 1161SOL     OW14941   4.565   3.699  14.256  0.1870  0.3868  0.0941
 1161SOL    HW114942   4.581   3.748  14.175 -2.0712 -1.2138 -1.3081
 1161SOL    HW214943   4.625   3.746  14.313  0.5812 -2.0444  1.6560
 1162SOL     OW14944   1.813   3.999  16.487 -0.0323 -0.6144  0.3123
 1162SOL    HW114945   1.888   3.940  16.490 -0.7640 -1.4636  2.0555
 1162SOL    HW214946   1.841   4.072  16.541  2.4891 -2.2113  1.1133
 1163SOL     OW14947   0.838   4.006  15.341 -0.4339  0.5087  0.1464
 1163SOL    HW114948   0.810   4.090  15.378 -1.8308 -0.0036  0.2435
 1163SOL    HW214949   0.789   3.944  15.395  0.3573  0.6471  1.0275
 1164SOL     OW14950   2.248   4.360  11.692 -0.3832  0.6645 -0.4543
 1164SOL    HW114951   2.153   4.362  11.703 -0.1726 -1.3225  1.5977
 1164SOL    HW214952   2.257   4.280  11.742 -1.1608  2.2554  2.2161
 1165SOL     OW14953   3.207   3.981   5.051  0.3464  0.2997 -0.2059
 1165SOL    HW114954   3.294   3.959   5.017  0.4341 -1.9215  1.4672
 1165SOL    HW214955   3.230   3.971   5.143 -0.7483 -1.0099 -0.0830
 1166SOL     OW14956   1.063   3.458   9.512 -0.4878  0.8056 -0.1957
 1166SOL    HW114957   1.119   3.533   9.533 -1.2091  1.1494  0.4674
 1166SOL    HW214958   1.029   3.478   9.425 -0.7899 -1.1559 -0.5187
 1167SOL     OW14959   1.015   4.041   7.506  0.5790  0.4168 -0.6875
 1167SOL    HW114960   0.952   4.079   7.445 -0.1446  1.6146  0.8028
 1167SOL    HW214961   0.979   3.959   7.538  0.3290  1.3689  1.4812
 1168SOL     OW14962   3.458   0.754   8.483  0.0890 -0.1072 -0.3920
 1168SOL    HW114963   3.420   0.800   8.409  0.8845  1.2619  0.0555
 1168SOL    HW214964   3.430   0.797   8.564  0.7946 -1.4551  0.5743
 1169SOL     OW14965   1.137   3.114   7.069  0.3741  0.0948  0.2383
 1169SOL    HW114966   1.165   3.134   7.158  1.1771 -2.6678  0.6016
 1169SOL    HW214967   1.188   3.036   7.046 -0.6438 -1.1255  2.1076
 1170SOL     OW14968   1.918   1.831   4.223 -0.5608 -0.0494 -0.2343
 1170SOL    HW114969   2.007   1.861   4.204 -0.1095 -0.5368  1.1419
 1170SOL    HW214970   1.887   1.845   4.133 -1.5178 -0.4934  0.0180
 1171SOL     OW14971   1.602   3.154   5.031 -0.4710 -0.1276 -0.1515
 1171SOL    HW114972   1.662   3.145   4.957  0.1930 -2.5446  0.6739
 1171SOL    HW214973   1.660   3.181   5.102 -0.1772  0.1002 -0.4803
 1172SOL     OW14974   4.421   1.629   4.611  0.0659 -0.6130 -0.3316
 1172SOL    HW114975   4.398   1.720   4.592 -0.6438 -0.6127  0.5429
 1172SOL    HW214976   4.395   1.585   4.530  0.0547 -0.1210 -0.5949
 1173SOL     OW14977   3.243   0.066   4.652  0.4750 -0.7765 -0.0853
 1173SOL    HW114978   3.301   0.141   4.635 -0.2167 -0.4326 -0.8805
 1173SOL    HW214979   3.278   0.027   4.732 -0.2191 -1.7054 -0.2431
 1174SOL     OW14980   2.647   0.225   4.330  0.6563 -0.1360  0.4348
 1174SOL    HW114981   2.734   0.264   4.321 -0.4399  2.6155  1.5369
 1174SOL    HW214982   2.668   0.140   4.369  0.9571 -0.2972 -0.0771
 1175SOL     OW14983   4.525   4.562   2.034  0.9059  0.2417 -0.0671
 1175SOL    HW114984   4.595   4.508   1.996  1.8361 -0.1691  2.2148
 1175SOL    HW214985   4.575   4.617   2.094 -0.9487  1.4391  0.3449
 1176SOL     OW14986   0.362   3.701   9.841 -0.0537  0.0109  0.3522
 1176SOL    HW114987   0.404   3.751   9.772 -2.4887  1.9843  0.2662
 1176SOL    HW214988   0.396   3.736   9.923 -0.3366 -0.0946  0.5177
 1177SOL     OW14989   1.265   0.691  15.848  0.1940 -0.4600 -0.5281
 1177SOL    HW114990   1.232   0.612  15.805  2.0073 -0.2727 -2.2811
 1177SOL    HW214991   1.210   0.689  15.926 -0.5105  0.8767 -0.9916
 1178SOL     OW14992   0.867   0.155   9.176  0.2242  0.2931  0.6726
 1178SOL    HW114993   0.878   0.061   9.190  0.3579 -0.1665 -2.5435
 1178SOL    HW214994   0.788   0.183   9.224 -1.8799 -1.4118 -1.8405
 1179SOL     OW14995   2.536   3.524   6.786  0.3458  0.7309  0.9299
 1179SOL    HW114996   2.518   3.601   6.732  0.9682  1.1764  1.3490
 1179SOL    HW214997   2.586   3.468   6.726 -1.7119 -2.0099  1.7835
 1180SOL     OW14998   0.138   1.765   4.489 -0.0107  0.6550  0.9446
 1180SOL    HW114999   0.186   1.710   4.426  0.4103 -0.0770  1.8892
 1180SOL    HW215000   0.178   1.750   4.575  1.4808 -0.5022  0.0546
 1181SOL     OW15001   1.286   0.115   6.092 -0.4153 -0.2757  0.0401
 1181SOL    HW115002   1.275   0.199   6.047 -2.8330  0.3464  1.7706
 1181SOL    HW215003   1.197   0.080   6.091  0.3383 -2.2375  1.7284
 1182SOL     OW15004   4.093   0.447   4.657 -0.1189 -0.5661 -0.3824
 1182SOL    HW115005   4.119   0.355   4.658  1.1148 -0.2100  0.1663
 1182SOL    HW215006   4.110   0.480   4.746  0.3954  0.5789 -0.9099
 1183SOL     OW15007   1.542   3.943   6.843  0.2600  0.5562 -0.2497
 1183SOL    HW115008   1.450   3.931   6.823  0.0944  2.4579 -0.6642
 1183SOL    HW215009   1.574   3.853   6.833 -0.1786  0.2456  1.0604
 1184SOL     OW15010   3.151   1.194   7.062 -0.7192  0.1859 -0.3077
 1184SOL    HW115011   3.190   1.272   7.101 -0.0640 -1.6111  2.6208
 1184SOL    HW215012   3.109   1.233   6.985 -0.2370  3.2681  1.0109
 1185SOL     OW15013   3.358   2.475  17.599  0.2615 -0.0306  0.1417
 1185SOL    HW115014   3.435   2.462  17.543  0.2482 -1.1092  0.3727
 1185SOL    HW215015   3.322   2.557  17.568  1.4385  0.7739  0.8958
 1186SOL     OW15016   3.970   3.651  12.514 -0.4709  0.2537  0.0306
 1186SOL    HW115017   4.027   3.617  12.583  0.0826  1.5337  0.2099
 1186SOL    HW215018   3.968   3.574  12.458  3.2534 -0.9131  1.4915
 1187SOL     OW15019   2.107   2.459   5.022  0.2406  0.2105 -0.9097
 1187SOL    HW115020   2.079   2.533   5.076  1.4663 -0.1880  0.2793
 1187SOL    HW215021   2.199   2.481   5.009  0.0370  0.8086 -1.3341
 1188SOL     OW15022   4.713   0.009   6.500  0.0101 -0.2471 -0.0589
 1188SOL    HW115023   4.651   0.077   6.526 -0.7268 -1.3845  1.1467
 1188SOL    HW215024   0.073   0.055   6.501 -1.8690  3.1450  2.0242
 1189SOL     OW15025   1.256   1.166   4.758 -0.1560  0.2721  0.1403
 1189SOL    HW115026   1.317   1.216   4.705  0.1570  0.0363  0.2816
 1189SOL    HW215027   1.225   1.235   4.817 -2.3346 -0.8341  0.3082
 1190SOL     OW15028   0.601   1.003   5.924  0.6196 -0.0460  0.1319
 1190SOL    HW115029   0.631   0.912   5.920  1.1191  0.2548 -2.6183
 1190SOL    HW215030   0.522   1.002   5.870 -1.2486  0.9482  2.8271
 1191SOL     OW15031   0.330   3.837   3.359  0.2761 -0.0840 -0.2462
 1191SOL    HW115032   0.240   3.866   3.343  0.4232  0.3762 -0.2495
 1191SOL    HW215033   0.372   3.918   3.388  1.3285 -0.5689 -0.4081
 1192SOL     OW15034   2.923   1.317   5.086  0.2789 -0.0143  0.5367
 1192SOL    HW115035   2.866   1.391   5.109  0.4734  0.9952 -2.1865
 1192SOL    HW215036   2.982   1.320   5.162  1.1685 -0.9390 -0.1227
 1193SOL     OW15037   1.049   4.198   6.289 -0.2851 -0.3092  0.4481
 1193SOL    HW115038   0.958   4.227   6.300  0.0920  0.7735  0.6451
 1193SOL    HW215039   1.083   4.264   6.229  0.5856 -0.6867  0.5374
 1194SOL     OW15040   2.690   1.033   1.591 -0.2408 -0.4265 -0.5722
 1194SOL    HW115041   2.703   1.106   1.651  0.7913 -0.4314 -0.7855
 1194SOL    HW215042   2.714   1.073   1.507 -0.5673  0.3763 -0.2862
 1195SOL     OW15043   0.870   4.701   3.842 -0.2707 -0.1003  0.2314
 1195SOL    HW115044   0.860   0.041   3.772  0.9281  0.6882  0.7617
 1195SOL    HW215045   0.778   4.675   3.847  0.4376 -2.6419 -0.0134
 1196SOL     OW15046   3.760   2.977   5.791 -0.2090 -0.4604  0.2621
 1196SOL    HW115047   3.774   3.068   5.817 -1.1351 -0.2662  0.0852
 1196SOL    HW215048   3.671   2.977   5.756  0.3723 -0.9460 -1.1822
 1197SOL     OW15049   1.921   0.586  15.349 -0.0322 -0.6986  0.0060
 1197SOL    HW115050   1.915   0.491  15.333  1.9750 -0.9125  0.5408
 1197SOL    HW215051   1.946   0.586  15.441  1.9874 -1.1665 -0.5429
 1198SOL     OW15052   1.058   0.033   1.682  0.0967  0.1948  0.2624
 1198SOL    HW115053   1.041   4.681   1.626 -0.9951  1.4005 -1.0338
 1198SOL    HW215054   0.989   0.013   1.745 -0.1367  0.8969  0.2235
 1199SOL     OW15055   0.474   4.156   4.949  0.0188 -0.3408  0.6441
 1199SOL    HW115056   0.398   4.100   4.959 -0.3031  0.1275  0.8038
 1199SOL    HW215057   0.463   4.192   4.861 -0.0583 -1.1326  0.3326
 1200SOL     OW15058   4.667   4.589   9.795 -0.4133  0.1949  0.1325
 1200SOL    HW115059   4.606   4.538   9.742 -0.3184  0.7721 -0.5308
 1200SOL    HW215060   4.635   4.675   9.768  0.4265  0.4162 -0.1609
 1201SOL     OW15061   1.240   1.349   6.054 -0.3098 -0.4169 -0.5387
 1201SOL    HW115062   1.148   1.365   6.073 -0.0073 -0.1538  0.7288
 1201SOL    HW215063   1.274   1.421   6.107 -0.9682 -1.6525  1.5920
 1202SOL     OW15064   3.519   2.531   8.931  0.0982 -0.5679 -0.1184
 1202SOL    HW115065   3.528   2.554   8.839  2.0735  0.7762  0.4110
 1202SOL    HW215066   3.451   2.465   8.918  0.7456 -0.9579 -1.5530
 1203SOL     OW15067   0.018   1.073   3.960  0.3378 -0.1363  0.4516
 1203SOL    HW115068   0.039   1.161   3.989  0.6641 -0.0806  0.0623
 1203SOL    HW215069   0.082   1.061   3.889 -1.6997 -0.1355 -1.3810
 1204SOL     OW15070   1.158   2.239   8.107  0.6335 -0.4926 -0.3230
 1204SOL    HW115071   1.176   2.280   8.192 -1.4479 -1.5520  0.6329
 1204SOL    HW215072   1.063   2.242   8.098  0.9418  1.9977 -2.6027
 1205SOL     OW15073   4.121   1.712   7.648 -0.2918 -0.0610 -0.0144
 1205SOL    HW115074   4.180   1.642   7.676  1.2287  0.7178 -1.3597
 1205SOL    HW215075   4.056   1.667   7.594  0.0835  0.9357 -1.2868
 1206SOL     OW15076   2.565   0.474  17.497  0.6513 -0.1248  0.1567
 1206SOL    HW115077   2.656   0.445  17.493  1.2134  1.7863 -1.2063
 1206SOL    HW215078   2.577   0.562  17.533  2.3343 -0.4144  0.2978
 1207SOL     OW15079   0.811   0.306  15.550  0.8839  0.4484 -0.4247
 1207SOL    HW115080   0.769   0.262  15.625  3.1554  0.0932  0.6340
 1207SOL    HW215081   0.748   0.275  15.485  1.4345 -1.2353 -0.1705
 1208SOL     OW15082   0.179   2.720  13.571  0.0263  0.0251  0.1454
 1208SOL    HW115083   0.231   2.733  13.492  0.6051 -2.7523  0.0621
 1208SOL    HW215084   0.088   2.732  13.542  0.1379 -0.5023 -0.4206
 1209SOL     OW15085   2.211   0.180  14.361  0.1975  0.9520 -0.2616
 1209SOL    HW115086   2.131   0.167  14.413 -1.4102  2.1775 -2.4101
 1209SOL    HW215087   2.185   0.155  14.272  1.5080  0.8201 -0.6045
 1210SOL     OW15088   2.852   1.610   6.860 -0.2118 -0.5911  0.3338
 1210SOL    HW115089   2.937   1.597   6.817  0.0898 -0.3014  0.8409
 1210SOL    HW215090   2.873   1.592   6.952 -3.4385 -0.2648  1.1086
 1211SOL     OW15091   4.571   1.173  11.203  0.0310  0.0902 -0.6402
 1211SOL    HW115092   4.490   1.126  11.180 -0.0354 -1.4231  2.6708
 1211SOL    HW215093   4.626   1.109  11.248  1.4219  1.6802 -0.0981
 1212SOL     OW15094   3.109   1.402   4.102 -0.1687  0.2186  0.0969
 1212SOL    HW115095   3.182   1.464   4.102  0.0745 -0.0765  2.9270
 1212SOL    HW215096   3.116   1.361   4.016 -1.1289  0.3042 -0.0205
 1213SOL     OW15097   2.456   1.967  12.006 -0.8374 -0.3348  0.2156
 1213SOL    HW115098   2.448   2.043  11.948  3.7174 -0.3818 -0.5152
 1213SOL    HW215099   2.394   1.902  11.973  0.7116 -1.6712 -0.0343
 1214SOL     OW15100   4.284   1.345  14.603 -0.2694 -0.0272 -0.6214
 1214SOL    HW115101   4.308   1.344  14.696 -0.2012  2.1107 -0.6096
 1214SOL    HW215102   4.335   1.273  14.566  1.8483  1.0555  0.1471
 1215SOL     OW15103   4.244   0.656   3.666 -0.0895  0.3631 -0.6790
 1215SOL    HW115104   4.170   0.716   3.658 -2.4255 -2.2528  0.9946
 1215SOL    HW215105   4.217   0.578   3.618  1.2981  0.8581 -2.2494
 1216SOL     OW15106   2.604   0.792   1.690  0.0123  0.5505 -0.0628
 1216SOL    HW115107   2.646   0.793   1.776 -2.6399  1.9805  1.2143
 1216SOL    HW215108   2.629   0.882   1.666  0.9076  0.2047 -0.4184
 1217SOL     OW15109   1.614   1.915  14.150 -0.0578 -0.0840  0.4194
 1217SOL    HW115110   1.674   1.988  14.140  1.9972 -1.5400  2.0181
 1217SOL    HW215111   1.553   1.931  14.078  0.7535 -2.1321 -0.7128
 1218SOL     OW15112   4.484   2.116  12.932  0.0839  0.0455 -0.5369
 1218SOL    HW115113   4.431   2.046  12.971  0.4726  1.2907  2.1837
 1218SOL    HW215114   4.573   2.086  12.950 -0.3071 -0.4563  0.5853
 1219SOL     OW15115   2.153   4.069   4.239 -0.1092  0.0461  0.3888
 1219SOL    HW115116   2.108   4.030   4.165  0.8734 -0.8684  0.2723
 1219SOL    HW215117   2.095   4.136   4.275 -0.7888 -1.0612  1.3369
 1220SOL     OW15118   2.013   3.584   8.584 -0.2726  0.2837 -0.2302
 1220SOL    HW115119   1.993   3.645   8.654  2.6003  0.6059  0.3197
 1220SOL    HW215120   2.105   3.606   8.568  0.4786 -1.2490  1.9214
 1221SOL     OW15121   2.660   2.645   1.932 -0.8134  0.1057 -0.4689
 1221SOL    HW115122   2.610   2.623   1.854  1.8985 -1.4357 -1.7485
 1221SOL    HW215123   2.742   2.675   1.894 -0.0492 -0.0754  1.0265
 1222SOL     OW15124   2.777   2.641   4.201 -0.4438  0.1122  0.6109
 1222SOL    HW115125   2.699   2.696   4.192 -0.5324  0.2745  2.2421
 1222SOL    HW215126   2.844   2.671   4.141 -0.9838  1.1809  0.5388
 1223SOL     OW15127   1.169   4.588   4.126  0.0913  0.2917 -0.2773
 1223SOL    HW115128   1.176   4.579   4.031  0.5035 -0.8356 -0.1352
 1223SOL    HW215129   1.192   4.678   4.148 -1.0391  0.3887  0.4998
 1224SOL     OW15130   1.272   2.767   4.603 -0.0496  0.0329  0.3890
 1224SOL    HW115131   1.323   2.787   4.681 -0.8934 -0.8060  1.1668
 1224SOL    HW215132   1.249   2.857   4.580  1.6158  0.6974  1.3560
 1225SOL     OW15133   1.791   3.591  11.098 -0.1339 -0.4362  0.7283
 1225SOL    HW115134   1.789   3.686  11.094 -0.7359 -0.5037 -0.5182
 1225SOL    HW215135   1.862   3.583  11.035 -0.7397 -0.0057 -0.0068
 1226SOL     OW15136   1.379   4.111   9.198  0.0209  0.0906 -0.0679
 1226SOL    HW115137   1.364   4.031   9.148  0.7917 -0.9019  1.3266
 1226SOL    HW215138   1.467   4.128   9.164 -0.5396  2.0211 -0.5904
 1227SOL     OW15139   2.443   3.195   4.756  0.0763 -0.0148  0.1319
 1227SOL    HW115140   2.369   3.252   4.775 -2.2431 -3.0918  0.2896
 1227SOL    HW215141   2.491   3.227   4.680  1.2141 -0.6482  0.5824
 1228SOL     OW15142   1.845   1.446   8.533  0.1530  0.4155  0.8762
 1228SOL    HW115143   1.935   1.443   8.500 -0.1559  0.4730  0.0342
 1228SOL    HW215144   1.816   1.361   8.500 -0.6932  0.8963  0.3975
 1229SOL     OW15145   2.046   2.456   5.373  0.0375 -0.3542 -0.4584
 1229SOL    HW115146   2.035   2.499   5.289 -1.0077  1.2716  0.5110
 1229SOL    HW215147   1.974   2.502   5.417 -0.1793  0.2695 -1.4748
 1230SOL     OW15148   1.396   3.668  13.529  0.2894  0.0572 -0.1828
 1230SOL    HW115149   1.417   3.758  13.506 -0.1558  0.7920  2.3327
 1230SOL    HW215150   1.463   3.669  13.597  0.9813  2.7913 -0.9077
 1231SOL     OW15151   0.593   1.395   3.185  0.2991 -0.2398  0.7584
 1231SOL    HW115152   0.546   1.474   3.212  2.2551  1.0440  0.3719
 1231SOL    HW215153   0.677   1.390   3.231  0.2257  1.9784  1.0993
 1232SOL     OW15154   0.325   3.177   5.044 -0.4615  0.3777  0.6014
 1232SOL    HW115155   0.358   3.124   4.972 -2.1493 -0.8365  0.7327
 1232SOL    HW215156   0.381   3.135   5.110  0.1412  0.0377 -0.1236
 1233SOL     OW15157   3.971   4.104   5.671 -0.3582 -0.2080 -0.0079
 1233SOL    HW115158   4.023   4.181   5.650 -1.3556  0.1749 -1.1035
 1233SOL    HW215159   4.016   4.037   5.619 -0.3939  0.4475 -0.8895
 1234SOL     OW15160   0.599   0.867   3.263  0.1575  0.8883 -0.4341
 1234SOL    HW115161   0.605   0.780   3.301 -0.9643 -0.2401 -2.8853
 1234SOL    HW215162   0.638   0.924   3.330 -1.5578  0.7965  0.6461
 1235SOL     OW15163   4.594   1.867  17.590  0.5270 -0.4764 -0.0675
 1235SOL    HW115164   4.542   1.848  17.668  3.2743 -0.6538  1.7315
 1235SOL    HW215165   4.603   1.962  17.594 -1.3240 -0.2961 -0.4128
 1236SOL     OW15166   1.518   0.975   4.003 -0.1037  0.5903 -0.8157
 1236SOL    HW115167   1.571   0.988   3.925  1.5629 -0.8561  0.0831
 1236SOL    HW215168   1.510   0.880   4.017 -1.2595  1.0512  1.6580
 1237SOL     OW15169   1.959   3.022   1.220 -0.1549 -0.1982 -0.5656
 1237SOL    HW115170   1.945   3.101   1.272 -0.1635 -0.0980 -0.7216
 1237SOL    HW215171   2.055   3.014   1.219  0.0058  1.5201  1.6222
 1238SOL     OW15172   1.527   2.483   8.533 -0.1946 -0.0773 -0.5634
 1238SOL    HW115173   1.504   2.507   8.622  0.3522  1.0592 -0.7276
 1238SOL    HW215174   1.497   2.393   8.534 -0.3390 -0.0235 -0.3185
 1239SOL     OW15175   0.355   3.851   9.020 -0.3438 -0.6376 -1.0480
 1239SOL    HW115176   0.328   3.939   8.995 -3.7935 -1.3071  0.1910
 1239SOL    HW215177   0.332   3.853   9.113  0.6663 -0.6694 -0.8011
 1240SOL     OW15178   3.927   1.832  10.897 -0.4393 -0.0158  0.2897
 1240SOL    HW115179   3.999   1.868  10.949 -0.6223  0.9285 -0.1083
 1240SOL    HW215180   3.926   1.886  10.818  0.7680  1.1531  1.0808
 1241SOL     OW15181   4.320   2.296  16.518  0.1757 -0.2921 -0.0166
 1241SOL    HW115182   4.406   2.277  16.556  0.1615 -1.1099 -0.4123
 1241SOL    HW215183   4.284   2.213  16.489 -0.7172 -0.3493  1.2815
 1242SOL     OW15184   2.086   1.954   4.918 -0.7009  0.2332 -0.3426
 1242SOL    HW115185   2.092   1.983   5.009  0.4780  0.6350 -0.5499
 1242SOL    HW215186   2.134   2.024   4.873  2.3086 -0.2495  2.1761
 1243SOL     OW15187   3.323   0.269   4.422 -0.8874  0.3666 -0.0641
 1243SOL    HW115188   3.303   0.176   4.412 -1.4489  0.4698  0.0932
 1243SOL    HW215189   3.382   0.267   4.346 -0.5646 -0.5608  0.2141
 1244SOL     OW15190   2.323   3.307   8.473  0.6472  0.3261 -0.0861
 1244SOL    HW115191   2.230   3.310   8.447  0.7918 -1.3967 -0.8166
 1244SOL    HW215192   2.367   3.362   8.409  0.5413  0.7021  0.1662
 1245SOL     OW15193   3.307   1.848   3.254 -0.6641  0.1496 -0.2848
 1245SOL    HW115194   3.394   1.858   3.292 -1.5121  2.9783  0.9021
 1245SOL    HW215195   3.259   1.777   3.295 -1.3294  0.9867  0.3902
 1246SOL     OW15196   1.095   1.584   5.051 -0.0072  0.3917 -0.4023
 1246SOL    HW115197   1.103   1.677   5.029  1.1486  0.4672  0.3346
 1246SOL    HW215198   1.000   1.577   5.063 -0.0894 -0.4274 -1.5752
 1247SOL     OW15199   0.968   2.237   1.859 -0.0546 -0.0151 -0.2082
 1247SOL    HW115200   0.894   2.295   1.881 -0.7814 -0.6567 -0.9233
 1247SOL    HW215201   0.975   2.271   1.769 -0.1902  1.5296  0.3570
 1248SOL     OW15202   1.336   1.058  15.742 -0.4199 -0.2065 -0.6156
 1248SOL    HW115203   1.372   0.970  15.747 -2.0996 -0.8465  0.4447
 1248SOL    HW215204   1.327   1.077  15.649 -0.8266  0.0244 -0.5311
 1249SOL     OW15205   4.483   0.489   5.399  0.1216  0.1858 -0.1269
 1249SOL    HW115206   4.404   0.449   5.362 -0.3143  2.1405 -1.3223
 1249SOL    HW215207   4.544   0.451   5.335 -0.0604 -1.0817  0.4660
 1250SOL     OW15208   1.162   3.807   9.429 -0.1465 -0.2885  0.0602
 1250SOL    HW115209   1.201   3.756   9.500 -1.0830  0.5733  1.1918
 1250SOL    HW215210   1.069   3.812   9.451 -0.3065 -1.3092 -0.3851
 1251SOL     OW15211   0.605   3.498   7.739  0.1673 -0.1604  0.3374
 1251SOL    HW115212   0.620   3.592   7.727 -1.9619  0.4021  2.0066
 1251SOL    HW215213   0.515   3.492   7.705 -0.9553  1.4760  3.0147
 1252SOL     OW15214   0.454   3.164  16.937  0.1565 -0.3375  0.4697
 1252SOL    HW115215   0.480   3.077  16.906 -0.4398 -1.4748  3.1295
 1252SOL    HW215216   0.382   3.140  16.996 -1.0426 -0.1360 -0.9238
 1253SOL     OW15217   2.635   0.264   6.096  0.2341  0.8531 -0.3063
 1253SOL    HW115218   2.619   0.308   6.013 -1.3004 -0.5592 -0.7487
 1253SOL    HW215219   2.552   0.290   6.137 -0.2714  0.4846 -1.0828
 1254SOL     OW15220   2.057   0.614   4.669  0.6544  0.3786  0.0202
 1254SOL    HW115221   2.101   0.683   4.619  0.4153 -1.2117 -2.3935
 1254SOL    HW215222   1.970   0.650   4.687  0.6782  0.3695  0.1504
 1255SOL     OW15223   1.321   1.782  13.421  0.0478 -0.1237  0.0947
 1255SOL    HW115224   1.232   1.812  13.405 -0.1853 -1.9593 -2.0157
 1255SOL    HW215225   1.349   1.855  13.476 -3.6552  0.0749  1.6855
 1256SOL     OW15226   3.709   3.597  15.759  0.4220 -0.1851 -0.0067
 1256SOL    HW115227   3.773   3.663  15.786 -0.7397  1.3122 -0.8946
 1256SOL    HW215228   3.735   3.529  15.820  2.5834  2.5883  2.1450
 1257SOL     OW15229   2.836   0.709   5.596  0.7044  0.2433 -0.2778
 1257SOL    HW115230   2.907   0.755   5.642  0.1696 -0.2004  0.9853
 1257SOL    HW215231   2.774   0.781   5.605  0.7335  0.1756  0.5558
 1258SOL     OW15232   3.224   0.953   7.146  0.3613 -0.2636 -0.6721
 1258SOL    HW115233   3.153   0.919   7.200  1.6264 -1.1242  0.4640
 1258SOL    HW215234   3.199   1.045   7.139 -0.3794 -0.5416 -1.6710
 1259SOL     OW15235   3.657   0.854   9.374  0.1831  0.0553 -0.3689
 1259SOL    HW115236   3.630   0.938   9.413  2.7630  0.3617  0.7788
 1259SOL    HW215237   3.656   0.791   9.446  0.6829 -2.0662 -2.2490
 1260SOL     OW15238   0.485   2.553   9.322  0.4839  0.2630  0.1162
 1260SOL    HW115239   0.436   2.536   9.402 -0.8971 -0.4764 -0.8934
 1260SOL    HW215240   0.571   2.517   9.346  0.0552 -1.4549 -0.9092
 1261SOL     OW15241   1.945   0.965   3.281  0.7445  0.0104  0.0433
 1261SOL    HW115242   1.977   0.963   3.191  1.7293  0.7356  0.3648
 1261SOL    HW215243   1.850   0.966   3.270  1.1718  2.4826 -3.5233
 1262SOL     OW15244   1.573   1.042   5.884  0.6752  0.0273 -0.4602
 1262SOL    HW115245   1.499   1.100   5.874 -0.9880 -1.9978  0.0741
 1262SOL    HW215246   1.553   1.003   5.969 -0.7957  2.7852  0.4571
 1263SOL     OW15247   3.968   4.110   3.533 -0.1832 -0.2464 -0.0166
 1263SOL    HW115248   4.035   4.175   3.515 -0.2143  0.2761  1.7148
 1263SOL    HW215249   3.954   4.117   3.628 -2.1721 -2.6092 -0.1237
 1264SOL     OW15250   3.028   4.560   0.175  0.3156 -0.4239 -0.0346
 1264SOL    HW115251   3.074   4.634   0.134 -0.6203 -0.2809 -0.8280
 1264SOL    HW215252   3.070   4.484   0.136 -0.1281 -0.6640 -0.0491
 1265SOL     OW15253   4.596   1.676  12.828  0.0537  0.1254 -0.4166
 1265SOL    HW115254   4.632   1.733  12.897 -0.8171 -2.0603  1.8611
 1265SOL    HW215255   4.644   1.597  12.853 -1.8646 -0.6191  0.9459
 1266SOL     OW15256   4.654   3.745  15.897  0.2290 -0.4893 -0.1007
 1266SOL    HW115257   4.607   3.684  15.954  0.6889  0.7177  1.5754
 1266SOL    HW215258   4.687   3.812  15.957 -1.4646 -0.0484  0.3456
 1267SOL     OW15259   2.726   0.888   2.766 -0.0435  0.0166 -0.0496
 1267SOL    HW115260   2.797   0.867   2.705  0.9303  2.0277  0.3826
 1267SOL    HW215261   2.659   0.903   2.699 -1.6478  0.6672  1.7272
 1268SOL     OW15262   3.902   3.599   3.585 -0.3825  0.1970 -0.0249
 1268SOL    HW115263   3.890   3.661   3.513 -0.5350 -0.2670 -0.3971
 1268SOL    HW215264   3.809   3.576   3.587 -0.0905 -0.8963  0.8652
 1269SOL     OW15265   3.228   1.099   6.657 -0.2574 -0.0168 -0.2510
 1269SOL    HW115266   3.303   1.087   6.598 -0.7079 -3.2948 -0.1638
 1269SOL    HW215267   3.222   1.012   6.696 -1.6247  1.0124  1.8227
 1270SOL     OW15268   0.343   4.208   4.330  0.2063  0.1251  0.2335
 1270SOL    HW115269   0.344   4.303   4.318 -1.9617  0.0367 -0.5657
 1270SOL    HW215270   0.253   4.195   4.301  0.3843 -1.5157  0.4340
 1271SOL     OW15271   2.178   4.638   9.875 -0.2165  0.5961 -0.1922
 1271SOL    HW115272   2.217   4.551   9.874  1.3668  1.2982  0.2227
 1271SOL    HW215273   2.152   4.638   9.968  0.7603  0.3348  0.0781
 1272SOL     OW15274   2.705   0.646   3.190  0.5464 -0.6990  0.3148
 1272SOL    HW115275   2.627   0.602   3.157  0.1051  1.6908 -1.8519
 1272SOL    HW215276   2.667   0.732   3.207  1.7340  0.2439 -1.8235
 1273SOL     OW15277   4.025   0.697  16.964  0.5142  0.9580 -0.1631
 1273SOL    HW115278   4.048   0.693  16.872 -1.2899 -1.7935 -0.5233
 1273SOL    HW215279   4.019   0.791  16.980 -1.3309  0.8083  0.0465
 1274SOL     OW15280   3.572   0.985   1.906 -0.6607 -0.0213  0.5601
 1274SOL    HW115281   3.523   0.978   1.824  0.3722  0.4553 -0.0953
 1274SOL    HW215282   3.581   1.080   1.903  1.3781 -0.3401 -2.8023
 1275SOL     OW15283   3.375   2.071  15.613 -0.5296  0.2353  0.1534
 1275SOL    HW115284   3.410   2.062  15.701  0.5923 -1.2330 -0.4306
 1275SOL    HW215285   3.381   2.166  15.611 -2.0505  0.3309  0.2227
 1276SOL     OW15286   2.632   3.592   8.173 -0.4084 -0.1035  0.5669
 1276SOL    HW115287   2.716   3.614   8.213 -1.2094  2.2010  0.9773
 1276SOL    HW215288   2.592   3.678   8.180  1.7190  1.1086 -1.9919
 1277SOL     OW15289   1.366   1.313   1.907  0.6299 -0.1758  0.3126
 1277SOL    HW115290   1.277   1.350   1.909  0.5324 -0.3868 -0.0818
 1277SOL    HW215291   1.364   1.225   1.944 -3.5113 -0.6244 -0.9727
 1278SOL     OW15292   1.609   4.698   9.025  0.0377  0.2015 -0.1865
 1278SOL    HW115293   1.627   0.030   9.101  2.0151 -1.1880  0.3442
 1278SOL    HW215294   1.670   0.008   8.960  0.4873 -1.0714 -0.4139
 1279SOL     OW15295   1.717   3.813   9.867 -0.1903  0.2395 -0.0465
 1279SOL    HW115296   1.807   3.796   9.838 -0.1118  1.6526 -0.6343
 1279SOL    HW215297   1.722   3.907   9.880 -0.4336  0.2195  0.1966
 1280SOL     OW15298   0.630   1.588   3.792 -0.5024 -0.2562 -0.0957
 1280SOL    HW115299   0.652   1.623   3.706 -2.5076 -1.3855 -1.0557
 1280SOL    HW215300   0.643   1.494   3.778 -0.9894 -0.4376  0.6797
 1281SOL     OW15301   0.155   4.394   3.926 -0.1025 -0.4536  0.0484
 1281SOL    HW115302   0.138   4.302   3.947  1.9375 -0.7166  0.5541
 1281SOL    HW215303   0.245   4.402   3.957 -0.8965 -0.6570  2.3994
 1282SOL     OW15304   3.146   2.443   3.836 -0.0228 -0.2029 -0.6525
 1282SOL    HW115305   3.221   2.458   3.895 -1.1352 -0.0989  0.7378
 1282SOL    HW215306   3.091   2.388   3.892 -0.7106  1.3395  0.1890
 1283SOL     OW15307   2.623   1.415  17.053 -0.2256  0.2928 -0.3019
 1283SOL    HW115308   2.703   1.466  17.045 -0.9179  1.7377  2.0075
 1283SOL    HW215309   2.611   1.372  16.968  0.8102 -0.9094  0.1854
 1284SOL     OW15310   3.595   2.510   5.670  0.1399  0.2393  0.4113
 1284SOL    HW115311   3.552   2.578   5.723  1.5123  0.2640  1.4967
 1284SOL    HW215312   3.621   2.554   5.589 -0.7412  0.2782  0.1571
 1285SOL     OW15313   1.864   3.860   5.343  0.3383  0.0935 -0.5574
 1285SOL    HW115314   1.836   3.885   5.255  0.9470 -1.8487 -1.2952
 1285SOL    HW215315   1.870   3.767   5.324  0.9812 -0.3771  1.9960
 1286SOL     OW15316   2.226   1.689   4.898  0.4459  0.7465 -0.4137
 1286SOL    HW115317   2.172   1.700   4.977 -3.2674 -0.1713 -2.8000
 1286SOL    HW215318   2.206   1.771   4.854  1.7178  1.5489  0.5253
 1287SOL     OW15319   4.303   3.316   3.951 -0.3765 -0.7933 -0.1773
 1287SOL    HW115320   4.334   3.397   3.910 -1.1026  0.4118  1.6347
 1287SOL    HW215321   4.384   3.287   3.992 -0.7564 -1.0182  0.4181
 1288SOL     OW15322   2.763   3.684   4.711 -0.0712 -0.4530  0.4366
 1288SOL    HW115323   2.703   3.614   4.682  2.0629 -1.7008 -0.9141
 1288SOL    HW215324   2.789   3.722   4.628 -2.1912  2.4992  1.1184
 1289SOL     OW15325   0.064   2.928   2.653  0.5239  0.2177 -0.1021
 1289SOL    HW115326   0.026   3.014   2.667 -0.3575 -0.5274  2.0129
 1289SOL    HW215327   0.000   2.885   2.595  1.3847  1.4138 -1.9417
 1290SOL     OW15328   3.601   0.468  16.593 -0.2353  0.0117 -0.0126
 1290SOL    HW115329   3.516   0.426  16.583 -0.0430  0.0228 -1.7650
 1290SOL    HW215330   3.578   0.559  16.573 -1.5254  0.2540  2.6320
 1291SOL     OW15331   4.341   3.188   8.440 -0.6333  0.1199  0.0179
 1291SOL    HW115332   4.279   3.154   8.375  0.5624  2.0139 -2.1053
 1291SOL    HW215333   4.289   3.262   8.472  0.1837  1.2081 -1.1497
 1292SOL     OW15334   0.953   2.021   9.039  0.2550  0.0929 -0.1323
 1292SOL    HW115335   0.949   1.928   9.015 -0.8553  0.0068  0.3877
 1292SOL    HW215336   0.993   2.057   8.960  1.1951  1.0819  0.7968
 1293SOL     OW15337   3.728   4.481  14.725  0.5988 -0.1620 -0.0766
 1293SOL    HW115338   3.712   4.421  14.651 -0.1766  1.0979 -0.9240
 1293SOL    HW215339   3.677   4.452  14.800  0.9688  0.1440  0.2922
 1294SOL     OW15340   2.374   3.454   3.290 -0.3759 -0.4631 -0.1130
 1294SOL    HW115341   2.305   3.418   3.346  0.7180 -0.3809  1.2820
 1294SOL    HW215342   2.324   3.526   3.252 -0.1586  0.1789  0.8100
 1295SOL     OW15343   2.938   2.628   3.757 -0.2351 -0.2153 -0.2975
 1295SOL    HW115344   2.879   2.566   3.800  1.5288 -1.4084  0.4066
 1295SOL    HW215345   3.016   2.573   3.768 -0.2859 -0.2444 -0.0858
 1296SOL     OW15346   1.174   4.104   6.885 -1.1529 -0.0878  0.5497
 1296SOL    HW115347   1.240   4.034   6.891 -0.7154  0.3030  0.2762
 1296SOL    HW215348   1.140   4.090   6.796  0.0161 -1.3699  0.3007
 1297SOL     OW15349   1.214   4.237   7.428 -0.3553  0.1980 -0.0091
 1297SOL    HW115350   1.163   4.157   7.438  0.2282  0.0109  1.4544
 1297SOL    HW215351   1.250   4.217   7.341 -2.1832 -1.6226 -0.3428
 1298SOL     OW15352   3.895   2.610   7.706 -0.3596  0.0833 -0.2445
 1298SOL    HW115353   3.830   2.665   7.748  1.5600  0.5860  2.0941
 1298SOL    HW215354   3.970   2.665   7.730  0.5269 -1.4170  0.4414
 1299SOL     OW15355   0.348   1.243   6.398 -0.4071  0.0937  0.2271
 1299SOL    HW115356   0.379   1.199   6.478 -0.9735  1.3014  1.1048
 1299SOL    HW215357   0.428   1.253   6.346 -1.5992  1.0891 -1.3861
 1300SOL     OW15358   0.283   2.706  10.658  1.0047 -0.0428 -0.3058
 1300SOL    HW115359   0.268   2.623  10.613  1.4388  0.6699 -1.7781
 1300SOL    HW215360   0.205   2.699  10.713  1.8280 -1.2657  0.6821
 1301SOL     OW15361   3.450   3.033   5.051  0.2802  0.3820 -0.2828
 1301SOL    HW115362   3.362   3.063   5.071  1.3833  0.7535  3.9562
 1301SOL    HW215363   3.458   2.970   5.123 -3.2519 -0.5190 -0.6563
 1302SOL     OW15364   2.348   1.174  17.443 -0.2217 -0.1255 -0.0833
 1302SOL    HW115365   2.328   1.231  17.517 -2.2693 -0.4469 -0.3969
 1302SOL    HW215366   2.362   1.237  17.373 -1.5766  0.2423 -0.0099
 1303SOL     OW15367   1.429   0.266   1.037  0.2719  0.0731  0.3149
 1303SOL    HW115368   1.474   0.335   0.989 -0.1320 -0.6246 -1.0475
 1303SOL    HW215369   1.359   0.244   0.976 -0.3522 -0.8827  1.3518
 1304SOL     OW15370   1.661   0.413   3.317 -0.1886 -0.4129  0.1775
 1304SOL    HW115371   1.596   0.407   3.387 -0.9723 -0.3938 -0.5555
 1304SOL    HW215372   1.651   0.497   3.273  0.9790 -0.1128  0.5023
 1305SOL     OW15373   2.739   4.717   3.196 -0.3305  0.5036  0.3866
 1305SOL    HW115374   2.779   4.674   3.121 -0.8594  1.3132 -0.3597
 1305SOL    HW215375   2.748   4.648   3.262  0.5365  1.5315  1.3631
 1306SOL     OW15376   0.323   1.025  13.619  0.0296  0.0350  0.2752
 1306SOL    HW115377   0.337   1.119  13.605 -1.5778  0.7973  3.6980
 1306SOL    HW215378   0.337   1.022  13.714 -1.5100 -2.0434  0.4309
 1307SOL     OW15379   4.237   3.885   0.781  0.1148 -0.4185 -0.3166
 1307SOL    HW115380   4.285   3.916   0.858 -1.0442 -1.5945  0.8967
 1307SOL    HW215381   4.178   3.817   0.815  0.7132 -0.6431  0.2710
 1308SOL     OW15382   0.417   1.735  17.186 -0.1744 -0.1298  0.0390
 1308SOL    HW115383   0.470   1.659  17.165 -0.2607 -0.5397  1.2852
 1308SOL    HW215384   0.438   1.740  17.280 -1.3029 -0.8899  0.3215
 1309SOL     OW15385   0.410   0.234   6.337  0.4798 -0.1379 -0.5597
 1309SOL    HW115386   0.383   0.304   6.277  1.8929  0.6853 -0.2361
 1309SOL    HW215387   0.386   0.160   6.280  0.5026  1.2306 -2.3516
 1310SOL     OW15388   2.475   1.827   2.592  0.7845  0.1432  0.2972
 1310SOL    HW115389   2.554   1.871   2.621  0.7790 -0.9342  1.9319
 1310SOL    HW215390   2.410   1.852   2.657 -1.7835 -0.3548 -2.0266
 1311SOL     OW15391   1.760   4.359  16.805  0.5130  0.3914 -0.0061
 1311SOL    HW115392   1.717   4.443  16.786  1.4528  1.0814  0.9394
 1311SOL    HW215393   1.718   4.334  16.887  0.7177  1.0123  0.2901
 1312SOL     OW15394   4.641   2.469   6.574  0.5878  0.0318 -0.5597
 1312SOL    HW115395   4.663   2.521   6.651  2.5390  0.2030 -1.2264
 1312SOL    HW215396   4.696   2.516   6.511  0.4265  0.7724 -0.1453
 1313SOL     OW15397   3.928   0.269   6.741 -0.1250  0.4130  0.2094
 1313SOL    HW115398   3.949   0.232   6.826  2.2437 -0.4204 -0.7373
 1313SOL    HW215399   3.925   0.362   6.760  0.1922  0.6050 -0.6492
 1314SOL     OW15400   3.840   2.492   0.550 -0.1318  0.5758  0.7969
 1314SOL    HW115401   3.777   2.548   0.505 -2.7618 -2.5549  0.5839
 1314SOL    HW215402   3.870   2.553   0.618  1.9860 -2.2733  2.4580
 1315SOL     OW15403   1.279   4.271  16.041  0.4744 -0.2974 -0.3631
 1315SOL    HW115404   1.275   4.272  16.137  1.0072 -1.9153 -0.3186
 1315SOL    HW215405   1.318   4.187  16.016  1.1367  0.2789 -1.2428
 1316SOL     OW15406   3.122   0.246   8.461 -0.0352  0.1105  0.1343
 1316SOL    HW115407   3.164   0.267   8.378 -1.2000 -1.3674 -0.8290
 1316SOL    HW215408   3.126   0.150   8.460 -1.0835  0.0328  3.1751
 1317SOL     OW15409   4.503   2.673   3.027  0.1923 -0.4188 -0.0632
 1317SOL    HW115410   4.548   2.590   3.044  1.0337  0.4418  1.9167
 1317SOL    HW215411   4.567   2.711   2.967 -0.5973  0.0717 -0.5919
 1318SOL     OW15412   2.800   0.154   5.560 -0.7553 -0.3150 -0.8927
 1318SOL    HW115413   2.728   0.090   5.559 -0.8426 -0.2120 -1.4268
 1318SOL    HW215414   2.790   0.185   5.470 -0.7915 -3.4624 -1.9816
 1319SOL     OW15415   3.548   0.178   4.697 -0.6079  0.4135 -0.0989
 1319SOL    HW115416   3.493   0.217   4.765 -1.2644  2.3493 -1.7105
 1319SOL    HW215417   3.617   0.148   4.756 -1.6564  0.1952  1.0077
 1320SOL     OW15418   0.906   3.509   2.258 -0.3061 -0.3373 -0.2134
 1320SOL    HW115419   0.929   3.451   2.331 -2.0293  0.5857  1.0783
 1320SOL    HW215420   0.995   3.518   2.224  0.7406 -0.3153  2.4561
 1321SOL     OW15421   3.685   2.395   4.840  0.3621  0.0749  0.3107
 1321SOL    HW115422   3.639   2.319   4.805  0.1025 -0.2806  1.4009
 1321SOL    HW215423   3.637   2.474   4.816 -0.0058 -0.6884 -1.4210
 1322SOL     OW15424   1.090   1.994   7.800  0.1405 -0.0089 -0.0473
 1322SOL    HW115425   1.178   1.968   7.826  0.3466 -0.4345 -1.1688
 1322SOL    HW215426   1.100   1.989   7.705 -2.1298 -1.4443 -0.2115
 1323SOL     OW15427   0.273   2.247  10.075  0.0388  0.0415  0.0277
 1323SOL    HW115428   0.315   2.301  10.142  1.6515 -2.4111  1.0052
 1323SOL    HW215429   0.200   2.211  10.127 -1.7004 -1.2183 -3.2720
 1324SOL     OW15430   1.983   2.964   8.241 -0.3164 -0.0523 -0.3864
 1324SOL    HW115431   2.019   3.052   8.257 -0.2973 -0.3017  0.8672
 1324SOL    HW215432   2.059   2.907   8.251  1.4231  2.4672  0.8090
 1325SOL     OW15433   4.465   0.141   7.065 -0.0958 -0.0296 -0.0608
 1325SOL    HW115434   4.398   0.106   7.007 -2.0685  1.1276  1.5124
 1325SOL    HW215435   4.425   0.228   7.077 -0.2892 -0.2456  0.8482
 1326SOL     OW15436   2.907   1.558   2.599  0.2270 -0.5218 -0.4259
 1326SOL    HW115437   2.965   1.564   2.523 -0.1765  1.7837 -0.5697
 1326SOL    HW215438   2.823   1.547   2.555  0.3420 -0.8999 -0.5484
 1327SOL     OW15439   1.770   2.510   2.525  0.2587 -0.7016 -0.6682
 1327SOL    HW115440   1.724   2.476   2.448 -1.6626  0.6284 -0.1038
 1327SOL    HW215441   1.698   2.552   2.571 -0.5955 -3.2928  0.3139
 1328SOL     OW15442   0.511   4.002  16.325  0.1272 -0.2300 -0.1364
 1328SOL    HW115443   0.543   4.082  16.366 -0.5961 -0.4343  0.8359
 1328SOL    HW215444   0.584   3.941  16.315  0.6483  0.3677  0.0469
 1329SOL     OW15445   2.080   1.482   2.925  0.1943 -0.3481  0.8506
 1329SOL    HW115446   2.142   1.527   2.868 -0.3788 -0.7682 -0.1148
 1329SOL    HW215447   2.137   1.464   3.000  1.7027  0.8996  0.0071
 1330SOL     OW15448   1.943   2.468   3.268  0.8591 -0.1370 -0.1169
 1330SOL    HW115449   1.975   2.557   3.254 -0.6370  0.3845 -0.2202
 1330SOL    HW215450   1.974   2.434   3.184  1.3156 -0.3552  0.1374
 1331SOL     OW15451   0.800   4.654  16.704  0.0158  0.2677  0.2488
 1331SOL    HW115452   0.869   4.589  16.718  0.3242  1.1177  2.6768
 1331SOL    HW215453   0.758   4.599  16.638 -2.9648  1.3676  1.1838
 1332SOL     OW15454   2.619   1.370   3.838 -0.4229 -0.1933 -0.1164
 1332SOL    HW115455   2.529   1.385   3.866 -1.0182 -2.6550 -0.6407
 1332SOL    HW215456   2.598   1.313   3.764  0.5213  1.2567 -1.4840
 1333SOL     OW15457   2.874   1.936  11.214 -0.3032  0.0510 -0.4680
 1333SOL    HW115458   2.815   1.891  11.154 -1.8059  1.2143  0.1194
 1333SOL    HW215459   2.846   1.899  11.297 -1.0871  0.6656 -0.4543
 1334SOL     OW15460   1.912   0.571   1.995 -0.5953  0.3754 -0.3165
 1334SOL    HW115461   1.970   0.646   1.988 -2.0909  1.5163 -0.3238
 1334SOL    HW215462   1.867   0.581   1.911  0.7358 -0.2160 -1.1114
 1335SOL     OW15463   2.948   0.341   6.503  0.4083  0.5035 -0.3769
 1335SOL    HW115464   2.888   0.355   6.429  0.3900 -0.9468 -0.6272
 1335SOL    HW215465   3.027   0.309   6.460 -0.2933 -0.7525 -0.7204
 1336SOL     OW15466   0.739   4.160  12.654  0.5105  0.0137 -0.4103
 1336SOL    HW115467   0.756   4.213  12.732  0.1087  0.8248 -0.8869
 1336SOL    HW215468   0.713   4.230  12.595 -2.6548 -0.0697  0.8866
 1337SOL     OW15469   1.586   2.345   5.638 -0.3563  0.3991  0.1666
 1337SOL    HW115470   1.544   2.306   5.715 -0.9222 -2.6098 -1.6737
 1337SOL    HW215471   1.641   2.415   5.673 -1.4130  0.9682  0.6880
 1338SOL     OW15472   4.393   2.994   9.157  0.3990 -0.1217  0.3941
 1338SOL    HW115473   4.347   2.931   9.102  1.2430  0.5303 -1.0627
 1338SOL    HW215474   4.467   3.027   9.105 -1.1058  2.2262 -0.2735
 1339SOL     OW15475   3.727   2.199  12.470  0.3402 -0.6895  0.0593
 1339SOL    HW115476   3.810   2.179  12.514  0.5636  0.0831 -0.0104
 1339SOL    HW215477   3.701   2.122  12.421 -3.8567  0.9289 -0.3129
 1340SOL     OW15478   3.781   2.442   9.618  0.6004  0.1982  0.5414
 1340SOL    HW115479   3.725   2.393   9.557  1.2108 -2.3390  2.0457
 1340SOL    HW215480   3.715   2.510   9.633 -0.9049 -0.9029 -0.9977
 1341SOL     OW15481   4.323   0.281   3.576  0.5273 -0.4079 -0.3576
 1341SOL    HW115482   4.338   0.286   3.670 -0.2725 -0.0754 -0.2529
 1341SOL    HW215483   4.339   0.187   3.566 -0.0349 -0.6019  0.5547
 1342SOL     OW15484   4.195   3.918  15.444 -0.1198  0.1777 -0.2321
 1342SOL    HW115485   4.196   3.824  15.462  1.2978  0.2752  0.1375
 1342SOL    HW215486   4.194   3.927  15.349 -1.6372  0.4082 -0.2092
 1343SOL     OW15487   3.745   1.804   3.032  0.4276  0.0221  0.5358
 1343SOL    HW115488   3.667   1.755   3.008  0.4334  0.5768 -0.6361
 1343SOL    HW215489   3.793   1.790   2.950  0.4522  0.2965  0.5000
 1344SOL     OW15490   4.170   0.948   6.017 -0.0363  0.4106 -0.1941
 1344SOL    HW115491   4.225   0.873   6.038 -1.1127 -0.2343  0.3485
 1344SOL    HW215492   4.171   0.935   5.922  1.1341  2.3256 -0.4520
 1345SOL     OW15493   2.560   0.288   8.349 -0.4787  0.3753 -0.0434
 1345SOL    HW115494   2.565   0.195   8.327  0.1018  0.1943  0.8689
 1345SOL    HW215495   2.532   0.290   8.440 -1.1148  0.0595 -0.2303
 1346SOL     OW15496   4.274   3.923   2.629  0.2953 -1.0828  0.0946
 1346SOL    HW115497   4.353   3.897   2.677  1.2311  0.5975 -0.5405
 1346SOL    HW215498   4.279   4.017   2.612 -3.7906 -0.5298  2.0047
 1347SOL     OW15499   2.215   1.493   1.345 -0.0383 -0.0535 -0.2543
 1347SOL    HW115500   2.294   1.476   1.295  0.5637  0.7960  0.4185
 1347SOL    HW215501   2.166   1.415   1.319 -1.6464  0.5098  1.0658
 1348SOL     OW15502   2.490   0.134  16.712 -0.0850 -0.0700 -0.7602
 1348SOL    HW115503   2.543   0.170  16.641 -0.2342  0.1300 -0.7729
 1348SOL    HW215504   2.441   0.209  16.748  0.7447  0.7351 -1.3004
 1349SOL     OW15505   1.290   1.881   0.503  0.2010 -0.3361  0.1080
 1349SOL    HW115506   1.261   1.809   0.559 -0.8307 -0.1809 -0.2184
 1349SOL    HW215507   1.332   1.828   0.435  1.5961  0.5942  0.2430
 1350SOL     OW15508   1.265   2.558  13.454  0.4300  0.1457  0.2921
 1350SOL    HW115509   1.181   2.604  13.458  0.0307 -0.4452 -1.3663
 1350SOL    HW215510   1.248   2.494  13.385 -2.2348 -1.2221  2.2170
 1351SOL     OW15511   3.755   2.629   5.109 -0.1576  0.5073  0.1064
 1351SOL    HW115512   3.716   2.714   5.130 -0.4692  0.3555  0.1336
 1351SOL    HW215513   3.678   2.572   5.119  1.8187 -2.1624  0.1249
 1352SOL     OW15514   1.890   1.047   3.968 -0.2148  0.0828  0.4139
 1352SOL    HW115515   1.875   1.136   3.937  2.4385 -0.7704 -3.2931
 1352SOL    HW215516   1.975   1.061   4.009  0.0594  0.8853 -0.4453
 1353SOL     OW15517   2.759   3.621   7.419  0.1996 -0.2086 -0.1796
 1353SOL    HW115518   2.758   3.531   7.450 -2.7287 -0.1023  0.0237
 1353SOL    HW215519   2.757   3.617   7.323 -0.2272  2.6101 -0.3111
 1354SOL     OW15520   3.351   3.469   6.090 -0.6744  0.2473 -0.1020
 1354SOL    HW115521   3.315   3.406   6.153  0.4157  1.8480  2.1108
 1354SOL    HW215522   3.430   3.496   6.137  0.2651 -0.0304 -1.5474
 1355SOL     OW15523   2.782   3.051   4.728  0.1024  0.2614 -0.5144
 1355SOL    HW115524   2.790   3.127   4.671  1.4803  0.6509  0.1887
 1355SOL    HW215525   2.728   3.100   4.790 -1.8484 -2.2537 -0.2463
 1356SOL     OW15526   0.452   3.859  10.032 -0.4567 -0.0887 -0.5148
 1356SOL    HW115527   0.522   3.908  10.076 -1.1508  1.4691 -1.1412
 1356SOL    HW215528   0.389   3.932  10.029 -1.2911 -0.8553 -1.4802
 1357SOL     OW15529   1.046   2.483   3.851 -0.0606 -0.1806 -0.1475
 1357SOL    HW115530   1.079   2.467   3.763 -0.0964  0.5147 -0.2900
 1357SOL    HW215531   1.038   2.392   3.881 -1.7807  0.2832  0.8268
 1358SOL     OW15532   1.705   2.064   1.401 -0.6024  0.0585 -0.1923
 1358SOL    HW115533   1.711   2.002   1.329 -0.6176  0.5146 -0.5888
 1358SOL    HW215534   1.698   2.009   1.480 -2.0045 -1.5844 -1.4669
 1359SOL     OW15535   3.797   1.832  14.978  0.0505 -0.4185 -0.5914
 1359SOL    HW115536   3.736   1.824  15.052 -1.9275 -1.8176 -2.3868
 1359SOL    HW215537   3.778   1.756  14.923  0.4080 -1.0200  0.1246
 1360SOL     OW15538   3.351   0.025   7.296 -0.1337  0.5356  0.2503
 1360SOL    HW115539   3.319   4.659   7.307 -2.0033  0.9817 -1.7378
 1360SOL    HW215540   3.374   0.010   7.204  2.4095  1.2128  0.7773
 1361SOL     OW15541   2.146   3.582   7.339  0.2404  0.3100  0.1580
 1361SOL    HW115542   2.141   3.534   7.256  0.3134 -1.2518  1.0613
 1361SOL    HW215543   2.086   3.651   7.312 -0.5585 -0.2967  0.4106
 1362SOL     OW15544   2.380   3.693   4.844  0.2008  0.3190  0.2622
 1362SOL    HW115545   2.379   3.738   4.759  2.0379  2.4251  1.3788
 1362SOL    HW215546   2.408   3.765   4.900 -1.0392 -0.1645  1.5014
 1363SOL     OW15547   1.349   2.714   6.413 -0.2511 -0.2384  0.3965
 1363SOL    HW115548   1.303   2.682   6.491  1.5407  1.0772  1.9873
 1363SOL    HW215549   1.403   2.634   6.413  0.7197  0.3969 -2.1424
 1364SOL     OW15550   3.902   1.649  10.566 -1.1556  0.0376 -0.0647
 1364SOL    HW115551   3.906   1.744  10.570 -0.1982  0.0376 -0.8485
 1364SOL    HW215552   3.854   1.643  10.648 -1.3711 -2.0130 -0.3476
 1365SOL     OW15553   1.005   1.117   0.445 -0.4429 -0.2142  0.6951
 1365SOL    HW115554   1.090   1.075   0.431 -1.9663 -2.9101 -0.5772
 1365SOL    HW215555   1.015   1.135   0.539 -0.4479 -1.0265  0.8579
 1366SOL     OW15556   3.786   2.469   4.404  0.0645 -0.3498 -0.4130
 1366SOL    HW115557   3.833   2.387   4.390  1.5105  0.2813  0.6090
 1366SOL    HW215558   3.813   2.472   4.496  1.9985  0.7604 -0.9951
 1367SOL     OW15559   1.599   4.035  10.257 -0.1747  0.6577  0.1986
 1367SOL    HW115560   1.679   4.078  10.287  0.1657  0.6459 -0.7009
 1367SOL    HW215561   1.529   4.097  10.279 -0.4916  1.3441 -2.6839
 1368SOL     OW15562   2.936   0.280   3.153 -0.5429 -0.5530 -0.5770
 1368SOL    HW115563   3.016   0.230   3.137  0.0544  0.2341 -0.0602
 1368SOL    HW215564   2.952   0.362   3.105 -1.2427 -0.5155 -0.7471
 1369SOL     OW15565   2.658   3.733   2.333  0.5823  0.3623 -0.2420
 1369SOL    HW115566   2.623   3.738   2.243 -1.0773  0.6371  0.4071
 1369SOL    HW215567   2.733   3.791   2.326  0.8443 -0.3720 -3.5394
 1370SOL     OW15568   2.702   2.223  10.422 -0.6572  0.1001  0.0921
 1370SOL    HW115569   2.623   2.226  10.368 -0.2292  0.1042 -0.5369
 1370SOL    HW215570   2.681   2.292  10.485  0.6222  0.0439  0.5852
 1371SOL     OW15571   3.938   3.661  13.689  0.1484  0.5035  0.7573
 1371SOL    HW115572   3.916   3.617  13.771  1.1576  0.1430  0.8328
 1371SOL    HW215573   3.850   3.689  13.664  0.3756  0.4229 -0.1355
 1372SOL     OW15574   3.499   0.406   2.631 -0.1107 -0.6507 -0.5194
 1372SOL    HW115575   3.543   0.467   2.691 -2.2076  0.5059 -0.1655
 1372SOL    HW215576   3.479   0.322   2.672 -1.1797  0.6283  1.5869
 1373SOL     OW15577   0.670   1.641   3.003 -0.3518  0.1580  0.1113
 1373SOL    HW115578   0.727   1.676   3.072 -1.2422  3.5742 -0.8527
 1373SOL    HW215579   0.593   1.631   3.059 -1.8953 -2.1070 -2.4737
 1374SOL     OW15580   3.133   2.857  15.086  0.0782  0.2814 -0.7494
 1374SOL    HW115581   3.122   2.921  15.016 -0.2757  0.7737 -0.2499
 1374SOL    HW215582   3.070   2.896  15.146  0.4040  0.0112 -0.2313
 1375SOL     OW15583   0.519   2.334   7.076 -0.5431  0.0986  0.0405
 1375SOL    HW115584   0.428   2.336   7.047 -1.2575 -1.9450  2.1243
 1375SOL    HW215585   0.566   2.376   7.004  1.4298 -1.9091  0.1526
 1376SOL     OW15586   4.038   1.123   7.275 -0.3571  0.6121  0.1133
 1376SOL    HW115587   4.014   1.074   7.196  1.3864 -0.6158  0.3486
 1376SOL    HW215588   4.048   1.049   7.335 -0.5964  0.1308 -0.4370
 1377SOL     OW15589   2.827   1.431  11.630 -0.2849  0.0682  0.1403
 1377SOL    HW115590   2.838   1.421  11.724  0.1120 -0.5195  0.0338
 1377SOL    HW215591   2.859   1.344  11.603  2.0058  1.7337 -2.5968
 1378SOL     OW15592   4.132   4.028   5.224  0.2249 -0.2257 -0.3101
 1378SOL    HW115593   4.186   4.099   5.187  1.3853 -0.8331  0.2056
 1378SOL    HW215594   4.181   3.951   5.193  1.4836  0.5443 -0.2450
 1379SOL     OW15595   1.736   0.117   8.600 -0.3906 -0.0598  0.5899
 1379SOL    HW115596   1.658   0.171   8.609 -0.5438 -0.1685 -0.1366
 1379SOL    HW215597   1.771   0.156   8.519  0.5709  2.3112  2.1354
 1380SOL     OW15598   2.951   0.099   3.442 -0.6770 -0.1916  0.5089
 1380SOL    HW115599   2.997   0.103   3.527  0.5866 -1.1835 -0.1267
 1380SOL    HW215600   2.932   0.006   3.429  1.9177 -0.8779  1.5962
 1381SOL     OW15601   3.830   3.606   3.102 -0.3953 -0.2241 -0.6854
 1381SOL    HW115602   3.848   3.586   3.010  0.1498 -0.7316 -0.4759
 1381SOL    HW215603   3.743   3.568   3.106 -1.9684  3.5863  1.5570
 1382SOL     OW15604   1.137   1.034   8.984  0.0200  0.3960 -0.3126
 1382SOL    HW115605   1.154   1.107   8.925  2.7141  1.2744  1.5363
 1382SOL    HW215606   1.062   0.994   8.940  1.1672 -1.0950 -0.8997
 1383SOL     OW15607   4.275   2.766   0.767 -0.0364 -0.1797 -0.0592
 1383SOL    HW115608   4.210   2.817   0.719 -0.1607  0.3309  0.6590
 1383SOL    HW215609   4.348   2.828   0.768 -1.3227  1.3114  1.4063
 1384SOL     OW15610   2.080   2.707  10.061 -0.5719  0.5263 -0.2549
 1384SOL    HW115611   2.110   2.617  10.048 -2.1039  0.1536 -1.2099
 1384SOL    HW215612   2.143   2.739  10.125  0.1718 -0.8061 -0.3359
 1385SOL     OW15613   3.516   0.098   5.118 -0.4096  0.1834 -0.0838
 1385SOL    HW115614   3.538   0.167   5.180  1.9024 -1.0819  0.4897
 1385SOL    HW215615   3.461   0.144   5.053 -1.9727  0.5957  1.5360
 1386SOL     OW15616   3.321   4.342  12.532 -0.2927  0.3092  0.1438
 1386SOL    HW115617   3.402   4.363  12.485 -0.7061 -1.3474 -1.3439
 1386SOL    HW215618   3.343   4.286  12.606  0.0656 -0.4862 -0.5554
 1387SOL     OW15619   1.959   4.098   3.149 -0.3276  0.3950  0.8879
 1387SOL    HW115620   1.956   4.152   3.229 -0.5489  2.6503 -0.6311
 1387SOL    HW215621   2.044   4.056   3.164  0.3509  1.2387 -0.6239
 1388SOL     OW15622   3.155   0.891  11.857  0.0690 -0.0046  0.4787
 1388SOL    HW115623   3.113   0.975  11.840 -0.2618 -0.2346  0.1740
 1388SOL    HW215624   3.204   0.917  11.935 -0.6868  2.5997  0.0723
 1389SOL     OW15625   0.500   4.090   0.650 -0.0571  0.3832  0.2580
 1389SOL    HW115626   0.447   4.170   0.641  0.8215  1.2923  3.0448
 1389SOL    HW215627   0.475   4.052   0.734 -2.8735 -0.7706 -1.1066
 1390SOL     OW15628   4.279   0.979   7.700 -0.0757 -0.0481 -0.4098
 1390SOL    HW115629   4.229   0.917   7.753 -0.3178  0.7780  0.3398
 1390SOL    HW215630   4.223   1.055   7.715  0.1948 -0.1595  1.2020
 1391SOL     OW15631   1.520   2.293   4.919 -0.2391  0.1138 -0.3852
 1391SOL    HW115632   1.470   2.244   4.854  0.3459  0.4954 -1.1278
 1391SOL    HW215633   1.456   2.358   4.948  2.4698  1.5423  2.4369
 1392SOL     OW15634   2.695   3.646  12.593  0.3258  0.1408  0.2789
 1392SOL    HW115635   2.743   3.565  12.576  1.1183  1.0769 -1.8831
 1392SOL    HW215636   2.637   3.611  12.661  1.1724 -0.8010  0.5100
 1393SOL     OW15637   2.542   3.954   0.755  0.0468  0.6390 -0.3386
 1393SOL    HW115638   2.603   4.009   0.705 -0.4164  2.0944  0.7277
 1393SOL    HW215639   2.513   4.020   0.818  2.7055  3.4423 -2.0522
 1394SOL     OW15640   2.779   1.935   3.581 -0.1172 -0.6459 -0.1294
 1394SOL    HW115641   2.793   1.868   3.514  0.2182  1.5219 -2.2356
 1394SOL    HW215642   2.867   1.973   3.581  0.0490 -1.0245  0.3177
 1395SOL     OW15643   3.006   4.656   1.486 -0.3031  0.3679  0.6299
 1395SOL    HW115644   3.097   4.653   1.516 -0.8859  3.4346  2.7760
 1395SOL    HW215645   2.999   0.028   1.481 -1.0622  0.4195  2.7029
 1396SOL     OW15646   1.280   0.156   1.852 -0.0732  0.2834 -0.2832
 1396SOL    HW115647   1.232   0.103   1.915  2.1759  1.0011  2.0312
 1396SOL    HW215648   1.205   0.161   1.793 -0.2442  1.7845  0.0493
 1397SOL     OW15649   0.377   0.099   1.855 -0.2451  0.4648 -0.3516
 1397SOL    HW115650   0.292   0.062   1.829 -1.3320  2.3231  0.5354
 1397SOL    HW215651   0.366   0.077   1.947 -1.6533  4.1169  0.3672
 1398SOL     OW15652   2.559   1.821  14.099  0.2610  0.2196  0.2190
 1398SOL    HW115653   2.609   1.741  14.118 -0.1380 -0.5095 -1.7621
 1398SOL    HW215654   2.604   1.870  14.167 -0.9298  1.1919  0.3153
 1399SOL     OW15655   1.023   4.469  12.801 -0.5752  0.1804  0.0237
 1399SOL    HW115656   1.054   4.559  12.802 -0.6861  0.2351 -1.8701
 1399SOL    HW215657   1.069   4.436  12.879  0.1240  0.8497 -0.1130
 1400SOL     OW15658   3.655   1.288   0.310  0.3060 -0.1728 -0.0353
 1400SOL    HW115659   3.648   1.376   0.272  0.4589  0.0938  0.5594
 1400SOL    HW215660   3.612   1.237   0.241  0.0946  0.1866 -0.1721
 1401SOL     OW15661   3.717   4.106   5.047 -0.0047  0.9646  0.4297
 1401SOL    HW115662   3.689   4.046   4.978  0.1585 -0.6217  1.7418
 1401SOL    HW215663   3.698   4.186   4.998  0.6357  1.6087  1.2230
 1402SOL     OW15664   2.038   2.288   7.368 -0.3087 -0.1513 -0.4453
 1402SOL    HW115665   2.132   2.270   7.374 -0.6585 -1.1036  2.3750
 1402SOL    HW215666   2.041   2.380   7.395  2.4697 -0.9070  1.8062
 1403SOL     OW15667   2.275   4.023   9.150 -0.2754  0.4373  0.6520
 1403SOL    HW115668   2.316   4.104   9.181 -1.3818  0.0697  3.0813
 1403SOL    HW215669   2.347   3.965   9.172  0.5031  0.5072 -1.6882
 1404SOL     OW15670   3.476   4.509   4.721  0.1356 -0.4802 -0.7953
 1404SOL    HW115671   3.507   4.434   4.670  0.4873 -1.9953  1.6893
 1404SOL    HW215672   3.494   4.576   4.654 -2.7317  0.2911 -0.7798
 1405SOL     OW15673   3.620   4.343   3.131 -0.2882  0.2107  0.0909
 1405SOL    HW115674   3.704   4.314   3.097 -0.6362 -3.0267  2.0446
 1405SOL    HW215675   3.558   4.303   3.069 -0.2907  2.4439 -1.3624
 1406SOL     OW15676   3.464   1.136   7.829  0.5980  0.3140  0.2265
 1406SOL    HW115677   3.519   1.088   7.768  2.6875 -0.0525  2.4196
 1406SOL    HW215678   3.395   1.174   7.774 -0.8815 -1.3854  0.8812
 1407SOL     OW15679   4.552   1.618  17.501  0.3292  0.2225 -0.5056
 1407SOL    HW115680   4.561   1.713  17.507 -2.7326  0.4781  0.3996
 1407SOL    HW215681   4.632   1.588  17.545 -1.0018 -0.8769  1.1824
 1408SOL     OW15682   4.397   0.980  11.108 -0.1950 -0.0394 -0.2172
 1408SOL    HW115683   4.368   0.898  11.148  1.8026 -1.0826 -0.9120
 1408SOL    HW215684   4.420   0.947  11.021  1.1469  2.1038 -0.6888
 1409SOL     OW15685   1.263   2.850  11.666  0.4077  0.1441  0.1648
 1409SOL    HW115686   1.311   2.774  11.634 -0.2227 -1.2682  2.6160
 1409SOL    HW215687   1.205   2.862  11.591 -1.7910 -0.9934  1.6725
 1410SOL     OW15688   3.941   2.101   7.751 -0.3336  0.2773  0.3417
 1410SOL    HW115689   4.031   2.087   7.779 -0.6856  0.8716  1.8175
 1410SOL    HW215690   3.900   2.092   7.838  2.0731  0.4722  1.4795
 1411SOL     OW15691   4.612   2.884   5.875  0.1639 -0.1694  0.1960
 1411SOL    HW115692   4.678   2.838   5.926  1.9486  0.9345 -1.1427
 1411SOL    HW215693   4.554   2.915   5.945  2.3591  0.1655  1.8632
 1412SOL     OW15694   2.162   3.915   2.845 -0.1751  0.0277 -0.6530
 1412SOL    HW115695   2.129   3.942   2.759 -1.7853 -0.4125 -0.1744
 1412SOL    HW215696   2.089   3.925   2.907 -0.0202  0.7805 -0.5975
 1413SOL     OW15697   0.049   4.174   2.739 -0.0813 -0.0743  0.3552
 1413SOL    HW115698   4.697   4.157   2.683 -1.1053  1.3551  1.3065
 1413SOL    HW215699   0.122   4.131   2.694 -0.4987 -0.0432 -0.3559
 1414SOL     OW15700   0.731   4.515   7.518  0.5079 -0.0796  0.0519
 1414SOL    HW115701   0.753   4.578   7.449  1.4171  0.6998  1.0536
 1414SOL    HW215702   0.786   4.544   7.591  1.1921  0.8019 -0.8065
 1415SOL     OW15703   3.189   3.552   2.955  0.3989 -0.0874  0.9225
 1415SOL    HW115704   3.107   3.601   2.955 -0.4091 -1.4480  2.5680
 1415SOL    HW215705   3.157   3.492   3.022 -1.4947 -0.2589 -0.1500
 1416SOL     OW15706   0.158   2.372   8.568  0.0462  0.1063 -0.1204
 1416SOL    HW115707   0.120   2.307   8.627 -0.6683 -0.6539 -1.4093
 1416SOL    HW215708   0.252   2.365   8.584  0.3065 -1.5585 -2.4857
 1417SOL     OW15709   2.122   0.380  11.188  0.5248 -0.3719 -0.1832
 1417SOL    HW115710   2.050   0.339  11.235 -0.0363  0.9287  0.0932
 1417SOL    HW215711   2.090   0.470  11.200  0.1234 -0.2348 -2.2737
 1418SOL     OW15712   0.797   1.949  14.292  0.0506 -0.0486 -0.5818
 1418SOL    HW115713   0.734   1.919  14.358  0.6483 -0.7254 -0.3264
 1418SOL    HW215714   0.812   1.878  14.230  2.0645 -0.6599  0.5971
 1419SOL     OW15715   2.015   2.518  15.662 -0.8489  0.0122 -0.1472
 1419SOL    HW115716   1.961   2.448  15.699  0.8563 -2.3556 -2.1338
 1419SOL    HW215717   1.958   2.542  15.589 -0.1377 -0.9137 -1.0055
 1420SOL     OW15718   2.304   1.620   2.437 -0.2348  0.6206 -0.2064
 1420SOL    HW115719   2.221   1.584   2.403  0.3123 -0.5845 -0.2608
 1420SOL    HW215720   2.283   1.708   2.468 -0.4098  0.1867  0.8954
 1421SOL     OW15721   2.268   3.909   7.207  0.1805  0.4721 -0.3440
 1421SOL    HW115722   2.181   3.937   7.176 -0.4392 -2.1193 -0.9445
 1421SOL    HW215723   2.267   3.930   7.300 -0.0893  1.2909 -0.5327
 1422SOL     OW15724   2.550   0.868   5.362  0.6309 -0.1379 -0.2984
 1422SOL    HW115725   2.575   0.852   5.453  0.8745  0.9071 -0.1797
 1422SOL    HW215726   2.488   0.940   5.373 -0.3617 -0.9382 -0.5951
 1423SOL     OW15727   2.013   1.137   6.753 -0.0860 -0.1990  0.1402
 1423SOL    HW115728   1.929   1.172   6.783  0.0035 -2.5539  3.0944
 1423SOL    HW215729   2.067   1.216   6.760 -0.4480  0.1748 -1.2128
 1424SOL     OW15730   1.694   4.061  10.016  0.4407  0.1907  0.3426
 1424SOL    HW115731   1.705   4.155  10.031 -3.8186  0.5864  0.8619
 1424SOL    HW215732   1.642   4.033  10.091 -0.2553 -0.0446 -0.2327
 1425SOL     OW15733   2.725   4.098  10.184  0.1710 -0.2595  0.3636
 1425SOL    HW115734   2.771   4.015  10.170  1.5897  0.3440  1.4163
 1425SOL    HW215735   2.635   4.065  10.178 -0.0849  0.4667  0.2787
 1426SOL     OW15736   2.771   4.564   8.617 -0.3079 -0.1102  0.1527
 1426SOL    HW115737   2.727   4.481   8.633 -2.5415  0.8890 -0.9164
 1426SOL    HW215738   2.846   4.547   8.559  0.2735  1.8077  0.3308
 1427SOL     OW15739   1.735   1.797   2.558 -0.4105 -0.1431 -0.8093
 1427SOL    HW115740   1.650   1.770   2.592  0.4888  0.3362  1.7836
 1427SOL    HW215741   1.789   1.718   2.566 -0.1548  0.2179  1.0182
 1428SOL     OW15742   2.267   4.675   4.587  0.1494  0.0544 -0.5163
 1428SOL    HW115743   2.259   0.043   4.613 -0.9197 -0.3892  0.7489
 1428SOL    HW215744   2.263   4.689   4.492  1.3705 -2.0026 -0.8745
 1429SOL     OW15745   0.289   0.954   7.933 -0.6893  0.3738  0.4664
 1429SOL    HW115746   0.379   0.926   7.948 -0.7460 -0.7386 -1.2698
 1429SOL    HW215747   0.244   0.877   7.967 -0.2298 -0.5124 -0.9360
 1430SOL     OW15748   1.966   1.768   4.743 -0.2624 -0.3811 -0.3986
 1430SOL    HW115749   2.007   1.816   4.815  0.2844  0.1474 -1.0610
 1430SOL    HW215750   1.926   1.837   4.691 -1.1024 -2.1800 -2.1373
 1431SOL     OW15751   0.451   4.545   5.497  0.1689  0.6020 -0.1212
 1431SOL    HW115752   0.508   4.486   5.448  1.4518  3.4199 -2.0088
 1431SOL    HW215753   0.397   4.575   5.424 -1.1732 -1.8801 -0.1635
 1432SOL     OW15754   4.655   2.107   0.205 -0.1105  0.6967 -0.2267
 1432SOL    HW115755   4.720   2.048   0.243  0.2632 -0.1817 -2.2562
 1432SOL    HW215756   4.580   2.049   0.216  0.4130 -0.4212 -2.5526
 1433SOL     OW15757   2.051   2.645   8.679 -0.4017  0.0483  0.5506
 1433SOL    HW115758   2.078   2.721   8.731 -0.0152  0.8644 -0.8425
 1433SOL    HW215759   2.080   2.665   8.590  0.6050  0.8577  1.0574
 1434SOL     OW15760   2.591   2.862   4.846 -0.3162 -0.2855 -0.2244
 1434SOL    HW115761   2.660   2.799   4.826  0.3692  0.4670 -0.2095
 1434SOL    HW215762   2.629   2.915   4.916  0.4698  0.7659 -1.4359
 1435SOL     OW15763   2.177   0.852  14.448  0.1408 -0.0365  1.1067
 1435SOL    HW115764   2.132   0.827  14.528 -0.6412 -0.2484  0.6057
 1435SOL    HW215765   2.261   0.807  14.447  0.5531  0.7334  0.6550
 1436SOL     OW15766   1.287   3.960   2.510 -0.2955 -0.5362 -0.0741
 1436SOL    HW115767   1.380   3.981   2.500 -1.2033  3.5925  0.0581
 1436SOL    HW215768   1.301   3.869   2.536 -0.1637 -0.2580  0.8305
 1437SOL     OW15769   1.707   2.640   8.866 -0.2133 -0.0390 -0.4287
 1437SOL    HW115770   1.621   2.599   8.859 -0.5395  0.2466  2.2140
 1437SOL    HW215771   1.686   2.727   8.901  1.1046  0.5315 -1.0589
 1438SOL     OW15772   2.570   2.191  10.949  0.4469 -0.3539 -0.2945
 1438SOL    HW115773   2.619   2.170  11.028 -2.3546 -0.0841  1.5116
 1438SOL    HW215774   2.635   2.172  10.881  1.3649  0.4756  0.3457
 1439SOL     OW15775   0.527   4.189   5.574  0.2161 -0.3439 -0.6037
 1439SOL    HW115776   0.487   4.109   5.542  0.7279 -1.2002  0.9014
 1439SOL    HW215777   0.586   4.152   5.640 -1.3654  1.6520  1.9265
 1440SOL     OW15778   2.850   0.827   7.290  0.2663  0.0910  0.3684
 1440SOL    HW115779   2.813   0.757   7.235  2.2955 -0.9838  0.3715
 1440SOL    HW215780   2.926   0.775   7.315  0.1331 -0.3261 -0.0818
 1441SOL     OW15781   2.335   0.133  12.126  0.1819 -0.2685 -1.1356
 1441SOL    HW115782   2.354   0.143  12.219 -0.2422 -3.0832 -0.7525
 1441SOL    HW215783   2.415   0.166  12.086 -0.5276  0.1164 -2.2620
 1442SOL     OW15784   2.625   3.956  14.685 -0.2541 -0.0885 -0.7382
 1442SOL    HW115785   2.702   3.968  14.740 -1.6218  0.0608  1.1443
 1442SOL    HW215786   2.645   3.867  14.656  1.3523 -0.4006  1.3185
 1443SOL     OW15787   1.040   3.033  16.009 -0.1611  0.1269 -0.3121
 1443SOL    HW115788   0.980   3.030  15.934  0.5661 -2.2537 -0.7932
 1443SOL    HW215789   1.013   2.960  16.064  1.4868  0.0939  0.4577
 1444SOL     OW15790   0.369   2.073   7.313  0.0190  1.0002  1.0406
 1444SOL    HW115791   0.374   2.083   7.408  1.0023 -0.0494  1.1138
 1444SOL    HW215792   0.445   2.016   7.299 -1.2377 -0.4723  0.1631
 1445SOL     OW15793   2.273   3.412   6.657 -0.0531  0.5802  0.5854
 1445SOL    HW115794   2.181   3.406   6.630 -0.1566  0.3927  0.9870
 1445SOL    HW215795   2.306   3.497   6.629  2.8405 -0.6005  0.3801
 1446SOL     OW15796   1.731   4.577   5.212  0.9400 -0.3506 -0.3200
 1446SOL    HW115797   1.648   4.624   5.222 -0.5890 -2.9043 -1.0503
 1446SOL    HW215798   1.697   4.488   5.198 -4.1385  1.7693 -1.5047
 1447SOL     OW15799   1.950   4.596   1.830 -0.9351  0.2292  0.3474
 1447SOL    HW115800   1.970   4.662   1.896 -2.3160 -0.9212  1.9117
 1447SOL    HW215801   1.900   4.655   1.775  0.1854  0.4744 -0.4161
 1448SOL     OW15802   2.848   1.781   3.387 -0.0740 -0.8231 -0.2625
 1448SOL    HW115803   2.830   1.779   3.293 -1.1641  0.9469 -0.0947
 1448SOL    HW215804   2.859   1.687   3.402  1.7643 -0.2412  1.9523
 1449SOL     OW15805   2.572   2.922   7.608 -0.8618 -0.1170 -0.0115
 1449SOL    HW115806   2.594   2.841   7.562  1.1360  0.2416  0.2951
 1449SOL    HW215807   2.586   2.892   7.697 -0.4512 -0.0236 -0.0454
 1450SOL     OW15808   0.723   3.135   4.386  0.2960 -0.1355  0.5224
 1450SOL    HW115809   0.814   3.162   4.399 -0.0719  1.6860 -0.7479
 1450SOL    HW215810   0.714   3.098   4.299 -0.7798 -0.3094  0.7102
 1451SOL     OW15811   1.275   4.591  11.658  0.3890 -0.6195 -0.5987
 1451SOL    HW115812   1.224   4.603  11.738  1.4364 -0.7636  0.0932
 1451SOL    HW215813   1.257   4.670  11.606 -0.0373 -0.1807  0.2084
 1452SOL     OW15814   4.625   3.621  12.842  0.0288  0.0282  0.0340
 1452SOL    HW115815   4.645   3.610  12.935  2.0297  0.3997 -0.3373
 1452SOL    HW215816   4.613   3.716  12.839 -0.8739 -0.0875  0.1459
 1453SOL     OW15817   1.789   4.654  17.151  0.5713  0.4919 -0.6791
 1453SOL    HW115818   1.780   4.650  17.246 -1.5240 -3.3653 -1.0513
 1453SOL    HW215819   1.849   0.004  17.137  1.3145  0.1518  0.6633
 1454SOL     OW15820   4.007   3.763   0.886  0.0334  0.6227 -0.0149
 1454SOL    HW115821   3.992   3.817   0.964  2.5316  1.4564 -0.1154
 1454SOL    HW215822   3.933   3.770   0.827 -1.2467  0.7962  1.6060
 1455SOL     OW15823   0.014   4.632  11.368 -0.2498  0.4337 -0.0793
 1455SOL    HW115824   4.712   4.642  11.459 -2.4538 -0.9276 -0.5463
 1455SOL    HW215825   0.065   4.712  11.360  1.3244 -0.6208 -0.7695
 1456SOL     OW15826   3.769   1.121   8.834 -0.5638 -0.4999 -0.1596
 1456SOL    HW115827   3.813   1.047   8.791 -0.1426 -0.8307  0.8190
 1456SOL    HW215828   3.764   1.177   8.757 -0.3330 -0.2214  0.0284
 1457SOL     OW15829   2.597   4.309   2.086 -0.1685 -0.0532 -0.1210
 1457SOL    HW115830   2.636   4.379   2.138  2.1443 -1.3657 -0.0596
 1457SOL    HW215831   2.680   4.271   2.056  0.0592  0.2738  0.0951
 1458SOL     OW15832   2.914   1.762   0.518 -0.0642  0.7792 -0.1116
 1458SOL    HW115833   3.006   1.759   0.544 -0.1093  1.9567  0.1619
 1458SOL    HW215834   2.885   1.672   0.536 -0.5992  1.4542  2.4680
 1459SOL     OW15835   0.364   2.848   3.780 -0.4615  0.0703  0.3117
 1459SOL    HW115836   0.412   2.851   3.698  1.7021  1.3722  1.6103
 1459SOL    HW215837   0.276   2.878   3.757 -1.0439 -0.9753  1.1776
 1460SOL     OW15838   0.513   3.542  15.994  0.3304 -0.1407 -0.0749
 1460SOL    HW115839   0.482   3.607  15.931  1.4934  0.0230 -0.4680
 1460SOL    HW215840   0.491   3.585  16.077 -0.1542 -1.6635  0.5774
 1461SOL     OW15841   1.002   1.917   4.011  0.3621  0.3021 -0.5613
 1461SOL    HW115842   0.933   1.879   3.957 -0.1542  1.0392 -0.4195
 1461SOL    HW215843   1.064   1.844   4.012  2.5940  2.1915  1.9774
 1462SOL     OW15844   3.920   3.283   1.208 -0.1671 -0.2176 -0.3794
 1462SOL    HW115845   3.868   3.227   1.150 -0.3299 -0.5403  0.0675
 1462SOL    HW215846   3.846   3.330   1.247  0.5935 -0.0246  0.8241
 1463SOL     OW15847   1.539   2.064   9.919 -0.4769 -0.0262 -0.0570
 1463SOL    HW115848   1.504   2.151   9.899  1.0171  0.7640  0.7243
 1463SOL    HW215849   1.460   2.011   9.908  0.5266 -1.1533 -1.8154
 1464SOL     OW15850   1.405   0.143  15.191 -0.2407 -0.3165 -0.0172
 1464SOL    HW115851   1.315   0.129  15.219 -0.4697  2.2479  0.5764
 1464SOL    HW215852   1.397   0.212  15.125  0.8302  0.2669  0.4660
 1465SOL     OW15853   0.546   1.936   4.920  0.5532 -0.0142 -0.6078
 1465SOL    HW115854   0.595   1.854   4.921  0.2263 -0.1886  2.6059
 1465SOL    HW215855   0.479   1.910   4.983  1.4207  0.6216  0.5656
 1466SOL     OW15856   1.089   0.895   0.723  0.1957 -0.1378 -0.1299
 1466SOL    HW115857   1.074   0.805   0.696 -1.4120  0.4078 -1.0764
 1466SOL    HW215858   1.007   0.917   0.769 -0.5712 -1.2690 -0.9686
 1467SOL     OW15859   4.659   2.738   6.428 -0.3329  0.1176 -0.1306
 1467SOL    HW115860   4.570   2.704   6.429 -0.7877  1.3181  0.5510
 1467SOL    HW215861   4.645   2.832   6.412 -1.9845 -0.3974 -1.6693
 1468SOL     OW15862   2.293   0.165  16.954 -0.4917  0.5000  0.0046
 1468SOL    HW115863   2.309   0.248  16.908  0.3107  0.2148 -0.2391
 1468SOL    HW215864   2.223   0.128  16.899  0.7703 -1.6272 -0.1646
 1469SOL     OW15865   0.602   4.486   8.052 -0.0514 -0.0687 -0.0135
 1469SOL    HW115866   0.594   4.416   8.116 -0.4760 -0.4637 -0.4964
 1469SOL    HW215867   0.661   4.548   8.094  0.2597 -0.4575  0.1172
 1470SOL     OW15868   1.376   2.989   3.168 -0.1389 -0.5050 -0.0584
 1470SOL    HW115869   1.422   3.011   3.087  4.0085  1.2680  2.7883
 1470SOL    HW215870   1.378   3.076   3.208  2.7997 -0.1817 -0.8822
 1471SOL     OW15871   4.284   1.476   6.063 -0.0448  0.2504  0.1499
 1471SOL    HW115872   4.276   1.514   6.151  2.5767 -2.0272  1.3512
 1471SOL    HW215873   4.238   1.393   6.076 -0.5270  0.3296 -1.0163
 1472SOL     OW15874   3.486   2.491   3.780 -0.7152  0.7002 -0.2898
 1472SOL    HW115875   3.445   2.511   3.864 -1.3282  1.8688 -0.8501
 1472SOL    HW215876   3.413   2.452   3.731 -1.5802  0.2280  1.3974
 1473SOL     OW15877   3.059   1.804   0.814  0.9949 -0.3255 -0.0479
 1473SOL    HW115878   3.027   1.894   0.817  1.3696 -0.1764 -0.4882
 1473SOL    HW215879   3.128   1.810   0.748  0.6012 -3.0009 -0.7034
 1474SOL     OW15880   4.645   0.093   4.390 -0.3299 -0.0565  0.3022
 1474SOL    HW115881   4.696   0.142   4.325  1.3499 -0.4829  1.3016
 1474SOL    HW215882   4.709   0.078   4.459  0.5868 -1.5599 -0.8913
 1475SOL     OW15883   0.421   3.713   9.385  0.0535  0.0157  0.2146
 1475SOL    HW115884   0.408   3.765   9.464 -0.5987 -1.3452  0.9977
 1475SOL    HW215885   0.364   3.758   9.322 -0.7324  0.3136  1.1416
 1476SOL     OW15886   4.516   3.636   2.210  0.1100  0.0225  0.0485
 1476SOL    HW115887   4.468   3.588   2.143 -0.9372  0.3343  0.5676
 1476SOL    HW215888   4.447   3.644   2.276  1.4205  1.3479  1.2614
 1477SOL     OW15889   1.731   3.097   9.453  0.2300  0.1284 -0.1312
 1477SOL    HW115890   1.648   3.118   9.496  0.4457  0.0792  0.3021
 1477SOL    HW215891   1.719   3.003   9.440 -1.0417  0.3359 -0.4852
 1478SOL     OW15892   0.572   1.332   3.696  0.0164  0.2625 -0.2145
 1478SOL    HW115893   0.564   1.261   3.760  0.7731  0.0953 -0.3050
 1478SOL    HW215894   0.625   1.283   3.633 -1.2601 -2.7096  1.0215
 1479SOL     OW15895   4.281   0.431   5.699 -0.1388 -0.7199 -0.2250
 1479SOL    HW115896   4.221   0.470   5.635 -0.2253  1.6187  1.2728
 1479SOL    HW215897   4.222   0.378   5.753 -0.5292  2.7915  2.8171
 1480SOL     OW15898   3.981   3.891  12.427  0.0641 -0.2560 -0.2771
 1480SOL    HW115899   4.074   3.910  12.442  0.1054 -0.2804 -0.4967
 1480SOL    HW215900   3.986   3.801  12.460 -0.9213 -0.1441  0.1784
 1481SOL     OW15901   3.068   0.778   4.748 -0.5450  0.4260  0.0456
 1481SOL    HW115902   2.985   0.798   4.705 -0.3912 -1.3318 -1.0325
 1481SOL    HW215903   3.103   0.718   4.683  1.3097  0.1776  1.2491
 1482SOL     OW15904   0.124   3.727  16.814 -0.3557 -0.2777  0.0211
 1482SOL    HW115905   0.058   3.796  16.801  0.1379  0.0668 -0.6724
 1482SOL    HW215906   0.068   3.651  16.798 -0.4541 -0.1288 -0.3533
 1483SOL     OW15907   3.994   3.905   6.044  0.4577 -0.0451  0.2924
 1483SOL    HW115908   4.014   3.938   6.132 -0.1613  2.3558 -0.4586
 1483SOL    HW215909   3.915   3.955   6.022 -2.7694 -3.9778  3.0331
 1484SOL     OW15910   3.667   1.992  12.304  0.7212 -0.0974  0.1030
 1484SOL    HW115911   3.665   2.049  12.227  0.3236 -1.0946 -0.6162
 1484SOL    HW215912   3.740   1.932  12.289  0.8066  0.4037 -1.4157
 1485SOL     OW15913   2.522   2.606  12.926 -0.2566 -0.0736 -0.1263
 1485SOL    HW115914   2.567   2.521  12.927 -0.1456 -0.0503 -1.9797
 1485SOL    HW215915   2.442   2.581  12.973  0.7210 -2.1696  0.4274
 1486SOL     OW15916   4.662   3.601   8.404  0.2593  0.1660  0.4453
 1486SOL    HW115917   4.586   3.631   8.454 -1.3248  0.8106 -2.3735
 1486SOL    HW215918   4.634   3.586   8.314 -0.6228 -0.0412  0.7542
 1487SOL     OW15919   1.594   1.079  10.816  0.0799 -0.9588  0.2900
 1487SOL    HW115920   1.515   1.132  10.807  0.2167 -1.3247 -3.2519
 1487SOL    HW215921   1.563   1.031  10.893 -1.9324 -0.4767 -0.2217
 1488SOL     OW15922   0.406   2.419   0.714  0.4141  0.2607  0.2092
 1488SOL    HW115923   0.397   2.328   0.686 -1.8914 -0.0573  1.9487
 1488SOL    HW215924   0.318   2.458   0.717 -0.3102 -1.3970  0.6943
 1489SOL     OW15925   4.098   1.722   4.720 -0.7021  0.1793  0.0209
 1489SOL    HW115926   4.046   1.764   4.652  0.3002 -1.9105 -2.0378
 1489SOL    HW215927   4.039   1.687   4.787  0.2587 -1.5338 -0.0147
 1490SOL     OW15928   2.321   3.082   9.006 -0.5280  0.8151  0.3822
 1490SOL    HW115929   2.244   3.118   9.051 -0.4347  1.2677  0.1845
 1490SOL    HW215930   2.299   2.990   8.997  0.6908  0.6769 -1.1272
 1491SOL     OW15931   3.551   0.409   9.355  0.4235  0.0585  0.5438
 1491SOL    HW115932   3.509   0.495   9.367  2.0048  1.1459 -1.7191
 1491SOL    HW215933   3.506   0.380   9.275  1.8999 -1.1830  0.1772
 1492SOL     OW15934   1.169   1.506   1.055  0.2212 -0.6449  0.0152
 1492SOL    HW115935   1.217   1.462   0.985 -1.6368  0.7250 -2.1108
 1492SOL    HW215936   1.177   1.597   1.028  0.9725 -0.2610  1.5096
 1493SOL     OW15937   3.577   0.841   5.625 -0.3964  0.1356  0.5676
 1493SOL    HW115938   3.647   0.779   5.601  2.2954  3.1974  0.4705
 1493SOL    HW215939   3.629   0.919   5.644 -3.5329  2.4455 -0.2610
 1494SOL     OW15940   1.955   3.289  15.157 -0.3114 -0.8700 -0.0104
 1494SOL    HW115941   1.998   3.329  15.082  0.8752 -1.8040  0.1713
 1494SOL    HW215942   2.021   3.232  15.195  1.9159  2.0913  0.5671
 1495SOL     OW15943   4.567   4.699   5.511 -0.7387  0.4576  0.5263
 1495SOL    HW115944   4.649   4.650   5.517 -1.0398 -0.1370 -0.2773
 1495SOL    HW215945   4.569   0.027   5.592 -0.1508  2.7760 -0.9418
 1496SOL     OW15946   4.515   2.087  15.639 -0.1911 -0.7862 -0.2615
 1496SOL    HW115947   4.443   2.131  15.593  0.7333  0.7018 -0.2984
 1496SOL    HW215948   4.579   2.071  15.569 -1.4456 -0.5493 -1.4560
 1497SOL     OW15949   4.005   4.142  11.775  0.1087  0.3138  0.0596
 1497SOL    HW115950   4.045   4.056  11.769  0.0683 -0.0659  5.2811
 1497SOL    HW215951   3.943   4.133  11.848  0.6832  0.4817  0.5718
 1498SOL     OW15952   4.023   4.136  16.686 -0.5595  0.6653 -0.5609
 1498SOL    HW115953   4.100   4.127  16.742 -2.7484  0.7248  2.4472
 1498SOL    HW215954   4.054   4.192  16.615 -2.2449  1.6915 -0.4688
 1499SOL     OW15955   2.322   0.604  14.143 -0.2243 -0.0532  0.7142
 1499SOL    HW115956   2.269   0.558  14.077 -1.1376 -0.2134  1.5619
 1499SOL    HW215957   2.305   0.695  14.121 -1.7719 -0.0218  2.1006
 1500SOL     OW15958   2.030   0.085   6.491  0.2091 -0.1095  0.5318
 1500SOL    HW115959   2.066   0.161   6.446 -0.0309 -0.3579 -0.0804
 1500SOL    HW215960   2.086   0.075   6.568  0.6480 -2.0390 -0.0358
 1501SOL     OW15961   2.635   1.861   7.257  0.5117 -0.5791 -0.0698
 1501SOL    HW115962   2.695   1.797   7.221 -0.8726 -2.0095  0.1370
 1501SOL    HW215963   2.703   1.925   7.275  2.1051 -1.9096 -1.4045
 1502SOL     OW15964   0.624   0.151  16.149 -0.1064 -0.0737  0.0591
 1502SOL    HW115965   0.550   0.204  16.120 -0.3091  0.0034  0.7018
 1502SOL    HW215966   0.687   0.217  16.178  0.0208  0.6749 -1.9513
 1503SOL     OW15967   4.444   4.710   8.957  0.2310 -0.1768 -0.1283
 1503SOL    HW115968   4.393   0.067   8.965 -1.5837 -1.2238 -1.2378
 1503SOL    HW215969   4.384   4.650   8.913  2.1741 -1.3026 -1.2504
 1504SOL     OW15970   0.899   2.354   3.208 -0.4375  0.0963  0.3249
 1504SOL    HW115971   0.958   2.372   3.281  1.4212 -1.3844 -0.7981
 1504SOL    HW215972   0.935   2.403   3.133 -0.5620 -0.1178  0.1253
 1505SOL     OW15973   0.733   4.096   7.100 -0.0078  0.1762 -0.2725
 1505SOL    HW115974   0.772   4.130   7.019  1.1490 -0.8919 -0.1503
 1505SOL    HW215975   0.644   4.071   7.074 -0.2479 -0.0445  0.7795
 1506SOL     OW15976   4.694   1.138  12.898 -0.5416  0.6215  0.8209
 1506SOL    HW115977   0.025   1.063  12.873 -2.9761 -1.1464  0.8664
 1506SOL    HW215978   4.645   1.100  12.971 -2.6215 -0.6247 -1.2474
 1507SOL     OW15979   2.701   4.355  10.123  0.4479  0.2959  0.3697
 1507SOL    HW115980   2.745   4.270  10.115 -2.1603 -1.0195  0.2337
 1507SOL    HW215981   2.643   4.352  10.198  1.5958 -0.5937  1.2245
 1508SOL     OW15982   2.082   1.221   1.341  0.1045  0.2266 -0.3501
 1508SOL    HW115983   2.073   1.133   1.305  1.0763  0.1169 -0.3005
 1508SOL    HW215984   2.142   1.204   1.414  1.2542  0.5872 -1.2172
 1509SOL     OW15985   3.688   4.126  10.519 -0.0381 -0.3621  1.1505
 1509SOL    HW115986   3.706   4.168  10.435  3.4009 -0.2758  1.8980
 1509SOL    HW215987   3.773   4.128  10.563 -0.2648  1.2050  1.5162
 1510SOL     OW15988   0.193   3.537   3.384 -0.2736 -0.4849 -0.2743
 1510SOL    HW115989   0.241   3.518   3.304 -1.1484  1.4851 -1.2629
 1510SOL    HW215990   0.214   3.627   3.410 -1.1413 -0.1098 -0.8737
 1511SOL     OW15991   0.764   4.180   8.790  0.4626  0.1601  0.1464
 1511SOL    HW115992   0.769   4.206   8.882  2.3071  0.4961 -0.0515
 1511SOL    HW215993   0.749   4.088   8.809 -0.4141 -0.2327 -2.5772
 1512SOL     OW15994   1.831   0.809   5.717 -0.1794  0.2333  0.6534
 1512SOL    HW115995   1.804   0.739   5.776  1.0909  0.1460  1.1510
 1512SOL    HW215996   1.849   0.755   5.641 -2.7955 -0.0500  0.2685
 1513SOL     OW15997   0.192   0.894   5.677 -0.0297 -0.4483 -0.2531
 1513SOL    HW115998   0.105   0.855   5.681  0.0305 -0.3134  2.2929
 1513SOL    HW215999   0.214   0.904   5.584  1.3252 -1.5626 -0.0579
 1514SOL     OW16000   4.716   1.876  12.998 -0.0946 -0.7041 -0.0441
 1514SOL    HW116001   4.680   1.912  13.080  1.2028 -0.2227  0.3085
 1514SOL    HW216002   0.051   1.942  12.963  0.0570 -1.0945 -0.5161
 1515SOL     OW16003   2.853   1.789   4.468 -0.8942 -0.1241 -0.3403
 1515SOL    HW116004   2.789   1.812   4.400  1.6619  1.7854 -2.0643
 1515SOL    HW216005   2.918   1.737   4.421 -0.5285 -0.1660  0.2151
 1516SOL     OW16006   2.575   0.655   4.341  0.3176 -0.1950 -0.4538
 1516SOL    HW116007   2.563   0.652   4.246  0.8583 -1.7389 -0.4732
 1516SOL    HW216008   2.647   0.719   4.347  1.6073 -1.7267  0.3472
 1517SOL     OW16009   2.904   0.114   7.120  0.0023  0.6769 -0.0806
 1517SOL    HW116010   2.845   0.039   7.117 -0.3239  0.9110  0.5422
 1517SOL    HW216011   2.877   0.157   7.201  0.9516 -1.8326  1.5608
 1518SOL     OW16012   4.168   4.134   8.690  0.0030 -0.2819 -0.3759
 1518SOL    HW116013   4.156   4.191   8.614 -0.1095  1.4880  0.9528
 1518SOL    HW216014   4.080   4.099   8.699  0.6303 -1.4669  1.0279
 1519SOL     OW16015   0.039   1.898   7.275 -0.1539  0.1747 -0.7635
 1519SOL    HW116016   0.011   1.811   7.304  1.6118 -1.3809 -3.6638
 1519SOL    HW216017   0.006   1.947   7.350 -1.2609 -0.3931 -0.8800
 1520SOL     OW16018   4.499   1.921   5.010 -0.0560  0.3219  0.7460
 1520SOL    HW116019   4.428   1.921   4.945 -0.6209 -2.9533  1.3796
 1520SOL    HW216020   4.509   1.826   5.019 -0.0787  0.2395 -0.0763
 1521SOL     OW16021   3.549   3.288   3.692 -0.5857 -0.1055 -0.1907
 1521SOL    HW116022   3.566   3.202   3.730 -1.8791 -0.4100 -0.3012
 1521SOL    HW216023   3.526   3.259   3.603 -0.0504 -1.1121 -0.0016
 1522SOL     OW16024   4.431   0.660   5.615  0.3181 -0.1401 -0.3868
 1522SOL    HW116025   4.368   0.609   5.666 -0.0760  1.5085  0.7729
 1522SOL    HW216026   4.433   0.607   5.535 -0.4815 -0.9094  0.0890
 1523SOL     OW16027   0.398   3.241   8.115  0.6935 -0.0306 -0.4763
 1523SOL    HW116028   0.380   3.152   8.083  2.0637 -0.5692  0.2483
 1523SOL    HW216029   0.375   3.244   8.208 -2.6027  1.2606 -1.3330
 1524SOL     OW16030   2.457   2.305   4.473  0.0574 -0.2045 -0.4408
 1524SOL    HW116031   2.546   2.338   4.457  0.3365  0.7711  3.0204
 1524SOL    HW216032   2.457   2.294   4.568  3.2321 -0.7456 -0.5042
 1525SOL     OW16033   3.900   0.029  11.591 -0.1151  0.1870 -0.4477
 1525SOL    HW116034   3.845   0.093  11.547 -1.2305 -0.2771  0.2869
 1525SOL    HW216035   3.934   4.707  11.513  1.0932 -0.1595  0.2879
 1526SOL     OW16036   2.301   3.491   5.720  0.3168  0.3602  0.1946
 1526SOL    HW116037   2.267   3.509   5.632 -0.3534 -1.8665 -0.0203
 1526SOL    HW216038   2.328   3.576   5.752 -3.7651  1.6920  0.1620
 1527SOL     OW16039   1.014   0.017   5.204  0.0019  0.0701  0.2274
 1527SOL    HW116040   1.018   0.105   5.241 -2.4445  0.2994 -0.0678
 1527SOL    HW216041   0.922   4.723   5.220  0.2503  1.0402  2.8222
 1528SOL     OW16042   0.966   2.673   6.467 -0.2284  0.1348 -0.3064
 1528SOL    HW116043   0.966   2.586   6.507  1.3773  0.6130  0.7640
 1528SOL    HW216044   0.908   2.724   6.522 -1.1464  0.3839 -1.4982
 1529SOL     OW16045   3.884   3.643   7.133  0.4945 -0.1106 -0.4804
 1529SOL    HW116046   3.902   3.553   7.159 -0.4119 -0.6854 -1.8585
 1529SOL    HW216047   3.879   3.682   7.221 -0.7156 -0.2069 -0.5037
 1530SOL     OW16048   1.682   0.774  11.236 -0.5834 -0.2644  0.5832
 1530SOL    HW116049   1.637   0.837  11.179  1.3761  0.6159  0.0038
 1530SOL    HW216050   1.607   0.737  11.282 -1.7512 -1.0226 -1.9157
 1531SOL     OW16051   4.406   3.516   7.378  0.4273 -0.4376  0.0032
 1531SOL    HW116052   4.343   3.563   7.324 -0.7066 -0.0465  1.6531
 1531SOL    HW216053   4.481   3.526   7.320  1.1887  2.9138  1.5790
 1532SOL     OW16054   2.324   1.399   0.963 -0.4049 -0.6816 -0.2568
 1532SOL    HW116055   2.370   1.371   1.041 -0.5774  0.7280  0.3549
 1532SOL    HW216056   2.370   1.329   0.916  0.7636 -0.8804  1.2065
 1533SOL     OW16057   0.382   3.188   9.345 -0.3116  0.0079 -0.2572
 1533SOL    HW116058   0.383   3.183   9.440  0.7407 -1.6852 -0.3555
 1533SOL    HW216059   0.474   3.207   9.325 -0.4333 -1.4801 -2.2654
 1534SOL     OW16060   2.616   0.743  10.890  0.4098  0.5412 -0.1160
 1534SOL    HW116061   2.645   0.671  10.833 -1.5152 -0.0738 -0.3054
 1534SOL    HW216062   2.671   0.733  10.968  0.7226  0.8497 -0.3001
 1535SOL     OW16063   4.037   0.541  14.108 -0.0161  0.5114  0.1037
 1535SOL    HW116064   4.026   0.478  14.036 -3.4062  0.6746  0.4633
 1535SOL    HW216065   4.066   0.477  14.173 -2.5716  1.0088  1.7505
 1536SOL     OW16066   2.499   0.188   1.228 -0.3146  0.2828  0.0204
 1536SOL    HW116067   2.486   0.266   1.281  1.8916  1.8682 -1.7835
 1536SOL    HW216068   2.569   0.211   1.167  1.4475 -0.0801  1.9262
 1537SOL     OW16069   4.367   0.195  14.906  0.2224 -0.4162 -0.4861
 1537SOL    HW116070   4.293   0.253  14.889  0.8574  0.2110 -1.1005
 1537SOL    HW216071   4.445   0.248  14.890 -1.0731  0.4919 -3.8052
 1538SOL     OW16072   3.359   0.797  14.873 -0.0659 -0.4344 -0.1349
 1538SOL    HW116073   3.292   0.740  14.837  1.2639 -1.0731 -1.5800
 1538SOL    HW216074   3.356   0.770  14.965 -3.0703 -1.5278 -0.5559
 1539SOL     OW16075   1.277   0.903   5.363  0.4898  0.4450 -0.4094
 1539SOL    HW116076   1.300   0.983   5.315  0.6104  0.5386 -0.1971
 1539SOL    HW216077   1.246   0.854   5.287 -1.9238  1.9511 -0.3948
 1540SOL     OW16078   1.293   3.838   6.819  0.1443 -0.2946 -0.5111
 1540SOL    HW116079   1.259   3.792   6.742 -1.0348  1.4097 -1.0031
 1540SOL    HW216080   1.284   3.769   6.885  0.1184  1.1491  0.9742
 1541SOL     OW16081   0.767   2.392  12.252  0.3720 -0.1047  0.7183
 1541SOL    HW116082   0.805   2.393  12.340 -0.0638 -0.7149  0.9182
 1541SOL    HW216083   0.676   2.377  12.279 -0.5276  0.8880 -1.7700
 1542SOL     OW16084   4.391   3.469   1.990 -0.0851 -0.2760  0.2067
 1542SOL    HW116085   4.316   3.528   1.996 -0.2072 -0.5681  1.7433
 1542SOL    HW216086   4.413   3.485   1.898 -3.0932 -0.0693 -0.4745
 1543SOL     OW16087   1.772   2.325   4.209  0.4868 -0.0475 -0.2272
 1543SOL    HW116088   1.817   2.259   4.261 -2.0148 -1.5002  0.0787
 1543SOL    HW216089   1.852   2.368   4.178  0.5826 -1.2463 -1.6341
 1544SOL     OW16090   0.532   0.716   4.017  0.7887 -0.2643  0.0988
 1544SOL    HW116091   0.514   0.637   4.068  1.5906 -0.7977 -0.4287
 1544SOL    HW216092   0.493   0.785   4.070 -1.3098 -0.8141 -0.7169
 1545SOL     OW16093   3.742   3.680   5.144 -0.2220 -0.5006  0.2351
 1545SOL    HW116094   3.742   3.737   5.222 -0.2112  2.0590 -1.6487
 1545SOL    HW216095   3.648   3.682   5.128  0.1298 -0.7270 -1.7568
 1546SOL     OW16096   3.971   0.203   5.024 -0.4139  0.8528  0.0298
 1546SOL    HW116097   3.968   0.153   5.105 -2.5410 -0.4347 -0.8730
 1546SOL    HW216098   4.061   0.234   5.034  0.5598 -1.8325 -0.4891
 1547SOL     OW16099   3.685   4.555   2.829  0.3006  1.1129  0.2633
 1547SOL    HW116100   3.617   4.526   2.890  0.4988  2.8633  1.3297
 1547SOL    HW216101   3.651   4.634   2.788  0.0775  1.4475  1.0943
 1548SOL     OW16102   0.273   3.840   5.266 -0.1652  0.0607 -0.5729
 1548SOL    HW116103   0.360   3.872   5.244 -0.8101  1.7436 -0.7507
 1548SOL    HW216104   0.282   3.747   5.248  4.5950 -0.0690  2.5910
 1549SOL     OW16105   0.990   1.643   0.747  0.4364  0.1869  0.5050
 1549SOL    HW116106   0.955   1.731   0.765 -2.0565 -1.3617  3.3286
 1549SOL    HW216107   1.083   1.662   0.747  0.5409 -0.3137  3.2547
 1550SOL     OW16108   1.822   1.080   9.313  0.2549 -0.2051  0.3168
 1550SOL    HW116109   1.812   1.111   9.223  1.3170 -2.3047 -0.5044
 1550SOL    HW216110   1.902   1.032   9.291  1.1445  1.6540 -0.5195
 1551SOL     OW16111   1.782   2.566   8.573 -0.1923  0.0605  0.0576
 1551SOL    HW116112   1.833   2.570   8.492  1.2834 -1.1646  0.9172
 1551SOL    HW216113   1.693   2.548   8.543 -0.7120  2.7523  0.0276
 1552SOL     OW16114   2.849   1.572   9.550 -0.0848 -0.0338  0.2192
 1552SOL    HW116115   2.933   1.598   9.586  0.0566 -1.4210  0.9085
 1552SOL    HW216116   2.815   1.547   9.636  1.4294 -1.5730  0.3573
 1553SOL     OW16117   0.946   3.465   7.171  0.4416 -0.4043 -0.2194
 1553SOL    HW116118   0.951   3.524   7.095  1.5754  0.6333  0.6638
 1553SOL    HW216119   0.987   3.388   7.132  0.8336 -1.3851  2.1470
 1554SOL     OW16120   2.335   3.343   0.176 -0.2262 -0.0571  0.1145
 1554SOL    HW116121   2.339   3.253   0.142 -0.0384 -0.5058  1.3285
 1554SOL    HW216122   2.327   3.388   0.092  1.1961 -0.4377 -0.2228
 1555SOL     OW16123   4.122   0.265   8.773 -0.1616  0.3200 -0.1797
 1555SOL    HW116124   4.202   0.226   8.736 -0.1026 -0.1680  0.4737
 1555SOL    HW216125   4.114   0.343   8.718 -0.0533  0.5792  0.1748
 1556SOL     OW16126   4.532   1.353  12.264 -0.1078 -0.6405 -0.3917
 1556SOL    HW116127   4.488   1.426  12.220 -2.1971 -2.7186 -1.7378
 1556SOL    HW216128   4.457   1.297  12.283  0.9676 -1.9225  0.0698
 1557SOL     OW16129   1.417   4.321   4.536  0.4524 -0.1406 -0.0068
 1557SOL    HW116130   1.329   4.314   4.497  0.7697  0.5794 -0.8448
 1557SOL    HW216131   1.442   4.409   4.507  0.1393  0.0863  0.4065
 1558SOL     OW16132   1.393   3.581   2.134  0.4738  0.2702 -0.3679
 1558SOL    HW116133   1.445   3.657   2.106 -1.8812  1.7134 -0.8524
 1558SOL    HW216134   1.426   3.515   2.072  1.6518  1.0556 -0.5773
 1559SOL     OW16135   3.384   2.414  14.393 -0.5023  0.1697 -0.2872
 1559SOL    HW116136   3.318   2.435  14.327  0.6975 -0.8839 -1.8101
 1559SOL    HW216137   3.406   2.332  14.348 -1.3949 -0.7313  0.9029
 1560SOL     OW16138   3.757   3.162  12.851 -0.6572  0.4197  0.1896
 1560SOL    HW116139   3.732   3.134  12.939  0.4784 -0.9079  0.0775
 1560SOL    HW216140   3.805   3.241  12.875  0.4889 -1.1026  2.9193
 1561SOL     OW16141   0.952   3.929   5.808 -0.4797  0.5097 -0.0470
 1561SOL    HW116142   1.046   3.943   5.793 -0.3812 -0.5744 -0.4319
 1561SOL    HW216143   0.949   3.835   5.793  2.9493  0.4647 -0.3634
 1562SOL     OW16144   1.707   0.637   4.271  0.6405  0.6601  0.2575
 1562SOL    HW116145   1.784   0.692   4.275  1.2378 -0.1616  0.1741
 1562SOL    HW216146   1.662   0.669   4.193 -0.1318  0.6088  0.6774
 1563SOL     OW16147   0.444   2.365   7.333  0.6430  0.4814 -0.2736
 1563SOL    HW116148   0.411   2.276   7.349 -0.3285  0.4753 -2.2746
 1563SOL    HW216149   0.467   2.358   7.240 -3.2561 -1.0051 -1.1521
 1564SOL     OW16150   1.323   2.828   8.610  0.5075 -0.1996 -0.3676
 1564SOL    HW116151   1.415   2.856   8.605  0.5000  0.3643  3.3558
 1564SOL    HW216152   1.279   2.897   8.658 -1.1196 -2.9806  2.1046
 1565SOL     OW16153   4.515   4.718  13.367  0.2233 -0.0578  0.3702
 1565SOL    HW116154   4.520   0.061  13.436  0.6656  1.0657 -0.7218
 1565SOL    HW216155   4.488   4.636  13.407 -0.4413  0.2471  0.5478
 1566SOL     OW16156   0.363   3.356   3.565 -0.2810 -0.1844 -0.0280
 1566SOL    HW116157   0.369   3.397   3.479  4.7665 -0.7347  0.0493
 1566SOL    HW216158   0.448   3.387   3.596  0.1121 -1.8526  0.5675
 1567SOL     OW16159   4.486   4.599   0.919 -0.7542 -0.5183 -0.1803
 1567SOL    HW116160   4.506   4.510   0.950  1.6865  0.3440  0.7218
 1567SOL    HW216161   4.526   4.647   0.991  0.8785 -0.5050 -1.1102
 1568SOL     OW16162   1.873   2.323   6.664 -0.4385  0.0102  0.3217
 1568SOL    HW116163   1.814   2.282   6.601 -2.0384  2.3896  0.2936
 1568SOL    HW216164   1.892   2.245   6.716 -0.1056 -1.1024 -1.4600
 1569SOL     OW16165   2.622   3.025   6.879  0.2714  0.0280 -0.9316
 1569SOL    HW116166   2.564   3.092   6.844  0.7029  2.5958  3.2074
 1569SOL    HW216167   2.702   3.073   6.900  0.7479 -2.1560  2.3443
 1570SOL     OW16168   1.864   0.028  13.053 -0.0316  0.3726  0.0571
 1570SOL    HW116169   1.893   0.074  12.974  1.0263  0.0865  0.2795
 1570SOL    HW216170   1.877   0.095  13.119  1.8776  0.5769 -0.5334
 1571SOL     OW16171   3.132   0.225   7.067  0.1041 -0.2746 -0.2683
 1571SOL    HW116172   3.162   0.197   7.154 -1.7855  0.6636  0.6829
 1571SOL    HW216173   3.060   0.165   7.046  1.2851 -1.0112 -2.2880
 1572SOL     OW16174   0.485   3.103  17.477 -0.3397 -0.1991  0.1026
 1572SOL    HW116175   0.429   3.157  17.421  0.2512 -0.2244 -0.5147
 1572SOL    HW216176   0.455   3.124  17.566 -1.9857 -1.3281 -0.1814
 1573SOL     OW16177   4.103   2.018   5.331  0.5461  0.3714 -0.1052
 1573SOL    HW116178   4.155   1.938   5.343  0.9437  0.8640  1.4115
 1573SOL    HW216179   4.035   1.979   5.277  0.7192  0.3952 -0.3415
 1574SOL     OW16180   4.149   1.309  17.207 -0.2523  0.6975 -0.5488
 1574SOL    HW116181   4.209   1.280  17.138  0.8637 -1.6636  1.3891
 1574SOL    HW216182   4.186   1.396  17.223  2.8402 -0.2657 -2.5635
 1575SOL     OW16183   0.453   1.483   8.131 -0.3541  0.0105  0.2280
 1575SOL    HW116184   0.364   1.507   8.106 -0.6817 -0.3567  1.0439
 1575SOL    HW216185   0.470   1.513   8.220 -2.5893 -0.3876  0.7872
 1576SOL     OW16186   2.624   1.444   7.102 -0.7943 -0.3199  0.1778
 1576SOL    HW116187   2.563   1.463   7.173 -1.6615  2.2474 -1.2878
 1576SOL    HW216188   2.683   1.520   7.103  1.2788 -1.9089  0.0244
 1577SOL     OW16189   1.404   1.984   6.917 -0.3191 -0.3486  0.1891
 1577SOL    HW116190   1.492   2.017   6.903 -0.4050  1.0434  2.8343
 1577SOL    HW216191   1.422   1.906   6.971  0.8258 -1.0999 -1.2862
 1578SOL     OW16192   2.490   4.421   3.311 -0.6949 -0.4864 -0.0856
 1578SOL    HW116193   2.554   4.416   3.240  1.6807 -1.5658  2.1378
 1578SOL    HW216194   2.461   4.331   3.297 -1.1129  0.0337 -2.4567
 1579SOL     OW16195   2.178   3.098  15.281  0.0313  0.2275 -0.2183
 1579SOL    HW116196   2.202   3.006  15.273 -0.5025  0.1483 -0.8945
 1579SOL    HW216197   2.222   3.140  15.207  0.2434 -3.0814 -1.9442
 1580SOL     OW16198   1.599   2.888  15.219  0.2613  0.5590  0.1432
 1580SOL    HW116199   1.557   2.893  15.133 -0.3123  2.0584  0.5086
 1580SOL    HW216200   1.690   2.909  15.198 -0.0341  0.7915 -0.9465
 1581SOL     OW16201   1.361   0.224   7.433  0.5119 -0.7612  0.1356
 1581SOL    HW116202   1.297   0.259   7.495 -0.0823  0.2575 -1.0673
 1581SOL    HW216203   1.443   0.254   7.470  1.3230 -0.8822 -1.5538
 1582SOL     OW16204   0.868   1.585   2.303 -0.4103 -0.0287  0.2857
 1582SOL    HW116205   0.913   1.657   2.260 -1.6422 -0.1575 -1.2336
 1582SOL    HW216206   0.840   1.636   2.379 -0.0800 -0.0802  0.4404
 1583SOL     OW16207   0.626   2.875   9.201  0.2028 -0.1109  0.1862
 1583SOL    HW116208   0.678   2.948   9.235  1.0975 -0.2619 -0.8616
 1583SOL    HW216209   0.585   2.844   9.281  1.5178 -0.1987  0.8292
 1584SOL     OW16210   3.183   3.726  17.109 -0.3395  0.1717  0.2613
 1584SOL    HW116211   3.196   3.776  17.189  4.2309 -2.3016  1.0633
 1584SOL    HW216212   3.091   3.701  17.122 -0.1615 -0.2854  0.6435
 1585SOL     OW16213   2.271   3.958   7.500 -0.7208  0.4645  0.8201
 1585SOL    HW116214   2.349   3.921   7.541  0.8996  0.4462 -2.3169
 1585SOL    HW216215   2.220   3.993   7.574 -1.8109 -0.5070  0.5357
 1586SOL     OW16216   1.339   2.948  12.872  0.3204 -0.0725 -0.0830
 1586SOL    HW116217   1.271   2.990  12.820 -1.0826 -2.6623 -0.3791
 1586SOL    HW216218   1.408   3.014  12.877  0.7152 -0.5724  1.2210
 1587SOL     OW16219   2.489   1.639   4.906 -0.1029 -0.3724  0.0064
 1587SOL    HW116220   2.453   1.612   4.990  3.0255  0.3634  1.5699
 1587SOL    HW216221   2.403   1.646   4.864  0.4637  0.6234 -1.0121
 1588SOL     OW16222   4.282   3.032   4.226  0.4184 -0.1374  0.4383
 1588SOL    HW116223   4.217   3.085   4.180 -0.5139  2.0649  4.3647
 1588SOL    HW216224   4.357   3.076   4.184  0.5747 -0.3477  0.4977
 1589SOL     OW16225   3.291   3.632  15.470  0.3184  0.0061  0.0271
 1589SOL    HW116226   3.198   3.613  15.485  0.5604  0.0876  1.6107
 1589SOL    HW216227   3.293   3.610  15.377  1.4208 -0.2791  0.1224
 1590SOL     OW16228   1.747   0.622   3.178  0.5625 -0.5621 -0.4577
 1590SOL    HW116229   1.825   0.581   3.214 -0.0967 -2.5224 -1.2321
 1590SOL    HW216230   1.785   0.642   3.092 -1.8580  0.8246 -1.2083
 1591SOL     OW16231   2.099   3.938  15.436 -0.0481  0.0118  0.1356
 1591SOL    HW116232   2.158   3.969  15.504  0.0338  0.6959 -0.2463
 1591SOL    HW216233   2.022   3.935  15.492 -0.1887  0.0861 -0.0548
 1592SOL     OW16234   4.314   4.562   0.189  0.9679 -0.2073 -0.9020
 1592SOL    HW116235   4.322   4.608   0.106 -1.2555 -0.3356 -1.1934
 1592SOL    HW216236   4.392   4.599   0.229  0.4471  3.1149 -2.9823
 1593SOL     OW16237   4.698   4.238   5.739  0.1043 -0.2619  0.3302
 1593SOL    HW116238   4.655   4.177   5.799 -0.0804  0.2058  0.6721
 1593SOL    HW216239   0.033   4.180   5.691 -0.3263 -0.3787 -0.0495
 1594SOL     OW16240   3.684   4.235   4.068 -0.1144 -0.0913 -0.1169
 1594SOL    HW116241   3.711   4.150   4.102  1.0867  0.1383 -0.5022
 1594SOL    HW216242   3.701   4.240   3.974  1.0103  0.4914  0.1276
 1595SOL     OW16243   0.438   1.276   2.509 -0.3502  0.1482 -0.1528
 1595SOL    HW116244   0.363   1.243   2.460  0.1875  1.6729 -2.0252
 1595SOL    HW216245   0.516   1.270   2.453  0.8337  2.4058  1.2139
 1596SOL     OW16246   3.169   3.025   1.136 -0.1699  0.0832 -0.3644
 1596SOL    HW116247   3.078   3.054   1.145 -0.8755 -3.1378  2.7926
 1596SOL    HW216248   3.170   2.964   1.209  2.1891 -0.9626 -1.3111
 1597SOL     OW16249   2.062   2.061   3.277 -0.2152 -0.2955  0.1784
 1597SOL    HW116250   1.980   2.102   3.305 -0.4036  0.2321 -1.1548
 1597SOL    HW216251   2.101   2.128   3.222 -1.9679  1.3766  0.9758
 1598SOL     OW16252   2.952   3.916   5.386  0.3277  0.2321 -0.0926
 1598SOL    HW116253   2.938   3.861   5.463  0.1576  0.6229  0.1577
 1598SOL    HW216254   2.864   3.926   5.350 -0.3595 -0.0215  1.5215
 1599SOL     OW16255   2.404   4.189   6.083  0.0972 -0.3575 -0.0875
 1599SOL    HW116256   2.361   4.236   6.154 -2.3269 -1.0660 -1.1101
 1599SOL    HW216257   2.326   4.138   6.064 -0.5476 -0.1920  2.0731
 1600SOL     OW16258   0.759   1.031  11.989  0.2844  0.4898 -0.0464
 1600SOL    HW116259   0.784   0.946  12.023  1.0149  1.9280  2.9782
 1600SOL    HW216260   0.841   1.078  11.973  0.6469 -0.4217 -0.8733
 1601SOL     OW16261   3.148   1.872  16.505 -0.2230 -0.2996  0.0958
 1601SOL    HW116262   3.143   1.785  16.544  1.9043 -1.4758 -2.2268
 1601SOL    HW216263   3.088   1.851  16.434 -2.9966  1.2690  1.9782
 1602SOL     OW16264   4.664   1.424  10.387  0.3130  0.1729 -0.0014
 1602SOL    HW116265   4.595   1.364  10.416  1.0941 -1.0682 -0.7096
 1602SOL    HW216266   0.006   1.429  10.457 -2.0522 -0.6124  2.2595
 1603SOL     OW16267   3.986   1.136  14.769  0.0032  0.1904 -0.3048
 1603SOL    HW116268   3.967   1.075  14.697 -1.7988 -1.0757  1.2121
 1603SOL    HW216269   3.900   1.178  14.769  0.1530  0.4925 -1.7846
 1604SOL     OW16270   4.685   3.248   5.898 -0.9333 -0.0033 -0.3451
 1604SOL    HW116271   4.623   3.321   5.902 -0.5302  0.1392  3.3710
 1604SOL    HW216272   0.023   3.277   5.966 -1.1091 -0.8026  0.1566
 1605SOL     OW16273   1.055   2.426   2.984  0.3543 -0.2501  0.3776
 1605SOL    HW116274   1.082   2.352   2.929  3.4311  2.4460 -1.7062
 1605SOL    HW216275   1.129   2.442   3.043  0.5885  0.2580 -0.0631
 1606SOL     OW16276   2.627   4.593   0.001  0.2198 -0.1829 -0.5861
 1606SOL    HW116277   2.558   4.582   0.067  1.9748 -0.3895  1.2134
 1606SOL    HW216278   2.664   4.505   0.008  1.1938  0.4312  1.9805
 1607SOL     OW16279   4.045   4.392   8.537 -0.6056 -0.1352 -0.5850
 1607SOL    HW116280   4.017   4.416   8.449 -0.5254  2.1388  0.0020
 1607SOL    HW216281   4.016   4.465   8.592 -1.2705 -0.2957 -0.7163
 1608SOL     OW16282   1.956   2.350   2.825 -0.5582  0.0301 -0.7367
 1608SOL    HW116283   1.951   2.443   2.804  2.8930 -0.0763 -1.8913
 1608SOL    HW216284   1.866   2.342   2.857 -0.4741  0.1923 -0.4624
 1609SOL     OW16285   3.255   0.411  16.773 -0.1712  0.1690  0.1979
 1609SOL    HW116286   3.280   0.326  16.811  0.4248 -0.2617 -1.1601
 1609SOL    HW216287   3.268   0.400  16.679  1.2740  2.1783  0.1721
 1610SOL     OW16288   0.109   0.602   2.164  0.4930  0.2208 -0.0078
 1610SOL    HW116289   0.204   0.586   2.160  0.6625  1.2301 -0.1315
 1610SOL    HW216290   0.085   0.540   2.095 -0.9699  0.8930 -0.1030
 1611SOL     OW16291   2.427   1.305   2.603  0.5307  0.2022  0.1673
 1611SOL    HW116292   2.417   1.309   2.699 -0.2552  1.6551  0.0188
 1611SOL    HW216293   2.345   1.343   2.572 -0.7221 -1.5080  1.4254
 1612SOL     OW16294   1.788   2.011  14.947  0.1522  0.3071 -0.2713
 1612SOL    HW116295   1.880   1.986  14.953  0.3804  0.9706 -1.0547
 1612SOL    HW216296   1.761   1.993  15.037 -0.2298  0.7722 -0.2972
 1613SOL     OW16297   0.984   1.206   5.110  0.4645  0.3451  0.0708
 1613SOL    HW116298   0.954   1.121   5.140 -0.8217  0.3834 -1.1088
 1613SOL    HW216299   0.932   1.213   5.030  0.7261 -0.3913 -0.1636
 1614SOL     OW16300   3.910   0.460  14.949  0.2123 -1.0138  0.2842
 1614SOL    HW116301   3.895   0.542  14.996  0.5641 -0.5124 -0.4811
 1614SOL    HW216302   3.864   0.479  14.867  0.9135 -2.2849 -0.4109
 1615SOL     OW16303   1.366   2.033   4.070  0.0727 -0.0933  0.0797
 1615SOL    HW116304   1.423   1.958   4.055  0.4873  0.6373 -2.0120
 1615SOL    HW216305   1.417   2.074   4.139 -0.6288  0.9090 -0.0054
 1616SOL     OW16306   1.750   3.194   7.745  0.6153 -0.1489 -0.2309
 1616SOL    HW116307   1.819   3.244   7.790 -0.5664  2.6274 -1.4921
 1616SOL    HW216308   1.769   3.104   7.771 -0.7928  0.3718  2.7067
 1617SOL     OW16309   3.655   3.868   7.337 -0.6858  0.3698  0.1502
 1617SOL    HW116310   3.638   3.934   7.404  3.1792  0.6562  0.8929
 1617SOL    HW216311   3.643   3.915   7.255  1.9707 -0.2647 -0.6132
 1618SOL     OW16312   1.697   1.261   3.419 -0.1380 -0.2182  0.0913
 1618SOL    HW116313   1.603   1.262   3.401 -0.0834 -1.7313 -0.2755
 1618SOL    HW216314   1.732   1.213   3.344 -0.5802 -1.4666  0.6977
 1619SOL     OW16315   1.848   0.454   0.097 -0.3229  0.1565  0.8511
 1619SOL    HW116316   1.798   0.502   0.031  1.6140  0.7104 -0.2126
 1619SOL    HW216317   1.781   0.403   0.143 -1.7980  0.2198 -1.2173
 1620SOL     OW16318   0.195   4.504  14.672 -0.2213 -0.0830 -0.0101
 1620SOL    HW116319   0.176   4.494  14.765  0.1309 -0.0730  0.0630
 1620SOL    HW216320   0.244   4.586  14.665 -0.1692 -0.2122 -1.2235
 1621SOL     OW16321   2.539   3.475   4.893 -0.2103  0.1827  0.1511
 1621SOL    HW116322   2.460   3.428   4.920 -1.0598  0.4651 -1.8735
 1621SOL    HW216323   2.496   3.556   4.865  1.3429  1.1570  0.5752
 1622SOL     OW16324   4.567   1.530   5.157  0.0673  0.4809  0.3589
 1622SOL    HW116325   4.560   1.581   5.076 -0.0228 -1.0795 -0.6207
 1622SOL    HW216326   4.479   1.492   5.152  0.1979  0.2347 -0.0026
 1623SOL     OW16327   2.718   0.936   0.209 -0.4308 -0.4379 -0.1710
 1623SOL    HW116328   2.703   1.016   0.260 -2.0031 -0.3916 -0.7149
 1623SOL    HW216329   2.741   0.968   0.122 -0.3814 -0.6672 -0.2420
 1624SOL     OW16330   4.622   1.470   4.701  0.6438 -0.0109 -0.1223
 1624SOL    HW116331   4.552   1.534   4.709  0.5020 -0.2045  0.2009
 1624SOL    HW216332   4.635   1.480   4.607 -1.2525 -0.8184 -0.4700
 1625SOL     OW16333   2.617   4.502   4.523  0.5141  0.0171 -0.4597
 1625SOL    HW116334   2.592   4.437   4.589 -0.2670 -0.7796 -1.5524
 1625SOL    HW216335   2.651   4.443   4.456  0.2129  0.0451 -0.6349
 1626SOL     OW16336   2.524   3.759   6.631 -0.2807  0.2145  0.4485
 1626SOL    HW116337   2.611   3.783   6.600  0.0968 -0.3736  1.0579
 1626SOL    HW216338   2.476   3.791   6.555  1.0295 -0.1812 -0.5513
 1627SOL     OW16339   1.620   2.699   1.669 -0.2387 -0.0091 -0.0022
 1627SOL    HW116340   1.554   2.649   1.717  0.9690 -0.0519  1.6104
 1627SOL    HW216341   1.684   2.633   1.646  0.1689  0.1397  0.6847
 1628SOL     OW16342   1.018   0.169   8.293  0.2171  0.2912  0.1049
 1628SOL    HW116343   0.950   0.225   8.331 -1.1984 -1.8644  0.7153
 1628SOL    HW216344   1.021   0.086   8.339 -0.5552  0.9522  1.3498
 1629SOL     OW16345   1.230   3.676   5.870 -0.1370 -0.2981 -0.1967
 1629SOL    HW116346   1.296   3.724   5.821 -1.0099 -0.1301 -1.2131
 1629SOL    HW216347   1.212   3.733   5.945  0.5984 -0.4069  0.0618
 1630SOL     OW16348   3.256   3.553   4.109  0.1953  0.4035  0.2242
 1630SOL    HW116349   3.327   3.500   4.075  0.6213  1.3042 -0.2962
 1630SOL    HW216350   3.278   3.560   4.202 -1.0875  0.2432  0.5477
 1631SOL     OW16351   4.085   4.147  12.717  0.1282 -0.1638 -0.0228
 1631SOL    HW116352   4.154   4.213  12.722 -0.8300  0.6977  1.4176
 1631SOL    HW216353   4.132   4.069  12.745  0.2036 -0.2993 -0.5288
 1632SOL     OW16354   2.049   3.351   1.472 -0.0303 -0.1071  0.3386
 1632SOL    HW116355   2.131   3.370   1.518 -0.5701  2.3141  0.3159
 1632SOL    HW216356   1.973   3.372   1.526  0.5084  2.1322  0.2178
 1633SOL     OW16357   0.973   4.073  12.410  0.0276  0.1611  0.0260
 1633SOL    HW116358   0.913   4.042  12.341 -0.4787 -0.3076  0.6786
 1633SOL    HW216359   1.019   4.137  12.355 -0.2510  1.0966  0.8846
 1634SOL     OW16360   1.085   3.094  13.981  0.0742  0.5991  0.2110
 1634SOL    HW116361   1.035   3.099  14.062  1.8522  1.1720  1.2946
 1634SOL    HW216362   1.088   3.002  13.956  0.0432  0.5069  0.5474
 1635SOL     OW16363   0.626   3.907   8.785  0.3839 -0.1525  0.1361
 1635SOL    HW116364   0.579   3.847   8.842 -1.2369 -0.4976 -1.5630
 1635SOL    HW216365   0.552   3.951   8.743  0.2842 -1.3233 -0.9192
 1636SOL     OW16366   3.372   2.722  17.259  0.1198 -0.2236 -0.0510
 1636SOL    HW116367   3.335   2.802  17.222 -0.2482  0.4915  1.9241
 1636SOL    HW216368   3.325   2.716  17.342 -0.7582  0.5540 -0.4961
 1637SOL     OW16369   4.592   4.394   2.474  0.0989  0.1071  0.6285
 1637SOL    HW116370   4.551   4.388   2.387  0.8580 -1.2383  0.3766
 1637SOL    HW216371   4.666   4.443   2.438 -2.1595  3.2359  0.2112
 1638SOL     OW16372   0.849   1.413   5.267 -0.1737 -0.1089  0.1234
 1638SOL    HW116373   0.889   1.326   5.264 -0.0089 -0.0668  0.8667
 1638SOL    HW216374   0.900   1.460   5.334  0.4939 -0.4667 -0.1283
 1639SOL     OW16375   2.823   3.887  12.499 -0.1680  0.1595  0.5822
 1639SOL    HW116376   2.807   3.817  12.562 -2.6403  0.1943  0.0101
 1639SOL    HW216377   2.768   3.957  12.534 -1.4226 -0.5604  0.0340
 1640SOL     OW16378   2.899   2.919   5.685  0.1887 -0.4641  0.4288
 1640SOL    HW116379   2.828   2.913   5.621 -0.7058  2.1404  1.1934
 1640SOL    HW216380   2.849   2.922   5.766  0.0736  3.2537  0.2017
 1641SOL     OW16381   4.130   1.485   8.296  0.1726  0.8573  0.3359
 1641SOL    HW116382   4.201   1.450   8.242  0.5991  3.6189 -0.8879
 1641SOL    HW216383   4.085   1.548   8.240  1.5245  2.3681  0.9785
 1642SOL     OW16384   3.314   0.613   0.098  0.3737  0.2545  0.2597
 1642SOL    HW116385   3.373   0.654   0.160  2.3040  0.1028 -1.4631
 1642SOL    HW216386   3.314   0.526   0.137 -1.2455  0.9323  1.7400
 1643SOL     OW16387   1.520   1.947   5.941  0.1750  0.6283  0.4490
 1643SOL    HW116388   1.590   1.995   5.985  1.3674 -0.4965 -0.2303
 1643SOL    HW216389   1.479   1.896   6.011 -2.7535  1.2162 -0.7995
 1644SOL     OW16390   1.678   4.199  12.767  0.2064 -0.1789  0.2333
 1644SOL    HW116391   1.676   4.184  12.673  0.5776  0.6541  0.0829
 1644SOL    HW216392   1.587   4.223  12.785  0.4802 -0.2287  1.7399
 1645SOL     OW16393   0.935   1.240   7.225  0.5823  0.5416  0.1149
 1645SOL    HW116394   0.897   1.324   7.250  0.9473  0.0901  2.2092
 1645SOL    HW216395   0.930   1.257   7.131  0.4449 -0.4092 -0.0547
 1646SOL     OW16396   3.362   0.839   6.012  0.2054  0.1595 -0.1166
 1646SOL    HW116397   3.321   0.755   5.994 -0.6902 -0.3181  4.0132
 1646SOL    HW216398   3.365   0.891   5.932  0.7373  0.3800  0.0427
 1647SOL     OW16399   0.499   2.837   6.534 -0.0016  0.6600 -0.0892
 1647SOL    HW116400   0.504   2.813   6.441  1.9155  2.2395 -0.4198
 1647SOL    HW216401   0.435   2.907   6.544 -1.3300 -0.4483 -0.8517
 1648SOL     OW16402   4.341   1.412   8.169 -0.6549 -0.2851  0.0047
 1648SOL    HW116403   4.369   1.382   8.082  0.1644 -1.9542  0.8445
 1648SOL    HW216404   4.426   1.446   8.197 -2.2059  2.5859  1.2697
 1649SOL     OW16405   4.568   2.265   5.211  0.2379 -0.1125  0.0825
 1649SOL    HW116406   4.515   2.185   5.216  0.4611 -0.3138 -0.9070
 1649SOL    HW216407   4.596   2.267   5.303 -1.0072 -4.4331  0.5583
 1650SOL     OW16408   4.694   1.971   8.406  0.2327 -0.1547  0.0706
 1650SOL    HW116409   0.005   2.018   8.330  0.5087  0.8384  0.8247
 1650SOL    HW216410   4.715   1.880   8.383  0.5937 -0.3041  0.9903
 1651SOL     OW16411   1.889   0.184   3.798 -0.8819 -0.1901  0.0656
 1651SOL    HW116412   1.965   0.242   3.796 -0.0563 -1.1653  2.2801
 1651SOL    HW216413   1.842   0.207   3.878  1.5339 -1.8692  1.9741
 1652SOL     OW16414   1.473   2.228   8.638 -0.0359  0.6530  0.2796
 1652SOL    HW116415   1.534   2.254   8.708 -0.6133 -2.2968  1.8891
 1652SOL    HW216416   1.422   2.169   8.694  0.6468  0.7471  1.0122
 1653SOL     OW16417   2.473   4.614   6.744 -0.2745  0.5526 -0.5136
 1653SOL    HW116418   2.521   4.583   6.667  0.1608  0.0946 -0.0580
 1653SOL    HW216419   2.455   4.530   6.787  0.9890  0.8817  0.6680
 1654SOL     OW16420   1.367   1.728   3.467  0.1293 -0.7058  0.2164
 1654SOL    HW116421   1.294   1.670   3.492  0.8927 -1.2133  1.2992
 1654SOL    HW216422   1.352   1.722   3.373  1.0912 -3.1067  0.2114
 1655SOL     OW16423   1.371   1.368   1.226 -0.3311  0.1307 -0.4434
 1655SOL    HW116424   1.305   1.413   1.174  0.6457  1.9353 -0.1157
 1655SOL    HW216425   1.340   1.361   1.316  0.6921 -0.1913 -0.1070
 1656SOL     OW16426   2.637   1.729   8.940  0.1717 -0.1442  0.3071
 1656SOL    HW116427   2.726   1.763   8.950 -0.3563  1.2598  0.3083
 1656SOL    HW216428   2.626   1.739   8.845  0.2883 -0.0069  0.3075
 1657SOL     OW16429   1.580   2.261   6.995  0.4901  0.7114  0.0593
 1657SOL    HW116430   1.653   2.294   7.049  0.1839  2.3004 -0.4911
 1657SOL    HW216431   1.621   2.186   6.952 -1.0746  0.3752 -0.8157
 1658SOL     OW16432   1.661   3.862  13.223  0.5549 -0.5064 -0.5537
 1658SOL    HW116433   1.727   3.834  13.160  1.5160 -2.3208  1.2477
 1658SOL    HW216434   1.584   3.871  13.167  0.5088 -2.3055 -0.8044
 1659SOL     OW16435   1.212   1.530   8.092  0.1919  0.3109 -0.3374
 1659SOL    HW116436   1.259   1.447   8.088  2.0579  1.2389  2.1627
 1659SOL    HW216437   1.172   1.528   8.179  0.2744 -0.7371 -0.3291
 1660SOL     OW16438   2.209   2.204   6.454  0.3457  0.8129 -0.8409
 1660SOL    HW116439   2.234   2.122   6.411  0.2128  0.1864  0.2773
 1660SOL    HW216440   2.144   2.240   6.393 -0.7662  0.2515  0.0044
 1661SOL     OW16441   0.803   0.437   2.613  0.2092  0.1951 -0.1023
 1661SOL    HW116442   0.729   0.411   2.558  1.4658 -1.6684 -0.9133
 1661SOL    HW216443   0.771   0.524   2.636  1.8291  0.7497  0.0981
 1662SOL     OW16444   1.133   3.052  11.421 -0.7384 -0.1067 -0.2273
 1662SOL    HW116445   1.121   3.146  11.404 -0.0455 -0.1087 -0.7791
 1662SOL    HW216446   1.207   3.047  11.359 -1.6206 -0.1606 -1.2722
 1663SOL     OW16447   4.321   2.017   3.062 -0.1424  0.3271  1.0528
 1663SOL    HW116448   4.314   2.112   3.065 -0.2180  0.3667 -0.4748
 1663SOL    HW216449   4.392   2.005   3.126  1.3849  1.0533 -0.5046
 1664SOL     OW16450   3.692   0.604  16.264  0.5954  0.1072 -0.5871
 1664SOL    HW116451   3.753   0.531  16.256 -0.9283 -1.2397 -0.0399
 1664SOL    HW216452   3.634   0.580  16.337 -0.0015  0.4750 -0.9384
 1665SOL     OW16453   3.023   2.074   0.860  0.0699  0.1204 -0.3896
 1665SOL    HW116454   3.053   2.060   0.950  0.0894  2.9781  0.0519
 1665SOL    HW216455   3.089   2.137   0.831  0.4054  0.0270  0.1739
 1666SOL     OW16456   3.717   0.348   0.613  0.3834 -0.3191  0.3343
 1666SOL    HW116457   3.675   0.432   0.630 -1.3728 -1.2427  0.6566
 1666SOL    HW216458   3.795   0.355   0.668  0.5168  1.4249 -0.0761
 1667SOL     OW16459   0.059   4.613   8.469 -0.2783 -0.0117 -0.0233
 1667SOL    HW116460   4.696   4.591   8.503  0.9625 -1.5095  2.1621
 1667SOL    HW216461   0.103   4.646   8.547 -1.9994  0.5237  0.7287
 1668SOL     OW16462   3.463   0.306   1.258  0.2008 -0.5002  0.2494
 1668SOL    HW116463   3.554   0.335   1.249 -0.0297 -0.0268 -0.5857
 1668SOL    HW216464   3.453   0.242   1.188 -1.7300 -0.4901  0.5344
 1669SOL     OW16465   4.293   4.163   2.090 -0.5105  0.1922  0.0790
 1669SOL    HW116466   4.245   4.246   2.084  0.3330  0.7204  0.6766
 1669SOL    HW216467   4.380   4.195   2.065 -0.6025  0.4074  0.0342
 1670SOL     OW16468   0.168   0.423   8.644  0.3717 -0.0540  0.1311
 1670SOL    HW116469   0.108   0.426   8.570  2.7204 -1.2161 -1.8252
 1670SOL    HW216470   0.164   0.333   8.677  3.2998  0.3399  1.5573
 1671SOL     OW16471   3.645   0.435   6.362  0.1474  0.1020  0.0723
 1671SOL    HW116472   3.614   0.347   6.382 -1.0625  0.4690 -0.2037
 1671SOL    HW216473   3.736   0.414   6.342  0.2531  1.0580 -0.4770
 1672SOL     OW16474   1.915   4.216   7.599 -0.2867 -0.0819  0.3376
 1672SOL    HW116475   1.862   4.287   7.560 -0.9657 -1.0043 -0.4215
 1672SOL    HW216476   1.865   4.185   7.675 -1.4131 -0.8387 -0.7066
 1673SOL     OW16477   0.659   3.027   8.837 -0.3484 -0.3884  0.5346
 1673SOL    HW116478   0.591   2.996   8.776  0.8461  0.3548 -1.1709
 1673SOL    HW216479   0.693   2.950   8.883 -0.6159 -1.2181 -0.6242
 1674SOL     OW16480   4.546   1.126   5.404 -0.2027 -0.0837  0.0407
 1674SOL    HW116481   4.479   1.177   5.449  0.5285  0.1756  0.8206
 1674SOL    HW216482   4.564   1.049   5.457  0.5093  0.2975  0.3492
 1675SOL     OW16483   3.852   4.558   0.231 -0.2460 -0.2568 -0.2422
 1675SOL    HW116484   3.928   4.616   0.238  0.0211 -0.5694 -0.5729
 1675SOL    HW216485   3.852   4.569   0.136  0.6463  2.4611  0.0829
 1676SOL     OW16486   4.309   4.554   5.499 -0.0209  0.6753  0.4695
 1676SOL    HW116487   4.354   4.474   5.524 -1.1750  0.2566  1.2000
 1676SOL    HW216488   4.388   4.607   5.491 -0.1465  0.6572 -0.9608
 1677SOL     OW16489   3.788   1.371   2.398 -0.8832  0.0820 -0.2994
 1677SOL    HW116490   3.702   1.412   2.398 -0.4595  0.9850 -1.1910
 1677SOL    HW216491   3.822   1.395   2.311  2.8549 -0.1509  1.0887
 1678SOL     OW16492   0.950   1.909  11.035  0.1516 -0.2662  0.4825
 1678SOL    HW116493   1.027   1.957  11.067  0.5346 -0.9304  0.5604
 1678SOL    HW216494   0.956   1.836  11.096 -2.6437  0.1705  1.2865
 1679SOL     OW16495   1.028   0.249   2.438 -0.4097 -0.4442 -0.4060
 1679SOL    HW116496   1.022   0.162   2.479  0.9276 -0.2606  0.1871
 1679SOL    HW216497   1.030   0.310   2.512 -3.5020 -1.8939  0.8656
 1680SOL     OW16498   3.534   3.564   6.511 -0.0039  0.4980 -0.5923
 1680SOL    HW116499   3.627   3.548   6.530 -0.1085 -0.5866 -0.9851
 1680SOL    HW216500   3.536   3.596   6.421 -0.3332  1.6648 -0.1794
 1681SOL     OW16501   0.118   0.217   4.264  0.0086 -1.1403 -0.0946
 1681SOL    HW116502   0.211   0.231   4.283 -0.1108  0.7944 -0.9385
 1681SOL    HW216503   0.119   0.232   4.170 -1.5051 -2.9219 -0.3929
 1682SOL     OW16504   3.980   2.813   4.836  0.0904  0.4007 -0.6855
 1682SOL    HW116505   4.064   2.797   4.880 -1.1440  0.5645  1.7591
 1682SOL    HW216506   3.944   2.868   4.906 -0.6418 -1.2592  0.2349
 1683SOL     OW16507   0.124   1.661  17.186  0.0198  0.1863 -0.1053
 1683SOL    HW116508   0.202   1.713  17.168  1.3463 -0.7729  2.8613
 1683SOL    HW216509   0.095   1.684  17.275 -1.5701 -3.4211  0.3390
 1684SOL     OW16510   2.723   3.330   2.208  0.3679 -0.3112  0.3282
 1684SOL    HW116511   2.728   3.274   2.131 -0.2509 -1.4327  1.1106
 1684SOL    HW216512   2.767   3.269   2.266 -0.1104  0.0731  1.1100
 1685SOL     OW16513   3.877   0.783  16.587  0.0536 -0.1268 -0.3006
 1685SOL    HW116514   3.963   0.790  16.629 -0.3931 -0.9391  0.7528
 1685SOL    HW216515   3.842   0.844  16.652  1.5740 -1.9431  2.2518
 1686SOL     OW16516   0.895   1.449   1.840 -0.1149 -0.0719  0.8080
 1686SOL    HW116517   0.989   1.444   1.822 -0.0904  0.5202  0.7864
 1686SOL    HW216518   0.888   1.532   1.886 -1.9839  0.3395 -0.2520
 1687SOL     OW16519   4.153   0.497  14.452  0.0407  0.3204 -0.3653
 1687SOL    HW116520   4.197   0.492  14.537 -2.1313  1.2665  0.7957
 1687SOL    HW216521   4.188   0.569  14.399  0.9093  0.7286  0.7680
 1688SOL     OW16522   4.547   0.418   5.829 -0.0936  0.1386  0.7047
 1688SOL    HW116523   4.474   0.459   5.783  1.9671  1.5515 -1.2918
 1688SOL    HW216524   4.606   0.407   5.755 -0.2317  0.6610  0.5146
 1689SOL     OW16525   3.135   1.715   3.888  0.5200  0.3756 -0.2020
 1689SOL    HW116526   3.209   1.685   3.941  0.8977  0.7340 -0.5286
 1689SOL    HW216527   3.127   1.805   3.919 -1.4497  0.0571  0.1893
 1690SOL     OW16528   2.803   1.964   7.005  0.1419  0.1042  0.1550
 1690SOL    HW116529   2.892   1.992   7.024  1.1760 -3.5397  0.7117
 1690SOL    HW216530   2.761   2.049   6.990  1.5024  0.4656 -1.5614
 1691SOL     OW16531   2.925   1.156   0.377  0.5525 -0.4202 -0.2483
 1691SOL    HW116532   2.865   1.117   0.441 -0.3070  0.9214 -0.2218
 1691SOL    HW216533   2.864   1.205   0.322  3.2315  1.8349 -1.1928
 1692SOL     OW16534   4.580   0.302  11.756 -0.7699  0.6585  0.3224
 1692SOL    HW116535   4.621   0.231  11.707 -1.2569 -0.8492  2.1205
 1692SOL    HW216536   4.646   0.371  11.746  1.4652 -1.5368 -0.0618
 1693SOL     OW16537   1.198   2.545   0.883  0.4826  0.3282 -0.1699
 1693SOL    HW116538   1.146   2.618   0.915 -1.5463 -0.3350 -1.9702
 1693SOL    HW216539   1.269   2.541   0.947  0.0822 -0.7061  0.2124
 1694SOL     OW16540   4.658   0.500  17.668  0.3693  0.0698  0.0299
 1694SOL    HW116541   4.710   0.450   0.034 -0.0843  2.7804  2.6332
 1694SOL    HW216542   4.672   0.437  17.597  1.3647  0.5760 -0.2190
 1695SOL     OW16543   2.499   4.669   7.396  0.5166 -0.0017 -0.4624
 1695SOL    HW116544   2.440   4.607   7.353 -3.0873  0.7274  3.4426
 1695SOL    HW216545   2.581   4.646   7.352  0.5374  1.6550 -1.2849
 1696SOL     OW16546   3.426   3.707   3.902 -0.5560  0.2699 -0.1141
 1696SOL    HW116547   3.520   3.693   3.890 -1.0292 -1.8433 -1.2162
 1696SOL    HW216548   3.386   3.621   3.892  0.1240 -0.0550  0.0120
 1697SOL     OW16549   0.317   0.540   1.368  0.0431  0.0757  0.3651
 1697SOL    HW116550   0.336   0.590   1.447  0.0785  0.5247  0.0664
 1697SOL    HW216551   0.406   0.506   1.354 -0.0318  0.1870 -0.3720
 1698SOL     OW16552   2.909   0.503   6.739  0.1199  0.1292  0.1188
 1698SOL    HW116553   2.942   0.452   6.666  0.0388 -0.8036  0.7385
 1698SOL    HW216554   2.860   0.431   6.779 -0.1319  0.3465  0.2035
 1699SOL     OW16555   4.101   0.422   1.853 -0.7239 -0.3723 -0.3390
 1699SOL    HW116556   4.084   0.434   1.947 -0.9658 -1.2123 -0.2717
 1699SOL    HW216557   4.144   0.336   1.858  0.2499  0.0715 -0.9644
 1700SOL     OW16558   3.141   2.601   4.363  0.1489 -0.0478 -0.0366
 1700SOL    HW116559   3.233   2.588   4.385  0.6102  1.8143 -0.8382
 1700SOL    HW216560   3.108   2.521   4.403 -0.0347  0.1839  0.2647
 1701SOL     OW16561   1.424   3.335   7.237 -0.1981  0.2374  0.4675
 1701SOL    HW116562   1.433   3.406   7.300  1.4703  1.9086 -1.6701
 1701SOL    HW216563   1.330   3.318   7.240 -0.1358 -0.3556 -0.8867
 1702SOL     OW16564   2.841   4.272   3.256  0.4311 -0.1675 -0.0223
 1702SOL    HW116565   2.831   4.253   3.162  1.1470  1.8442 -0.4978
 1702SOL    HW216566   2.931   4.240   3.267  0.5520  1.0484  2.4345
 1703SOL     OW16567   0.178   3.828  13.903  0.1503  0.0822  0.1214
 1703SOL    HW116568   0.195   3.822  13.809 -2.4347 -2.8094 -0.1680
 1703SOL    HW216569   0.179   3.735  13.925  3.5386 -0.4999 -2.4800
 1704SOL     OW16570   2.037   0.894   1.543  0.2743 -0.5211  0.4591
 1704SOL    HW116571   2.017   0.801   1.555 -0.8300 -0.2752  0.5389
 1704SOL    HW216572   1.978   0.932   1.478 -2.0932 -1.6846  1.9559
 1705SOL     OW16573   0.761   0.884   2.469  0.1069 -0.0275 -0.3514
 1705SOL    HW116574   0.827   0.827   2.508  0.0871  0.9921  1.1938
 1705SOL    HW216575   0.711   0.915   2.545 -0.6131  1.2089 -1.3328
 1706SOL     OW16576   2.270   1.062   7.072  0.0093  0.1918 -0.1824
 1706SOL    HW116577   2.348   1.043   7.021  1.9519  1.0785  2.4404
 1706SOL    HW216578   2.307   1.130   7.128  0.8498 -0.2782 -0.1770
 1707SOL     OW16579   3.095   0.026   2.438 -0.1626  0.1283  0.2588
 1707SOL    HW116580   3.170   0.073   2.404 -0.9137  1.1721  0.0511
 1707SOL    HW216581   3.036   0.093   2.472 -2.0999 -1.3740 -0.1260
 1708SOL     OW16582   2.411   3.382  17.397  0.2085  0.4599 -0.1087
 1708SOL    HW116583   2.430   3.433  17.318 -0.6421  0.8381 -0.0699
 1708SOL    HW216584   2.416   3.289  17.376 -2.4509  0.4369 -0.6124
 1709SOL     OW16585   0.885   0.911   3.413  0.2542  0.3099 -0.4087
 1709SOL    HW116586   0.835   0.987   3.381 -1.2530  0.1251  1.5222
 1709SOL    HW216587   0.971   0.950   3.429 -0.2703  1.1236  0.4141
 1710SOL     OW16588   0.710   2.579   1.381  0.5522 -0.5492 -0.0606
 1710SOL    HW116589   0.647   2.602   1.312 -1.9046  0.3730  2.4942
 1710SOL    HW216590   0.662   2.510   1.428 -2.2118  0.6561 -1.0798
 1711SOL     OW16591   0.637   3.308   7.180  0.0735 -0.3165  0.1055
 1711SOL    HW116592   0.583   3.244   7.226  0.9248 -0.7531  0.4882
 1711SOL    HW216593   0.607   3.393   7.212  1.5557 -0.1373  1.0290
 1712SOL     OW16594   2.530   2.844   9.109  0.1061  0.7923  0.7738
 1712SOL    HW116595   2.601   2.780   9.119  0.3144  0.6980 -1.3771
 1712SOL    HW216596   2.561   2.919   9.160  0.9644  1.1458 -0.2724
 1713SOL     OW16597   1.293   4.398   3.271 -0.7397 -0.3965  0.0550
 1713SOL    HW116598   1.346   4.477   3.264 -0.8091 -0.3524  0.0231
 1713SOL    HW216599   1.275   4.403   3.365  3.0436 -1.1687  0.8151
 1714SOL     OW16600   0.011   1.224  12.128 -0.3603 -0.1336  0.1065
 1714SOL    HW116601   4.707   1.159  12.192 -0.7673 -0.2115 -0.1473
 1714SOL    HW216602   4.682   1.291  12.173 -0.1137  1.2989 -1.7045
 1715SOL     OW16603   3.960   4.691   8.396  0.6181  0.8507  0.3698
 1715SOL    HW116604   3.880   0.016   8.417  0.6905  0.4511  1.5860
 1715SOL    HW216605   4.007   4.689   8.480  0.6103 -1.4562  0.3143
 1716SOL     OW16606   2.063   1.437   5.236  0.4943 -0.1721 -0.4112
 1716SOL    HW116607   2.101   1.398   5.314 -2.5229 -1.1782  0.5394
 1716SOL    HW216608   2.007   1.504   5.276  0.0586 -0.6532 -0.2226
 1717SOL     OW16609   1.378   2.062  13.482  0.2297 -0.8072 -0.1801
 1717SOL    HW116610   1.300   2.101  13.521 -1.2050 -3.8310 -0.0194
 1717SOL    HW216611   1.447   2.068  13.548 -0.1015 -0.4388  0.1312
 1718SOL     OW16612   4.542   3.782  15.222 -0.0898  0.0471 -0.0342
 1718SOL    HW116613   4.559   3.750  15.134  2.8163 -1.0289  0.8859
 1718SOL    HW216614   4.447   3.773  15.224 -0.4340  3.6088 -1.4796
 1719SOL     OW16615   2.592   2.716   3.369  0.0522  1.1991  0.3351
 1719SOL    HW116616   2.665   2.738   3.427 -0.0978 -1.3692  1.5118
 1719SOL    HW216617   2.633   2.706   3.282 -0.6604 -0.6090  0.2062
 1720SOL     OW16618   2.502   3.859   1.853  0.3760  0.2149 -0.4886
 1720SOL    HW116619   2.414   3.866   1.890  0.3225 -1.1381 -0.3728
 1720SOL    HW216620   2.492   3.810   1.771 -1.4000  1.1471 -0.8469
 1721SOL     OW16621   1.629   1.304   0.115  0.1571  0.0806  0.0924
 1721SOL    HW116622   1.567   1.303   0.042  1.7776 -0.3073 -1.2915
 1721SOL    HW216623   1.707   1.275   0.067 -0.8129 -0.2369 -1.3154
 1722SOL     OW16624   1.632   2.558   7.051 -0.3079 -0.1256 -0.3094
 1722SOL    HW116625   1.684   2.621   7.099  1.4324 -1.9135  0.1707
 1722SOL    HW216626   1.691   2.532   6.980 -0.5642 -0.9231 -0.2310
 1723SOL     OW16627   0.876   3.781   7.939 -0.1372 -0.5281 -0.2142
 1723SOL    HW116628   0.926   3.858   7.914  1.1202 -1.3261 -0.1599
 1723SOL    HW216629   0.953   3.733   7.970 -0.0471 -0.1135  0.2034
 1724SOL     OW16630   1.478   4.634   7.667 -0.6131 -0.7601 -0.4796
 1724SOL    HW116631   1.509   4.721   7.646  0.0325 -0.7554  0.5235
 1724SOL    HW216632   1.550   4.589   7.712  2.6637  2.2153 -2.8161
 1725SOL     OW16633   4.533   0.060   3.013 -0.1278 -0.9859  0.0961
 1725SOL    HW116634   4.541   0.080   3.107  1.8878  0.0081 -0.2724
 1725SOL    HW216635   4.624   0.046   2.988 -0.1333 -0.1634 -0.3988
 1726SOL     OW16636   0.982   1.360   5.807 -0.0733  0.4199  0.3827
 1726SOL    HW116637   0.951   1.390   5.893  0.0561 -1.4489  1.0934
 1726SOL    HW216638   0.966   1.267   5.824  1.1239  0.1331 -0.0315
 1727SOL     OW16639   3.984   0.313  14.333  0.7529 -0.6241 -0.2510
 1727SOL    HW116640   4.023   0.383  14.385 -0.7387 -0.0292  0.0612
 1727SOL    HW216641   4.055   0.294  14.271 -1.5235 -1.9559 -2.4428
 1728SOL     OW16642   2.650   3.101   1.561  0.5185 -0.3614 -0.2650
 1728SOL    HW116643   2.596   3.023   1.552 -0.8046  0.8099 -2.5037
 1728SOL    HW216644   2.689   3.114   1.475 -0.7485 -0.6844 -0.8772
 1729SOL     OW16645   3.769   0.502   5.321 -0.5737 -0.0493  0.9592
 1729SOL    HW116646   3.767   0.597   5.329 -2.1574 -0.0271  0.2177
 1729SOL    HW216647   3.788   0.484   5.413 -1.0239 -2.0157  0.6654
 1730SOL     OW16648   4.292   3.174   9.871  0.0448  0.3014 -0.0901
 1730SOL    HW116649   4.292   3.131   9.786  0.8921  1.0578 -0.4737
 1730SOL    HW216650   4.329   3.260   9.850  2.1726 -1.3402 -3.0339
 1731SOL     OW16651   1.966   4.347   8.111 -0.8185  0.2596  0.2460
 1731SOL    HW116652   1.882   4.302   8.114 -0.2808 -0.7030  1.0236
 1731SOL    HW216653   1.971   4.359   8.016 -3.4216 -1.3375 -0.0819
 1732SOL     OW16654   3.728   0.960   7.868  0.2856  0.2561 -0.5403
 1732SOL    HW116655   3.677   0.909   7.931 -0.3819 -1.2485 -2.3069
 1732SOL    HW216656   3.755   0.903   7.796 -0.6251  1.2715 -1.6641
 1733SOL     OW16657   3.619   3.710   2.445 -0.4714  0.0328  0.0272
 1733SOL    HW116658   3.616   3.614   2.439 -0.7081  0.0971 -0.8606
 1733SOL    HW216659   3.677   3.735   2.374 -1.1759  0.3852 -0.4192
 1734SOL     OW16660   1.213   3.907   2.184 -0.2671  0.0164 -0.1228
 1734SOL    HW116661   1.270   3.921   2.108 -0.4631  0.1843 -0.2388
 1734SOL    HW216662   1.284   3.897   2.247 -1.1275 -0.0456  0.8271
 1735SOL     OW16663   1.990   3.851   2.063  0.1699  0.3399 -0.2180
 1735SOL    HW116664   1.925   3.795   2.021  0.5173  0.2001 -0.5721
 1735SOL    HW216665   1.948   3.937   2.066  0.3185  0.4579 -1.4941
 1736SOL     OW16666   2.953   3.751  16.211 -0.0325  0.2094  0.0416
 1736SOL    HW116667   2.896   3.679  16.240  0.5021 -0.0868  0.3444
 1736SOL    HW216668   2.978   3.792  16.294 -0.7021 -1.2032  0.9379
 1737SOL     OW16669   2.595   0.454   6.998  0.1376  0.3825 -0.0749
 1737SOL    HW116670   2.564   0.467   6.908  1.7387 -1.2436 -0.8565
 1737SOL    HW216671   2.650   0.377   6.991 -0.1456  0.4926 -3.6733
 1738SOL     OW16672   0.660   1.734   0.773  0.2262  0.1549 -0.4268
 1738SOL    HW116673   0.755   1.741   0.785  0.4186 -1.7311 -0.8940
 1738SOL    HW216674   0.616   1.794   0.832 -0.9071 -0.9493 -0.1626
 1739SOL     OW16675   2.688   0.919   5.606 -0.3109  0.3072  0.5681
 1739SOL    HW116676   2.679   0.970   5.687  0.2948  0.0251  0.8105
 1739SOL    HW216677   2.724   0.977   5.538  3.0613 -0.6544  1.5387
 1740SOL     OW16678   0.730   3.098   9.315  0.5272 -0.3685 -0.1276
 1740SOL    HW116679   0.697   3.185   9.291 -0.0281 -1.2423 -2.4517
 1740SOL    HW216680   0.825   3.110   9.308  0.6867 -1.8283 -0.4341
 1741SOL     OW16681   3.118   2.697   6.087 -0.4699  0.4306 -0.2787
 1741SOL    HW116682   3.078   2.610   6.076  1.9705 -0.8781  1.3415
 1741SOL    HW216683   3.164   2.688   6.170  0.9073 -0.9330 -1.1969
 1742SOL     OW16684   1.277   4.433  10.124  0.1669 -0.4228  0.1187
 1742SOL    HW116685   1.259   4.498  10.055 -0.1614  0.6953  1.2636
 1742SOL    HW216686   1.186   4.425  10.155  0.1614 -1.0084 -0.0513
 1743SOL     OW16687   2.214   1.690   8.200 -0.8854 -0.4887  0.2744
 1743SOL    HW116688   2.229   1.775   8.157  0.8002 -0.7145  0.4281
 1743SOL    HW216689   2.118   1.685   8.194 -0.9410 -1.1310  1.8339
 1744SOL     OW16690   2.160   4.288   2.910  0.2754  0.3294  0.5560
 1744SOL    HW116691   2.220   4.239   2.965 -0.4596 -0.9984  0.1892
 1744SOL    HW216692   2.092   4.279   2.977 -0.7162  0.6952 -0.3941
 1745SOL     OW16693   2.304   4.389  11.238 -0.0499 -0.5923 -0.5239
 1745SOL    HW116694   2.226   4.415  11.189  0.1736 -1.3504 -1.2945
 1745SOL    HW216695   2.326   4.309  11.190  1.1062 -0.1480 -0.7358
 1746SOL     OW16696   0.638   3.768   7.809  0.3291  0.0583 -0.0325
 1746SOL    HW116697   0.730   3.770   7.837 -0.3565  1.2099  2.1410
 1746SOL    HW216698   0.603   3.838   7.864  2.4979 -0.1528  1.6578
 1747SOL     OW16699   4.305   1.270   9.398  0.1498 -0.5623 -0.4920
 1747SOL    HW116700   4.221   1.239   9.365 -0.5041 -0.5469  1.1868
 1747SOL    HW216701   4.330   1.324   9.322  0.9622 -0.9975 -0.5280
 1748SOL     OW16702   0.941   0.103   7.091  0.2187  0.3210 -0.1704
 1748SOL    HW116703   1.021   0.064   7.125 -0.1499  1.2886  1.7950
 1748SOL    HW216704   0.924   0.049   7.013  0.0597 -0.5849  0.4854
 1749SOL     OW16705   4.552   4.222   2.090  0.5286  0.3650  0.7035
 1749SOL    HW116706   4.632   4.247   2.043  1.4492 -1.8939  1.0766
 1749SOL    HW216707   4.573   4.128   2.088  0.9740  0.4673  0.4701
 1750SOL     OW16708   2.000   1.041   4.545 -0.3505  0.1471  0.3740
 1750SOL    HW116709   1.978   0.969   4.485  2.5549  0.3551 -0.9456
 1750SOL    HW216710   2.088   1.025   4.579 -0.5899  0.1714  0.9995
 1751SOL     OW16711   3.330   0.565  11.902 -0.2121 -0.0198 -0.8467
 1751SOL    HW116712   3.366   0.479  11.925  0.5985  0.9618  1.5677
 1751SOL    HW216713   3.410   0.601  11.863  0.6353  1.1966  1.9808
 1752SOL     OW16714   3.944   3.221  16.589  0.0574  0.2292 -0.1184
 1752SOL    HW116715   3.954   3.180  16.503 -0.5653 -0.3036  0.0602
 1752SOL    HW216716   3.863   3.269  16.572 -1.8108 -3.0987 -0.6824
 1753SOL     OW16717   2.264   3.153   5.140 -0.1036 -0.0540 -0.2496
 1753SOL    HW116718   2.348   3.172   5.181 -0.2640  1.0082 -0.3973
 1753SOL    HW216719   2.247   3.061   5.159  0.2691  0.1280  0.9260
 1754SOL     OW16720   2.616   2.023   3.116  0.1670  0.5643  0.2441
 1754SOL    HW116721   2.688   1.983   3.066 -2.2083 -0.8030 -2.0834
 1754SOL    HW216722   2.542   1.982   3.071  0.2070  0.0305  0.6619
 1755SOL     OW16723   2.993   2.514   2.969 -0.8414 -0.3592 -0.4178
 1755SOL    HW116724   3.038   2.501   3.053  0.2302 -1.5897 -1.1841
 1755SOL    HW216725   2.973   2.607   2.979 -0.0069 -0.3900  1.6882
 1756SOL     OW16726   4.643   2.515   8.257  0.3926 -0.1131  0.6674
 1756SOL    HW116727   4.559   2.471   8.274  0.8211 -0.7067  1.2656
 1756SOL    HW216728   4.703   2.441   8.266  0.6475  0.2137  1.6701
 1757SOL     OW16729   2.039   4.308   4.344  0.6466  0.0998  0.4506
 1757SOL    HW116730   2.001   4.300   4.432 -0.6437  0.1857 -0.0977
 1757SOL    HW216731   1.979   4.373   4.307 -0.2151 -0.7945  0.2554
 1758SOL     OW16732   2.138   1.290   5.498  0.5867  0.2749  0.1129
 1758SOL    HW116733   2.138   1.373   5.546  0.6198  0.4742 -0.2315
 1758SOL    HW216734   2.053   1.261   5.531  0.4310  2.0378  1.2535
 1759SOL     OW16735   2.375   4.182  11.090 -0.2643 -0.7089 -0.1881
 1759SOL    HW116736   2.310   4.194  11.021  0.0421  2.8374  0.1283
 1759SOL    HW216737   2.390   4.088  11.090 -3.3298 -1.1953 -1.2056
 1760SOL     OW16738   0.328   3.112   3.426  0.1395  0.0318 -0.2581
 1760SOL    HW116739   0.351   3.182   3.486  0.6282  0.6371 -1.1554
 1760SOL    HW216740   0.388   3.113   3.351  0.3754  1.6629 -0.0373
 1761SOL     OW16741   4.092   1.461  13.722 -0.0225  0.5285 -0.8666
 1761SOL    HW116742   4.096   1.380  13.671 -1.0612 -0.5189  0.7294
 1761SOL    HW216743   4.129   1.432  13.806 -1.1626  2.2702  0.2553
 1762SOL     OW16744   0.127   1.693   0.075  0.0714  0.0184 -0.4974
 1762SOL    HW116745   0.156   1.758   0.011 -1.8201  2.5009  1.1737
 1762SOL    HW216746   0.102   1.615   0.025  1.0115  0.5444 -1.7842
 1763SOL     OW16747   2.379   2.107   3.556  0.1158 -0.0844  0.3324
 1763SOL    HW116748   2.469   2.103   3.524 -0.1034 -3.0900  0.1105
 1763SOL    HW216749   2.339   2.023   3.536 -0.7673  0.5189 -0.4433
 1764SOL     OW16750   4.683   1.901   5.689 -0.4460  0.0266 -0.3691
 1764SOL    HW116751   4.716   1.981   5.729 -1.3762 -0.3217  1.0766
 1764SOL    HW216752   4.590   1.910   5.710 -0.4374 -0.5467 -0.0970
 1765SOL     OW16753   1.909   1.921  10.519 -0.2186 -0.3534  0.0068
 1765SOL    HW116754   1.893   1.843  10.571 -1.5922  0.5867  1.0037
 1765SOL    HW216755   1.988   1.950  10.564 -2.0052  0.4413  2.6784
 1766SOL     OW16756   2.146   0.375   9.626  0.4979  0.4626 -0.3336
 1766SOL    HW116757   2.104   0.459   9.606  1.5582  0.4353 -2.7504
 1766SOL    HW216758   2.235   0.390   9.659  0.9796 -0.5046 -1.1766
 1767SOL     OW16759   2.027   3.357   6.566  0.0140 -0.3701 -0.0504
 1767SOL    HW116760   1.988   3.439   6.535  1.5344 -0.0106 -1.0074
 1767SOL    HW216761   1.949   3.302   6.563  1.2273 -1.9720 -2.0427
 1768SOL     OW16762   2.442   4.556   2.024  0.0333 -0.1659  0.1898
 1768SOL    HW116763   2.462   4.463   2.013  1.7257  0.3147 -0.8465
 1768SOL    HW216764   2.522   4.580   2.070 -0.1397  0.1163  0.3452
 1769SOL     OW16765   3.624   4.588   8.975  0.7591 -0.3710 -0.2698
 1769SOL    HW116766   3.545   4.541   8.948  1.0619 -1.4390  0.7360
 1769SOL    HW216767   3.576   4.658   9.019 -1.0031 -0.6097 -1.7860
 1770SOL     OW16768   3.606   2.971   2.763 -0.2156 -0.1785  0.5470
 1770SOL    HW116769   3.634   2.904   2.701  0.2216 -0.5634  1.1561
 1770SOL    HW216770   3.512   2.967   2.746 -0.4233 -0.6853  1.8074
 1771SOL     OW16771   2.458   0.846   2.417  0.0045  0.4437 -0.3135
 1771SOL    HW116772   2.514   0.821   2.491  0.7830 -2.4807 -1.8696
 1771SOL    HW216773   2.377   0.799   2.435 -0.0089  0.6463  0.1395
 1772SOL     OW16774   0.714   3.155   7.747  0.0549 -0.3275  0.1168
 1772SOL    HW116775   0.725   3.155   7.842 -1.3845  0.4998  0.2984
 1772SOL    HW216776   0.798   3.126   7.712  0.9598  0.0021  2.0110
 1773SOL     OW16777   0.246   1.815   7.931  0.2679  0.2956  0.0181
 1773SOL    HW116778   0.302   1.781   7.861 -0.6495 -1.7234  0.2849
 1773SOL    HW216779   0.282   1.901   7.956 -2.0373  1.7783 -1.6929
 1774SOL     OW16780   4.269   3.098   2.621 -1.0895  0.6341 -0.2452
 1774SOL    HW116781   4.319   3.070   2.698  0.4446 -0.2610 -1.5504
 1774SOL    HW216782   4.187   3.094   2.669  0.2459  1.0610  2.0382
 1775SOL     OW16783   2.093   2.636   6.850  0.6297  0.3218  0.1647
 1775SOL    HW116784   2.162   2.688   6.892 -0.2973  0.1031  1.9728
 1775SOL    HW216785   2.052   2.700   6.793  0.3562  0.7468  0.8393
 1776SOL     OW16786   2.234   0.524   4.898 -0.5043 -0.0081 -0.5432
 1776SOL    HW116787   2.208   0.576   4.974 -0.1528  1.2805 -1.3119
 1776SOL    HW216788   2.173   0.556   4.832  0.2734 -1.2716 -1.8705
 1777SOL     OW16789   3.852   2.695  10.858  0.7926 -0.4588 -0.8591
 1777SOL    HW116790   3.943   2.681  10.831  0.8761  0.1029 -0.8678
 1777SOL    HW216791   3.803   2.633  10.803 -0.6359  0.3896 -0.5586
 1778SOL     OW16792   2.004   2.428  11.770 -0.3818  0.1014 -0.0197
 1778SOL    HW116793   1.931   2.456  11.825 -0.3197  0.4554 -0.1182
 1778SOL    HW216794   1.958   2.378  11.702  2.9048 -4.4606  1.1257
 1779SOL     OW16795   0.605   4.720   5.669  0.0947  0.5675  0.2995
 1779SOL    HW116796   0.610   4.628   5.643  1.1102  0.3598  1.2298
 1779SOL    HW216797   0.579   0.040   5.588  0.3180 -0.2199 -0.1879
 1780SOL     OW16798   3.188   1.485   0.593  0.4109  0.1462  0.2812
 1780SOL    HW116799   3.235   1.433   0.528 -2.3495 -0.8253 -0.9461
 1780SOL    HW216800   3.226   1.443   0.670  2.4190  1.9859  0.2671
 1781SOL     OW16801   1.071   2.020  12.453  0.1967  0.0433  0.0922
 1781SOL    HW116802   0.989   1.976  12.477 -0.8087  2.1329  0.5251
 1781SOL    HW216803   1.085   2.076  12.529  1.1167 -1.0028  0.6911
 1782SOL     OW16804   1.581   1.851   4.022 -0.1003 -0.2676 -0.2362
 1782SOL    HW116805   1.646   1.834   3.954  1.5228 -0.0917  1.3018
 1782SOL    HW216806   1.569   1.765   4.062 -1.0819 -0.2682 -0.5278
 1783SOL     OW16807   4.575   0.778  14.407 -0.0863 -0.2640  0.3818
 1783SOL    HW116808   4.658   0.730  14.417  0.0638  0.2038  1.3964
 1783SOL    HW216809   4.600   0.849  14.348 -1.5758  1.3011  1.6409
 1784SOL     OW16810   1.295   3.684   2.556  0.0009 -0.6893  0.0388
 1784SOL    HW116811   1.331   3.608   2.602  2.0610  0.4094  0.2672
 1784SOL    HW216812   1.294   3.636   2.474  0.8024  1.1984 -1.0743
 1785SOL     OW16813   3.553   1.545  13.759 -0.2942 -0.0145  0.3271
 1785SOL    HW116814   3.516   1.498  13.685  1.1940  0.5474 -0.7773
 1785SOL    HW216815   3.649   1.540  13.751 -0.2417 -1.4072  1.8480
 1786SOL     OW16816   4.295   0.194   9.066  0.0894 -0.3337 -0.0477
 1786SOL    HW116817   4.320   0.146   9.145  0.4076 -1.4736 -0.8428
 1786SOL    HW216818   4.217   0.243   9.094 -0.9556 -1.4129 -1.1022
 1787SOL     OW16819   3.176   1.317   0.065  0.2934 -0.1949  0.2363
 1787SOL    HW116820   3.260   1.322   0.019  0.8380  3.5369  1.5899
 1787SOL    HW216821   3.210   1.281   0.147  0.4017  1.1686  0.7907
 1788SOL     OW16822   0.854   1.174   6.946 -0.7517  0.1933 -0.6195
 1788SOL    HW116823   0.893   1.086   6.945 -3.4420 -1.0023 -0.4593
 1788SOL    HW216824   0.934   1.223   6.928 -0.7998  0.5222  0.0757
 1789SOL     OW16825   3.869   0.551  15.620 -0.1928 -0.1931  0.1002
 1789SOL    HW116826   3.865   0.458  15.644  2.3839  0.4484  3.0535
 1789SOL    HW216827   3.903   0.575  15.706 -0.7109  1.9245 -0.2755
 1790SOL     OW16828   1.772   2.453   2.074  0.1827  0.9338  0.5695
 1790SOL    HW116829   1.804   2.412   2.154  2.5499 -0.8028 -1.2390
 1790SOL    HW216830   1.731   2.380   2.027 -0.2652  1.3797  0.2671
 1791SOL     OW16831   3.725   3.700  14.819  0.9561  0.1976 -0.0565
 1791SOL    HW116832   3.665   3.716  14.892 -0.3572  0.4989 -1.1943
 1791SOL    HW216833   3.681   3.750  14.750  1.5648  1.5351  0.5239
 1792SOL     OW16834   0.093   3.435   8.938 -0.3537  0.5351  0.3588
 1792SOL    HW116835   0.136   3.397   9.015  0.1979  2.6536  1.1005
 1792SOL    HW216836   0.021   3.374   8.921  0.4446 -0.7729  1.7054
 1793SOL     OW16837   2.591   4.616  13.044 -0.1785 -0.3281 -0.1114
 1793SOL    HW116838   2.600   4.552  12.973  1.9827 -1.1546  0.9008
 1793SOL    HW216839   2.496   4.614  13.056  0.1014 -2.5428  1.9779
 1794SOL     OW16840   2.256   3.370   5.969 -0.1096 -0.1233 -0.2661
 1794SOL    HW116841   2.339   3.322   5.977 -0.8919 -1.2884  0.7263
 1794SOL    HW216842   2.263   3.396   5.878 -1.6166  0.0536 -0.3173
 1795SOL     OW16843   1.979   0.153   9.845 -0.0225 -0.0363  0.0993
 1795SOL    HW116844   2.018   0.224   9.897  1.8986 -0.7972 -0.2869
 1795SOL    HW216845   1.907   0.204   9.808  1.5931 -0.3544 -3.4203
 1796SOL     OW16846   3.382   1.322  16.888  0.2078  0.5997 -0.2382
 1796SOL    HW116847   3.294   1.355  16.905 -0.4120 -1.0277 -0.2397
 1796SOL    HW216848   3.364   1.293  16.798  1.0412 -1.9659  0.4102
 1797SOL     OW16849   1.121   2.546   2.084  0.1152 -0.3288 -0.2028
 1797SOL    HW116850   1.154   2.607   2.018 -3.3538  1.1332 -0.5771
 1797SOL    HW216851   1.032   2.575   2.105  0.7132  1.3695  0.0416
 1798SOL     OW16852   3.292   1.668  14.350  0.2463  0.5284  0.1926
 1798SOL    HW116853   3.312   1.736  14.415 -2.7417  0.2798  1.3733
 1798SOL    HW216854   3.198   1.661  14.365  0.0242  0.6954 -1.1200
 1799SOL     OW16855   0.709   3.464  16.946 -0.1424  0.2444  0.2689
 1799SOL    HW116856   0.655   3.426  16.876 -0.8044 -0.0420  0.9442
 1799SOL    HW216857   0.719   3.381  16.993 -2.4675 -0.7550 -0.9741
 1800SOL     OW16858   0.873   3.240  10.958 -0.9434 -0.3215  0.0654
 1800SOL    HW116859   0.890   3.154  10.920 -0.7027  1.0304 -2.8491
 1800SOL    HW216860   0.784   3.258  10.927 -0.9822  2.3990  1.7779
 1801SOL     OW16861   1.885   1.842   9.046 -0.7876  0.3738  0.0718
 1801SOL    HW116862   1.893   1.894   9.127  0.3374 -0.9289  0.8011
 1801SOL    HW216863   1.975   1.810   9.038 -2.1334 -2.9711 -1.4301
 1802SOL     OW16864   3.021   0.918   0.270 -0.1519 -0.3605 -0.0218
 1802SOL    HW116865   2.958   0.860   0.313 -0.0797 -0.6356 -0.2858
 1802SOL    HW216866   2.996   1.001   0.309 -2.2530 -1.4290  0.9401
 1803SOL     OW16867   2.200   4.703   5.591 -0.3236 -0.2315  0.5258
 1803SOL    HW116868   2.233   4.644   5.659 -0.4380 -1.0426 -0.1100
 1803SOL    HW216869   2.265   0.049   5.590  1.2681 -1.7254 -0.9301
 1804SOL     OW16870   2.877   2.733   1.801 -0.0780 -0.1650 -0.2491
 1804SOL    HW116871   2.972   2.717   1.804 -0.0789  0.0948  1.4436
 1804SOL    HW216872   2.853   2.718   1.710  0.0752 -0.9043 -0.1662
 1805SOL     OW16873   1.915   1.230   2.639  0.5402 -0.4533 -0.4463
 1805SOL    HW116874   1.862   1.181   2.576  0.3765 -1.9301  0.8296
 1805SOL    HW216875   2.001   1.190   2.628  0.2995 -0.8086 -1.0277
 1806SOL     OW16876   3.726   3.902  10.753  0.1249  0.6715 -0.7037
 1806SOL    HW116877   3.760   3.886  10.665  1.0798  2.4557 -0.6580
 1806SOL    HW216878   3.792   3.969  10.770 -1.2301  2.0320 -0.8144
 1807SOL     OW16879   0.198   1.626   3.421  0.2924  0.8077  0.2289
 1807SOL    HW116880   0.271   1.648   3.478  1.8142  0.5577 -1.6170
 1807SOL    HW216881   0.194   1.697   3.357  1.5456 -1.3013 -2.1935
 1808SOL     OW16882   3.649   0.063   4.032 -0.5695  0.0313  0.0016
 1808SOL    HW116883   3.584   4.720   4.055 -0.3035  0.2741  1.4357
 1808SOL    HW216884   3.634   0.069   3.938  2.3006 -1.0264 -0.5069
 1809SOL     OW16885   1.975   1.923  12.666 -0.0118  0.8435  0.2938
 1809SOL    HW116886   1.939   1.996  12.615 -1.2978 -0.3380 -0.4815
 1809SOL    HW216887   1.978   1.963  12.753  0.4196 -2.7327  1.9171
 1810SOL     OW16888   1.795   4.538   5.518 -0.1574 -0.3217 -0.7095
 1810SOL    HW116889   1.851   4.614   5.508 -0.5608  0.2997  1.7597
 1810SOL    HW216890   1.712   4.567   5.556 -1.1714 -1.3573 -2.1226
 1811SOL     OW16891   2.383   2.416  10.617  0.3551  0.0590  1.1540
 1811SOL    HW116892   2.288   2.409  10.627  0.0899 -0.0187 -1.4930
 1811SOL    HW216893   2.407   2.325  10.636  0.9420  0.3297  1.6930
 1812SOL     OW16894   4.460   2.530   8.505 -0.0049 -0.4692 -0.0632
 1812SOL    HW116895   4.467   2.550   8.598  1.2933 -0.4602 -0.1661
 1812SOL    HW216896   4.510   2.604   8.472 -1.5658 -0.7097 -2.9898
 1813SOL     OW16897   3.456   2.373   9.732 -0.6141 -0.8229  0.2487
 1813SOL    HW116898   3.419   2.359   9.819 -0.8053 -1.6849  0.0246
 1813SOL    HW216899   3.501   2.457   9.740 -0.8844 -0.8280  1.8544
 1814SOL     OW16900   3.358   2.715  15.165 -0.1383  0.1352 -0.4874
 1814SOL    HW116901   3.422   2.760  15.111  0.1284  0.9343  0.4791
 1814SOL    HW216902   3.278   2.766  15.155  1.1419  1.8330 -1.9995
 1815SOL     OW16903   1.829   1.887   3.459  0.7614  0.1246  0.1665
 1815SOL    HW116904   1.746   1.841   3.447  1.1083 -0.9998  2.0551
 1815SOL    HW216905   1.808   1.979   3.445  0.1417 -0.3207 -1.8348
 1816SOL     OW16906   3.278   3.874  17.652 -0.2846  0.3649 -0.2148
 1816SOL    HW116907   3.359   3.921  17.668  0.6400 -1.9190  1.8232
 1816SOL    HW216908   3.219   3.917   0.019  0.3256 -2.4943  2.3227
 1817SOL     OW16909   2.225   3.068   1.623  0.1994 -0.2964 -0.2573
 1817SOL    HW116910   2.139   3.026   1.629  0.8758 -1.2347  2.5868
 1817SOL    HW216911   2.224   3.154   1.664 -2.1139  0.3117 -1.5854
 1818SOL     OW16912   3.464   0.014   2.731  1.2365 -0.3872 -0.0352
 1818SOL    HW116913   3.406   0.086   2.707 -0.8912 -1.8956  0.6365
 1818SOL    HW216914   3.419   4.664   2.690  0.2352  1.2746 -1.8853
 1819SOL     OW16915   3.858   2.844  11.072 -0.6353  0.2922 -0.1892
 1819SOL    HW116916   3.867   2.780  11.001  1.9964  1.0617 -0.5478
 1819SOL    HW216917   3.883   2.796  11.151 -1.8649  0.2492  0.1747
 1820SOL     OW16918   2.385   1.452   6.476  0.4916  0.2223 -0.2937
 1820SOL    HW116919   2.384   1.358   6.458 -0.7551  0.1675  0.0310
 1820SOL    HW216920   2.423   1.489   6.396  3.2530 -0.3461  0.7684
 1821SOL     OW16921   1.222   2.099   4.342 -0.2405 -0.2095  0.2309
 1821SOL    HW116922   1.254   2.188   4.355  0.0025 -0.7270  3.2917
 1821SOL    HW216923   1.259   2.059   4.421  1.8513 -1.3864 -1.3522
 1822SOL     OW16924   2.181   1.471   0.472  0.0032 -0.3019 -0.1231
 1822SOL    HW116925   2.140   1.554   0.496  1.0222  0.8379 -2.3570
 1822SOL    HW216926   2.251   1.493   0.410  0.1820  0.2155  0.2694
 1823SOL     OW16927   1.792   3.809  12.738 -0.6716 -0.0976 -0.1816
 1823SOL    HW116928   1.816   3.763  12.657  0.9148 -1.4759  1.0876
 1823SOL    HW216929   1.710   3.848  12.708  0.4245  2.6152  0.3347
 1824SOL     OW16930   2.638   3.524   4.508 -0.8232  0.5576  0.0252
 1824SOL    HW116931   2.559   3.499   4.459 -0.0948  0.9553 -1.3662
 1824SOL    HW216932   2.707   3.509   4.442 -0.0568  0.7366  0.7942
 1825SOL     OW16933   3.975   3.125  10.696 -0.6944 -1.0433 -0.3974
 1825SOL    HW116934   3.955   3.206  10.741  1.2238 -1.1924  0.7108
 1825SOL    HW216935   3.898   3.072  10.714 -1.8100  1.0280  0.8836
 1826SOL     OW16936   1.936   4.608   6.356  0.4819  0.1046  0.1298
 1826SOL    HW116937   1.983   4.532   6.390  0.7255 -1.1683 -3.1195
 1826SOL    HW216938   1.961   4.676   6.419 -4.8724  3.0228 -0.8999
 1827SOL     OW16939   2.608   2.087   3.389  0.1999 -0.2648  0.8210
 1827SOL    HW116940   2.665   2.033   3.443 -2.7136 -2.3371  1.7655
 1827SOL    HW216941   2.610   2.034   3.309 -0.7771  0.4735  0.3108
 1828SOL     OW16942   0.643   0.719   9.136  0.1491 -0.4534  0.7792
 1828SOL    HW116943   0.642   0.815   9.137 -0.7111 -0.4526 -1.0019
 1828SOL    HW216944   0.677   0.701   9.224  0.0494  0.6895  1.0567
 1829SOL     OW16945   4.300   4.115   8.975  0.0806  0.0257 -0.7383
 1829SOL    HW116946   4.277   4.138   8.886 -2.8560  0.8644  0.2521
 1829SOL    HW216947   4.388   4.080   8.961  0.2635  0.4216 -0.6108
 1830SOL     OW16948   4.048   0.628   2.067 -0.5061  0.0155  0.5428
 1830SOL    HW116949   4.032   0.702   2.126  1.8138 -0.2356  1.4657
 1830SOL    HW216950   4.026   0.669   1.984 -0.3499 -1.0628 -0.0292
 1831SOL     OW16951   1.298   4.533   2.356  0.1483 -0.0800  0.3755
 1831SOL    HW116952   1.331   4.573   2.275 -1.4829  0.8247  0.1492
 1831SOL    HW216953   1.213   4.496   2.331 -0.0266 -0.3900  1.4604
 1832SOL     OW16954   2.458   0.963   7.910  0.0570 -0.2529  0.0412
 1832SOL    HW116955   2.514   1.030   7.949  1.9007 -2.5527  1.3783
 1832SOL    HW216956   2.411   0.932   7.987 -0.9862 -2.5390 -1.5234
 1833SOL     OW16957   4.196   2.921  14.739 -0.3731  0.2465 -0.2848
 1833SOL    HW116958   4.238   3.002  14.767 -2.2481  0.2732  2.4092
 1833SOL    HW216959   4.212   2.907  14.645 -0.7048  1.1348 -0.4766
 1834SOL     OW16960   2.716   4.097   4.501  1.1382 -0.4731  0.4353
 1834SOL    HW116961   2.758   4.023   4.458 -1.5388 -1.6301 -0.2170
 1834SOL    HW216962   2.784   4.132   4.558  1.2110  1.3077 -0.7557
 1835SOL     OW16963   2.892   3.369   6.805  0.1177  0.0121  0.3808
 1835SOL    HW116964   2.879   3.312   6.882  0.4087 -0.5025  0.0482
 1835SOL    HW216965   2.941   3.435   6.854  0.0624  0.6078 -0.3752
 1836SOL     OW16966   2.820   0.915   7.808  0.2856 -0.1102 -0.3334
 1836SOL    HW116967   2.808   0.878   7.896 -0.3712 -0.9192 -0.7589
 1836SOL    HW216968   2.892   0.975   7.826 -0.7800  1.0254  0.1099
 1837SOL     OW16969   1.323   2.507   9.441 -0.4477  0.0929 -0.1878
 1837SOL    HW116970   1.365   2.447   9.504 -1.3491 -2.5553 -2.1087
 1837SOL    HW216971   1.332   2.449   9.365 -2.6812  1.5261 -1.5400
 1838SOL     OW16972   0.347   0.197   3.110  0.1044  0.3682  0.4484
 1838SOL    HW116973   0.431   0.159   3.135 -1.1720 -1.4527  1.9701
 1838SOL    HW216974   0.332   0.155   3.026 -1.2312  1.0242  0.3603
 1839SOL     OW16975   1.481   1.765   6.144 -0.0362 -0.1323 -0.3703
 1839SOL    HW116976   1.458   1.673   6.162 -2.3168  0.0836 -2.1479
 1839SOL    HW216977   1.572   1.760   6.174  0.9171  0.8690 -3.0685
 1840SOL     OW16978   3.775   1.226   7.880 -0.0887  0.1353  0.0674
 1840SOL    HW116979   3.723   1.212   7.801  0.0468 -0.0561  0.0111
 1840SOL    HW216980   3.795   1.133   7.895  0.0513 -0.0158 -1.0263
 1841SOL     OW16981   0.424   2.907  15.764 -0.1035 -0.0832 -0.1280
 1841SOL    HW116982   0.499   2.960  15.794 -1.6512  2.1116 -0.1625
 1841SOL    HW216983   0.463   2.829  15.725  0.4291 -0.9528  2.1394
 1842SOL     OW16984   2.470   1.519   7.304  0.1879 -0.2500 -0.3218
 1842SOL    HW116985   2.490   1.548   7.393  0.5327  1.4426 -0.9552
 1842SOL    HW216986   2.390   1.569   7.288  0.5652  0.2998 -0.4802
 1843SOL     OW16987   1.779   3.606  15.096  0.3649  0.3685  0.1808
 1843SOL    HW116988   1.709   3.605  15.031 -1.2614  0.0375  1.9151
 1843SOL    HW216989   1.776   3.699  15.120  2.1385  0.3142  0.6571
 1844SOL     OW16990   1.204   3.096   8.665 -0.3513  0.0373  0.1461
 1844SOL    HW116991   1.147   3.104   8.588 -0.2203  0.7808  0.1295
 1844SOL    HW216992   1.144   3.099   8.739 -1.2444  0.6096 -0.5985
 1845SOL     OW16993   4.037   0.170  15.206  0.1602  0.2831  0.1854
 1845SOL    HW116994   4.013   0.185  15.298  0.2186 -2.3889  0.6387
 1845SOL    HW216995   4.110   0.232  15.201  0.9254 -0.6245 -0.0396
 1846SOL     OW16996   0.456   0.509   6.474  0.3143 -0.2560  0.1336
 1846SOL    HW116997   0.432   0.416   6.475 -0.7956  0.0678  3.4804
 1846SOL    HW216998   0.368   0.546   6.487  0.4082  0.2278 -0.6038
 1847SOL     OW16999   0.024   1.147  16.007  0.4948 -0.2088 -0.6354
 1847SOL    HW117000   0.083   1.196  16.065 -1.6511  0.7990  0.7238
 1847SOL    HW217001   4.679   1.127  16.071 -0.8890 -0.0837 -2.0707
 1848SOL     OW17002   1.021   3.761   3.898 -0.0757 -0.5583  0.2895
 1848SOL    HW117003   1.030   3.853   3.924  0.9139 -0.6503  0.2684
 1848SOL    HW217004   1.095   3.717   3.940 -0.4458 -1.9566 -0.5235
 1849SOL     OW17005   0.914   4.044   8.590 -0.3769  0.1273  0.5768
 1849SOL    HW117006   0.857   4.048   8.667 -3.0701  2.5554 -1.5342
 1849SOL    HW217007   0.987   3.994   8.627  0.1427 -0.2071 -0.9051
 1850SOL     OW17008   0.475   0.388  16.176  0.2808  0.0293 -0.1582
 1850SOL    HW117009   0.471   0.395  16.271  1.2011 -0.1967 -0.1035
 1850SOL    HW217010   0.458   0.476  16.143  2.4840  0.2296 -0.7198
 1851SOL     OW17011   0.888   2.496   3.581 -0.2491 -0.1710  0.2156
 1851SOL    HW117012   0.806   2.546   3.590 -1.5670 -2.3863  0.7133
 1851SOL    HW217013   0.957   2.559   3.564  0.3128 -0.8955 -0.1700
 1852SOL     OW17014   0.293   4.070  15.047 -0.3391 -0.1374 -0.0614
 1852SOL    HW117015   0.272   4.101  15.136  1.0160  0.6437 -0.0226
 1852SOL    HW217016   0.212   4.024  15.024 -1.7761  1.9177  0.8476
 1853SOL     OW17017   3.434   4.059   0.058  0.2316  0.1400  0.0366
 1853SOL    HW117018   3.455   4.151   0.046  1.3787 -0.0497  0.5529
 1853SOL    HW217019   3.486   4.035   0.135 -0.6988 -1.2293  0.2503
 1854SOL     OW17020   2.073   2.369   6.225 -0.2367  0.1705  0.2163
 1854SOL    HW117021   2.157   2.380   6.180 -0.1173  0.7450  0.5838
 1854SOL    HW217022   2.022   2.340   6.149 -0.7206  0.3740  0.4660
 1855SOL     OW17023   0.198   3.438  15.149  0.5319  0.1810 -0.0390
 1855SOL    HW117024   0.252   3.382  15.204 -0.8724 -1.0585  0.0956
 1855SOL    HW217025   0.143   3.486  15.211 -0.9883  1.4716 -2.3807
 1856SOL     OW17026   0.559   4.256   1.585 -0.5660  0.2710 -0.4266
 1856SOL    HW117027   0.466   4.239   1.598 -0.4971 -0.4007 -0.8165
 1856SOL    HW217028   0.556   4.350   1.604 -1.0858  0.5620 -1.9392
 1857SOL     OW17029   2.622   3.637   8.490 -0.9543 -0.5395 -0.1166
 1857SOL    HW117030   2.608   3.730   8.472 -0.1141 -0.3325  0.2761
 1857SOL    HW217031   2.569   3.631   8.570 -0.0318  0.6033  0.5801
 1858SOL     OW17032   3.024   1.565   6.581 -0.1942 -0.2864 -0.3474
 1858SOL    HW117033   2.963   1.609   6.521 -0.0123 -1.3063 -1.2833
 1858SOL    HW217034   3.027   1.474   6.554 -0.3103  0.4938 -2.9864
 1859SOL     OW17035   2.195   4.493   7.005  0.1568 -0.3574 -0.6113
 1859SOL    HW117036   2.122   4.487   7.067 -0.3942 -0.6153 -1.2876
 1859SOL    HW217037   2.151   4.510   6.922 -0.5872 -1.9617 -0.5599
 1860SOL     OW17038   4.376   0.538   4.389 -0.1679  0.3048 -0.4853
 1860SOL    HW117039   4.315   0.500   4.451  0.3861  1.9697  1.0795
 1860SOL    HW217040   4.423   0.596   4.450  0.7227  0.0772 -0.9538
 1861SOL     OW17041   3.174   2.116   3.257  0.1046  0.2919 -0.3640
 1861SOL    HW117042   3.205   2.026   3.249  1.4133  0.6377  0.7340
 1861SOL    HW217043   3.088   2.098   3.219  0.2546 -0.8874 -0.1441
 1862SOL     OW17044   2.637   1.177   4.241 -0.1582  0.3056  0.3818
 1862SOL    HW117045   2.653   1.265   4.207  1.6979  0.4722  1.6605
 1862SOL    HW217046   2.725   1.145   4.219 -0.0075  0.7721  0.3020
 1863SOL     OW17047   2.082   2.241   3.048  0.1353  0.0636  0.0439
 1863SOL    HW117048   2.172   2.274   3.046  0.6720 -1.4527 -0.9917
 1863SOL    HW217049   2.051   2.258   2.959  0.0453 -0.7128 -0.0698
 1864SOL     OW17050   0.742   0.813  10.894 -0.0315 -0.1248  0.0003
 1864SOL    HW117051   0.783   0.731  10.920  0.5521  0.6825  1.6558
 1864SOL    HW217052   0.782   0.875  10.955  0.2718  1.2468 -1.5932
 1865SOL     OW17053   2.795   2.917   0.279 -0.3799  0.2575 -0.1939
 1865SOL    HW117054   2.829   3.004   0.259 -0.8216  0.1452 -1.4541
 1865SOL    HW217055   2.718   2.931   0.335  0.1781 -1.1539  0.8921
 1866SOL     OW17056   2.706   3.902   6.135  0.1440  0.6944 -0.5940
 1866SOL    HW117057   2.626   3.851   6.122  0.1902  0.2034  1.0935
 1866SOL    HW217058   2.774   3.839   6.110 -1.9732 -3.0769  3.1500
 1867SOL     OW17059   0.223   2.519  10.454 -0.1728  0.0427  0.1196
 1867SOL    HW117060   0.174   2.445  10.488  3.3453 -1.0557  2.7436
 1867SOL    HW217061   0.157   2.588  10.444 -0.6890 -0.3257  1.0361
 1868SOL     OW17062   0.058   4.350   6.184 -0.2736  0.1601 -0.0814
 1868SOL    HW117063   0.137   4.401   6.170  0.8646 -0.9466  2.2997
 1868SOL    HW217064   0.064   4.338   6.278  1.3445  0.9768 -0.0944
 1869SOL     OW17065   3.719   2.379  15.079  0.5479 -0.0499  0.6710
 1869SOL    HW117066   3.745   2.446  15.017 -1.0778 -0.8422 -0.8483
 1869SOL    HW217067   3.804   2.367  15.121  0.7942  0.0526  0.1962
 1870SOL     OW17068   1.886   0.579   9.777  0.7067 -0.1289 -1.2817
 1870SOL    HW117069   1.825   0.545   9.713 -0.4512 -0.3897 -0.0372
 1870SOL    HW217070   1.822   0.621   9.835 -0.2200 -0.6181 -1.9560
 1871SOL     OW17071   4.324   4.100   3.832  0.0004 -0.8917  0.2315
 1871SOL    HW117072   4.376   4.166   3.786  0.7285 -0.0663  2.2404
 1871SOL    HW217073   4.381   4.071   3.903 -0.2318  2.0577  1.6084
 1872SOL     OW17074   3.064   1.510   1.465 -0.2265 -0.4724  0.8576
 1872SOL    HW117075   3.002   1.547   1.402  1.0304  0.2629  0.0421
 1872SOL    HW217076   3.149   1.511   1.420 -0.3501 -0.2229  0.6277
 1873SOL     OW17077   2.310   1.175   6.118  0.3482  0.2481 -0.1877
 1873SOL    HW117078   2.339   1.096   6.164  0.9040 -0.3702 -1.5656
 1873SOL    HW217079   2.230   1.194   6.166  0.2199 -1.6002  0.3589
 1874SOL     OW17080   1.499   3.172   8.639  0.5800  0.1957 -0.3692
 1874SOL    HW117081   1.505   3.080   8.662  0.6268  0.0302 -1.0426
 1874SOL    HW217082   1.405   3.180   8.650  0.5207 -0.5075 -0.3793
 1875SOL     OW17083   0.388   2.397   5.829 -0.3930  0.6504  0.9507
 1875SOL    HW117084   0.344   2.359   5.752 -0.2283  2.7901 -0.2047
 1875SOL    HW217085   0.479   2.375   5.807  0.2667  3.3950  1.0260
 1876SOL     OW17086   4.343   4.435   8.813  0.3329  0.0477  0.8767
 1876SOL    HW117087   4.377   4.378   8.745 -0.6963  0.4703  0.0133
 1876SOL    HW217088   4.415   4.425   8.876 -0.2038 -0.7132  1.3684
 1877SOL     OW17089   0.357   2.671   6.302 -0.0370 -0.1737  0.0505
 1877SOL    HW117090   0.358   2.621   6.220 -0.9377 -0.4823  0.2291
 1877SOL    HW217091   0.420   2.740   6.281  1.1391 -0.2227  3.4823
 1878SOL     OW17092   2.718   2.405   6.058  0.7544  0.2253 -0.5916
 1878SOL    HW117093   2.686   2.315   6.068 -2.4417  1.2405 -1.6723
 1878SOL    HW217094   2.656   2.438   5.993 -0.7935 -1.1905  0.1765
 1879SOL     OW17095   2.425   3.115   3.696 -0.2785 -0.4956  0.0142
 1879SOL    HW117096   2.347   3.169   3.680 -1.4570 -1.8541  1.2197
 1879SOL    HW217097   2.464   3.115   3.609  0.6880 -0.3435  0.4506
 1880SOL     OW17098   4.578   3.250  10.085  0.6159  0.0705  0.2311
 1880SOL    HW117099   4.554   3.211  10.001 -1.7330  0.1350  0.8563
 1880SOL    HW217100   4.526   3.183  10.131  0.9532  0.8794  1.8072
 1881SOL     OW17101   4.224   0.042  14.662 -0.4957  0.2755  0.1256
 1881SOL    HW117102   4.209   4.712  14.740  0.4697 -2.4150 -1.5485
 1881SOL    HW217103   4.293   0.101  14.691  0.1923 -0.2179 -0.5210
 1882SOL     OW17104   0.580   1.485   6.272  0.8055  1.0225  0.5625
 1882SOL    HW117105   0.493   1.525   6.276  0.9765  1.6566 -1.9616
 1882SOL    HW217106   0.632   1.564   6.257  2.5386  0.1154  1.7288
 1883SOL     OW17107   3.728   3.257   7.419  0.2012  0.4477 -0.5218
 1883SOL    HW117108   3.776   3.181   7.452 -1.2117 -0.2811 -0.1282
 1883SOL    HW217109   3.646   3.246   7.467  0.7597 -2.1002 -0.1427
 1884SOL     OW17110   1.299   3.043   5.123 -0.4983 -0.3183  0.5991
 1884SOL    HW117111   1.261   3.128   5.097  1.3421  0.7959  1.6068
 1884SOL    HW217112   1.219   2.990   5.122  0.5859 -1.9267 -1.0603
 1885SOL     OW17113   4.121   2.739   6.276 -0.3559 -0.6719  0.4998
 1885SOL    HW117114   4.092   2.814   6.328 -0.3385 -0.0032 -0.4560
 1885SOL    HW217115   4.065   2.756   6.200  0.2736  3.3503  0.9340
 1886SOL     OW17116   4.009   2.410   2.396  0.2079  0.2999 -0.1466
 1886SOL    HW117117   4.005   2.434   2.489  0.7243 -0.8914  0.1907
 1886SOL    HW217118   4.067   2.483   2.378  0.1480 -0.0625 -1.8043
 1887SOL     OW17119   2.502   0.199   2.098 -0.2740 -0.2290  0.7003
 1887SOL    HW117120   2.510   0.170   2.008 -2.2713 -0.1131  0.4774
 1887SOL    HW217121   2.592   0.198   2.129 -0.1800  1.8801  0.4983
 1888SOL     OW17122   2.908   3.621   8.269 -0.3952  0.4647 -0.0822
 1888SOL    HW117123   2.962   3.636   8.191  0.2379  0.5234  0.3753
 1888SOL    HW217124   2.937   3.533   8.295  1.8998  1.4697  0.7067
 1889SOL     OW17125   0.975   1.139  10.872  0.3203 -0.4278  0.6545
 1889SOL    HW117126   0.914   1.171  10.806  2.0159 -0.0199 -0.7216
 1889SOL    HW217127   1.013   1.058  10.837  0.1831  0.2790 -1.1059
 1890SOL     OW17128   1.548   1.861   0.825 -0.0107  0.6633 -0.0230
 1890SOL    HW117129   1.549   1.919   0.901  1.1562 -0.0826  0.5332
 1890SOL    HW217130   1.493   1.912   0.766  2.1709  0.4200 -2.2514
 1891SOL     OW17131   3.026   1.648  14.731 -0.4226 -0.0757  0.2243
 1891SOL    HW117132   2.987   1.692  14.806 -1.9843 -0.2177 -0.5085
 1891SOL    HW217133   3.120   1.660  14.743 -0.9278  3.0060  1.1543
 1892SOL     OW17134   2.955   3.397  13.321 -0.4023 -0.1536  0.3105
 1892SOL    HW117135   2.914   3.357  13.244  0.3456  0.5885 -0.4894
 1892SOL    HW217136   3.004   3.473  13.288 -0.1558 -0.8543 -0.9396
 1893SOL     OW17137   0.131   0.924  14.480  0.3154 -0.3126 -0.5780
 1893SOL    HW117138   0.121   0.830  14.467 -0.1567 -0.4795  1.0144
 1893SOL    HW217139   0.144   0.932  14.575 -1.0835 -3.5933 -0.1124
 1894SOL     OW17140   2.915   0.281  11.669  0.0267  1.1350 -0.4608
 1894SOL    HW117141   2.894   0.335  11.746  0.8149 -0.1725  0.6517
 1894SOL    HW217142   2.984   0.332  11.626 -0.0771 -0.2526 -2.2620
 1895SOL     OW17143   1.202   3.189   7.343 -0.0877  0.8833 -0.1443
 1895SOL    HW117144   1.108   3.179   7.351  0.1033 -0.2590  0.6143
 1895SOL    HW217145   1.223   3.249   7.414 -0.7830 -1.9228  2.4445
 1896SOL     OW17146   4.612   2.566   0.644 -0.1096 -0.0621 -0.5068
 1896SOL    HW117147   4.542   2.587   0.705  1.2272  2.0078  0.3264
 1896SOL    HW217148   4.587   2.638   0.587 -0.7644 -0.3828 -0.6220
 1897SOL     OW17149   1.347   2.851  17.077  0.1802 -0.0333 -0.1642
 1897SOL    HW117150   1.351   2.890  17.165 -0.3219  2.4594 -1.2393
 1897SOL    HW217151   1.397   2.916  17.027  1.4939  0.2530  1.5112
 1898SOL     OW17152   2.353   1.014  11.031  0.1665 -0.1634  0.1904
 1898SOL    HW117153   2.389   1.016  10.942 -2.6625  0.2028 -0.9374
 1898SOL    HW217154   2.423   1.064  11.074 -1.7168  0.6758  2.2539
 1899SOL     OW17155   3.253   1.927   2.968 -0.3223  0.4193 -0.4491
 1899SOL    HW117156   3.283   1.869   2.899 -0.6076  0.0143 -0.2369
 1899SOL    HW217157   3.259   1.878   3.050 -0.5305  2.7746  0.9894
 1900SOL     OW17158   0.374   3.635  11.607  0.0738  0.7123  0.1060
 1900SOL    HW117159   0.342   3.683  11.683 -0.8599  1.8218 -0.9833
 1900SOL    HW217160   0.408   3.561  11.657  0.9478  0.0786 -1.4121
 1901SOL     OW17161   3.675   3.286  16.535  0.0273 -0.5363 -0.1431
 1901SOL    HW117162   3.598   3.342  16.550 -0.4894 -1.2482 -0.1550
 1901SOL    HW217163   3.644   3.236  16.459  0.1168  1.0061 -1.2134
 1902SOL     OW17164   0.490   4.721   0.867 -0.9431 -0.6167 -0.0276
 1902SOL    HW117165   0.416   0.056   0.855  0.7441  1.8482  1.4806
 1902SOL    HW217166   0.489   4.658   0.795  0.4698  0.0036 -0.5981
 1903SOL     OW17167   3.639   0.679  11.140  0.1298 -0.3253 -0.0039
 1903SOL    HW117168   3.589   0.600  11.118 -1.3928  1.2033 -2.0259
 1903SOL    HW217169   3.724   0.650  11.106  1.2075  2.0479  0.6068
 1904SOL     OW17170   1.510   3.703   9.250 -0.1619 -0.2911  0.0190
 1904SOL    HW117171   1.462   3.654   9.317 -1.6227  0.8619 -0.1915
 1904SOL    HW217172   1.435   3.754   9.217 -0.3921 -1.0282 -0.6053
 1905SOL     OW17173   1.309   1.073  10.658  0.1646  0.2645  0.2724
 1905SOL    HW117174   1.376   1.005  10.648 -1.2945 -1.0530 -0.5192
 1905SOL    HW217175   1.246   1.013  10.697 -1.1983  1.3466 -0.2779
 1906SOL     OW17176   3.739   2.680   8.998 -0.4367 -0.2370 -0.1458
 1906SOL    HW117177   3.796   2.681   8.921  1.2018 -0.1273  1.0709
 1906SOL    HW217178   3.659   2.629   8.981  0.0208 -0.4803 -1.5207
 1907SOL     OW17179   4.308   1.199   5.522  0.2184 -0.1490  0.5621
 1907SOL    HW117180   4.251   1.222   5.595  0.5061 -0.5680  0.9189
 1907SOL    HW217181   4.250   1.224   5.451  0.3055 -0.3641  0.4179
 1908SOL     OW17182   2.727   2.677   1.138  0.0517  0.3346 -0.3951
 1908SOL    HW117183   2.673   2.615   1.090  0.5630  0.7440 -1.5078
 1908SOL    HW217184   2.759   2.742   1.075  1.7122 -0.0812  0.0281
 1909SOL     OW17185   0.482   4.038  12.989  0.1057  0.1270 -0.2161
 1909SOL    HW117186   0.431   3.958  13.003  1.0551 -0.3075  0.8120
 1909SOL    HW217187   0.563   4.023  13.039 -0.8125 -0.2276  1.1657
 1910SOL     OW17188   0.890   3.877   9.352 -0.2211  0.0614 -0.4787
 1910SOL    HW117189   0.816   3.921   9.395 -2.1868 -4.7534  1.0186
 1910SOL    HW217190   0.843   3.832   9.283 -1.0598  1.6353 -0.9351
 1911SOL     OW17191   2.881   2.821   0.966 -0.2276 -0.2301  0.6507
 1911SOL    HW117192   2.932   2.902   0.960 -0.3707 -0.2231 -0.4063
 1911SOL    HW217193   2.903   2.781   0.882 -1.5372  0.8253 -0.1830
 1912SOL     OW17194   3.494   0.106   3.279 -0.3539 -0.4406  0.5507
 1912SOL    HW117195   3.417   0.138   3.326 -1.7519 -0.6533 -1.5900
 1912SOL    HW217196   3.492   0.014   3.306 -4.0263 -0.7906 -0.8475
 1913SOL     OW17197   0.789   1.133   4.622  0.2298  0.5125  0.4164
 1913SOL    HW117198   0.751   1.214   4.589 -2.4856 -1.6159 -1.6995
 1913SOL    HW217199   0.793   1.090   4.536 -1.8669 -1.3802  1.2601
 1914SOL     OW17200   1.786   2.335   8.126  0.3562 -0.6316 -0.0864
 1914SOL    HW117201   1.760   2.254   8.081 -1.8296 -1.6478  3.0356
 1914SOL    HW217202   1.868   2.355   8.080 -0.2044 -0.8005 -1.1716
 1915SOL     OW17203   4.299   2.634  12.540  0.3124  0.1893 -0.1315
 1915SOL    HW117204   4.321   2.588  12.459 -1.0730 -2.1406  0.8278
 1915SOL    HW217205   4.212   2.609  12.569  0.7654 -0.0918  0.9673
 1916SOL     OW17206   0.737   1.824   1.144  0.5155  0.1227 -0.1715
 1916SOL    HW117207   0.661   1.781   1.104  1.3976 -0.3291 -1.3792
 1916SOL    HW217208   0.734   1.918   1.126  0.2945 -0.0988 -1.3051
 1917SOL     OW17209   0.294   3.696  11.877  0.7997 -0.2698 -0.1573
 1917SOL    HW117210   0.240   3.625  11.842 -1.4221  0.1133  2.4961
 1917SOL    HW217211   0.244   3.740  11.946 -1.0175  1.1006 -2.3816
 1918SOL     OW17212   3.720   4.380   4.980 -0.7437 -0.2310 -0.0298
 1918SOL    HW117213   3.722   4.448   5.047 -1.2249 -2.1994  1.9852
 1918SOL    HW217214   3.633   4.345   5.000 -0.2296 -1.7425 -0.3989
 1919SOL     OW17215   4.588   2.702   7.448  0.1459 -0.1852  0.2648
 1919SOL    HW117216   4.544   2.783   7.472  2.2111  1.5195 -1.6223
 1919SOL    HW217217   4.531   2.632   7.480 -0.0783 -0.0188  0.2284
 1920SOL     OW17218   3.999   1.260   1.425  0.2967  1.2313  0.2414
 1920SOL    HW117219   3.980   1.292   1.514  2.8696  0.9637  0.8790
 1920SOL    HW217220   4.079   1.309   1.403 -0.7500  1.6315 -2.6728
 1921SOL     OW17221   0.258   0.270   3.863 -0.1652 -0.0453  0.3632
 1921SOL    HW117222   0.257   0.322   3.783  0.5332 -2.6316 -1.3246
 1921SOL    HW217223   0.229   0.338   3.923 -0.3823  0.2047 -0.0232
 1922SOL     OW17224   4.254   2.597   4.341  0.2375 -0.3437  0.2762
 1922SOL    HW117225   4.207   2.610   4.424 -0.3434 -0.5544 -0.0195
 1922SOL    HW217226   4.175   2.585   4.288 -0.0242  3.0262 -0.0420
 1923SOL     OW17227   3.522   2.873  15.022 -0.7272 -0.6024  0.2320
 1923SOL    HW117228   3.574   2.946  15.054  1.0569 -1.3632 -0.8955
 1923SOL    HW217229   3.494   2.906  14.936  0.6774 -1.5602 -0.5905
 1924SOL     OW17230   1.459   2.043   9.325  0.3160 -0.3434  0.2697
 1924SOL    HW117231   1.446   2.026   9.418 -2.3160  0.8759  0.1216
 1924SOL    HW217232   1.522   2.115   9.335  0.8315 -0.7708  0.0727
 1925SOL     OW17233   3.954   4.623  13.040 -0.4719  0.2465 -0.0205
 1925SOL    HW117234   4.021   4.680  13.001  1.1306 -0.8220  1.2110
 1925SOL    HW217235   3.990   4.548  12.993  0.1026  0.6105 -0.1620
 1926SOL     OW17236   2.080   0.635   6.321 -0.1553  0.9022  0.0461
 1926SOL    HW117237   2.102   0.666   6.408  1.0367  1.4009 -0.4279
 1926SOL    HW217238   2.045   0.715   6.282 -1.9062  0.8038  1.4314
 1927SOL     OW17239   3.708   3.717   5.639 -0.3902  0.1696  0.1659
 1927SOL    HW117240   3.698   3.626   5.610  1.3347  0.0009  0.1084
 1927SOL    HW217241   3.629   3.732   5.692 -1.7913  0.2221 -1.9188
 1928SOL     OW17242   2.366   4.585   3.037 -0.0129 -0.2417  0.0477
 1928SOL    HW117243   2.434   4.550   3.094  0.9265 -0.0765 -0.9579
 1928SOL    HW217244   2.286   4.543   3.068 -0.9632  2.1327  0.7999
 1929SOL     OW17245   2.857   4.307   0.342  0.1744  0.2377  0.3523
 1929SOL    HW117246   2.863   4.255   0.262 -1.2209  0.9959 -0.2476
 1929SOL    HW217247   2.939   4.291   0.389  1.1485  0.0626 -1.4143
 1930SOL     OW17248   1.487   3.495  11.924  0.4831  0.2136  0.5491
 1930SOL    HW117249   1.405   3.500  11.973 -0.6108 -0.2511 -1.2201
 1930SOL    HW217250   1.558   3.522  11.981  1.1804  1.2100 -0.7939
 1931SOL     OW17251   2.156   2.438   1.342 -0.0310 -0.1892  0.1293
 1931SOL    HW117252   2.163   2.505   1.275 -0.2843  0.4473  0.7387
 1931SOL    HW217253   2.076   2.395   1.312  0.3923  0.5276 -2.0124
 1932SOL     OW17254   3.401   1.195   1.656  0.1372 -0.0744  0.6761
 1932SOL    HW117255   3.416   1.185   1.562 -0.8747 -1.1886  0.6401
 1932SOL    HW217256   3.479   1.251   1.657 -0.2528  0.4716 -0.3044
 1933SOL     OW17257   4.384   2.662   7.092 -0.5119 -0.1128 -0.2760
 1933SOL    HW117258   4.466   2.617   7.109  0.1007  0.4148 -1.7952
 1933SOL    HW217259   4.380   2.728   7.162  2.2957  0.9789 -1.1522
 1934SOL     OW17260   1.445   1.491   6.178  0.1527  0.0250  0.0719
 1934SOL    HW117261   1.485   1.410   6.210 -0.9755 -1.4641 -2.2972
 1934SOL    HW217262   1.509   1.489   6.106  1.0504  1.6241  0.8396
 1935SOL     OW17263   2.519   4.063   5.047 -0.1313  0.5579  0.3644
 1935SOL    HW117264   2.444   4.005   5.042 -1.5375  2.7280 -3.6647
 1935SOL    HW217265   2.537   4.072   4.954 -1.1044 -0.9113  0.0409
 1936SOL     OW17266   1.984   3.817   9.408  0.7388 -0.4624  0.1545
 1936SOL    HW117267   2.002   3.843   9.318 -1.2355  0.1092 -0.0819
 1936SOL    HW217268   1.972   3.899   9.455 -0.5666 -0.9939  0.7571
 1937SOL     OW17269   1.013   2.921   8.095  0.3409 -0.1866  0.4030
 1937SOL    HW117270   0.938   2.926   8.035  1.9041 -1.7240 -1.7007
 1937SOL    HW217271   1.089   2.947   8.042  1.3051 -1.3098  1.2389
 1938SOL     OW17272   1.438   3.639   3.333  0.0848 -0.5826  0.6763
 1938SOL    HW117273   1.373   3.599   3.275  0.7736  0.3240 -0.7168
 1938SOL    HW217274   1.391   3.711   3.373  0.3768 -0.5476  0.9601
 1939SOL     OW17275   1.262   3.366   7.554 -0.0939 -0.3200 -0.3616
 1939SOL    HW117276   1.332   3.320   7.601 -1.3272 -0.2023  1.6054
 1939SOL    HW217277   1.208   3.382   7.632 -0.3904  2.7496 -1.2042
 1940SOL     OW17278   2.134   2.930  15.754 -0.0726 -0.3253 -0.3157
 1940SOL    HW117279   2.109   2.973  15.672  0.8150 -1.4053 -1.1542
 1940SOL    HW217280   2.192   2.863  15.718  0.8148 -0.6275  1.6760
 1941SOL     OW17281   0.664   0.992   8.964  0.4765  0.0449  0.1570
 1941SOL    HW117282   0.682   1.086   8.960 -2.8618  0.7188  1.1188
 1941SOL    HW217283   0.573   0.978   8.989  0.1582  0.3120 -0.8289
 1942SOL     OW17284   1.697   2.108  10.595 -0.3641 -0.7023  0.0139
 1942SOL    HW117285   1.704   2.085  10.688  0.3299 -1.9133 -0.3401
 1942SOL    HW217286   1.768   2.055  10.560 -0.6682 -1.1482  0.0786
 1943SOL     OW17287   3.636   2.185   6.271  0.5096  0.1939  0.3731
 1943SOL    HW117288   3.711   2.168   6.328 -0.1254  0.5703  1.3063
 1943SOL    HW217289   3.680   2.221   6.194 -1.7714  2.0720 -0.0441
 1944SOL     OW17290   2.015   0.505  13.166 -0.0844  0.0969  0.6428
 1944SOL    HW117291   1.927   0.473  13.186  0.1805 -0.0077  1.6404
 1944SOL    HW217292   2.075   0.441  13.203  0.9083  0.5021 -0.2750
 1945SOL     OW17293   2.611   3.521  10.121  0.4315 -0.1254  0.7250
 1945SOL    HW117294   2.544   3.510  10.188 -1.2809 -0.5486 -1.0441
 1945SOL    HW217295   2.634   3.613  10.108 -2.5105  0.7962  2.1352
 1946SOL     OW17296   0.936   1.107  14.461  0.5075  0.2363 -0.2805
 1946SOL    HW117297   0.985   1.050  14.402 -1.9665 -1.3368 -0.8108
 1946SOL    HW217298   0.865   1.056  14.500  0.6970  0.8405  0.8439
 1947SOL     OW17299   4.281   2.163  13.636 -0.0351 -0.3731  0.0493
 1947SOL    HW117300   4.302   2.240  13.689  0.5923 -0.9880  0.7076
 1947SOL    HW217301   4.367   2.139  13.601  0.2411 -3.0684  2.5343
 1948SOL     OW17302   1.020   4.154  17.365 -0.4381 -0.0524  0.0836
 1948SOL    HW117303   1.101   4.165  17.414 -1.7483 -0.8212  2.4259
 1948SOL    HW217304   0.972   4.236  17.374  1.5603  0.9789  1.2450
 1949SOL     OW17305   2.966   0.125   8.889  0.5571  0.0325 -0.4158
 1949SOL    HW117306   2.893   0.078   8.848 -0.5139  2.8393 -1.6931
 1949SOL    HW217307   2.937   0.105   8.978 -4.6106  2.4148 -1.5794
 1950SOL     OW17308   1.159   4.687   9.211 -0.4423  0.0848  0.1687
 1950SOL    HW117309   1.069   4.675   9.182 -0.4628  1.7463 -0.4723
 1950SOL    HW217310   1.206   4.711   9.131  1.0287 -0.9010  0.7419
 1951SOL     OW17311   1.012   4.442   4.527 -0.3020 -0.2485  0.0695
 1951SOL    HW117312   1.066   4.451   4.605  0.2922  0.5472 -0.4354
 1951SOL    HW217313   1.069   4.378   4.484 -1.4148 -0.2030 -1.4931
 1952SOL     OW17314   3.204   0.301   8.227  0.4544  0.9120 -0.7083
 1952SOL    HW117315   3.175   0.265   8.143 -0.2240  1.1751 -0.5890
 1952SOL    HW217316   3.265   0.375   8.225  1.6037 -0.0326 -0.8976
 1953SOL     OW17317   4.715   3.607   4.798 -0.1936 -0.1881  0.4441
 1953SOL    HW117318   4.628   3.597   4.835 -0.8740  0.8040 -0.8826
 1953SOL    HW217319   0.036   3.635   4.877 -0.9013 -1.1559  1.1838
 1954SOL     OW17320   0.336   3.743  14.583  0.0364  0.5606  0.0702
 1954SOL    HW117321   0.285   3.746  14.502  2.1025  2.7445 -1.1506
 1954SOL    HW217322   0.317   3.659  14.624 -1.3575  0.0254 -1.6789
 1955SOL     OW17323   3.620   2.121   7.346 -0.2892 -0.0096 -0.6812
 1955SOL    HW117324   3.525   2.132   7.353 -0.5019 -1.3185 -1.4642
 1955SOL    HW217325   3.630   2.078   7.430 -1.0199  0.7634 -0.1944
 1956SOL     OW17326   1.960   3.984   7.137  0.0263  0.1030  0.0150
 1956SOL    HW117327   1.920   4.066   7.168 -1.3793 -1.0118  1.1630
 1956SOL    HW217328   1.974   4.007   7.045 -2.1433 -0.4887 -0.4599
 1957SOL     OW17329   3.977   4.199   2.801  0.3728  0.5438 -0.2711
 1957SOL    HW117330   3.951   4.243   2.720 -4.1402 -1.4603  0.1040
 1957SOL    HW217331   3.950   4.110   2.777  1.8601  0.2154 -0.7691
 1958SOL     OW17332   3.100   0.968   7.536  0.2650  0.6643 -0.3710
 1958SOL    HW117333   3.081   0.951   7.629  1.1982  0.2525 -0.2630
 1958SOL    HW217334   3.145   0.886   7.515 -1.1777  0.4401 -2.5337
 1959SOL     OW17335   3.851   2.403   5.631 -0.0990  0.0373 -0.0803
 1959SOL    HW117336   3.775   2.448   5.668  0.0605 -0.3637  0.7571
 1959SOL    HW217337   3.817   2.331   5.578 -0.3509 -1.4719  2.0903
 1960SOL     OW17338   0.833   4.557   6.318  0.2308 -0.1580  0.1549
 1960SOL    HW117339   0.846   4.513   6.234  3.9335 -0.2013  0.7465
 1960SOL    HW217340   0.740   4.579   6.319  0.9124  2.7371 -0.3694
 1961SOL     OW17341   4.485   3.471   6.484 -0.0538 -0.0968 -0.1582
 1961SOL    HW117342   4.467   3.503   6.573  0.5799 -0.9554  0.2801
 1961SOL    HW217343   4.540   3.538   6.445  0.2391 -0.3490 -0.1753
 1962SOL     OW17344   3.981   0.519  15.871  0.2887 -0.6183 -0.9133
 1962SOL    HW117345   3.978   0.610  15.901 -3.7189 -0.5403 -1.5433
 1962SOL    HW217346   3.982   0.479  15.958  1.7958 -0.7625 -1.0002
 1963SOL     OW17347   2.660   1.307  14.887 -0.2277 -0.5649  0.0663
 1963SOL    HW117348   2.575   1.337  14.920 -0.9151  1.1016 -3.1464
 1963SOL    HW217349   2.704   1.358  14.955 -0.7802  0.6117 -0.4392
 1964SOL     OW17350   2.936   2.580   6.350 -0.1660  0.1214 -0.2464
 1964SOL    HW117351   3.011   2.526   6.323  0.8706  1.3625  0.1520
 1964SOL    HW217352   2.963   2.588   6.442  0.7022  0.9034 -0.5670
 1965SOL     OW17353   3.525   2.997   0.682  0.0385  0.6975  0.4437
 1965SOL    HW117354   3.477   2.916   0.699 -1.7068  1.5503 -0.4586
 1965SOL    HW217355   3.612   2.962   0.704  0.1159  0.1068 -0.8058
 1966SOL     OW17356   2.184   1.203   1.962  0.9516 -0.0414 -0.3786
 1966SOL    HW117357   2.279   1.211   1.961  0.9575  0.0497  0.4813
 1966SOL    HW217358   2.165   1.155   1.882 -0.4583  0.8566 -0.5939
 1967SOL     OW17359   0.243   1.438   3.081 -0.1125 -0.3430  0.3627
 1967SOL    HW117360   0.184   1.465   3.011 -1.1722 -0.8685  1.0536
 1967SOL    HW217361   0.315   1.403   3.027  1.3377  2.2159  0.6357
 1968SOL     OW17362   0.442   1.916   4.655  0.4376 -0.2747 -0.2530
 1968SOL    HW117363   0.359   1.962   4.657  0.3261 -0.5721  1.5042
 1968SOL    HW217364   0.463   1.921   4.748 -2.7429 -1.2440  0.5052
 1969SOL     OW17365   1.671   0.829   5.403  0.1921 -0.2487 -0.2585
 1969SOL    HW117366   1.756   0.825   5.448  0.4340 -1.8021 -0.8745
 1969SOL    HW217367   1.621   0.856   5.480  0.8384  0.5352 -0.1083
 1970SOL     OW17368   3.864   0.443   5.053  0.0130  0.4154 -0.2242
 1970SOL    HW117369   3.876   0.350   5.033  2.2826  0.6766 -0.0411
 1970SOL    HW217370   3.846   0.434   5.146 -1.3293 -2.1149 -0.7381
 1971SOL     OW17371   0.729   0.160   2.314  0.3910  0.4151 -0.1091
 1971SOL    HW117372   0.783   0.117   2.247  0.6429  1.4216 -0.5530
 1971SOL    HW217373   0.758   0.117   2.394 -0.4049  0.6141  0.2851
 1972SOL     OW17374   3.745   2.015  12.985 -0.2497  0.4362 -0.0884
 1972SOL    HW117375   3.724   2.086  12.925 -0.4631  0.1383 -0.3655
 1972SOL    HW217376   3.730   1.931  12.943  2.0352 -0.1499  0.2653
 1973SOL     OW17377   3.080   4.369  12.431 -0.9339 -0.1084  0.3038
 1973SOL    HW117378   3.165   4.326  12.442 -1.2414 -0.4918  1.1601
 1973SOL    HW217379   3.019   4.321  12.487 -0.1782 -1.5021 -0.0541
 1974SOL     OW17380   1.316   4.068   1.907  0.6860  0.1883  0.4386
 1974SOL    HW117381   1.411   4.069   1.900  0.8921 -0.1288  3.4306
 1974SOL    HW217382   1.293   4.042   1.817  2.5419 -0.4054  0.1369
 1975SOL     OW17383   0.999   0.239   8.609  0.0727  0.2172  0.0856
 1975SOL    HW117384   1.017   0.150   8.639  0.7375  0.5366  0.6288
 1975SOL    HW217385   0.905   0.241   8.590  0.2164 -0.8167 -0.7615
 1976SOL     OW17386   3.224   2.818   4.187  0.2357 -0.1670  0.2476
 1976SOL    HW117387   3.204   2.749   4.251 -0.7808  1.2201  1.4303
 1976SOL    HW217388   3.152   2.810   4.124 -1.8899 -0.0615  2.6628
 1977SOL     OW17389   1.278   0.278   3.214 -0.0142  0.5244 -0.1826
 1977SOL    HW117390   1.233   0.224   3.149  1.0534 -1.7627  0.9678
 1977SOL    HW217391   1.275   0.357   3.160  1.8931 -0.0481 -1.1244
 1978SOL     OW17392   1.940   3.786   3.622 -0.2784  0.0607  0.9152
 1978SOL    HW117393   1.918   3.693   3.611  0.4876 -0.0688  0.4394
 1978SOL    HW217394   2.032   3.772   3.598 -0.6676  2.7710 -2.0999
 1979SOL     OW17395   1.438   1.658   8.650 -0.1771 -0.5787  0.6712
 1979SOL    HW117396   1.529   1.683   8.631  0.0408 -1.2137  0.9033
 1979SOL    HW217397   1.397   1.745   8.647 -3.8497 -2.2983  1.7503
 1980SOL     OW17398   2.153   1.827   2.523 -0.6335  0.2052  0.0969
 1980SOL    HW117399   2.189   1.910   2.554  2.5589 -1.5361  1.0271
 1980SOL    HW217400   2.114   1.862   2.443 -0.3684  1.4700  0.5337
 1981SOL     OW17401   2.400   1.275   7.560  0.1280 -0.5581 -0.4355
 1981SOL    HW117402   2.345   1.309   7.631  1.1664  1.5972 -0.6581
 1981SOL    HW217403   2.464   1.346   7.569 -0.8406  0.2672 -0.0325
 1982SOL     OW17404   2.232   2.466   1.058 -0.1174 -0.3969 -0.3190
 1982SOL    HW117405   2.186   2.538   1.015 -1.8421 -0.9943  0.5433
 1982SOL    HW217406   2.195   2.389   1.014  1.0044  0.3620 -2.5982
 1983SOL     OW17407   0.550   2.866   3.553  0.2532  0.2460 -0.0178
 1983SOL    HW117408   0.516   2.835   3.469  0.1204  2.5977 -0.8127
 1983SOL    HW217409   0.594   2.949   3.539  1.5989 -0.6412 -1.0458
 1984SOL     OW17410   2.345   0.675   2.837 -0.2293  0.2753  0.3244
 1984SOL    HW117411   2.354   0.580   2.842  1.9352  0.3104 -3.4988
 1984SOL    HW217412   2.404   0.707   2.770  0.1707  1.1191  1.0717
 1985SOL     OW17413   2.270   3.323   3.834  0.1919 -0.5480  0.1063
 1985SOL    HW117414   2.342   3.382   3.854  0.3461 -0.3585 -0.9895
 1985SOL    HW217415   2.203   3.379   3.796  0.3822  0.3232  1.0739
 1986SOL     OW17416   3.984   0.102   0.598 -0.1121 -0.0903 -0.1842
 1986SOL    HW117417   3.954   0.152   0.522  1.3586 -0.8177 -1.2309
 1986SOL    HW217418   4.046   0.041   0.558 -1.7472 -1.0530 -1.2415
 1987SOL     OW17419   0.687   1.905   9.062 -0.2297 -0.2674  0.1258
 1987SOL    HW117420   0.685   1.831   9.123 -1.9750 -1.6482 -1.5795
 1987SOL    HW217421   0.773   1.944   9.080  0.4776 -1.7622  0.0391
 1988SOL     OW17422   1.028   2.646  15.733  0.2284 -0.1417 -0.9817
 1988SOL    HW117423   1.085   2.569  15.735 -3.3708 -2.7522  0.5234
 1988SOL    HW217424   1.074   2.698  15.799 -1.8287  2.1537 -1.3799
 1989SOL     OW17425   1.179   0.825   7.166 -0.2313 -0.7527 -0.0053
 1989SOL    HW117426   1.160   0.732   7.153 -0.9025 -0.5999 -0.1198
 1989SOL    HW217427   1.110   0.847   7.228 -0.0382 -0.8912  0.2614
 1990SOL     OW17428   0.355   1.979   5.517  0.6427 -0.1752 -0.3702
 1990SOL    HW117429   0.360   1.936   5.602  0.8116  0.4744 -0.0505
 1990SOL    HW217430   0.406   1.921   5.461  1.6441  2.0173 -1.7708
 1991SOL     OW17431   0.030   2.126   2.149  0.1697  0.8700 -0.2706
 1991SOL    HW117432   0.112   2.094   2.112  1.1950  3.0470  0.1316
 1991SOL    HW217433   4.685   2.097   2.088  0.4263 -3.1373  1.3216
 1992SOL     OW17434   0.647   0.822   5.504  0.0029  0.6713 -0.2787
 1992SOL    HW117435   0.645   0.811   5.409  1.4414 -1.0929 -0.1157
 1992SOL    HW217436   0.742   0.810   5.511 -0.1715  1.9673  4.1092
 1993SOL     OW17437   3.396   3.277   8.594  0.2822  0.1386  0.2563
 1993SOL    HW117438   3.337   3.254   8.665  2.1159 -1.3436  1.3111
 1993SOL    HW217439   3.441   3.358   8.618 -2.1871  1.2167  1.2315
 1994SOL     OW17440   1.126   2.550   6.010 -0.4358  0.3370  0.1169
 1994SOL    HW117441   1.107   2.526   6.100  0.1117 -0.4587  0.0170
 1994SOL    HW217442   1.037   2.545   5.974  0.0716  1.1279 -1.2781
 1995SOL     OW17443   2.096   1.916   3.504  0.1108 -0.1137  0.2653
 1995SOL    HW117444   2.089   1.964   3.421 -0.3415  0.4415  0.6308
 1995SOL    HW217445   2.008   1.878   3.512  0.1965 -0.5572 -0.8057
 1996SOL     OW17446   0.362   2.973   4.850 -0.0181 -0.3197 -0.6335
 1996SOL    HW117447   0.283   2.946   4.897  0.9368 -1.0444  0.5353
 1996SOL    HW217448   0.374   2.889   4.806 -1.8169 -1.3828  0.9559
 1997SOL     OW17449   0.855   4.674   8.389 -0.1702  0.7161 -0.1512
 1997SOL    HW117450   0.863   4.651   8.481  0.6505 -1.9436 -0.8789
 1997SOL    HW217451   0.769   4.641   8.364  0.2477 -0.9694  0.6657
 1998SOL     OW17452   2.302   1.469   3.096 -0.4535 -0.0823 -0.0418
 1998SOL    HW117453   2.356   1.408   3.145  1.4346  0.8592 -0.9688
 1998SOL    HW217454   2.359   1.538   3.061  0.5056 -1.1070 -0.4745
 1999SOL     OW17455   1.800   0.920   7.009 -0.6511 -0.0164 -0.1442
 1999SOL    HW117456   1.789   0.874   7.092 -2.8821 -0.1239 -0.4992
 1999SOL    HW217457   1.855   0.994   7.034  1.5466 -1.6311 -0.1478
 2000SOL     OW17458   3.000   3.819   4.512 -0.0280  0.3114  0.1749
 2000SOL    HW117459   2.918   3.798   4.468  0.1835 -0.7213  0.2494
 2000SOL    HW217460   3.051   3.830   4.431  0.4876 -2.6827  0.0872
 2001SOL     OW17461   1.283   4.145  14.997 -1.4501  0.7276  0.0921
 2001SOL    HW117462   1.350   4.134  15.064  0.7411  0.2245 -2.2364
 2001SOL    HW217463   1.246   4.057  14.997 -2.1417  1.0186 -0.6848
 2002SOL     OW17464   1.544   4.013   8.212  0.0087 -0.0101 -0.0168
 2002SOL    HW117465   1.489   4.054   8.279 -0.3553 -0.6140  0.0569
 2002SOL    HW217466   1.492   3.934   8.192  1.8718 -0.9817 -0.9639
 2003SOL     OW17467   1.380   3.588   8.111 -1.0417  0.3121  0.4271
 2003SOL    HW117468   1.433   3.665   8.134 -1.8933  0.7486  0.9350
 2003SOL    HW217469   1.439   3.544   8.051  1.0262 -1.3356  3.6292
 2004SOL     OW17470   4.299   1.998   3.710  0.0821  0.3506  0.6512
 2004SOL    HW117471   4.310   1.908   3.741 -0.9035  0.1866  0.5175
 2004SOL    HW217472   4.376   2.046   3.741  0.3265 -0.2862  1.0356
 2005SOL     OW17473   0.881   1.030  13.231 -0.4506 -0.2340  0.2165
 2005SOL    HW117474   0.917   0.960  13.178  1.8684  0.2956  1.1066
 2005SOL    HW217475   0.801   1.050  13.181  0.7469  0.4819 -1.3966
 2006SOL     OW17476   0.614   4.524   8.396  0.1605 -0.2331 -0.4173
 2006SOL    HW117477   0.670   4.457   8.434 -1.3910 -1.2496  0.1136
 2006SOL    HW217478   0.531   4.513   8.443 -0.3221  0.7173 -1.0403
 2007SOL     OW17479   0.822   3.518   4.462  0.3035 -0.0074 -0.3936
 2007SOL    HW117480   0.804   3.516   4.368 -1.2948 -1.2456 -0.0517
 2007SOL    HW217481   0.789   3.603   4.490  2.2272  1.5486 -2.9009
 2008SOL     OW17482   3.805   1.734   3.645 -0.3734  0.3208 -0.5584
 2008SOL    HW117483   3.794   1.659   3.704 -1.2583  0.6061 -0.3516
 2008SOL    HW217484   3.715   1.746   3.616  0.2767 -1.0312 -3.1322
 2009SOL     OW17485   3.737   4.352   4.623  0.0745 -0.2781 -0.4215
 2009SOL    HW117486   3.766   4.343   4.532  1.6359  1.5973 -0.1207
 2009SOL    HW217487   3.655   4.306   4.607  1.0406 -1.8387 -0.8484
 2010SOL     OW17488   2.219   1.452  12.446  0.2008  0.6615 -0.0694
 2010SOL    HW117489   2.125   1.446  12.432  0.2065 -2.1727  1.2324
 2010SOL    HW217490   2.253   1.439  12.357  0.4865  1.7224 -0.1164
 2011SOL     OW17491   1.669   3.796   4.002 -0.5261 -0.9597  0.0558
 2011SOL    HW117492   1.736   3.766   3.941  1.0880 -0.0612  1.3929
 2011SOL    HW217493   1.614   3.719   3.986 -2.1788  0.5592 -1.4554
 2012SOL     OW17494   2.287   3.710   4.095  0.9338 -0.0075 -0.4597
 2012SOL    HW117495   2.315   3.626   4.132  0.4949 -0.3347 -0.8601
 2012SOL    HW217496   2.352   3.768   4.134  3.1803 -2.3895 -0.6362
 2013SOL     OW17497   3.053   4.023   8.909  0.2306  0.1519 -0.2756
 2013SOL    HW117498   3.093   3.950   8.861  0.4508  0.6751 -0.8719
 2013SOL    HW217499   3.074   3.989   8.996  1.4257  1.0669 -0.2083
 2014SOL     OW17500   4.271   1.970   9.062  0.5601 -0.0288  0.1015
 2014SOL    HW117501   4.296   1.987   8.971 -1.5608 -0.4947 -0.5751
 2014SOL    HW217502   4.340   2.014   9.111  1.3603 -1.5836  0.3818
 2015SOL     OW17503   1.335   3.973  12.509  1.0331  0.3559 -0.0847
 2015SOL    HW117504   1.294   3.925  12.437 -2.4544  2.5318  0.4397
 2015SOL    HW217505   1.266   4.020  12.557 -0.0302  0.8975 -2.1704
 2016SOL     OW17506   2.021   0.715   5.981 -0.0407  0.0712  0.4933
 2016SOL    HW117507   1.966   0.785   6.016 -1.2855  0.2465 -1.8337
 2016SOL    HW217508   1.955   0.669   5.930 -1.5196  1.8151  0.8469
 2017SOL     OW17509   3.747   2.204   5.475  0.1308  0.0039  0.3786
 2017SOL    HW117510   3.653   2.198   5.457  0.0127  0.0824  0.9697
 2017SOL    HW217511   3.767   2.263   5.402 -1.5989 -0.0403 -0.1519
 2018SOL     OW17512   2.064   4.634  10.118  0.1838  0.1415  0.1368
 2018SOL    HW117513   1.993   4.648  10.055 -0.8048 -1.4361  0.9106
 2018SOL    HW217514   2.007   4.602  10.187  0.4192 -0.5174  0.0268
 2019SOL     OW17515   3.230   2.878  13.763  0.0394  0.1498  0.1790
 2019SOL    HW117516   3.307   2.935  13.753 -1.5915  2.1528 -0.9363
 2019SOL    HW217517   3.167   2.944  13.792  0.2031 -0.3345  1.6501
 2020SOL     OW17518   1.246   2.855  15.494  0.1368  0.0014  0.0413
 2020SOL    HW117519   1.336   2.861  15.461  0.0420 -1.5449 -0.4697
 2020SOL    HW217520   1.225   2.766  15.467 -3.5962  1.0485 -0.4490
 2021SOL     OW17521   1.509   1.702   2.716 -0.1474  0.4006  0.3124
 2021SOL    HW117522   1.453   1.780   2.707  1.4387  1.7026  1.7326
 2021SOL    HW217523   1.450   1.634   2.683  1.2293 -0.5993 -0.0819
 2022SOL     OW17524   2.439   3.535   7.192 -0.1054  0.1352 -0.7474
 2022SOL    HW117525   2.453   3.502   7.281  0.8838  2.2795 -0.1020
 2022SOL    HW217526   2.348   3.564   7.182  0.1345  1.1960  0.1185
 2023SOL     OW17527   1.691   4.666   4.743 -0.1641  0.0817 -0.2343
 2023SOL    HW117528   1.776   4.711   4.743 -0.5500  0.8019 -1.0539
 2023SOL    HW217529   1.713   4.573   4.754  1.7351  0.3451 -1.8269
 2024SOL     OW17530   1.263   0.904  13.962  0.6293 -0.0859  0.1868
 2024SOL    HW117531   1.196   0.946  13.909  1.3825  0.0945 -0.6372
 2024SOL    HW217532   1.206   0.857  14.023 -0.2041 -1.8134 -1.9215
 2025SOL     OW17533   3.582   2.604   9.611  0.0950  0.1046 -0.5097
 2025SOL    HW117534   3.518   2.635   9.546 -0.0917  0.8784  0.0296
 2025SOL    HW217535   3.610   2.682   9.660  1.0415  0.2772 -1.3336
 2026SOL     OW17536   4.359   1.494  15.031  0.0480  0.1626  0.1594
 2026SOL    HW117537   4.328   1.582  15.053  0.5948  0.2851  0.4427
 2026SOL    HW217538   4.307   1.445  15.095 -4.1821  2.9162 -1.1581
 2027SOL     OW17539   0.074   2.356   7.318  0.9929  0.0302 -0.9611
 2027SOL    HW117540   0.033   2.356   7.404 -0.0696 -2.0915 -1.4448
 2027SOL    HW217541   0.065   2.266   7.287  2.2249 -0.3067 -0.3049
 2028SOL     OW17542   4.081   1.085  11.812  0.3292 -0.3653 -0.3475
 2028SOL    HW117543   4.142   1.140  11.763 -1.5873  0.2035 -2.0972
 2028SOL    HW217544   4.024   1.060  11.739  1.1016 -1.4328 -0.5827
 2029SOL     OW17545   2.827   1.735   3.109  0.1672 -0.0873  0.5184
 2029SOL    HW117546   2.831   1.737   3.013  3.3080 -1.4537  0.6346
 2029SOL    HW217547   2.773   1.657   3.121  3.1028 -2.0946  0.7145
 2030SOL     OW17548   0.333   0.721  14.303  0.6561 -0.3938  0.2059
 2030SOL    HW117549   0.246   0.692  14.331  1.3853 -1.1468  1.6948
 2030SOL    HW217550   0.381   0.639  14.318  1.9526  0.9148  3.2731
 2031SOL     OW17551   0.814   2.240   7.075 -0.2458  0.1706 -0.0833
 2031SOL    HW117552   0.805   2.178   7.003 -0.3826  0.6384 -0.4713
 2031SOL    HW217553   0.727   2.282   7.071 -0.0491  0.4203 -1.6989
 2032SOL     OW17554   3.534   0.708  16.494  0.3716  0.0882  0.8213
 2032SOL    HW117555   3.495   0.760  16.564  0.5610 -0.1266  1.0831
 2032SOL    HW217556   3.551   0.777  16.430  0.0683 -1.1592 -0.6287
 2033SOL     OW17557   4.195   2.573  10.954 -0.1235 -0.1910 -0.0453
 2033SOL    HW117558   4.176   2.643  11.017 -0.3920 -1.0310  0.8046
 2033SOL    HW217559   4.284   2.548  10.979 -0.2614 -0.6546 -0.0134
 2034SOL     OW17560   0.555   1.889   7.806  0.2484  0.5040  0.4634
 2034SOL    HW117561   0.554   1.797   7.833 -2.1295  0.1207 -0.9630
 2034SOL    HW217562   0.650   1.898   7.811  0.1425  0.1500  3.1342
 2035SOL     OW17563   0.014   2.590  13.267  0.3304 -0.5978  0.3023
 2035SOL    HW117564   4.690   2.667  13.236  2.4027  0.1124 -1.1349
 2035SOL    HW217565   4.710   2.592  13.359 -2.1131  3.6035 -0.5169
 2036SOL     OW17566   2.968   1.086   1.291  0.1801 -0.4973 -0.2920
 2036SOL    HW117567   2.971   1.112   1.383 -2.2453  2.1518 -0.9730
 2036SOL    HW217568   3.062   1.067   1.287  0.5736  0.8509  2.5317
 2037SOL     OW17569   3.314   0.769  13.969 -0.4762  0.0004 -0.0845
 2037SOL    HW117570   3.365   0.798  13.893 -1.9803  0.3528 -0.9551
 2037SOL    HW217571   3.319   0.674  13.960  1.0962  0.2676 -2.1363
 2038SOL     OW17572   3.661   2.730   7.896 -0.0198 -0.1891  0.4188
 2038SOL    HW117573   3.609   2.762   7.822 -0.9215  1.8694  1.9376
 2038SOL    HW217574   3.626   2.779   7.971 -0.6003 -1.0021  0.6801
 2039SOL     OW17575   2.919   1.525   2.043 -0.4521 -0.0245 -0.4224
 2039SOL    HW117576   2.935   1.442   2.089 -0.3292 -0.4170 -1.1637
 2039SOL    HW217577   3.007   1.544   2.012 -1.0472 -0.5784 -2.5048
 2040SOL     OW17578   2.955   1.867   1.500  0.0160 -0.2286  0.2128
 2040SOL    HW117579   2.864   1.894   1.513 -0.2215 -1.6954  1.6888
 2040SOL    HW217580   2.973   1.863   1.406  1.3555 -2.0430  0.5373
 2041SOL     OW17581   2.808   3.525   2.401 -0.2627 -0.3760  0.0609
 2041SOL    HW117582   2.744   3.588   2.367 -0.9608 -1.0683  0.0927
 2041SOL    HW217583   2.801   3.454   2.337  1.1754 -0.6031  0.1644
 2042SOL     OW17584   2.261   1.771  11.939 -0.5120 -0.3745  0.6280
 2042SOL    HW117585   2.200   1.769  12.013 -0.0158 -1.0091  1.0226
 2042SOL    HW217586   2.207   1.807  11.868 -1.6015 -4.0060 -0.4192
 2043SOL     OW17587   0.317   3.312  16.378  0.0548  0.2401  0.2444
 2043SOL    HW117588   0.394   3.352  16.417 -2.3655  3.6695  1.4981
 2043SOL    HW217589   0.350   3.228  16.346 -0.7143 -0.3932  1.1106
 2044SOL     OW17590   0.298   3.201   8.350 -0.3052 -0.5374 -0.1246
 2044SOL    HW117591   0.233   3.131   8.342 -0.1201 -0.5303 -1.7292
 2044SOL    HW217592   0.303   3.204   8.446  2.6739  2.2165 -0.3781
 2045SOL     OW17593   2.087   0.790   1.866 -0.3874  0.0369  0.1490
 2045SOL    HW117594   2.045   0.805   1.781  2.5316  0.8665 -1.1380
 2045SOL    HW217595   2.172   0.753   1.844  0.3438  1.1508  1.1283
 2046SOL     OW17596   1.470   4.179  10.466 -0.2036 -0.3443  0.4274
 2046SOL    HW117597   1.531   4.127  10.518  0.3022 -0.0879  0.0771
 2046SOL    HW217598   1.390   4.131  10.490 -1.5364  1.2567 -0.8620
 2047SOL     OW17599   4.413   1.454   7.192  0.3986  0.0281 -0.6353
 2047SOL    HW117600   4.318   1.466   7.186  0.1232 -2.4148 -1.3754
 2047SOL    HW217601   4.426   1.368   7.232  4.6601  1.0631  0.1650
 2048SOL     OW17602   3.656   1.610  17.225  0.5529 -0.0321  0.1894
 2048SOL    HW117603   3.618   1.547  17.164 -1.3858  0.9333  0.4295
 2048SOL    HW217604   3.740   1.564  17.236 -0.1815 -1.6787 -1.0657
 2049SOL     OW17605   1.702   1.412   7.280 -0.0101  0.0020  0.1866
 2049SOL    HW117606   1.787   1.396   7.239  0.4685  1.4121  0.6376
 2049SOL    HW217607   1.720   1.496   7.322 -0.3074 -0.7355  1.7827
 2050SOL     OW17608   3.250   3.258   4.381  0.0332  0.4117  0.4597
 2050SOL    HW117609   3.336   3.293   4.358  0.3704 -0.5410  0.2752
 2050SOL    HW217610   3.269   3.183   4.438  1.1328  0.8448  0.6538
 2051SOL     OW17611   1.721   0.473   3.980 -0.1253  0.0661 -0.2113
 2051SOL    HW117612   1.808   0.483   4.020 -1.1438  0.5526  1.8510
 2051SOL    HW217613   1.719   0.379   3.998  1.8985  0.1631  0.5025
 2052SOL     OW17614   2.636   0.347  11.213  0.4299 -0.5635 -0.5504
 2052SOL    HW117615   2.662   0.256  11.203  0.5366 -0.4118 -1.6581
 2052SOL    HW217616   2.541   0.343  11.199  0.2667 -1.4676  0.8523
 2053SOL     OW17617   2.761   2.196   0.771 -0.1039  0.2442  0.6218
 2053SOL    HW117618   2.738   2.111   0.732  0.8008  0.3284 -0.0898
 2053SOL    HW217619   2.848   2.172   0.802  0.1416  0.9112  0.4489
 2054SOL     OW17620   1.724   0.919   0.944  0.3033  0.0976 -0.3109
 2054SOL    HW117621   1.646   0.967   0.970 -1.2167 -1.6111 -1.7374
 2054SOL    HW217622   1.716   0.840   0.996 -1.8942 -0.6246 -1.7589
 2055SOL     OW17623   0.996   3.967   2.820 -0.3597  0.0856 -0.1959
 2055SOL    HW117624   0.939   3.967   2.896 -1.9168  0.8830 -1.3693
 2055SOL    HW217625   1.030   3.878   2.811  0.4383  0.2646  1.0106
 2056SOL     OW17626   0.532   4.252   1.938  0.4855 -0.3567 -0.0224
 2056SOL    HW117627   0.607   4.311   1.934 -0.3186  0.6670 -0.1053
 2056SOL    HW217628   0.472   4.291   2.003  0.5230  0.7835 -0.6658
 2057SOL     OW17629   0.195   3.625   7.162 -0.8725  0.3714  0.1952
 2057SOL    HW117630   0.281   3.584   7.176  0.0404  2.0627 -0.4190
 2057SOL    HW217631   0.208   3.693   7.097  1.5164  1.3923  1.7214
 2058SOL     OW17632   3.003   4.548   2.201 -0.0047  0.0050 -0.0022
 2058SOL    HW117633   3.042   4.619   2.251  0.4182  0.7405 -1.3897
 2058SOL    HW217634   3.005   4.604   2.123 -0.6189 -1.1515 -0.8663
 2059SOL     OW17635   1.337   1.458  16.383  0.2728  0.8639 -0.0639
 2059SOL    HW117636   1.262   1.476  16.438 -0.6464 -0.6774 -0.8192
 2059SOL    HW217637   1.298   1.440  16.297  1.5679  0.6612 -0.6221
 2060SOL     OW17638   4.148   1.100   2.049 -0.2728  0.0131  0.3971
 2060SOL    HW117639   4.103   1.152   2.115 -3.8990 -0.6593 -1.5776
 2060SOL    HW217640   4.074   1.082   1.991 -0.3877 -1.0339  0.8720
 2061SOL     OW17641   3.390   1.757   8.288 -0.7503 -0.1364  0.9324
 2061SOL    HW117642   3.435   1.709   8.358 -0.3117 -0.2043  0.6018
 2061SOL    HW217643   3.437   1.712   8.218 -1.6508 -0.0261  0.2492
 2062SOL     OW17644   2.166   3.471   9.057 -0.4035 -0.1839 -0.2612
 2062SOL    HW117645   2.074   3.495   9.047  0.0972  1.3963 -1.1929
 2062SOL    HW217646   2.145   3.388   9.100 -1.1490  0.5337  0.7570
 2063SOL     OW17647   1.161   2.497   6.941  0.2377 -0.2040 -0.1571
 2063SOL    HW117648   1.210   2.417   6.923  1.7414  0.6921 -0.0217
 2063SOL    HW217649   1.225   2.533   7.002  1.8745 -1.4077 -1.1698
 2064SOL     OW17650   3.407   4.243   1.801 -0.1327  0.1392 -0.6116
 2064SOL    HW117651   3.375   4.160   1.835 -0.4669  0.4813 -0.0833
 2064SOL    HW217652   3.334   4.300   1.828  0.0411  0.6278 -1.1786
 2065SOL     OW17653   3.582   0.307   5.270 -0.1028 -0.4688 -0.2023
 2065SOL    HW117654   3.657   0.365   5.279  0.6576 -1.5298  0.2550
 2065SOL    HW217655   3.518   0.375   5.249 -0.4855 -0.5360  0.7609
 2066SOL     OW17656   3.773   2.427  14.282  0.2227  0.7622  0.4637
 2066SOL    HW117657   3.725   2.376  14.347  1.2460  0.5067  1.0210
 2066SOL    HW217658   3.861   2.389  14.283  0.3954  1.1652  2.1944
 2067SOL     OW17659   1.571   3.554   1.592  0.3498 -1.0947 -0.4470
 2067SOL    HW117660   1.540   3.639   1.560 -0.6062 -0.4981  2.1346
 2067SOL    HW217661   1.571   3.511   1.506 -1.5286  0.6460 -1.3590
 2068SOL     OW17662   2.791   2.631   3.166  0.7055 -0.0003  0.2367
 2068SOL    HW117663   2.753   2.607   3.081 -1.3594  2.7693  0.3684
 2068SOL    HW217664   2.796   2.548   3.214  1.5960  1.2865  2.3387
 2069SOL     OW17665   2.256   3.685   6.666 -0.0531 -0.4483 -0.3579
 2069SOL    HW117666   2.221   3.752   6.725  2.3071  0.9451 -0.5724
 2069SOL    HW217667   2.270   3.741   6.590  1.5617  1.9110  1.6994
 2070SOL     OW17668   3.629   4.432  15.720 -0.5906 -0.4875 -0.3212
 2070SOL    HW117669   3.689   4.389  15.659 -3.2423 -1.7776 -1.9920
 2070SOL    HW217670   3.578   4.486  15.660 -1.9815  0.1687  1.4388
 2071SOL     OW17671   1.751   4.458   9.047 -0.0103  0.7758  0.0192
 2071SOL    HW117672   1.701   4.539   9.042 -2.5880 -0.7936  0.3214
 2071SOL    HW217673   1.842   4.490   9.045  0.0750  0.6246  2.0872
 2072SOL     OW17674   3.523   1.363   8.462  0.1275 -0.0587  0.0713
 2072SOL    HW117675   3.506   1.281   8.509 -0.4839  1.0102  1.7242
 2072SOL    HW217676   3.598   1.332   8.412 -0.5431 -0.8167 -0.4682
 2073SOL     OW17677   2.767   4.140   7.644  0.1183 -0.1561  0.0372
 2073SOL    HW117678   2.812   4.061   7.615  2.0693  1.1815 -0.5991
 2073SOL    HW217679   2.755   4.135   7.739  2.3293  0.3179  0.3484
 2074SOL     OW17680   2.512   1.227   0.867 -0.5635 -0.0093  0.8343
 2074SOL    HW117681   2.540   1.136   0.866 -1.4302 -0.2829  0.8993
 2074SOL    HW217682   2.557   1.254   0.787  0.3369 -0.4266  1.2079
 2075SOL     OW17683   3.556   2.980   1.767 -0.1585 -0.0485  0.0747
 2075SOL    HW117684   3.571   2.896   1.725  0.1559  0.4517 -0.8319
 2075SOL    HW217685   3.469   3.002   1.733  0.1647  0.9097 -0.1626
 2076SOL     OW17686   2.924   0.426   7.906 -0.5326 -0.2150  0.1752
 2076SOL    HW117687   2.890   0.419   7.817  0.4436 -0.0253 -0.2069
 2076SOL    HW217688   2.855   0.473   7.954  1.8097  2.6087  0.7793
 2077SOL     OW17689   4.428   2.160  14.337 -0.4764 -0.4774  0.5225
 2077SOL    HW117690   4.351   2.203  14.302 -0.2346 -0.2413  0.2854
 2077SOL    HW217691   4.478   2.153  14.256 -0.8995 -2.0719  0.4065
 2078SOL     OW17692   1.087   2.284   2.084 -0.5213 -0.0358 -0.4410
 2078SOL    HW117693   1.054   2.262   1.997  0.6934 -1.1247 -0.6127
 2078SOL    HW217694   1.099   2.378   2.070  1.3846 -0.4469 -1.5952
 2079SOL     OW17695   1.107   1.637   3.736 -0.7123 -0.0970 -0.2143
 2079SOL    HW117696   1.024   1.654   3.780 -2.1364 -2.0336 -2.1916
 2079SOL    HW217697   1.164   1.617   3.810 -1.8615 -2.0127  0.1447
 2080SOL     OW17698   4.381   3.198   9.539  0.0345 -0.5339  0.2423
 2080SOL    HW117699   4.344   3.167   9.456 -0.3787  0.2611  0.1247
 2080SOL    HW217700   4.398   3.124   9.597  2.2139 -0.9722 -0.9590
 2081SOL     OW17701   3.858   2.707   3.254 -0.3359 -0.7486 -0.4563
 2081SOL    HW117702   3.832   2.783   3.202 -0.6000  0.8077  1.9729
 2081SOL    HW217703   3.889   2.642   3.190  1.9791  0.4613 -0.5757
 2082SOL     OW17704   2.064   1.465   6.466  0.6713  0.0144 -0.5519
 2082SOL    HW117705   1.991   1.409   6.493  0.0779  0.0960 -1.9862
 2082SOL    HW217706   2.123   1.425   6.530 -1.7247 -1.9394  0.4467
 2083SOL     OW17707   2.872   0.931   4.616  0.4946 -0.5904  0.2669
 2083SOL    HW117708   2.954   0.981   4.620 -0.9591  1.7318  1.1131
 2083SOL    HW217709   2.820   0.972   4.686 -0.3989 -1.5216  0.1385
 2084SOL     OW17710   3.844   4.525   4.141  0.2009 -0.8934 -0.0641
 2084SOL    HW117711   3.896   4.503   4.064  1.8013  1.8852  0.2358
 2084SOL    HW217712   3.777   4.457   4.135  0.7941 -1.4517 -0.2593
 2085SOL     OW17713   2.157   1.830   5.382  0.6172  0.2257 -0.5114
 2085SOL    HW117714   2.245   1.859   5.407 -0.2961  1.8401  0.7896
 2085SOL    HW217715   2.109   1.857   5.460 -0.5443 -0.3565 -1.0291
 2086SOL     OW17716   2.536   3.930   9.180  0.0370  0.1209 -0.6893
 2086SOL    HW117717   2.607   3.984   9.144  0.9737 -1.4852 -1.2629
 2086SOL    HW217718   2.581   3.881   9.249 -1.5145  2.0452  1.6951
 2087SOL     OW17719   4.570   1.463   3.825  0.3676  0.5836  0.3413
 2087SOL    HW117720   4.643   1.480   3.764  0.1646 -0.3515 -0.1634
 2087SOL    HW217721   4.534   1.383   3.788 -0.5906  0.2299  2.0553
 2088SOL     OW17722   2.279   0.679   6.114 -0.4619  0.2556  1.1129
 2088SOL    HW117723   2.246   0.725   6.038  1.4149  0.8911  0.6945
 2088SOL    HW217724   2.195   0.652   6.151 -0.6833  0.3459  0.6646
 2089SOL     OW17725   3.751   1.253  14.758  0.2512 -0.0145  0.0073
 2089SOL    HW117726   3.683   1.302  14.805  0.1201  0.4840 -0.7128
 2089SOL    HW217727   3.712   1.251  14.671  1.1906  1.1027 -0.4353
 2090SOL     OW17728   1.450   1.691   7.674 -1.3635 -0.4007 -0.7628
 2090SOL    HW117729   1.427   1.650   7.757  0.1326  0.9025  0.2972
 2090SOL    HW217730   1.529   1.643   7.649 -1.4546 -0.6025 -0.6641
 2091SOL     OW17731   3.184   3.702  15.077 -0.1454 -0.7678 -0.0814
 2091SOL    HW117732   3.110   3.728  15.132 -0.1838  0.8163 -0.8877
 2091SOL    HW217733   3.215   3.783  15.037  2.5364 -1.0864  1.3319
 2092SOL     OW17734   1.082   4.215  12.655 -0.3779  0.3812  0.1699
 2092SOL    HW117735   1.055   4.296  12.697 -1.0342  0.8507 -1.1751
 2092SOL    HW217736   1.128   4.257  12.583 -0.4600 -0.4941 -0.3940
 2093SOL     OW17737   3.704   2.843  13.907  0.2444 -0.3447 -0.1466
 2093SOL    HW117738   3.670   2.754  13.904  3.5112 -1.5413 -1.2658
 2093SOL    HW217739   3.708   2.857  14.001  3.2060  1.7932 -0.5824
 2094SOL     OW17740   0.054   3.926  15.070  0.5392  0.0728 -0.1502
 2094SOL    HW117741   4.706   3.990  15.070  2.0517  1.7299  0.8879
 2094SOL    HW217742   0.077   3.919  15.162 -0.7541  1.1034  0.2490
 2095SOL     OW17743   0.893   2.151  17.268 -0.6792  0.0726  0.2056
 2095SOL    HW117744   0.829   2.080  17.275 -1.3301  0.7021  0.6426
 2095SOL    HW217745   0.957   2.136  17.337  0.5203  1.0439 -0.6994
 2096SOL     OW17746   2.580   0.833   6.494  0.6222  0.2586  0.6469
 2096SOL    HW117747   2.598   0.749   6.451  1.8030  0.2905  1.0765
 2096SOL    HW217748   2.660   0.859   6.538  0.6512 -0.4367  1.0051
 2097SOL     OW17749   2.086   1.238   6.290  0.5676 -0.6497 -0.2483
 2097SOL    HW117750   2.098   1.156   6.336 -0.6241 -0.1971  0.8666
 2097SOL    HW217751   2.081   1.299   6.363 -0.1144 -1.4658  0.3781
 2098SOL     OW17752   3.475   3.331   7.211  0.2508  0.2034 -0.8288
 2098SOL    HW117753   3.451   3.239   7.196  0.2783  0.3128 -1.5046
 2098SOL    HW217754   3.571   3.332   7.215  0.2645  2.2018 -1.9287
 2099SOL     OW17755   0.809   0.556   5.093 -0.2761  0.5008  0.2718
 2099SOL    HW117756   0.898   0.552   5.058 -1.1553 -0.8620 -1.7353
 2099SOL    HW217757   0.764   0.602   5.023 -0.5393  0.2590  0.2845
 2100SOL     OW17758   0.669   2.947  15.525 -0.3757 -0.4157  0.3007
 2100SOL    HW117759   0.755   2.905  15.517 -0.0525  0.4091 -0.5163
 2100SOL    HW217760   0.614   2.870  15.544  1.1785 -1.6590 -0.2287
 2101SOL     OW17761   1.800   3.760   2.264  0.1775 -0.6287  0.9641
 2101SOL    HW117762   1.741   3.795   2.197  0.3729 -3.5651 -0.7521
 2101SOL    HW217763   1.785   3.811   2.343 -0.8631  1.1259 -0.3739
 2102SOL     OW17764   0.915   3.707  16.119 -0.1388 -0.6394 -0.0144
 2102SOL    HW117765   0.986   3.654  16.156  1.3396  0.7763 -0.8588
 2102SOL    HW217766   0.876   3.643  16.060  2.4143  0.3740 -2.7709
 2103SOL     OW17767   4.042   0.952   1.600  0.0146  0.1734  0.2714
 2103SOL    HW117768   3.991   0.886   1.552  0.7555 -0.5211  0.4312
 2103SOL    HW217769   4.111   0.898   1.638  1.0489  1.2389 -0.1246
 2104SOL     OW17770   3.245   3.875   8.475 -0.3642  0.4766 -0.2248
 2104SOL    HW117771   3.228   3.962   8.437  1.5237  0.7261 -0.5106
 2104SOL    HW217772   3.341   3.875   8.473 -0.3924  0.9006 -1.6612
 2105SOL     OW17773   2.011   4.385   7.844 -0.0567  0.0296  0.0285
 2105SOL    HW117774   1.973   4.324   7.780  1.2507  0.2344 -0.9326
 2105SOL    HW217775   1.987   4.466   7.799  0.1500 -0.8959 -1.7547
 2106SOL     OW17776   3.754   2.776   6.444  0.9250  0.6024  0.2259
 2106SOL    HW117777   3.844   2.795   6.419  0.2040  0.7589 -2.2901
 2106SOL    HW217778   3.731   2.702   6.388  4.1605 -1.1407  1.2132
 2107SOL     OW17779   0.370   3.583   5.286  0.2374 -0.3404 -0.5708
 2107SOL    HW117780   0.380   3.522   5.359 -1.0016  1.7207  1.3435
 2107SOL    HW217781   0.440   3.546   5.233 -1.0418 -4.3932  0.5779
 2108SOL     OW17782   1.000   3.088  16.624 -0.4085 -0.0267 -0.0930
 2108SOL    HW117783   1.049   3.070  16.544  0.6109  0.4942  0.4092
 2108SOL    HW217784   1.072   3.097  16.686  1.8488  2.7898 -3.0963
 2109SOL     OW17785   1.488   1.341   4.951  0.3568  0.1791 -0.0365
 2109SOL    HW117786   1.479   1.245   4.951 -1.6257  0.3611  0.7998
 2109SOL    HW217787   1.397   1.369   4.936  0.3369 -1.1341 -2.4939
 2110SOL     OW17788   4.720   3.622   8.092 -0.9188  0.0793  0.6489
 2110SOL    HW117789   4.683   3.670   8.166 -1.5879 -0.7806  0.8726
 2110SOL    HW217790   0.068   3.682   8.071 -1.7887  0.1346 -2.1933
 2111SOL     OW17791   4.192   2.983  10.770 -0.1274  0.0356 -0.4741
 2111SOL    HW117792   4.237   3.028  10.698 -0.1121  0.1707 -0.3801
 2111SOL    HW217793   4.108   3.024  10.750  0.9595  2.5973  0.1979
 2112SOL     OW17794   1.828   3.883  17.539  0.3731 -0.3948  0.2453
 2112SOL    HW117795   1.872   3.801  17.515  0.8412  0.6340 -2.3914
 2112SOL    HW217796   1.860   3.885  17.629  2.4758  2.8175 -0.6202
 2113SOL     OW17797   1.696   0.582   6.921 -0.1941 -0.2909 -0.2536
 2113SOL    HW117798   1.703   0.633   7.002  0.5270  1.5589 -1.4833
 2113SOL    HW217799   1.603   0.563   6.924 -0.4750  0.9255 -1.1422
 2114SOL     OW17800   0.619   1.533   5.922 -0.6671  0.6422  0.1411
 2114SOL    HW117801   0.592   1.445   5.951  0.0070 -0.2948 -2.0913
 2114SOL    HW217802   0.533   1.574   5.916 -1.3561 -0.7682  0.2334
 2115SOL     OW17803   1.641   2.361   6.203  0.3466 -0.7169  0.0347
 2115SOL    HW117804   1.664   2.286   6.257 -1.3656 -1.3849 -0.1366
 2115SOL    HW217805   1.548   2.371   6.224  1.0938  1.9843  2.0011
 2116SOL     OW17806   3.689   1.776  12.874 -0.0644  0.2796 -0.0919
 2116SOL    HW117807   3.725   1.728  12.799 -0.7144 -0.4183  0.0443
 2116SOL    HW217808   3.706   1.709  12.940  1.4434 -0.1011 -0.8614
 2117SOL     OW17809   1.671   4.647   6.339  0.0396 -0.1498 -0.2815
 2117SOL    HW117810   1.757   4.605   6.345 -0.3778 -0.8225  1.0568
 2117SOL    HW217811   1.679   0.019   6.340  1.8322 -0.3001  0.7696
 2118SOL     OW17812   2.997   1.823   4.786 -0.1374 -0.2548  0.1226
 2118SOL    HW117813   3.019   1.835   4.878 -0.3329 -0.1871  0.1620
 2118SOL    HW217814   2.901   1.814   4.785 -0.0732 -0.9145 -0.2833
 2119SOL     OW17815   3.392   0.971  17.338 -0.0624 -0.4603 -0.3117
 2119SOL    HW117816   3.350   0.949  17.421 -1.2694  0.3903 -0.6769
 2119SOL    HW217817   3.469   0.916  17.343  0.1455 -0.2468 -1.1534
 2120SOL     OW17818   0.751   4.217   9.051  0.1071  0.0853 -0.7168
 2120SOL    HW117819   0.734   4.299   9.097 -2.7901  0.3767 -2.3485
 2120SOL    HW217820   0.687   4.159   9.092 -0.2697  2.3426  1.8381
 2121SOL     OW17821   0.265   3.498   8.120  0.3228  0.1067 -0.4223
 2121SOL    HW117822   0.287   3.412   8.084  1.2738 -0.0560  0.5318
 2121SOL    HW217823   0.170   3.498   8.108  0.3101 -0.8614 -0.3004
 2122SOL     OW17824   3.855   0.004   5.557  0.0764 -0.0355  0.1617
 2122SOL    HW117825   3.936   4.704   5.511  0.0970  0.5508 -0.0955
 2122SOL    HW217826   3.840   4.637   5.586 -1.3036  0.5669  1.3017
 2123SOL     OW17827   0.154   3.592  14.153  0.4899  0.4933 -0.4226
 2123SOL    HW117828   0.071   3.545  14.151 -0.2598  1.7632  0.9619
 2123SOL    HW217829   0.175   3.582  14.060  1.5778  1.8672 -0.3190
 2124SOL     OW17830   3.603   3.413  14.538  0.9608  0.0285 -0.2477
 2124SOL    HW117831   3.641   3.366  14.464  0.8044 -0.1184 -0.2365
 2124SOL    HW217832   3.604   3.506  14.517 -0.1793  0.8416  3.2420
 2125SOL     OW17833   0.185   3.392   1.668  0.1529  0.8271  0.2312
 2125SOL    HW117834   0.202   3.482   1.643 -0.0825  0.9938  0.6696
 2125SOL    HW217835   0.271   3.358   1.693  0.0758  1.7400  1.7191
 2126SOL     OW17836   1.239   0.065   8.671  0.1266  0.7356  0.1281
 2126SOL    HW117837   1.270   4.700   8.691 -2.7632 -0.4357 -0.5999
 2126SOL    HW217838   1.256   0.115   8.751 -0.8804  0.7109  0.3535
 2127SOL     OW17839   3.032   2.573   7.875  0.1742 -0.1775  0.4530
 2127SOL    HW117840   2.966   2.550   7.940  1.5246  0.0198  1.8780
 2127SOL    HW217841   3.064   2.482   7.873  2.7346  0.6471  3.8399
 2128SOL     OW17842   4.653   3.805   7.071  0.6885  0.2710 -0.1373
 2128SOL    HW117843   4.598   3.858   7.129 -1.1293 -1.7872  0.0061
 2128SOL    HW217844   0.017   3.842   7.086  1.3624 -1.7871  0.9256
 2129SOL     OW17845   4.075   1.166  15.019 -0.2971  0.8649  0.3465
 2129SOL    HW117846   4.069   1.172  14.923 -1.3262  1.6153  0.4540
 2129SOL    HW217847   4.165   1.140  15.038 -1.4593 -4.6381 -1.4159
 2130SOL     OW17848   3.563   0.879   0.516 -0.1545 -0.7341  0.1435
 2130SOL    HW117849   3.594   0.944   0.579 -1.0049  1.3944 -1.6452
 2130SOL    HW217850   3.607   0.911   0.437 -0.8382  2.2777  0.9733
 2131SOL     OW17851   0.412   4.502  16.599 -0.5907  0.1248  0.0844
 2131SOL    HW117852   0.444   4.415  16.624 -0.1244  0.5487  0.9442
 2131SOL    HW217853   0.329   4.512  16.646 -1.8456 -1.0620 -1.8335
 2132SOL     OW17854   0.415   1.493   0.181  0.0153  0.2219  0.4387
 2132SOL    HW117855   0.351   1.541   0.234  0.5550  0.6496  0.7092
 2132SOL    HW217856   0.359   1.464   0.110 -0.6720  1.1461  0.6002
 2133SOL     OW17857   4.101   3.775   8.652 -0.3165 -0.1194  0.5196
 2133SOL    HW117858   4.067   3.864   8.660  1.0626  0.2761  2.1649
 2133SOL    HW217859   4.180   3.789   8.705  0.4853 -3.3202  0.1947
 2134SOL     OW17860   3.392   4.235   2.501  0.2564 -0.3793 -0.3632
 2134SOL    HW117861   3.424   4.252   2.413  0.8079  1.4050  0.1881
 2134SOL    HW217862   3.376   4.322   2.538 -0.8735 -0.6053 -0.3095
 2135SOL     OW17863   0.487   1.380  11.752  0.4343  0.4423 -0.3731
 2135SOL    HW117864   0.498   1.303  11.809 -1.0542 -0.2303 -1.0066
 2135SOL    HW217865   0.570   1.364  11.706  1.0453  1.7675  0.2602
 2136SOL     OW17866   0.376   0.914   7.252  0.4604  0.3920 -0.5114
 2136SOL    HW117867   0.288   0.890   7.282  0.9028 -2.2131 -1.2980
 2136SOL    HW217868   0.416   0.832   7.226 -0.7792 -0.2933 -0.2735
 2137SOL     OW17869   3.786   2.976   3.889 -0.3235  0.3972 -0.0405
 2137SOL    HW117870   3.819   3.065   3.900  1.2967  0.2402 -3.5609
 2137SOL    HW217871   3.735   2.991   3.809  0.3857 -1.2645 -0.7929
 2138SOL     OW17872   4.539   4.000   1.714 -0.2966 -1.0209 -0.2379
 2138SOL    HW117873   4.513   3.940   1.645  3.6028 -0.9748 -1.7307
 2138SOL    HW217874   4.465   4.009   1.774  0.6136 -0.9546  0.8756
 2139SOL     OW17875   2.811   4.543   4.232  0.0753 -0.8831  0.1435
 2139SOL    HW117876   2.716   4.538   4.240  0.2830 -0.0643  3.2206
 2139SOL    HW217877   2.840   4.470   4.177 -0.7407  0.8477 -2.5599
 2140SOL     OW17878   1.899   0.259   9.035  0.5831  0.5669 -0.5623
 2140SOL    HW117879   1.864   0.192   8.975  1.1806 -1.5859  1.4918
 2140SOL    HW217880   1.941   0.208   9.104 -1.4671  1.1323  1.0936
 2141SOL     OW17881   4.712   3.662   7.511  0.3343  0.3504  0.4629
 2141SOL    HW117882   4.705   3.664   7.607 -0.0272 -1.5006  0.4750
 2141SOL    HW217883   0.013   3.754   7.497  0.5719 -0.0685 -1.7417
 2142SOL     OW17884   3.505   3.467  15.570  0.3638  0.7992  0.3347
 2142SOL    HW117885   3.465   3.547  15.538 -1.2840  0.0207  0.4059
 2142SOL    HW217886   3.549   3.498  15.649 -0.1479  1.2790  0.4343
 2143SOL     OW17887   0.678   2.229   7.682 -0.6969  0.6803  0.3331
 2143SOL    HW117888   0.679   2.319   7.649  2.7151  0.7101  0.5484
 2143SOL    HW217889   0.753   2.236   7.741 -1.7518  2.1150  1.5180
 2144SOL     OW17890   3.995   0.787   2.629 -0.6581 -0.4198  0.1932
 2144SOL    HW117891   4.060   0.720   2.650  1.0087  0.5731 -1.7197
 2144SOL    HW217892   3.978   0.765   2.537 -0.5722  1.8698 -0.3715
 2145SOL     OW17893   1.241   1.251   7.675  0.5232  0.2737 -0.2026
 2145SOL    HW117894   1.203   1.177   7.723  1.1705 -0.3720 -0.7031
 2145SOL    HW217895   1.200   1.237   7.590 -1.2258  0.3046  0.6170
 2146SOL     OW17896   3.929   2.018   9.328 -0.1080  0.4412 -0.3795
 2146SOL    HW117897   3.856   2.025   9.390 -1.6397  1.2033 -2.2531
 2146SOL    HW217898   3.926   2.107   9.291 -0.8274  1.0316  1.1174
 2147SOL     OW17899   3.800   1.152   4.645  0.1626  0.2431  0.3499
 2147SOL    HW117900   3.759   1.079   4.597  0.3456  1.2781 -1.3546
 2147SOL    HW217901   3.771   1.226   4.592 -1.9132 -0.7507  0.1030
 2148SOL     OW17902   4.679   4.166   6.804 -0.4246  0.6644 -0.3898
 2148SOL    HW117903   4.699   4.217   6.883 -1.7979  0.6802 -0.0359
 2148SOL    HW217904   4.603   4.118   6.838  1.3369 -1.7791  0.0255
 2149SOL     OW17905   1.778   0.630   5.911  0.1964 -0.4928 -0.6680
 2149SOL    HW117906   1.723   0.677   5.973  0.8231 -0.2729 -0.2771
 2149SOL    HW217907   1.762   0.541   5.943 -0.3455 -0.2130 -0.1688
 2150SOL     OW17908   4.683   0.091   9.078 -0.6448  0.3019  0.7140
 2150SOL    HW117909   4.599   0.065   9.040  0.0023  1.5721 -1.6313
 2150SOL    HW217910   4.653   0.103   9.168  2.3454  0.9266  1.6455
 2151SOL     OW17911   1.849   1.198   1.486 -0.0494  0.3815 -0.1471
 2151SOL    HW117912   1.929   1.218   1.439  0.6973 -1.1916  0.4625
 2151SOL    HW217913   1.852   1.266   1.555 -1.0044 -0.3985  0.6673
 2152SOL     OW17914   3.289   2.650   7.952  0.1654  0.0470 -0.6151
 2152SOL    HW117915   3.292   2.558   7.926 -0.4992 -0.0391 -0.3959
 2152SOL    HW217916   3.213   2.674   7.899 -1.1625 -0.4591  1.0802
 2153SOL     OW17917   3.520   1.812   9.924 -0.2902  0.0971  0.3245
 2153SOL    HW117918   3.533   1.853   9.838  0.2377 -0.8225 -0.0299
 2153SOL    HW217919   3.426   1.800   9.933 -0.4793  1.7076  0.4708
 2154SOL     OW17920   1.203   3.287   2.159 -0.9244  0.2518  0.1765
 2154SOL    HW117921   1.172   3.371   2.123 -3.7685 -0.1784  1.6475
 2154SOL    HW217922   1.277   3.314   2.213 -0.4609  1.4101 -1.0165
 2155SOL     OW17923   4.404   3.528   5.156  0.0573 -0.2080  0.0621
 2155SOL    HW117924   4.489   3.506   5.118  0.6994  1.1660  0.6956
 2155SOL    HW217925   4.356   3.453   5.122  1.2183 -0.2415 -1.5022
 2156SOL     OW17926   4.111   2.721   1.356  0.0411  0.1202  0.0119
 2156SOL    HW117927   4.034   2.778   1.362 -1.8432 -2.4678  0.7425
 2156SOL    HW217928   4.102   2.674   1.273 -0.0374 -1.0635  0.6920
 2157SOL     OW17929   3.701   0.224   2.265  0.2769  0.7275  0.2346
 2157SOL    HW117930   3.743   0.294   2.216  1.4537  0.3638  0.7186
 2157SOL    HW217931   3.762   0.150   2.258 -0.1451  0.3504  0.5156
 2158SOL     OW17932   2.606   0.651   1.155  0.2540 -0.0521 -1.3867
 2158SOL    HW117933   2.580   0.738   1.185  1.0754  0.4091 -1.9917
 2158SOL    HW217934   2.549   0.593   1.205  0.9506  2.2493  2.0948
 2159SOL     OW17935   1.512   0.340   5.819  0.0570 -0.1745  0.2762
 2159SOL    HW117936   1.517   0.263   5.763 -2.7658  0.1226 -0.3726
 2159SOL    HW217937   1.512   0.405   5.748  2.9142  0.2458  0.6459
 2160SOL     OW17938   0.350   0.595   7.818  0.7113  0.3291  0.3526
 2160SOL    HW117939   0.290   0.595   7.892  0.5105  0.4046  0.1909
 2160SOL    HW217940   0.427   0.599   7.875  1.0889  1.0967 -0.2035
 2161SOL     OW17941   3.408   0.731   2.178 -0.2314  0.1950 -0.3569
 2161SOL    HW117942   3.405   0.701   2.269  4.0444  1.2313  0.1149
 2161SOL    HW217943   3.448   0.661   2.126  0.6961  1.6606 -1.6413
 2162SOL     OW17944   3.296   3.874  16.908 -0.2332  0.1184 -0.3135
 2162SOL    HW117945   3.252   3.836  16.984  0.6970 -1.2735 -0.4650
 2162SOL    HW217946   3.365   3.923  16.953  0.1032  0.3527 -1.0930
 2163SOL     OW17947   0.890   1.210   6.304 -0.5284  0.0192  0.3532
 2163SOL    HW117948   0.941   1.288   6.327  1.7540 -1.0495 -1.2168
 2163SOL    HW217949   0.943   1.147   6.353  2.2541  0.7635 -1.7305
 2164SOL     OW17950   1.363   2.544   7.592 -0.0615  0.1171 -0.6595
 2164SOL    HW117951   1.268   2.544   7.604  0.3004  2.3943  2.1377
 2164SOL    HW217952   1.388   2.464   7.639 -1.8332  0.1464  0.3239
 2165SOL     OW17953   3.481   3.621   1.158  0.0869 -0.0296  0.1215
 2165SOL    HW117954   3.449   3.540   1.117 -1.5898  0.1845  1.0106
 2165SOL    HW217955   3.527   3.667   1.088  1.5238 -0.1386  0.9977
 2166SOL     OW17956   2.203   0.145  10.116 -0.1226 -0.5649  0.3667
 2166SOL    HW117957   2.139   0.075  10.110 -2.2085  1.2296  1.5855
 2166SOL    HW217958   2.142   0.214  10.144  0.8309 -0.2313  1.6171
 2167SOL     OW17959   4.403   3.730   8.026  0.3807 -0.0124 -0.2987
 2167SOL    HW117960   4.418   3.643   8.065 -2.6153  0.1454  1.2606
 2167SOL    HW217961   4.313   3.745   8.054  0.3457  2.2847 -1.6561
 2168SOL     OW17962   3.301   4.302  11.419 -0.1282  0.7102  0.5707
 2168SOL    HW117963   3.213   4.332  11.397 -0.5651 -0.3603  0.8528
 2168SOL    HW217964   3.290   4.214  11.456 -0.1104 -0.2365 -1.7292
 2169SOL     OW17965   3.853   3.136   2.221 -0.0630  0.6157  0.2771
 2169SOL    HW117966   3.894   3.055   2.191  4.5159  2.2806  2.0608
 2169SOL    HW217967   3.926   3.183   2.261 -0.7430  0.7535  1.3752
 2170SOL     OW17968   2.947   0.948   2.920 -0.0658  0.7306 -0.2468
 2170SOL    HW117969   2.872   0.936   2.862  0.3681  0.1909 -0.6919
 2170SOL    HW217970   2.957   1.043   2.912 -1.2622  0.9384  0.6917
 2171SOL     OW17971   4.179   0.713   3.369 -0.2877  0.3375 -0.2963
 2171SOL    HW117972   4.134   0.631   3.391 -0.9190  1.5471  3.0253
 2171SOL    HW217973   4.264   0.678   3.343  0.0204  1.7151 -1.1014
 2172SOL     OW17974   2.629   4.092   3.670  0.1937 -0.5736  0.1990
 2172SOL    HW117975   2.718   4.058   3.679  0.0537 -0.0371  3.5743
 2172SOL    HW217976   2.628   4.104   3.575  0.7801  2.3693  0.5486
 2173SOL     OW17977   3.365   4.204  12.145  0.2598 -0.2503  0.2525
 2173SOL    HW117978   3.288   4.191  12.200 -0.0829 -1.2912 -0.4634
 2173SOL    HW217979   3.429   4.166  12.205 -2.9245 -0.2712  3.6477
 2174SOL     OW17980   4.705   1.486  16.854  0.3775 -0.3378  0.0897
 2174SOL    HW117981   0.044   1.476  16.783 -0.9701  2.8197 -1.5554
 2174SOL    HW217982   4.685   1.579  16.842  0.6631 -0.1146  1.2904
 2175SOL     OW17983   2.833   3.454   4.314  0.1180 -0.2408 -0.0974
 2175SOL    HW117984   2.872   3.376   4.272  0.5976  1.0593 -2.0923
 2175SOL    HW217985   2.904   3.478   4.374 -1.4234 -0.6367  1.8525
 2176SOL     OW17986   3.559   3.986   4.454  0.0825 -0.7017  0.1619
 2176SOL    HW117987   3.613   3.938   4.517 -0.2204 -0.7043  0.4166
 2176SOL    HW217988   3.476   3.977   4.500 -0.5544 -1.7101 -1.1644
 2177SOL     OW17989   0.042   1.812  17.397 -0.5388 -0.0833 -0.1426
 2177SOL    HW117990   4.715   1.873  17.343  0.5184  0.4309 -0.5656
 2177SOL    HW217991   4.714   1.810  17.478  2.0523 -4.0524  1.3979
 2178SOL     OW17992   1.931   3.756   4.647 -0.2069 -0.1422 -0.1499
 2178SOL    HW117993   1.849   3.805   4.653 -1.2053 -1.5392 -2.4579
 2178SOL    HW217994   1.946   3.745   4.741  1.7875 -0.0102 -0.4406
 2179SOL     OW17995   4.723   0.768   8.007 -0.3280 -0.2888  0.4874
 2179SOL    HW117996   4.668   0.770   8.086 -0.3132 -1.2023  0.5101
 2179SOL    HW217997   4.689   0.849   7.968  0.9323  1.3648  2.7892
 2180SOL     OW17998   0.590   1.549   0.363 -0.2620  0.3521  0.2121
 2180SOL    HW117999   0.556   1.512   0.445  4.2934 -1.3012  1.3987
 2180SOL    HW218000   0.517   1.516   0.311  0.9271 -3.6537  1.1046
 2181SOL     OW18001   0.857   2.794   6.233  0.2481 -0.0402 -0.2427
 2181SOL    HW118002   0.899   2.776   6.317 -0.3658  1.2936  0.3460
 2181SOL    HW218003   0.837   2.708   6.197  1.0286  0.1813 -1.2102
 2182SOL     OW18004   2.333   1.597   2.007  0.6036  0.4770 -0.0581
 2182SOL    HW118005   2.378   1.588   2.091 -2.0777 -0.1194  1.3164
 2182SOL    HW218006   2.406   1.624   1.951 -0.3331  0.6581 -1.1975
 2183SOL     OW18007   0.992   2.960   2.896  0.0652 -0.4296 -0.0098
 2183SOL    HW118008   0.974   2.880   2.946 -1.6213 -0.1424 -0.1551
 2183SOL    HW218009   0.973   2.937   2.806 -0.4357 -0.9219  0.2210
 2184SOL     OW18010   2.155   3.088   3.927 -0.7921  0.3157  0.1285
 2184SOL    HW118011   2.073   3.095   3.878 -1.9293 -0.4334  1.9280
 2184SOL    HW218012   2.198   3.173   3.919 -1.8755  1.0806  2.1853
 2185SOL     OW18013   3.017   4.332   3.038  0.0770 -0.1310  0.2271
 2185SOL    HW118014   3.061   4.265   3.090  0.6910 -1.2034 -1.6829
 2185SOL    HW218015   3.071   4.337   2.959  0.4200 -0.9746  0.4193
 2186SOL     OW18016   4.133   1.438   2.463 -0.7480 -0.1029  0.3974
 2186SOL    HW118017   4.108   1.478   2.546 -2.0243  0.1781 -0.1183
 2186SOL    HW218018   4.199   1.373   2.486 -1.5693 -0.0525  2.8475
 2187SOL     OW18019   1.128   1.749   4.476 -1.0399  0.4543  0.0211
 2187SOL    HW118020   1.121   1.831   4.525 -0.0214 -0.9508  2.5616
 2187SOL    HW218021   1.042   1.752   4.434  0.6681  0.7345 -3.4363
 2188SOL     OW18022   4.115   3.204   7.537 -0.0456 -0.1203 -0.2730
 2188SOL    HW118023   4.103   3.297   7.554 -1.1690 -0.4459  0.6524
 2188SOL    HW218024   4.149   3.181   7.623  1.6049  0.4569 -0.7673
 2189SOL     OW18025   1.728   1.256   6.222  0.8689 -0.5103  0.3710
 2189SOL    HW118026   1.690   1.173   6.194 -2.0052  2.3344 -4.1133
 2189SOL    HW218027   1.696   1.276   6.310  0.9743  2.1144 -0.1900
 2190SOL     OW18028   3.719   2.189  16.473  0.1758  0.4138 -0.3049
 2190SOL    HW118029   3.702   2.255  16.540  1.5018 -0.6483  1.0849
 2190SOL    HW218030   3.787   2.139  16.519 -1.5740 -0.2353  1.5322
 2191SOL     OW18031   0.118   4.420   0.704 -0.2938 -0.9506 -0.8128
 2191SOL    HW118032   0.204   4.381   0.721 -0.4827 -0.2679  1.7109
 2191SOL    HW218033   0.102   4.375   0.621 -1.8219 -2.6488  0.4164
 2192SOL     OW18034   1.001   1.836   9.482  0.0745  0.8093 -0.4248
 2192SOL    HW118035   1.039   1.918   9.516 -2.0218  1.3793  0.5557
 2192SOL    HW218036   1.075   1.784   9.512 -1.8130 -1.8258 -0.3830
 2193SOL     OW18037   2.327   0.607   2.526  0.7470  0.2517  0.6465
 2193SOL    HW118038   2.273   0.632   2.600  0.3126  0.4056  0.2743
 2193SOL    HW218039   2.270   0.541   2.487 -2.2530  1.7141  2.5547
 2194SOL     OW18040   4.477   0.907   7.860 -0.2125  0.2461 -0.1737
 2194SOL    HW118041   4.420   0.939   7.790 -0.2823 -1.4988 -0.9006
 2194SOL    HW218042   4.505   0.821   7.830  1.5721  0.2506  1.5204
 2195SOL     OW18043   4.335   2.372   8.060 -0.2340  0.4626  0.0582
 2195SOL    HW118044   4.404   2.396   7.998  2.3252 -0.2034  2.6554
 2195SOL    HW218045   4.379   2.308   8.115 -0.6912 -0.0539 -0.1848
 2196SOL     OW18046   1.475   2.067   0.104 -0.4277  0.0154  0.0244
 2196SOL    HW118047   1.513   1.980   0.115  1.1943  0.4888 -1.9160
 2196SOL    HW218048   1.425   2.086   0.183  0.3319  1.9779  0.0217
 2197SOL     OW18049   3.290   3.503   2.691  0.7464 -0.6444  0.1929
 2197SOL    HW118050   3.240   3.492   2.772  1.3981 -3.1308  0.2643
 2197SOL    HW218051   3.365   3.548   2.729 -0.9060  0.7929  1.7813
 2198SOL     OW18052   3.276   3.957   2.743 -0.2085  0.0654 -0.5614
 2198SOL    HW118053   3.219   4.013   2.690 -1.1553  0.2258  0.6235
 2198SOL    HW218054   3.293   3.881   2.688  2.6373 -1.1044  1.8931
 2199SOL     OW18055   4.451   0.641  15.362  0.3055 -0.0029 -0.4113
 2199SOL    HW118056   4.359   0.665  15.373 -0.2198 -2.5906  0.7972
 2199SOL    HW218057   4.489   0.697  15.429 -0.7104  0.4283 -0.1861
 2200SOL     OW18058   4.273   0.715   4.738  0.6467 -0.1211  0.3330
 2200SOL    HW118059   4.282   0.620   4.728  0.3106 -0.1046 -0.1565
 2200SOL    HW218060   4.278   0.735   4.831  1.3586  1.4267 -0.0494
 2201SOL     OW18061   0.943   0.533  14.443 -0.0326  0.2624  0.2829
 2201SOL    HW118062   0.887   0.611  14.445  2.2569  1.9935 -1.7790
 2201SOL    HW218063   0.953   0.508  14.535  1.1054  0.4426  0.2062
 2202SOL     OW18064   1.204   3.001   4.469 -0.6929  0.0035 -0.0980
 2202SOL    HW118065   1.130   3.056   4.445  0.3900  0.4912 -2.3501
 2202SOL    HW218066   1.274   3.059   4.439 -0.3803  0.5310  1.6369
 2203SOL     OW18067   2.749   2.737  14.758 -0.1049 -0.3656 -0.0131
 2203SOL    HW118068   2.756   2.806  14.692  2.2883 -0.9725 -0.4147
 2203SOL    HW218069   2.665   2.695  14.741 -0.8885  0.7928  0.9413
 2204SOL     OW18070   4.035   2.480   2.658 -0.2002  0.1991  0.0793
 2204SOL    HW118071   4.057   2.393   2.691 -2.0910 -0.7583 -1.1782
 2204SOL    HW218072   4.099   2.529   2.709  1.8676 -2.4067 -0.0253
 2205SOL     OW18073   3.305   0.554   7.099  0.2570 -0.1682 -0.4621
 2205SOL    HW118074   3.326   0.641   7.133  0.2269  0.4369 -1.9846
 2205SOL    HW218075   3.390   0.510   7.107  0.7458  0.9053  0.1978
 2206SOL     OW18076   3.320   4.657   8.101  0.4146 -0.3542  0.2098
 2206SOL    HW118077   3.237   4.649   8.148  1.1594 -0.4694  1.4905
 2206SOL    HW218078   3.370   4.580   8.127 -0.3602 -0.9103  0.0514
 2207SOL     OW18079   1.146   1.630   6.183  0.0901  0.1112 -0.3470
 2207SOL    HW118080   1.150   1.714   6.137  0.1321  1.2096  1.6791
 2207SOL    HW218081   1.161   1.659   6.273 -1.4139  1.4797 -0.5455
 2208SOL     OW18082   1.695   4.566   8.593  0.3167  0.3109  0.1978
 2208SOL    HW118083   1.699   4.662   8.591  0.3459  0.2939 -0.5780
 2208SOL    HW218084   1.637   4.552   8.518  1.3725 -1.3213 -0.3043
 2209SOL     OW18085   1.744   0.901  10.402  0.6028 -0.4889 -0.2930
 2209SOL    HW118086   1.711   0.893  10.313  0.0250 -0.7844 -0.0479
 2209SOL    HW218087   1.839   0.910  10.389  0.7321  1.1318  1.6545
 2210SOL     OW18088   1.747   4.643   9.677 -0.3018  0.0006 -0.0483
 2210SOL    HW118089   1.689   4.649   9.601  1.0820  1.3515 -0.9996
 2210SOL    HW218090   1.676   4.664   9.739 -0.8933  3.2242 -1.7828
 2211SOL     OW18091   4.568   2.818   8.500  0.0355  0.2895  0.7815
 2211SOL    HW118092   4.626   2.874   8.447  0.8858 -2.5170 -1.2462
 2211SOL    HW218093   4.615   2.806   8.582  0.6312 -1.1174  0.2305
 2212SOL     OW18094   1.604   3.269   8.384  0.2343 -0.2713  0.3193
 2212SOL    HW118095   1.552   3.234   8.457  2.0218  0.9783  2.1961
 2212SOL    HW218096   1.667   3.316   8.438  1.7689 -0.1782 -1.5648
 2213SOL     OW18097   0.050   1.850   0.291 -0.6814 -0.1516 -0.4124
 2213SOL    HW118098   0.070   1.784   0.225 -2.8902  0.4693 -1.7012
 2213SOL    HW218099   4.688   1.820   0.323 -0.5085 -0.9481 -0.7147
 2214SOL     OW18100   0.058   2.172  10.201  0.1489  0.6810  0.1821
 2214SOL    HW118101   0.068   2.098  10.261 -0.3592  0.5996  0.1704
 2214SOL    HW218102   0.007   2.232  10.255 -0.1114  0.1085  0.5720
 2215SOL     OW18103   2.198   1.497  15.982  0.4871 -0.1938  0.1483
 2215SOL    HW118104   2.191   1.505  16.077  2.8321  1.3253  0.2078
 2215SOL    HW218105   2.212   1.403  15.971  0.5059 -0.2130  0.3305
 2216SOL     OW18106   0.550   4.086   9.192 -0.0759 -0.1383 -0.4581
 2216SOL    HW118107   0.529   4.103   9.284 -1.8353 -0.1656 -0.8502
 2216SOL    HW218108   0.461   4.075   9.158 -0.0274 -1.2949 -0.2177
 2217SOL     OW18109   1.680   1.774  13.427  0.1501  0.3215  0.0557
 2217SOL    HW118110   1.592   1.785  13.392  0.7517  2.9623 -0.6000
 2217SOL    HW218111   1.654   1.790  13.518 -0.0482 -0.9201  0.2147
 2218SOL     OW18112   1.160   1.292   4.517  0.2958  0.5526 -0.2269
 2218SOL    HW118113   1.080   1.328   4.555  0.9934  1.6055  0.2347
 2218SOL    HW218114   1.188   1.231   4.585  2.2085 -2.1911 -3.4711
 2219SOL     OW18115   2.858   4.294   8.168  0.6952  0.7363 -0.0560
 2219SOL    HW118116   2.899   4.211   8.190  0.1067  0.4212 -0.1236
 2219SOL    HW218117   2.932   4.341   8.130  1.8361 -0.7562  0.3249
 2220SOL     OW18118   0.675   3.121   5.238  0.0900  0.0175  0.3588
 2220SOL    HW118119   0.683   3.187   5.307 -2.6498  1.4249 -0.6549
 2220SOL    HW218120   0.582   3.098   5.247 -0.2690  0.5238 -1.7928
 2221SOL     OW18121   1.571   3.600   9.978  0.4606 -0.2188  0.1590
 2221SOL    HW118122   1.499   3.602   9.914  1.5695  0.4668 -1.0658
 2221SOL    HW218123   1.631   3.663   9.939  0.1370  0.6443  1.0530
 2222SOL     OW18124   3.637   1.191  14.487 -0.5563  0.8515 -0.5895
 2222SOL    HW118125   3.699   1.166  14.419 -0.5566  1.1688 -0.7100
 2222SOL    HW218126   3.571   1.125  14.466 -0.3249  0.9501 -1.6288
 2223SOL     OW18127   2.361   0.914   2.018  0.1660  0.9185  0.1427
 2223SOL    HW118128   2.379   0.856   1.944 -1.2139  1.5370 -0.6673
 2223SOL    HW218129   2.265   0.912   2.023  0.2275 -2.1102 -0.0704
 2224SOL     OW18130   0.371   2.842   7.256 -0.1030 -0.4500  0.0309
 2224SOL    HW118131   0.386   2.763   7.204  1.8833  0.0069 -0.0781
 2224SOL    HW218132   0.300   2.884   7.209  1.6088 -0.0807 -2.1954
 2225SOL     OW18133   0.651   3.556   5.200  0.4963 -0.6005 -0.3942
 2225SOL    HW118134   0.703   3.542   5.122 -0.3053  1.3212 -1.2604
 2225SOL    HW218135   0.669   3.476   5.250  0.5312 -1.4044 -1.7110
 2226SOL     OW18136   0.012   0.981   5.979  0.2868  0.6564  0.0599
 2226SOL    HW118137   4.650   1.019   5.961 -0.0584 -1.1045 -2.0283
 2226SOL    HW218138   0.067   1.060   5.982  0.5225  0.4474  1.2216
 2227SOL     OW18139   0.112   1.648   7.371 -0.3859 -0.3202 -0.1040
 2227SOL    HW118140   0.185   1.684   7.320 -0.7193  0.3253 -0.1237
 2227SOL    HW218141   0.111   1.560   7.334  1.7382  0.0620 -1.0972
 2228SOL     OW18142   2.559   3.118   2.960  0.1179  0.2228 -0.0897
 2228SOL    HW118143   2.480   3.172   2.969  2.8385  4.2868 -0.2357
 2228SOL    HW218144   2.604   3.153   2.884 -1.4603 -2.1511 -2.0909
 2229SOL     OW18145   1.411   1.846  13.859  0.1054 -0.2624 -0.0228
 2229SOL    HW118146   1.330   1.885  13.893  1.6292  2.1517  0.8169
 2229SOL    HW218147   1.453   1.923  13.820  1.7618 -0.9497  0.4190
 2230SOL     OW18148   2.075   4.504   0.135 -0.0063  0.3602  0.1942
 2230SOL    HW118149   2.023   4.574   0.174  0.8172  0.0027  1.9142
 2230SOL    HW218150   2.029   4.424   0.163  1.3860 -0.8185 -0.8703
 2231SOL     OW18151   4.262   1.503   4.799  0.3086  0.1950  0.0914
 2231SOL    HW118152   4.288   1.548   4.718  0.5038  0.4988  0.3208
 2231SOL    HW218153   4.174   1.473   4.776 -0.0717  0.6332  0.9538
 2232SOL     OW18154   3.023   1.448   1.003 -0.3551  0.5888 -0.1192
 2232SOL    HW118155   3.089   1.471   0.938 -1.0725  1.2114 -0.6306
 2232SOL    HW218156   3.022   1.354   0.986 -0.4555  0.3682  1.1259
 2233SOL     OW18157   1.942   1.058  14.030 -0.2028 -0.7839  0.0510
 2233SOL    HW118158   1.962   1.122  13.961  1.3296  0.2811  1.4934
 2233SOL    HW218159   2.027   1.032  14.065  0.3138  1.1699  0.2624
 2234SOL     OW18160   2.011   4.669   3.547 -0.0972 -0.1774 -1.0350
 2234SOL    HW118161   1.929   4.629   3.518 -0.6017  0.5425 -0.6205
 2234SOL    HW218162   1.993   4.686   3.639  0.4911 -2.9400 -0.4213
 2235SOL     OW18163   3.897   3.023   5.022 -0.1881 -0.8809 -0.4630
 2235SOL    HW118164   3.892   3.119   5.023  0.9746 -0.8338  2.3304
 2235SOL    HW218165   3.971   2.999   5.078  0.2631 -1.9563 -1.5358
 2236SOL     OW18166   3.261   1.262   1.897 -0.2895 -0.5253  0.2546
 2236SOL    HW118167   3.300   1.203   1.833  1.9911 -0.4067  1.5083
 2236SOL    HW218168   3.234   1.337   1.844  0.7195 -0.6131 -0.3900
 2237SOL     OW18169   2.919   1.954   0.065  0.0031 -0.3376  0.2063
 2237SOL    HW118170   2.864   1.950  17.682 -0.8409  0.2065  0.7685
 2237SOL    HW218171   2.857   2.011   0.110  1.5872  0.3600  1.4881
 2238SOL     OW18172   3.115   0.621  10.774 -0.8778 -0.0785 -0.5499
 2238SOL    HW118173   3.065   0.665  10.705  1.2210 -0.1261 -2.1331
 2238SOL    HW218174   3.074   0.666  10.847 -0.6413 -0.2801 -0.2937
 2239SOL     OW18175   3.249   1.442   3.479 -0.0500 -0.0056  0.3789
 2239SOL    HW118176   3.284   1.365   3.525  0.7668  0.6084  0.7764
 2239SOL    HW218177   3.186   1.393   3.426  1.4276 -1.3655 -0.1240
 2240SOL     OW18178   0.022   4.345  16.117  0.2899  0.1827 -0.1260
 2240SOL    HW118179   4.699   4.276  16.164  0.6126 -0.5961 -0.9453
 2240SOL    HW218180   0.017   4.315  16.026  2.3476 -0.7303  0.0681
 2241SOL     OW18181   1.992   4.609   8.201  0.1301 -0.0165 -0.2854
 2241SOL    HW118182   1.941   4.528   8.198  2.0914 -1.1876 -1.2231
 2241SOL    HW218183   1.932   4.684   8.199  1.1734  0.8425  0.7011
 2242SOL     OW18184   4.689   4.442  10.908 -0.6056 -0.2034 -0.0653
 2242SOL    HW118185   4.681   4.501  10.833 -0.6103  1.1679  0.9966
 2242SOL    HW218186   4.658   4.503  10.975 -0.1440  0.2647 -0.2724
 2243SOL     OW18187   0.067   4.609  17.079  0.0782 -0.2256 -0.3490
 2243SOL    HW118188   0.053   4.679  17.014 -0.9445 -0.8071 -0.7443
 2243SOL    HW218189   4.702   4.573  17.080 -0.0073  0.0217  0.6508
 2244SOL     OW18190   3.041   0.950   1.741 -0.1432 -0.0819 -0.0250
 2244SOL    HW118191   2.974   0.882   1.727  0.5995 -0.9418  0.5544
 2244SOL    HW218192   3.077   0.908   1.819 -0.9471  1.1405  1.0101
 2245SOL     OW18193   4.609   2.710  13.502 -0.6022  0.6195 -0.6149
 2245SOL    HW118194   4.580   2.793  13.540  0.4591  0.1769  1.1764
 2245SOL    HW218195   4.528   2.659  13.505  1.0215 -1.9977 -1.2209
 2246SOL     OW18196   1.073   4.494  11.092 -0.4403 -0.5530 -0.3907
 2246SOL    HW118197   1.110   4.508  11.179  1.1562 -0.2625 -1.1032
 2246SOL    HW218198   1.053   4.583  11.063  0.2375 -0.7059 -1.3280
 2247SOL     OW18199   4.250   4.052  10.503  0.0380  0.2351  0.0924
 2247SOL    HW118200   4.328   4.033  10.556  0.1093  0.3022  0.0128
 2247SOL    HW218201   4.195   4.115  10.548  0.2259 -0.6351  1.5372
 2248SOL     OW18202   0.428   3.425   9.051  0.2228 -0.2594  0.7051
 2248SOL    HW118203   0.480   3.362   9.002 -0.4493 -0.4602  0.2563
 2248SOL    HW218204   0.362   3.451   8.987  0.5176  0.2954  0.6232
 2249SOL     OW18205   1.439   0.608  12.018 -0.3353 -0.3344 -0.1657
 2249SOL    HW118206   1.514   0.604  11.959  0.6703 -2.6257  1.2442
 2249SOL    HW218207   1.481   0.592  12.103  0.1661 -1.1853 -0.5650
 2250SOL     OW18208   1.951   4.021   5.544 -0.2579 -0.0648  0.0349
 2250SOL    HW118209   1.933   3.957   5.475 -1.0607 -0.7635  0.8839
 2250SOL    HW218210   1.926   4.106   5.507 -0.8778 -0.0898  0.3929
 2251SOL     OW18211   0.446   3.392  16.773 -0.1045  0.2996 -0.2532
 2251SOL    HW118212   0.459   3.337  16.696  1.7506 -0.0069  0.2908
 2251SOL    HW218213   0.438   3.321  16.837  0.4830  0.2174 -0.2672
 2252SOL     OW18214   3.995   2.301   7.049  0.0923 -0.0030 -0.0739
 2252SOL    HW118215   3.936   2.356   6.997  0.0826  0.5573  0.5289
 2252SOL    HW218216   3.944   2.291   7.129 -1.0658 -1.3757 -0.9941
 2253SOL     OW18217   4.247   3.737  10.527 -0.1527  0.6611 -0.3840
 2253SOL    HW118218   4.289   3.811  10.570  1.2387  0.4034 -1.2830
 2253SOL    HW218219   4.213   3.781  10.449 -0.7041 -1.5422 -1.3782
 2254SOL     OW18220   4.232   1.682   3.707  0.2547  0.1636  0.1733
 2254SOL    HW118221   4.247   1.610   3.646  0.1664  1.9523 -1.9757
 2254SOL    HW218222   4.258   1.641   3.789  1.3948  2.6967  1.0735
 2255SOL     OW18223   2.590   0.894   3.254 -0.4008  0.1682  0.5177
 2255SOL    HW118224   2.661   0.918   3.314  1.9357 -1.4124 -1.6012
 2255SOL    HW218225   2.510   0.902   3.305 -1.7435 -1.5010 -1.3042
 2256SOL     OW18226   3.813   4.582   8.177 -0.3155  0.1168  0.1420
 2256SOL    HW118227   3.833   4.622   8.262 -2.9832  0.2151  0.7473
 2256SOL    HW218228   3.805   4.491   8.205  0.7752 -0.6495 -2.0121
 2257SOL     OW18229   1.498   3.255   7.726 -0.9654 -0.0182  0.2051
 2257SOL    HW118230   1.477   3.271   7.819 -0.1223 -1.7882  0.6981
 2257SOL    HW218231   1.594   3.255   7.724 -0.9965 -1.0136 -0.7571
 2258SOL     OW18232   1.499   2.914   5.263 -0.5506  0.0563  0.3368
 2258SOL    HW118233   1.545   2.882   5.185 -0.5265  1.3300 -0.1611
 2258SOL    HW218234   1.413   2.946   5.236 -1.0779 -3.1354 -1.8625
 2259SOL     OW18235   3.856   1.600   5.834 -0.2098 -0.0975  0.4133
 2259SOL    HW118236   3.843   1.692   5.857  1.9942 -0.0368  1.4554
 2259SOL    HW218237   3.844   1.603   5.739 -0.3319 -1.7768  0.3768
 2260SOL     OW18238   2.557   4.579  11.231 -0.2653  0.0408  0.1585
 2260SOL    HW118239   2.472   4.536  11.244  0.1783 -1.6886 -2.4903
 2260SOL    HW218240   2.599   4.528  11.161  0.8599  1.0588  0.1054
 2261SOL     OW18241   0.183   0.691   5.072 -0.9532  0.1957 -0.0019
 2261SOL    HW118242   0.268   0.691   5.028 -2.0803  0.0928 -2.1543
 2261SOL    HW218243   0.156   0.782   5.061  1.4335  0.9662  0.4024
 2262SOL     OW18244   1.032   2.630  12.556 -0.8634  0.0740  0.6953
 2262SOL    HW118245   1.109   2.578  12.534 -1.0499  0.7320 -1.5096
 2262SOL    HW218246   1.029   2.664  12.467 -2.8788 -0.8096  0.4194
 2263SOL     OW18247   4.307   3.756   4.677 -0.5925 -0.7068  0.3004
 2263SOL    HW118248   4.265   3.800   4.750 -0.8702 -2.7937  1.3828
 2263SOL    HW218249   4.390   3.801   4.665 -1.1577 -0.3529 -2.4814
 2264SOL     OW18250   4.707   3.917   5.434 -0.1850  0.4441  0.1935
 2264SOL    HW118251   0.055   3.862   5.404  0.1198  1.0910 -0.2521
 2264SOL    HW218252   4.671   3.857   5.500  0.3655 -0.7495 -0.5959
 2265SOL     OW18253   2.355   2.944   8.693  0.0592  0.4433 -0.0211
 2265SOL    HW118254   2.402   3.027   8.702 -0.1103  0.4869  0.4322
 2265SOL    HW218255   2.432   2.889   8.703 -0.3181 -0.1705 -0.5013
 2266SOL     OW18256   3.671   4.719  11.292  0.6606 -0.4233 -0.4250
 2266SOL    HW118257   3.659   0.040  11.208 -0.6054 -1.5076 -0.8281
 2266SOL    HW218258   3.763   4.694  11.295  0.8154 -0.2230 -3.8655
 2267SOL     OW18259   0.621   3.708   4.625  0.5147  0.0871  0.8696
 2267SOL    HW118260   0.609   3.629   4.677  0.5717 -1.0492 -0.8496
 2267SOL    HW218261   0.544   3.701   4.569 -0.7458 -3.3936  3.0628
 2268SOL     OW18262   4.099   3.720  12.199 -0.3459  0.0087  0.0918
 2268SOL    HW118263   4.177   3.723  12.254  0.1403 -0.2642 -0.5859
 2268SOL    HW218264   4.063   3.635  12.227  0.6069 -0.9616 -1.6790
 2269SOL     OW18265   0.404   2.579   3.507 -0.5217 -0.5631  0.3002
 2269SOL    HW118266   0.345   2.525   3.560 -1.3923 -1.1874 -1.2837
 2269SOL    HW218267   0.339   2.646   3.486 -0.7579 -0.2425  2.1085
 2270SOL     OW18268   0.498   4.209   8.779 -0.5158 -0.1734  0.1771
 2270SOL    HW118269   0.591   4.226   8.787 -0.5057  0.8766 -2.4640
 2270SOL    HW218270   0.465   4.233   8.693  0.0434 -1.0178 -0.2710
 2271SOL     OW18271   3.096   0.411   4.631 -0.4194 -0.3006 -0.2461
 2271SOL    HW118272   3.073   0.324   4.664  0.2769 -0.2374  0.4053
 2271SOL    HW218273   3.125   0.385   4.544 -2.3750 -0.7951 -0.7583
 2272SOL     OW18274   0.227   4.039  14.734  0.2102 -0.2244  0.0588
 2272SOL    HW118275   0.231   4.005  14.645  0.5927 -2.2834  0.8760
 2272SOL    HW218276   0.185   4.124  14.718 -0.4853 -0.7989 -1.1390
 2273SOL     OW18277   3.070   4.441   7.798  0.3685  0.0982 -0.5797
 2273SOL    HW118278   3.148   4.475   7.755 -0.9752  1.5162 -1.9189
 2273SOL    HW218279   3.001   4.454   7.733  0.3779 -1.8079 -0.9787
 2274SOL     OW18280   1.664   0.492  10.750  0.0823  0.1397  0.7716
 2274SOL    HW118281   1.632   0.564  10.695  1.5833  1.4948  1.6971
 2274SOL    HW218282   1.703   0.441  10.679 -2.1540  0.1396 -0.4563
 2275SOL     OW18283   2.357   0.158  13.564  0.0195 -0.4709  0.0951
 2275SOL    HW118284   2.424   0.218  13.597  1.1569 -1.7841  0.1458
 2275SOL    HW218285   2.402   0.127  13.486 -0.6875 -0.3354 -0.3650
 2276SOL     OW18286   0.108   2.846  15.948 -0.2659 -0.5127 -0.1047
 2276SOL    HW118287   0.112   2.873  15.857 -3.6775  0.5889  0.0834
 2276SOL    HW218288   0.122   2.932  15.987 -1.4943 -0.1447 -0.4905
 2277SOL     OW18289   3.860   0.176  14.643 -0.4038 -0.1071  0.4317
 2277SOL    HW118290   3.945   0.159  14.684 -0.5013 -1.4967  0.0734
 2277SOL    HW218291   3.888   0.239  14.576  0.9735 -1.5349 -0.3316
 2278SOL     OW18292   3.132   4.384   8.085  0.0179 -0.6799  0.3289
 2278SOL    HW118293   3.091   4.400   8.000  0.1280  1.2503  0.6428
 2278SOL    HW218294   3.106   4.465   8.129  2.3324  0.8486 -1.1251
 2279SOL     OW18295   0.483   3.296   4.481  0.7227 -0.2782 -0.5367
 2279SOL    HW118296   0.541   3.247   4.423  0.3150 -1.6278  0.1928
 2279SOL    HW218297   0.516   3.245   4.555 -0.0119  0.6762  0.4469
 2280SOL     OW18298   2.953   3.416   5.775 -0.6075 -0.6527  0.2792
 2280SOL    HW118299   3.012   3.487   5.748 -0.1610 -1.2042 -0.2055
 2280SOL    HW218300   3.012   3.341   5.768  0.3154  0.0360  0.7217
 2281SOL     OW18301   4.363   0.683   2.517 -0.0926 -0.1344  0.3558
 2281SOL    HW118302   4.309   0.604   2.516 -0.8925  0.4329 -1.4874
 2281SOL    HW218303   4.427   0.666   2.448  0.4049 -0.2777  0.8509
 2282SOL     OW18304   3.285   0.463  14.890 -0.3780  0.1298  0.5429
 2282SOL    HW118305   3.247   0.531  14.835  0.5986 -1.6649 -2.3490
 2282SOL    HW218306   3.245   0.492  14.972 -0.3308 -1.1624  1.0156
 2283SOL     OW18307   4.648   3.522   3.716  0.0953 -0.2262  0.7980
 2283SOL    HW118308   4.596   3.444   3.698 -0.7712  0.3360  0.8399
 2283SOL    HW218309   0.013   3.488   3.709 -0.1256  0.0798 -3.2453
 2284SOL     OW18310   0.797   0.308   6.620 -0.4740  0.1862  0.1129
 2284SOL    HW118311   0.830   0.361   6.547 -0.5271  0.8809  0.5914
 2284SOL    HW218312   0.704   0.292   6.605  0.2615 -0.3270 -3.9446
 2285SOL     OW18313   0.187   3.384   9.226  0.3743  0.4902  0.3987
 2285SOL    HW118314   0.255   3.342   9.279  2.0793  0.1428 -2.0686
 2285SOL    HW218315   0.206   3.477   9.244  0.9339  0.5544 -0.5002
 2286SOL     OW18316   0.615   1.624   7.921  0.4840  0.6299  0.5286
 2286SOL    HW118317   0.564   1.554   7.961 -2.2444  1.1379 -2.0677
 2286SOL    HW218318   0.695   1.583   7.887  0.2249  1.2988 -0.8819
 2287SOL     OW18319   3.603   0.911   2.181 -0.7945  0.2132  0.5285
 2287SOL    HW118320   3.582   0.928   2.089 -2.6526 -0.6750  0.7900
 2287SOL    HW218321   3.528   0.860   2.212  0.0722 -2.1062 -1.2194
 2288SOL     OW18322   4.041   3.500   1.057  0.0758 -0.1629 -0.7128
 2288SOL    HW118323   4.010   3.441   1.126  0.9313  0.0953 -0.1063
 2288SOL    HW218324   4.000   3.580   1.091 -1.7745 -1.0837 -0.7477
 2289SOL     OW18325   1.272   2.535   8.001 -0.2080 -0.0594 -0.2366
 2289SOL    HW118326   1.326   2.514   7.924 -0.2136 -0.4098 -0.1457
 2289SOL    HW218327   1.285   2.460   8.058 -0.8597  0.3513  0.4522
 2290SOL     OW18328   0.908   2.799   1.906 -0.4967  0.3613 -0.0871
 2290SOL    HW118329   0.901   2.714   1.862 -0.9657  1.4629 -2.1718
 2290SOL    HW218330   1.003   2.796   1.918 -0.2856  0.3583 -1.7617
 2291SOL     OW18331   4.158   1.840   4.366  0.4837 -0.1539 -0.9340
 2291SOL    HW118332   4.207   1.885   4.297  0.9081  1.6641  0.5663
 2291SOL    HW218333   4.152   1.911   4.430  1.0791  1.8295 -3.0536
 2292SOL     OW18334   2.907   4.148   0.905  0.2327  0.6740  0.3478
 2292SOL    HW118335   2.926   4.144   0.999 -0.5643 -0.5890  0.4559
 2292SOL    HW218336   2.818   4.183   0.909  0.9664  2.7080 -1.2921
 2293SOL     OW18337   1.981   4.639   3.857  0.1656  0.3049  0.4931
 2293SOL    HW118338   1.950   0.003   3.836 -0.7995 -0.3026 -0.6606
 2293SOL    HW218339   2.068   4.640   3.896 -0.1562 -0.8692  1.2736
 2294SOL     OW18340   1.841   1.283  12.306 -0.1182  0.5374 -0.1381
 2294SOL    HW118341   1.869   1.229  12.380  0.2283 -1.2759 -1.5791
 2294SOL    HW218342   1.891   1.362  12.324  3.5378 -2.2444  1.7856
 2295SOL     OW18343   4.197   1.392  14.193  0.3002 -0.1486  0.1086
 2295SOL    HW118344   4.285   1.430  14.197 -0.9129  3.2030 -4.4734
 2295SOL    HW218345   4.209   1.313  14.245 -0.8671 -2.1102 -2.6182
 2296SOL     OW18346   3.154   3.427   8.273 -0.0586  0.0079  0.1451
 2296SOL    HW118347   3.193   3.446   8.359  2.1416  1.2864 -1.1432
 2296SOL    HW218348   3.230   3.420   8.215  1.1578  0.0881  1.7024
 2297SOL     OW18349   1.965   3.900  14.772 -0.0018  0.2467 -0.2847
 2297SOL    HW118350   1.872   3.877  14.783  0.5811 -1.1002  1.9213
 2297SOL    HW218351   1.981   3.869  14.683  1.0257  0.8584 -0.3030
 2298SOL     OW18352   1.132   3.576   5.336  0.1816  0.0599 -0.5028
 2298SOL    HW118353   1.162   3.519   5.266 -1.0446 -1.2348  0.0322
 2298SOL    HW218354   1.172   3.657   5.303 -3.5229  0.5926 -3.5464
 2299SOL     OW18355   0.609   0.943   4.795 -0.1102  0.0554 -0.0562
 2299SOL    HW118356   0.547   0.997   4.747  0.2788  0.2783 -0.3105
 2299SOL    HW218357   0.681   0.997   4.760 -1.8085  0.8819 -2.2628
 2300SOL     OW18358   4.440   2.505   9.245  0.2970  0.0388  0.3046
 2300SOL    HW118359   4.369   2.558   9.209 -0.7513 -1.7056 -0.1795
 2300SOL    HW218360   4.513   2.544   9.197  0.2885 -0.1906  0.1073
 2301SOL     OW18361   2.181   2.246   4.807 -0.5655 -0.0851 -0.2508
 2301SOL    HW118362   2.183   2.320   4.747 -1.9289  0.7774  0.7780
 2301SOL    HW218363   2.115   2.273   4.870 -0.6805 -0.2371 -0.3064
 2302SOL     OW18364   1.280   0.199  14.265 -0.3557 -0.1354  0.2146
 2302SOL    HW118365   1.327   0.165  14.189 -0.4454 -0.1321  0.1574
 2302SOL    HW218366   1.234   0.276  14.233  0.2536 -0.0777 -0.5281
 2303SOL     OW18367   3.324   0.064   7.850 -0.3263  0.4843  0.2804
 2303SOL    HW118368   3.331   0.017   7.933 -0.1920 -0.2796 -0.1635
 2303SOL    HW218369   3.277   0.139   7.886  1.4950  1.6974  0.1121
 2304SOL     OW18370   2.147   0.311  13.541 -0.0962 -0.3445  0.1849
 2304SOL    HW118371   2.221   0.251  13.544 -0.8538 -1.3607 -1.7199
 2304SOL    HW218372   2.124   0.291  13.450 -0.0369  0.1135  0.0704
 2305SOL     OW18373   2.151   1.330   2.476 -0.0176  0.1881 -0.6683
 2305SOL    HW118374   2.190   1.310   2.391  0.4290  2.8891 -1.1025
 2305SOL    HW218375   2.072   1.379   2.451 -1.3139 -0.6851  1.6984
 2306SOL     OW18376   3.083   2.902   8.147 -0.0093 -0.3175 -0.5148
 2306SOL    HW118377   3.144   2.936   8.081  0.4378  0.3543  0.2540
 2306SOL    HW218378   3.138   2.836   8.189 -0.4634 -1.1710 -1.2505
 2307SOL     OW18379   1.911   2.944   7.859  0.6543 -0.0408 -0.7806
 2307SOL    HW118380   1.881   2.913   7.945  0.3515 -0.5345 -1.0674
 2307SOL    HW218381   2.002   2.970   7.875  0.4592  0.5144 -0.5812
 2308SOL     OW18382   1.679   0.498   5.538 -0.1334  0.6050 -0.1355
 2308SOL    HW118383   1.596   0.545   5.539  0.7800  2.2851 -3.3949
 2308SOL    HW218384   1.718   0.537   5.460 -1.1826 -1.2821 -1.5925
 2309SOL     OW18385   0.140   3.098  16.031 -0.5811  0.4065  0.3267
 2309SOL    HW118386   0.078   3.163  16.064 -0.2466 -0.1579  2.0408
 2309SOL    HW218387   0.142   3.125  15.939  2.7432 -0.5600  0.1408
 2310SOL     OW18388   3.111   2.790   5.586 -0.3079 -0.0552 -0.0182
 2310SOL    HW118389   3.164   2.853   5.538  0.6827 -0.3720  0.6520
 2310SOL    HW218390   3.043   2.844   5.625 -2.0963 -1.9779 -0.4893
 2311SOL     OW18391   0.093   1.802  11.882  0.2621  0.0150  0.5238
 2311SOL    HW118392   0.164   1.738  11.886  0.1937 -0.0917  0.0974
 2311SOL    HW218393   0.058   1.766  11.801 -1.0949  0.1532  1.0544
 2312SOL     OW18394   1.398   1.727   8.205  0.2778 -0.1774 -0.3464
 2312SOL    HW118395   1.385   1.814   8.168 -1.1577 -0.4728 -0.5432
 2312SOL    HW218396   1.338   1.672   8.155  0.7105 -1.1485  0.1954
 2313SOL     OW18397   2.054   0.285   5.872  0.3100  0.4316 -0.1274
 2313SOL    HW118398   2.044   0.346   5.799  0.1781 -0.6836 -1.0406
 2313SOL    HW218399   1.988   0.220   5.848  0.9992 -0.5000  0.5027
 2314SOL     OW18400   0.042   1.519   7.675 -0.4271  0.3796  0.6263
 2314SOL    HW118401   0.048   1.485   7.765 -2.4445  2.0091  1.3864
 2314SOL    HW218402   0.131   1.549   7.659 -0.5901 -0.6259 -2.0576
 2315SOL     OW18403   3.089   1.547  11.604  0.2195 -0.1887  0.6443
 2315SOL    HW118404   3.153   1.498  11.553 -0.9031 -0.6856 -0.2905
 2315SOL    HW218405   3.128   1.633  11.619  1.1808 -0.7454  1.3053
 2316SOL     OW18406   0.123   3.307   2.537 -0.4218  0.5049  0.8281
 2316SOL    HW118407   0.060   3.377   2.521 -0.6427  0.5894  2.0633
 2316SOL    HW218408   0.073   3.250   2.596 -0.8057  1.1255  1.1079
 2317SOL     OW18409   4.083   0.003   8.631  0.3493 -0.2205 -0.6301
 2317SOL    HW118410   4.072   4.664   8.703 -0.1716 -1.1307 -1.4965
 2317SOL    HW218411   4.059   0.087   8.669 -1.8430 -1.3987  0.6066
 2318SOL     OW18412   0.459   3.821   6.189 -0.1396  0.3271  0.1188
 2318SOL    HW118413   0.417   3.765   6.254 -0.6527  0.1739 -0.3329
 2318SOL    HW218414   0.384   3.867   6.150 -0.6129 -2.4886 -2.2964
 2319SOL     OW18415   4.697   2.078   6.855  0.1080 -0.3647 -0.5594
 2319SOL    HW118416   4.689   2.019   6.930 -0.0686 -0.8181 -0.9330
 2319SOL    HW218417   4.612   2.123   6.851  0.0432 -0.3111  1.0494
 2320SOL     OW18418   0.443   3.054   6.160 -0.6710 -0.0420  0.5992
 2320SOL    HW118419   0.364   3.025   6.206 -1.9304  1.8095 -0.3640
 2320SOL    HW218420   0.491   3.094   6.232 -0.0859 -0.1069  0.2402
 2321SOL     OW18421   2.645   0.245   7.769  0.1030 -0.0015 -0.1136
 2321SOL    HW118422   2.676   0.310   7.706 -0.3285  1.5010  1.2420
 2321SOL    HW218423   2.584   0.197   7.713 -0.4086  2.5834 -1.7952
 2322SOL     OW18424   2.925   0.729  11.747  0.3466 -0.0933  0.2116
 2322SOL    HW118425   2.831   0.739  11.729  0.2235 -0.4638  0.6594
 2322SOL    HW218426   2.922   0.664  11.817  0.2346 -1.5057 -1.0979
 2323SOL     OW18427   4.715   0.814   3.229  0.4313  0.2631  0.0770
 2323SOL    HW118428   0.082   0.827   3.259  1.2661  0.7417 -2.6753
 2323SOL    HW218429   4.688   0.905   3.245  0.3180  0.3720 -0.7436
 2324SOL     OW18430   2.548   4.388   8.607  0.4686  0.1557 -0.4692
 2324SOL    HW118431   2.603   4.319   8.569 -1.4149 -0.6850 -1.6491
 2324SOL    HW218432   2.484   4.396   8.536  1.4230 -1.5686 -1.5389
 2325SOL     OW18433   3.335   0.027   6.384  0.1267 -0.0244  0.1117
 2325SOL    HW118434   3.426   0.057   6.393  0.1872  0.0407 -0.7380
 2325SOL    HW218435   3.335   4.694   6.307  3.9292  0.4413 -0.2467
 2326SOL     OW18436   1.857   2.071   8.025 -0.3753  0.1964 -1.0276
 2326SOL    HW118437   1.910   2.013   8.079  0.3583  1.5282 -0.3190
 2326SOL    HW218438   1.774   2.072   8.073 -1.3706  1.5712 -2.7615
 2327SOL     OW18439   2.897   4.060  10.780  0.1807 -0.2325  0.5821
 2327SOL    HW118440   2.967   4.104  10.732  0.0810  0.4191  1.0377
 2327SOL    HW218441   2.948   4.056  10.861 -1.4938  1.1053  1.7043
 2328SOL     OW18442   4.564   1.396   2.930  0.0463 -0.3227  1.1175
 2328SOL    HW118443   4.655   1.374   2.952 -0.0507  0.6066  2.4011
 2328SOL    HW218444   4.585   1.484   2.899 -0.7624 -0.3830  0.3873
 2329SOL     OW18445   0.112   3.590   5.264 -0.4130 -0.5396  0.1687
 2329SOL    HW118446   0.203   3.604   5.290  0.1344  0.9507 -2.6257
 2329SOL    HW218447   0.084   3.563   5.352 -0.2429 -0.3526  0.2810
 2330SOL     OW18448   0.448   0.498   4.202 -0.3093  0.2427 -0.3062
 2330SOL    HW118449   0.353   0.510   4.206 -0.2602  0.7498 -0.6996
 2330SOL    HW218450   0.453   0.403   4.192 -0.1733  0.2742 -0.5457
 2331SOL     OW18451   0.013   1.355   4.025  0.1733  0.2630 -0.3766
 2331SOL    HW118452   0.052   1.427   4.074  2.5587  0.5374 -2.7111
 2331SOL    HW218453   4.670   1.399   3.972 -1.0617  1.3420  2.0553
 2332SOL     OW18454   1.742   3.243  17.246 -0.1476  0.9857 -0.5674
 2332SOL    HW118455   1.753   3.218  17.338 -0.8173 -0.8786 -0.9855
 2332SOL    HW218456   1.676   3.310  17.262  0.1528  0.9464  0.8932
 2333SOL     OW18457   0.377   4.673   8.115 -0.2876 -0.1023 -0.2470
 2333SOL    HW118458   0.432   4.595   8.116 -0.6482 -0.3803 -2.1198
 2333SOL    HW218459   0.375   4.695   8.208 -1.2841  0.5045 -0.4094
 2334SOL     OW18460   3.357   0.666   5.540  0.2541  0.2037  0.0633
 2334SOL    HW118461   3.375   0.753   5.578  0.1669  0.0270  0.5120
 2334SOL    HW218462   3.416   0.666   5.465  0.3331  4.2980  0.0915
 2335SOL     OW18463   3.674   2.451   7.989  0.4022 -0.1532 -0.0443
 2335SOL    HW118464   3.755   2.420   7.950  0.9328  0.5406  0.4899
 2335SOL    HW218465   3.664   2.541   7.956  1.0395  0.0262  0.2463
 2336SOL     OW18466   4.132   1.108  10.489  0.0707 -0.1287 -0.2009
 2336SOL    HW118467   4.137   1.128  10.395  3.0108 -0.8435 -0.1805
 2336SOL    HW218468   4.105   1.017  10.483 -3.2171  0.7281  1.4816
 2337SOL     OW18469   1.843   1.321   6.569  0.3787  0.3337 -0.4523
 2337SOL    HW118470   1.835   1.225   6.572 -2.5455  0.5219 -1.8267
 2337SOL    HW218471   1.779   1.351   6.504 -0.6844 -1.9387 -0.4742
 2338SOL     OW18472   4.293   2.311   7.336  0.0041  0.8424  0.9798
 2338SOL    HW118473   4.307   2.276   7.248  3.1031  0.8555  1.4740
 2338SOL    HW218474   4.329   2.246   7.396 -0.8440  0.7730  1.4208
 2339SOL     OW18475   1.656   1.293   8.813  0.0153 -0.4400  0.3315
 2339SOL    HW118476   1.611   1.219   8.854 -0.5331  0.0650  0.6404
 2339SOL    HW218477   1.711   1.331   8.882 -1.2229  1.5305  0.2323
 2340SOL     OW18478   4.420   4.603   7.669  0.0901 -0.1820  0.3985
 2340SOL    HW118479   4.453   4.650   7.746 -0.6906 -0.2711  0.7897
 2340SOL    HW218480   4.397   4.518   7.708  0.0723  1.2360  3.4825
 2341SOL     OW18481   3.417   0.813   8.046  0.2415 -0.1816  0.0391
 2341SOL    HW118482   3.509   0.823   8.070  0.2048  1.2507 -0.4490
 2341SOL    HW218483   3.374   0.832   8.130 -0.6311 -2.6927  0.1654
 2342SOL     OW18484   4.637   2.683   9.143 -0.0432  0.0625  0.4153
 2342SOL    HW118485   4.712   2.742   9.136  0.4550 -0.7770 -1.3896
 2342SOL    HW218486   4.653   2.630   9.064 -1.7346 -0.4518  0.4213
 2343SOL     OW18487   4.485   3.602   9.205 -0.7124 -0.5728 -0.1212
 2343SOL    HW118488   4.426   3.575   9.276 -0.9731 -0.7157 -0.3935
 2343SOL    HW218489   4.516   3.518   9.171 -1.8988 -0.9286 -0.3065
 2344SOL     OW18490   3.390   0.011  14.894  0.0006  0.3471  0.2643
 2344SOL    HW118491   3.481   4.708  14.900 -0.2969 -1.3126 -2.4466
 2344SOL    HW218492   3.407   0.104  14.911 -0.9349  1.1786 -3.3216
 2345SOL     OW18493   0.049   2.616   3.783  0.5819  0.4623 -0.4292
 2345SOL    HW118494   0.015   2.667   3.709  0.4320 -0.3638 -0.9351
 2345SOL    HW218495   0.039   2.669   3.862  2.0500 -1.6353  1.1761
 2346SOL     OW18496   1.279   1.020   5.742  0.2932  0.2079 -0.0017
 2346SOL    HW118497   1.306   1.105   5.778 -0.9378  0.8100 -0.5075
 2346SOL    HW218498   1.188   1.024   5.770  0.1499 -0.2853 -0.4152
 2347SOL     OW18499   1.572   2.457   4.071  0.3345  0.2969  0.4351
 2347SOL    HW118500   1.618   2.393   4.126  2.4393  0.2585 -1.3783
 2347SOL    HW218501   1.624   2.467   3.992  0.7665 -0.5720  0.6015
 2348SOL     OW18502   2.604   1.466   0.658  0.2416 -0.2454  0.4133
 2348SOL    HW118503   2.624   1.544   0.709  1.7001  1.0682 -2.1301
 2348SOL    HW218504   2.693   1.429   0.656  0.4456  0.1140  3.3676
 2349SOL     OW18505   1.361   0.069  13.830  0.2369 -0.0002  0.7903
 2349SOL    HW118506   1.367   0.162  13.850 -1.2596  0.2267  0.2296
 2349SOL    HW218507   1.307   0.072  13.751  0.7307  0.4576  0.4689
 2350SOL     OW18508   0.163   2.027   2.556  0.3189  0.2591  0.6325
 2350SOL    HW118509   0.144   1.978   2.476  0.3653 -1.0000  1.3936
 2350SOL    HW218510   0.254   2.057   2.554  0.0117  1.2056  1.0426
 2351SOL     OW18511   1.110   0.182   7.907 -0.2902  0.0034  0.4492
 2351SOL    HW118512   1.084   0.124   7.978 -0.3982  1.5467  1.6747
 2351SOL    HW218513   1.195   0.147   7.883 -0.7460  0.4474 -1.8837
 2352SOL     OW18514   2.235   2.060   1.897 -0.6929 -0.5456 -0.2252
 2352SOL    HW118515   2.193   2.024   1.819 -0.2580 -0.7307 -0.3706
 2352SOL    HW218516   2.327   2.043   1.876 -0.7349  1.5106 -1.9834
 2353SOL     OW18517   4.654   2.351   0.899 -0.0976 -0.0779 -0.1930
 2353SOL    HW118518   4.583   2.413   0.908  1.2026  1.5616 -1.2645
 2353SOL    HW218519   4.663   2.325   0.990 -1.0067  1.9188  0.4632
 2354SOL     OW18520   1.077   3.267   8.300 -0.0951 -0.3330  0.1874
 2354SOL    HW118521   1.159   3.218   8.295 -0.8152 -1.5311  0.3154
 2354SOL    HW218522   1.107   3.325   8.230  2.3111  1.0279  2.3259
 2355SOL     OW18523   2.876   4.375   9.225 -0.0573 -0.3633 -0.0767
 2355SOL    HW118524   2.933   4.301   9.205  3.2833  2.2418 -0.2944
 2355SOL    HW218525   2.932   4.446   9.194  1.9282 -0.3245  3.5331
 2356SOL     OW18526   3.711   2.772   5.993  0.0310  0.0506 -0.1465
 2356SOL    HW118527   3.615   2.772   5.989  0.0197  1.6347  0.0668
 2356SOL    HW218528   3.744   2.848   5.945 -1.2533  0.1055 -0.9465
 2357SOL     OW18529   1.853   0.832   7.430 -0.0444  0.4493 -0.1468
 2357SOL    HW118530   1.945   0.847   7.408  0.7544 -3.4622  0.5491
 2357SOL    HW218531   1.853   0.814   7.524 -0.8796  2.2610  0.1903
 2358SOL     OW18532   3.100   1.849   1.875  0.0912 -0.1038 -0.3191
 2358SOL    HW118533   3.130   1.905   1.804 -0.5427 -0.2350 -0.6906
 2358SOL    HW218534   3.099   1.921   1.938  0.8964 -0.5640  0.2317
 2359SOL     OW18535   2.176   2.820   3.890 -0.0402 -0.6967  0.2344
 2359SOL    HW118536   2.257   2.800   3.844 -0.0429 -0.3194  0.0617
 2359SOL    HW218537   2.187   2.915   3.899  1.0152 -0.6697 -1.4367
 2360SOL     OW18538   3.710   1.019   7.409 -0.0887  0.1480 -0.0228
 2360SOL    HW118539   3.639   1.072   7.373 -0.7034 -1.6789 -1.5436
 2360SOL    HW218540   3.763   1.010   7.329 -2.5765 -2.2261 -1.4043
 2361SOL     OW18541   0.919   3.463  17.672  0.1091 -0.1706 -0.1296
 2361SOL    HW118542   0.931   3.474   0.071 -1.1808  0.8520 -0.0801
 2361SOL    HW218543   0.924   3.555  17.645 -1.5117 -0.1254 -0.2774
 2362SOL     OW18544   0.312   2.539   4.484  0.2514  0.1186  0.1248
 2362SOL    HW118545   0.331   2.446   4.499  4.1021  0.8789  0.0621
 2362SOL    HW218546   0.218   2.548   4.470  0.3346 -0.8054 -1.0791
 2363SOL     OW18547   2.310   4.546   7.249  0.2113  0.3272  0.3109
 2363SOL    HW118548   2.337   4.519   7.161 -2.0516 -1.2275  0.0980
 2363SOL    HW218549   2.222   4.511   7.265 -0.0147 -0.4292 -2.5873
 2364SOL     OW18550   2.992   1.684  11.328  0.2711 -0.3142  0.2979
 2364SOL    HW118551   2.998   1.779  11.312 -0.4797 -0.6675 -2.0402
 2364SOL    HW218552   3.075   1.657  11.290  0.6264 -0.2145  0.9846
 2365SOL     OW18553   1.909   1.956   1.744  0.3384 -0.5361  0.3153
 2365SOL    HW118554   1.978   1.892   1.759 -1.4330 -2.3940  0.4255
 2365SOL    HW218555   1.862   1.952   1.827 -0.2129  2.9425  0.1641
 2366SOL     OW18556   2.280   0.852  14.058  0.1800 -0.1810 -1.1547
 2366SOL    HW118557   2.276   0.841  13.963 -1.8006 -2.1132 -0.8597
 2366SOL    HW218558   2.270   0.947  14.060 -1.1713 -0.3200 -0.9176
 2367SOL     OW18559   1.498   1.105   5.036  0.3138  0.5657 -0.2486
 2367SOL    HW118560   1.465   1.016   5.047 -0.0322  0.7448  0.1496
 2367SOL    HW218561   1.525   1.125   5.125 -0.9468  1.9728 -0.1731
 2368SOL     OW18562   2.059   3.405   1.194  0.5415 -0.4238 -0.7328
 2368SOL    HW118563   2.062   3.501   1.188 -3.5950 -0.2849 -0.6304
 2368SOL    HW218564   2.059   3.399   1.289  2.7365 -0.6218 -0.7364
 2369SOL     OW18565   3.101   2.454   6.832 -0.2485  0.1022 -1.0829
 2369SOL    HW118566   3.007   2.474   6.830 -0.4483 -0.8600 -1.4167
 2369SOL    HW218567   3.144   2.518   6.889 -0.7288  0.5445 -1.2190
 2370SOL     OW18568   4.143   2.214   6.449  0.5427  0.2917 -0.2239
 2370SOL    HW118569   4.162   2.210   6.543 -1.5243 -1.1946  0.1285
 2370SOL    HW218570   4.233   2.232   6.422  0.6952  0.8022  0.6191
 2371SOL     OW18571   2.198   4.179  12.898  0.2523 -0.1817  0.4618
 2371SOL    HW118572   2.106   4.155  12.892 -0.1429  1.5347 -0.3142
 2371SOL    HW218573   2.233   4.105  12.948 -3.1387  0.4085  3.6554
 2372SOL     OW18574   1.215   0.802   7.485  0.3709  0.1802  0.1294
 2372SOL    HW118575   1.277   0.834   7.419 -1.8097  2.9857 -0.5501
 2372SOL    HW218576   1.133   0.834   7.448 -0.2370  1.5887  2.7152
 2373SOL     OW18577   3.430   2.351  12.864 -0.3942  0.1289  0.2404
 2373SOL    HW118578   3.347   2.397  12.877  0.8815  3.2611 -2.4975
 2373SOL    HW218579   3.449   2.374  12.773 -1.1974  0.9321  0.2754
 2374SOL     OW18580   3.014   3.231   4.195 -0.0462  0.2856  0.0463
 2374SOL    HW118581   2.996   3.148   4.240  1.3383  0.2444  0.5236
 2374SOL    HW218582   3.101   3.244   4.232 -0.1233  1.6714 -0.2489
 2375SOL     OW18583   1.812   1.136   2.379  0.4100  0.3598  0.3222
 2375SOL    HW118584   1.775   1.220   2.405 -0.1734  0.5084 -0.9840
 2375SOL    HW218585   1.811   1.146   2.284  0.6751  2.9168  0.6028
 2376SOL     OW18586   3.912   2.838  10.549  0.0411 -0.9989 -0.0311
 2376SOL    HW118587   3.970   2.775  10.593  0.8885  0.2364  0.6066
 2376SOL    HW218588   3.873   2.873  10.629 -1.1149  0.6451 -1.3238
 2377SOL     OW18589   2.467   0.880  14.299 -0.1174  0.3934 -0.0445
 2377SOL    HW118590   2.495   0.815  14.235  1.3462 -0.8384  1.8253
 2377SOL    HW218591   2.456   0.814  14.368  1.6641  0.3333  0.1734
 2378SOL     OW18592   1.417   4.041   7.734  0.0014 -0.3572  0.3866
 2378SOL    HW118593   1.470   4.092   7.674 -1.9545  0.6804 -0.4537
 2378SOL    HW218594   1.394   4.105   7.802  1.6148 -2.1411  2.6185
 2379SOL     OW18595   3.497   4.587   2.385 -0.3840 -0.0552 -0.1407
 2379SOL    HW118596   3.555   4.662   2.388 -0.6501  0.1930 -1.1824
 2379SOL    HW218597   3.537   4.536   2.314  1.1970  0.6025  0.2805
 2380SOL     OW18598   4.236   0.675  12.774 -0.7232  0.1260  0.6106
 2380SOL    HW118599   4.142   0.694  12.766 -0.6664  0.4774  0.7830
 2380SOL    HW218600   4.274   0.749  12.727 -0.3078 -0.2201  0.4036
 2381SOL     OW18601   1.429   2.961   6.459 -0.0125  0.1601  0.3870
 2381SOL    HW118602   1.386   2.877   6.440  1.3296 -0.5740  0.6663
 2381SOL    HW218603   1.355   3.021   6.451 -0.1787  0.0557  1.1319
 2382SOL     OW18604   1.249   2.730   1.660  0.1363 -0.3708  0.1960
 2382SOL    HW118605   1.257   2.651   1.607  0.8753 -0.5287  0.5325
 2382SOL    HW218606   1.255   2.790   1.586 -1.3866  0.7001  0.9295
 2383SOL     OW18607   3.347   0.364  14.392 -0.2615  0.0876  0.3051
 2383SOL    HW118608   3.392   0.286  14.360 -1.7090 -0.9523  0.8256
 2383SOL    HW218609   3.356   0.353  14.486 -0.4223 -1.2556  0.1568
 2384SOL     OW18610   3.146   0.409   2.830  0.6951 -0.2897  0.3007
 2384SOL    HW118611   3.178   0.474   2.767  0.8433 -0.0033  0.6733
 2384SOL    HW218612   3.217   0.414   2.894  1.2139 -0.9296 -0.2290
 2385SOL     OW18613   1.434   2.428   8.277  0.1212  0.1326 -0.3562
 2385SOL    HW118614   1.472   2.481   8.347  2.1559 -1.5107 -0.2226
 2385SOL    HW218615   1.346   2.465   8.277 -0.5403 -1.4382 -0.9036
 2386SOL     OW18616   1.662   0.789   8.061  0.0308 -0.8764 -0.3362
 2386SOL    HW118617   1.655   0.876   8.020 -2.1843 -0.8040  0.1842
 2386SOL    HW218618   1.716   0.812   8.136 -0.2088  0.1691 -0.4807
 2387SOL     OW18619   1.535   3.406   7.955 -0.0510  0.1869 -0.0344
 2387SOL    HW118620   1.581   3.469   7.901 -0.2598  0.0967 -0.3158
 2387SOL    HW218621   1.604   3.370   8.011  1.6898 -0.6885 -2.7267
 2388SOL     OW18622   1.146   2.443   3.430  0.5330  0.0258  0.1113
 2388SOL    HW118623   1.114   2.531   3.448 -1.1845 -0.2018 -1.9433
 2388SOL    HW218624   1.194   2.426   3.512  1.5662  0.2289 -0.4528
 2389SOL     OW18625   1.108   1.202  16.497  0.3288 -0.5024  0.1172
 2389SOL    HW118626   1.059   1.193  16.578  0.8684  0.0651  0.5013
 2389SOL    HW218627   1.142   1.115  16.475 -0.0780 -0.0922 -2.1833
 2390SOL     OW18628   3.168   4.115   3.571 -0.0761  0.1396  0.7702
 2390SOL    HW118629   3.258   4.117   3.537 -0.6092 -2.3125 -0.8394
 2390SOL    HW218630   3.135   4.042   3.518  1.8272 -0.3406  0.2357
 2391SOL     OW18631   2.287   4.243   8.511  0.4769  0.2880  0.8422
 2391SOL    HW118632   2.333   4.266   8.431 -1.6119  0.9500 -0.1803
 2391SOL    HW218633   2.231   4.319   8.527 -0.1657  0.2748 -1.3558
 2392SOL     OW18634   3.071   2.460  17.449 -0.5138  0.1388  0.6816
 2392SOL    HW118635   3.147   2.514  17.471 -0.9099  1.7007 -1.8486
 2392SOL    HW218636   3.117   2.376  17.444 -2.0764 -0.7903  2.1449
 2393SOL     OW18637   0.729   1.897  10.492  0.0318  0.0109 -0.6767
 2393SOL    HW118638   0.825   1.899  10.496  0.0297  0.0780 -0.6446
 2393SOL    HW218639   0.721   1.930  10.582  0.6682  1.3726 -1.1160
 2394SOL     OW18640   0.431   2.812  17.070 -0.5974  0.4588 -0.1091
 2394SOL    HW118641   0.365   2.802  17.002  0.8830 -0.5649 -1.3962
 2394SOL    HW218642   0.377   2.809  17.148  0.2158  3.0128  0.5613
 2395SOL     OW18643   1.826   0.277  13.139  0.0775 -0.2361  0.4404
 2395SOL    HW118644   1.759   0.277  13.207  0.7138  0.2884  1.0526
 2395SOL    HW218645   1.777   0.277  13.057 -0.1978  0.7019  0.6030
 2396SOL     OW18646   0.107   1.476  13.893 -0.2251 -0.4586 -0.5731
 2396SOL    HW118647   0.046   1.405  13.911 -1.0562 -0.2892 -2.7702
 2396SOL    HW218648   0.057   1.551  13.926 -2.5957 -1.4612 -1.9424
 2397SOL     OW18649   0.543   3.237  12.302 -0.2174 -0.0917 -0.5637
 2397SOL    HW118650   0.481   3.309  12.295 -0.2458 -0.1306 -0.7207
 2397SOL    HW218651   0.563   3.218  12.210  1.9287 -1.1319  0.1133
 2398SOL     OW18652   3.054   4.382  15.797 -0.0495  0.2973  0.2973
 2398SOL    HW118653   3.107   4.302  15.805  0.4597  0.3945 -2.0483
 2398SOL    HW218654   2.975   4.357  15.844  1.0120 -1.1564  1.3231
 2399SOL     OW18655   4.545   3.770  10.856  0.3246  0.1603 -0.3663
 2399SOL    HW118656   4.611   3.711  10.819 -1.5365 -2.2082  0.1084
 2399SOL    HW218657   4.479   3.707  10.885 -0.2907  0.4389 -1.1657
 2400SOL     OW18658   4.422   0.027   5.154  0.2766 -0.7334 -0.2576
 2400SOL    HW118659   4.422   4.656   5.138  3.8969 -0.2743 -2.9752
 2400SOL    HW218660   4.508   0.040   5.193  0.3101 -1.5488 -0.0631
 2401SOL     OW18661   2.983   4.347  12.854  0.0468 -0.1422 -0.0811
 2401SOL    HW118662   3.044   4.411  12.818  0.5078 -0.5648 -0.0612
 2401SOL    HW218663   2.951   4.303  12.775  1.1937 -1.3071  0.0901
 2402SOL     OW18664   0.128   4.173   9.288 -0.2814  0.6186 -0.3426
 2402SOL    HW118665   0.198   4.227   9.251  0.5216  0.0459  0.3423
 2402SOL    HW218666   0.136   4.207   9.377 -1.1509  1.5738 -0.6174
 2403SOL     OW18667   3.548   2.108  10.265  0.0357  0.5290 -0.3266
 2403SOL    HW118668   3.456   2.085  10.279 -0.6127  1.4587 -3.2372
 2403SOL    HW218669   3.575   2.020  10.238  3.4279  1.7570 -0.8690
 2404SOL     OW18670   0.595   2.663   7.137  0.1296  0.5695 -0.1465
 2404SOL    HW118671   0.518   2.697   7.092 -0.7218 -0.5050  0.4924
 2404SOL    HW218672   0.620   2.587   7.084 -1.2034  2.1356 -3.0185
 2405SOL     OW18673   3.326   3.193   8.348 -0.5378  0.4190 -0.1588
 2405SOL    HW118674   3.262   3.127   8.373 -1.4432  2.1219  2.0265
 2405SOL    HW218675   3.336   3.226   8.437 -0.0844 -1.4844  0.4786
 2406SOL     OW18676   4.244   2.421  13.721  0.0311 -0.4309 -0.2807
 2406SOL    HW118677   4.174   2.381  13.773  1.8257 -1.1267  1.5505
 2406SOL    HW218678   4.199   2.503  13.700 -0.0606 -0.5438 -0.5301
 2407SOL     OW18679   4.194   2.689  14.857 -0.0717  0.0694  0.4106
 2407SOL    HW118680   4.190   2.607  14.807 -0.6588  0.7340 -0.6396
 2407SOL    HW218681   4.190   2.760  14.792  0.1294  0.1425  0.4773
 2408SOL     OW18682   3.899   3.694   4.904 -0.3638 -0.0404  0.4637
 2408SOL    HW118683   3.848   3.674   4.982  0.5817  1.9096  1.5848
 2408SOL    HW218684   3.889   3.616   4.850 -0.5550 -0.0166  0.4659
 2409SOL     OW18685   0.765   0.073   5.908  0.4735 -0.2151 -0.0849
 2409SOL    HW118686   0.773   0.168   5.904 -4.3925  0.2365  1.3888
 2409SOL    HW218687   0.695   0.057   5.844  0.8107  0.8437 -0.7153
 2410SOL     OW18688   0.760   1.232   8.096 -0.1440 -0.4086 -0.3197
 2410SOL    HW118689   0.782   1.272   8.012  1.8184 -0.4777  0.1682
 2410SOL    HW218690   0.831   1.168   8.100 -1.3747 -1.8312 -1.2408
 2411SOL     OW18691   4.392   4.451   5.827  0.5828 -0.3679 -0.3763
 2411SOL    HW118692   4.449   4.415   5.894  0.1543 -0.5318 -0.0975
 2411SOL    HW218693   4.439   4.448   5.744  0.6084 -2.4219 -0.2882
 2412SOL     OW18694   1.340   0.881   4.936 -0.6216  0.0695 -0.1007
 2412SOL    HW118695   1.393   0.855   4.860  0.5698 -0.2746  0.8492
 2412SOL    HW218696   1.269   0.933   4.898  0.5206 -0.2152 -2.6179
 2413SOL     OW18697   3.822   1.811   8.216  0.1472  0.3243  0.2554
 2413SOL    HW118698   3.745   1.769   8.255  0.2028  1.0535  1.1482
 2413SOL    HW218699   3.871   1.815   8.298  1.4012 -1.4842 -0.4275
 2414SOL     OW18700   1.986   3.800   9.811  0.6101  0.1009 -0.1338
 2414SOL    HW118701   1.986   3.896   9.811 -2.6498  0.0980 -0.0082
 2414SOL    HW218702   2.079   3.780   9.802  0.4821 -0.0161 -1.1250
 2415SOL     OW18703   1.576   0.106   9.244 -0.1907  0.4261 -0.3038
 2415SOL    HW118704   1.531   0.186   9.220 -1.8785 -1.0517 -2.0147
 2415SOL    HW218705   1.617   0.139   9.325 -1.4839 -0.3780  0.6813
 2416SOL     OW18706   0.332   2.991   1.048 -0.1636  0.0483 -0.1292
 2416SOL    HW118707   0.390   2.993   0.971 -0.0585 -0.8677 -0.0781
 2416SOL    HW218708   0.396   2.970   1.117 -0.2908  1.1287  0.3174
 2417SOL     OW18709   3.053   0.437  13.640  0.3854 -0.4633 -1.0021
 2417SOL    HW118710   3.053   0.342  13.630  0.5285 -0.7328  1.6520
 2417SOL    HW218711   3.070   0.459  13.731 -1.0119 -0.8724 -0.6608
 2418SOL     OW18712   0.715   0.853   3.610  0.0171  0.1636  0.2568
 2418SOL    HW118713   0.772   0.819   3.679  1.9486  1.5125 -0.6841
 2418SOL    HW218714   0.782   0.862   3.542  0.6608  0.8946  0.9934
 2419SOL     OW18715   2.105   1.036   6.463  0.0717 -0.8036  0.4175
 2419SOL    HW118716   2.189   1.000   6.489  0.5503  0.1357  0.1983
 2419SOL    HW218717   2.062   1.045   6.548 -2.5971 -1.2860 -0.8860
 2420SOL     OW18718   1.688   1.646   8.119  0.2991 -0.1125 -0.0098
 2420SOL    HW118719   1.643   1.723   8.085  0.4400 -0.2672 -0.5420
 2420SOL    HW218720   1.626   1.618   8.187 -2.3425  1.3341 -1.8508
 2421SOL     OW18721   3.924   3.617   8.533  0.4642 -0.0835  0.2174
 2421SOL    HW118722   3.979   3.684   8.572  0.9786 -0.4172  0.0719
 2421SOL    HW218723   3.948   3.534   8.576 -2.0760 -1.1423 -0.3898
 2422SOL     OW18724   1.759   3.527   7.765  0.2720 -0.2173  0.2259
 2422SOL    HW118725   1.831   3.485   7.812  0.9451 -0.0434 -0.6364
 2422SOL    HW218726   1.781   3.503   7.675  0.7905  1.7086 -0.1652
 2423SOL     OW18727   4.376   1.396   9.625 -0.2170  0.0250 -0.2723
 2423SOL    HW118728   4.285   1.418   9.643  0.0297 -0.2411  1.2862
 2423SOL    HW218729   4.369   1.339   9.548  0.2363 -3.0835  2.0183
 2424SOL     OW18730   1.950   2.293   7.725  0.1654  0.4765  0.4012
 2424SOL    HW118731   1.855   2.296   7.738 -0.1915 -1.0949 -1.8802
 2424SOL    HW218732   1.967   2.373   7.675 -0.5285 -0.4985 -1.4037
 2425SOL     OW18733   0.064   1.720   8.359  0.6335 -0.2656  0.2388
 2425SOL    HW118734   0.143   1.708   8.306 -1.2615  0.8410 -2.7794
 2425SOL    HW218735   0.107   1.740   8.443  0.3631 -1.8885  0.7777
 2426SOL     OW18736   1.140   1.593   9.255  0.0864 -0.2453 -0.8746
 2426SOL    HW118737   1.197   1.646   9.198  0.0867  2.7820  1.9743
 2426SOL    HW218738   1.185   1.509   9.259  1.7071  0.7266  1.2018
 2427SOL     OW18739   4.358   0.334   5.190  0.1445 -0.0330  0.8234
 2427SOL    HW118740   4.271   0.354   5.226 -0.0643 -2.6468  1.7838
 2427SOL    HW218741   4.361   0.239   5.192 -1.9181 -0.0793  2.8243
 2428SOL     OW18742   3.875   3.292   6.614 -0.4601  0.4631  0.2585
 2428SOL    HW118743   3.911   3.234   6.680 -0.7655 -2.0238 -1.7517
 2428SOL    HW218744   3.958   3.306   6.568  0.0298 -2.0393  0.3899
 2429SOL     OW18745   0.541   0.783  10.543  0.4034  0.3775  0.3340
 2429SOL    HW118746   0.611   0.729  10.508  1.8113  0.7197  2.6109
 2429SOL    HW218747   0.595   0.848  10.589 -0.7943  0.6098  1.3958
 2430SOL     OW18748   0.575   3.967   2.227 -0.3318  0.1228 -0.1138
 2430SOL    HW118749   0.625   3.885   2.220  0.0708  0.2389  1.5487
 2430SOL    HW218750   0.512   3.954   2.156  0.6908 -1.0656 -0.8042
 2431SOL     OW18751   3.286   4.118   7.657 -0.4515 -0.2069 -0.2646
 2431SOL    HW118752   3.321   4.066   7.730 -2.0869 -0.0397  0.6409
 2431SOL    HW218753   3.283   4.204   7.699  0.3134 -0.3861  0.1598
 2432SOL     OW18754   3.235   3.786  12.389 -0.2529 -0.0467  0.3037
 2432SOL    HW118755   3.292   3.812  12.462 -0.0962 -1.2668  0.6088
 2432SOL    HW218756   3.215   3.697  12.419 -0.3704 -0.2587 -0.4231
 2433SOL     OW18757   1.009   2.507   5.304  0.1913 -1.1540  0.1434
 2433SOL    HW118758   1.013   2.573   5.374 -1.0378 -1.2759  0.3343
 2433SOL    HW218759   1.036   2.429   5.351 -1.5192 -2.0033 -0.2727
 2434SOL     OW18760   2.706   1.774   9.381  0.2477  0.3109 -0.3344
 2434SOL    HW118761   2.786   1.740   9.422  0.5433  2.1544  0.6277
 2434SOL    HW218762   2.694   1.845   9.444 -0.5677 -0.8346  0.7914
 2435SOL     OW18763   1.869   3.585   5.263  0.3997  0.5875  0.3832
 2435SOL    HW118764   1.947   3.532   5.244  0.1327  0.2939  0.1020
 2435SOL    HW218765   1.818   3.551   5.189  1.8207  0.5934 -0.5986
 2436SOL     OW18766   3.447   4.284   7.838 -0.2247 -0.5208  0.5200
 2436SOL    HW118767   3.538   4.313   7.848 -0.7698  0.4133  2.6829
 2436SOL    HW218768   3.406   4.367   7.814 -0.9709 -1.3816 -1.1367
 2437SOL     OW18769   4.244   1.267   7.495  0.5491 -0.3060  0.2910
 2437SOL    HW118770   4.164   1.295   7.450  1.2647  0.3276 -0.5877
 2437SOL    HW218771   4.211   1.255   7.584 -1.2297 -0.1589 -0.3363
 2438SOL     OW18772   0.034   2.151   2.758  0.2510  0.1926 -0.2428
 2438SOL    HW118773   0.063   2.131   2.669  1.3653  0.1033  0.1411
 2438SOL    HW218774   0.113   2.194   2.791  0.0494 -1.1768  2.0682
 2439SOL     OW18775   1.742   2.747   4.758 -0.4790  0.0959 -0.1956
 2439SOL    HW118776   1.692   2.801   4.698  0.5231  0.9217 -0.2888
 2439SOL    HW218777   1.699   2.662   4.744  1.3113 -0.4642 -2.4035
 2440SOL     OW18778   4.029   2.121   2.552  0.0959 -0.4616  0.3002
 2440SOL    HW118779   4.026   2.026   2.563  2.6880 -0.6175 -0.2793
 2440SOL    HW218780   4.093   2.138   2.620 -0.3980  0.1966  0.5962
 2441SOL     OW18781   3.804   3.448   0.194  0.4853 -0.3351  0.0223
 2441SOL    HW118782   3.744   3.474   0.264 -0.2869 -0.9529 -0.4118
 2441SOL    HW218783   3.770   3.363   0.167  0.4461 -0.3488  0.1138
 2442SOL     OW18784   2.980   0.182   2.746  0.2899  0.0183 -0.0854
 2442SOL    HW118785   2.980   0.237   2.667 -0.9131  0.2999  0.1058
 2442SOL    HW218786   2.969   0.252   2.810  2.7407 -0.3121  0.6844
 2443SOL     OW18787   2.331   2.690   8.031 -0.3727  0.1152  0.1123
 2443SOL    HW118788   2.368   2.633   8.099  1.6027  1.3411  0.0775
 2443SOL    HW218789   2.296   2.767   8.076 -1.2173  0.2254 -0.7473
 2444SOL     OW18790   2.401   3.027   1.859  0.3854  0.0213 -0.2757
 2444SOL    HW118791   2.385   3.022   1.764  0.4271 -0.3457 -0.2648
 2444SOL    HW218792   2.464   3.099   1.860  0.6608 -0.2582  1.2760
 2445SOL     OW18793   0.887   4.718  13.787 -0.3221  0.0734 -0.6731
 2445SOL    HW118794   0.928   4.637  13.817 -1.8536 -0.9193 -1.2517
 2445SOL    HW218795   0.818   4.687  13.728 -2.9731  2.2787  1.2611
 2446SOL     OW18796   4.525   1.648   9.151 -0.1106 -0.0606 -0.2495
 2446SOL    HW118797   4.548   1.649   9.058 -0.4014  0.5910 -0.3159
 2446SOL    HW218798   4.591   1.694   9.202  1.0628 -1.6481 -0.3421
 2447SOL     OW18799   3.729   0.794  17.118 -0.2396 -0.2858  0.3287
 2447SOL    HW118800   3.756   0.717  17.067  1.6924 -0.4351  1.5849
 2447SOL    HW218801   3.656   0.826  17.065 -0.5550  0.2011  1.0504
 2448SOL     OW18802   3.858   0.054  15.833 -0.0268 -0.1816 -0.4039
 2448SOL    HW118803   3.886   0.026  15.746 -3.1559  1.6278 -2.0092
 2448SOL    HW218804   3.782   4.723  15.854 -1.5584  2.2284  0.3398
 2449SOL     OW18805   0.743   3.448   2.056  0.0880  0.0345  0.1316
 2449SOL    HW118806   0.790   3.481   1.980  0.4307 -1.9301 -0.5188
 2449SOL    HW218807   0.797   3.482   2.128  1.8621 -2.3394 -0.0828
 2450SOL     OW18808   1.768   0.653   2.858  0.0044 -0.5893 -0.7209
 2450SOL    HW118809   1.786   0.732   2.808  0.3798  0.0472  0.4066
 2450SOL    HW218810   1.857   0.625   2.879 -1.4457 -1.3944  4.3651
 2451SOL     OW18811   2.461   1.689  16.240 -0.0077  0.2694  0.0108
 2451SOL    HW118812   2.465   1.765  16.182 -1.4786 -0.1563 -0.6517
 2451SOL    HW218813   2.515   1.625  16.195 -1.5106 -1.2564  0.3997
 2452SOL     OW18814   0.863   3.854   7.147 -0.5625  0.5063 -0.0494
 2452SOL    HW118815   0.805   3.919   7.108 -0.4252  0.0678 -0.9762
 2452SOL    HW218816   0.803   3.812   7.209 -2.1662  1.5236 -0.9158
 2453SOL     OW18817   1.413   0.255  17.448 -0.3447 -0.3748 -0.4987
 2453SOL    HW118818   1.320   0.269  17.461 -0.0780  1.6843 -0.8099
 2453SOL    HW218819   1.417   0.187  17.381  0.6803 -0.1560 -0.6742
 2454SOL     OW18820   3.823   3.320   1.949 -0.4155 -0.0954  0.6460
 2454SOL    HW118821   3.876   3.400   1.949  0.2998 -0.5626 -0.4099
 2454SOL    HW218822   3.892   3.256   1.966  0.7116  0.7404 -0.7610
 2455SOL     OW18823   2.658   3.584   6.165 -0.1121  0.0072 -0.5366
 2455SOL    HW118824   2.728   3.578   6.230 -0.3949 -0.6060 -0.2959
 2455SOL    HW218825   2.699   3.559   6.082  2.7181  0.7178  0.6292
 2456SOL     OW18826   4.206   0.109   4.464 -0.2891 -0.2012 -0.3943
 2456SOL    HW118827   4.233   0.028   4.421 -1.5889 -0.4821 -0.6900
 2456SOL    HW218828   4.273   0.167   4.429  0.3294 -0.3723  0.4998
 2457SOL     OW18829   3.822   2.526   5.946  0.1213  0.2846  0.3462
 2457SOL    HW118830   3.792   2.614   5.967  2.7112  0.9094  1.5181
 2457SOL    HW218831   3.916   2.538   5.931  0.2246 -0.3277  0.5020
 2458SOL     OW18832   0.846   4.702   2.174 -0.3648  0.3549  0.2129
 2458SOL    HW118833   0.846   4.656   2.090  1.3959  0.0151  0.3902
 2458SOL    HW218834   0.916   4.651   2.215 -2.6414 -0.9344  2.5050
 2459SOL     OW18835   1.086   4.441  14.565  0.1174 -0.0325 -0.7161
 2459SOL    HW118836   1.149   4.428  14.635  0.1466  1.3898 -0.4912
 2459SOL    HW218837   1.059   4.532  14.580 -1.5942 -1.3223  4.0314
 2460SOL     OW18838   1.905   3.110   6.998  0.4519 -0.1371  0.0573
 2460SOL    HW118839   1.878   3.121   7.089  0.1103  0.5226 -0.1195
 2460SOL    HW218840   1.848   3.179   6.962  1.0805  0.5270  0.3243
 2461SOL     OW18841   2.264   1.948   8.120  0.7881  0.1238  0.4837
 2461SOL    HW118842   2.303   2.035   8.115  2.6437 -0.6997  0.6076
 2461SOL    HW218843   2.178   1.968   8.154 -0.9849  1.3475 -4.7155
 2462SOL     OW18844   4.163   2.516   6.437  0.4170 -0.2238  0.4361
 2462SOL    HW118845   4.109   2.478   6.368  0.1841 -0.7434  0.9084
 2462SOL    HW218846   4.180   2.597   6.389  4.7791 -0.5127  1.5275
 2463SOL     OW18847   2.166   4.228   1.322  0.1352  0.2986  0.0462
 2463SOL    HW118848   2.072   4.244   1.324 -0.0855 -0.9260 -0.7400
 2463SOL    HW218849   2.166   4.148   1.374  0.5526 -0.3526 -0.9639
 2464SOL     OW18850   4.684   0.908  12.639 -0.1534  0.4845  0.0701
 2464SOL    HW118851   0.024   0.916  12.710  0.8343 -0.2627 -0.7161
 2464SOL    HW218852   0.016   0.863  12.575 -0.4793  0.4275 -0.1710
 2465SOL     OW18853   2.269   0.993   5.413  0.5739 -0.6928 -0.2913
 2465SOL    HW118854   2.281   1.047   5.491  0.0224 -0.8356 -0.1058
 2465SOL    HW218855   2.262   1.065   5.351  0.2108  0.7323  1.4072
 2466SOL     OW18856   3.261   3.046   3.588  0.1015  0.3160  0.0409
 2466SOL    HW118857   3.184   2.991   3.593  0.9076 -0.8206  0.0337
 2466SOL    HW218858   3.300   3.006   3.510  0.5221  0.1134  0.3559
 2467SOL     OW18859   2.085   0.831  15.241  0.3226 -0.2432  0.1728
 2467SOL    HW118860   2.051   0.745  15.220 -0.3771  0.8295 -3.1837
 2467SOL    HW218861   2.004   0.882  15.249  1.3540  1.7327 -1.6512
 2468SOL     OW18862   2.336   4.217   5.794  0.2766 -0.0738  0.8622
 2468SOL    HW118863   2.326   4.217   5.889  1.7091 -1.4706  1.0184
 2468SOL    HW218864   2.244   4.208   5.770  0.6486 -2.1217  0.1908
 2469SOL     OW18865   3.009   0.625  14.559 -0.0657  0.4606  0.1818
 2469SOL    HW118866   2.926   0.634  14.512  0.9420 -2.1083 -2.1240
 2469SOL    HW218867   3.044   0.554  14.505  2.4306  1.5843  0.3191
 2470SOL     OW18868   0.835   3.312   4.656 -0.3534 -0.3546  0.2117
 2470SOL    HW118869   0.770   3.251   4.620 -2.7261  1.7468  1.0063
 2470SOL    HW218870   0.822   3.391   4.603 -1.6920 -1.1746 -0.6882
 2471SOL     OW18871   3.829   0.139  13.924  0.5761  0.1065  0.9393
 2471SOL    HW118872   3.775   0.060  13.920  2.3466 -1.2485  3.0661
 2471SOL    HW218873   3.922   0.117  13.921  1.1161  2.4697  0.2540
 2472SOL     OW18874   2.938   4.722   4.396  0.4985 -0.0326  0.1450
 2472SOL    HW118875   2.999   0.047   4.340  0.5496  1.1049  1.1936
 2472SOL    HW218876   2.897   4.665   4.331  4.4220 -1.3178 -1.2101
 2473SOL     OW18877   2.378   2.193   5.096 -0.5893  0.2804 -0.0238
 2473SOL    HW118878   2.305   2.134   5.114  0.5652 -1.1914 -0.1814
 2473SOL    HW218879   2.328   2.273   5.081 -0.7973  0.2001  0.2481
 2474SOL     OW18880   4.436   1.930  13.847  0.3065 -0.2815  0.3343
 2474SOL    HW118881   4.445   1.842  13.883  0.2499 -1.2959 -2.1088
 2474SOL    HW218882   4.450   1.910  13.754  0.6555 -0.4869  0.4329
 2475SOL     OW18883   1.454   1.118  10.013 -0.5772  0.1735 -0.0593
 2475SOL    HW118884   1.382   1.056  10.023 -0.0843 -0.6022 -1.2735
 2475SOL    HW218885   1.460   1.130   9.918 -0.2589 -0.5260 -0.1310
 2476SOL     OW18886   1.733   1.068   6.642  0.2926  0.1245  0.2385
 2476SOL    HW118887   1.730   1.137   6.708  2.6611  1.3101 -0.9167
 2476SOL    HW218888   1.666   1.007   6.672 -0.1950  0.0144 -1.0762
 2477SOL     OW18889   1.878   1.680   3.699  0.2431 -0.0646  0.1524
 2477SOL    HW118890   1.846   1.742   3.633  2.0739  1.3802  0.6435
 2477SOL    HW218891   1.963   1.653   3.664  1.1441  1.7254  0.9408
 2478SOL     OW18892   2.757   4.627   7.079 -0.6041 -0.1612 -0.3905
 2478SOL    HW118893   2.738   4.655   6.989 -1.8370 -0.2783 -0.1649
 2478SOL    HW218894   2.704   4.549   7.096 -1.0054 -0.0914 -1.3096
 2479SOL     OW18895   0.822   1.451   1.023  0.2192  0.0765  0.8766
 2479SOL    HW118896   0.879   1.526   1.006  0.0410 -0.0913 -0.4579
 2479SOL    HW218897   0.811   1.404   0.940 -1.0091 -0.5085  1.3682
 2480SOL     OW18898   3.702   4.011  15.858 -0.0119 -0.0956 -0.7760
 2480SOL    HW118899   3.757   4.047  15.789  2.1601  0.2744  1.1368
 2480SOL    HW218900   3.655   3.945  15.808 -1.8545  0.2779  0.4812
 2481SOL     OW18901   4.302   2.859   5.462 -0.1176 -0.0666 -0.4908
 2481SOL    HW118902   4.365   2.843   5.392  1.6359 -0.9633  1.2819
 2481SOL    HW218903   4.368   2.885   5.526  0.3389  1.3074 -1.5288
 2482SOL     OW18904   3.028   1.696  14.421  0.4462 -0.3314  0.4298
 2482SOL    HW118905   3.025   1.698  14.517 -2.6289 -1.7731  0.3928
 2482SOL    HW218906   2.972   1.619  14.410  1.3946 -0.8806 -0.4864
 2483SOL     OW18907   1.193   2.134   5.831 -0.1248  0.5871  0.0515
 2483SOL    HW118908   1.200   2.096   5.919 -0.8065 -1.5040 -0.7733
 2483SOL    HW218909   1.201   2.227   5.853  0.3194  0.8485 -1.2749
 2484SOL     OW18910   1.486   1.070   8.274  1.1184 -0.3161  0.6114
 2484SOL    HW118911   1.449   0.986   8.303  1.4472  0.0188  1.9889
 2484SOL    HW218912   1.522   1.048   8.188  0.7456  0.6511  0.2049
 2485SOL     OW18913   1.853   4.174   7.336 -0.0093  0.1304  0.3876
 2485SOL    HW118914   1.766   4.156   7.300  0.3355 -2.5754  0.9325
 2485SOL    HW218915   1.846   4.149   7.428 -0.7073 -1.7553 -0.1956
 2486SOL     OW18916   2.727   1.973  17.571  0.2523 -0.4307 -0.1324
 2486SOL    HW118917   2.659   1.929  17.622  2.7203 -1.9959  1.8382
 2486SOL    HW218918   2.683   2.051  17.538  2.4199  1.5450  1.6389
 2487SOL     OW18919   3.406   4.048  14.734 -0.6387  0.5963  0.5875
 2487SOL    HW118920   3.469   4.035  14.805 -0.6096  2.0472  0.8386
 2487SOL    HW218921   3.459   4.110  14.683 -1.9295  0.4201 -0.9614
 2488SOL     OW18922   1.409   2.716   3.476  0.4215 -0.1896 -0.0674
 2488SOL    HW118923   1.400   2.762   3.560 -2.8108  0.2608 -0.6686
 2488SOL    HW218924   1.318   2.687   3.471  0.2862  0.2481 -0.1820
 2489SOL     OW18925   0.117   1.560   7.051 -0.2535  0.2720  0.4315
 2489SOL    HW118926   0.189   1.606   7.095  1.2046 -0.5652 -1.0691
 2489SOL    HW218927   0.114   1.481   7.105  2.1022 -0.5091 -0.5710
 2490SOL     OW18928   4.602   0.597   6.253  0.1926  0.6134 -0.5271
 2490SOL    HW118929   4.533   0.566   6.313  0.5342 -0.8933 -0.9137
 2490SOL    HW218930   4.596   0.525   6.191 -1.7483  2.5542 -2.5640
 2491SOL     OW18931   0.590   2.618   7.997  0.0586 -0.2532  0.3598
 2491SOL    HW118932   0.594   2.710   7.970 -0.4582 -0.8316 -1.6692
 2491SOL    HW218933   0.665   2.583   7.949  0.9485  2.3351 -0.1791
 2492SOL     OW18934   2.022   0.780  16.388  0.0518 -0.3830  0.6922
 2492SOL    HW118935   1.972   0.769  16.307  0.8692  0.8247  0.0270
 2492SOL    HW218936   2.110   0.802  16.358 -0.5887  2.3368  0.8604
 2493SOL     OW18937   1.271   1.049   6.155  0.2510  0.3094  0.0232
 2493SOL    HW118938   1.278   1.139   6.122  0.2899  0.7750  1.2881
 2493SOL    HW218939   1.365   1.033   6.158  0.9317  4.3607  0.0507
 2494SOL     OW18940   3.062   0.471   7.191  0.1255  0.8741 -0.0228
 2494SOL    HW118941   3.069   0.383   7.156  1.0741  0.0285  2.2913
 2494SOL    HW218942   3.125   0.515   7.133  1.7214 -1.5413 -0.1260
 2495SOL     OW18943   4.115   0.066   3.078  0.4996  1.0851  0.7780
 2495SOL    HW118944   4.048   0.008   3.042  0.3301  2.3395 -0.9488
 2495SOL    HW218945   4.067   0.100   3.154 -1.8738 -0.4322 -0.0484
 2496SOL     OW18946   2.388   0.158  12.436  0.2392  1.1088  0.7520
 2496SOL    HW118947   2.460   0.100  12.463 -2.2604 -3.1547 -1.6368
 2496SOL    HW218948   2.442   0.230  12.404  2.6925 -1.3733 -0.8128
 2497SOL     OW18949   1.612   0.897  10.138 -0.3998  0.5587  0.1684
 2497SOL    HW118950   1.544   0.954  10.102  1.1025  2.1884 -0.0304
 2497SOL    HW218951   1.561   0.816  10.131 -0.0387  0.0854  3.0841
 2498SOL     OW18952   1.890   3.623   9.607 -0.4949 -0.9159 -0.2499
 2498SOL    HW118953   1.928   3.680   9.540  1.1985  0.8870  2.2602
 2498SOL    HW218954   1.905   3.679   9.683  0.8223  1.1679 -2.0450
 2499SOL     OW18955   2.018   0.241   0.191  0.4407 -0.7755  0.0350
 2499SOL    HW118956   2.102   0.286   0.182  0.7169 -1.1434  0.7888
 2499SOL    HW218957   1.960   0.297   0.140 -1.4768  0.3519  3.4884
 2500SOL     OW18958   3.264   2.997   0.853 -0.1376 -0.4772 -0.2594
 2500SOL    HW118959   3.240   2.986   0.945  1.0597 -0.6533  0.0313
 2500SOL    HW218960   3.210   2.929   0.814 -2.3212  1.4873 -0.7134
 2501SOL     OW18961   0.701   3.607   5.889 -0.0593 -0.5916  0.5156
 2501SOL    HW118962   0.721   3.612   5.983  0.7842 -2.8911  0.4519
 2501SOL    HW218963   0.740   3.521   5.874  1.0512 -0.1419  0.8626
 2502SOL     OW18964   0.027   2.702   1.704  0.2164  0.5142 -0.2022
 2502SOL    HW118965   4.708   2.729   1.623 -1.0394  0.7675  0.5426
 2502SOL    HW218966   0.093   2.769   1.722 -0.4223  1.8308 -2.7622
 2503SOL     OW18967   0.364   4.279  10.177  0.1992  0.7471  0.7266
 2503SOL    HW118968   0.354   4.251  10.268  0.0060 -1.6846 -0.0415
 2503SOL    HW218969   0.455   4.309  10.176  0.5255 -0.2210  2.3810
 2504SOL     OW18970   0.748   1.528   5.687  0.9889  0.0155 -0.3500
 2504SOL    HW118971   0.817   1.463   5.699  0.9304 -0.2523 -1.4810
 2504SOL    HW218972   0.695   1.519   5.766  2.2597  1.9842  0.7114
 2505SOL     OW18973   0.231   1.019   3.809 -0.3349  0.4103  0.1421
 2505SOL    HW118974   0.252   0.964   3.734 -4.1218 -1.2066  0.3046
 2505SOL    HW218975   0.309   1.012   3.864 -0.1996 -0.8861 -0.2248
 2506SOL     OW18976   3.384   4.481  12.136 -0.3550  0.0233 -0.1204
 2506SOL    HW118977   3.362   4.388  12.128 -3.4085  0.6673  0.6298
 2506SOL    HW218978   3.410   4.486  12.228 -0.6291 -3.2518  0.1353
 2507SOL     OW18979   1.998   0.567   8.066  0.6119  0.1128 -0.8043
 2507SOL    HW118980   2.056   0.504   8.023  1.2476  1.2411 -1.6055
 2507SOL    HW218981   2.045   0.650   8.068  0.7396  0.0431 -0.8961
 2508SOL     OW18982   2.288   1.576   4.515  0.1145  0.6510 -0.2816
 2508SOL    HW118983   2.212   1.535   4.475  0.9420 -2.4905  1.3885
 2508SOL    HW218984   2.243   1.614   4.590  1.4564  0.4480  0.6235
 2509SOL     OW18985   1.562   2.177  15.318  0.4746  0.6290 -0.3519
 2509SOL    HW118986   1.531   2.229  15.245 -0.8081 -1.1796 -1.0892
 2509SOL    HW218987   1.479   2.165  15.365  2.1558 -0.3547  2.4211
 2510SOL     OW18988   2.906   2.038   4.574  0.0922  0.3864 -0.5870
 2510SOL    HW118989   2.907   1.955   4.527 -0.6669  1.3357 -2.3024
 2510SOL    HW218990   2.864   2.010   4.655 -1.4506  1.8223 -0.8868
 2511SOL     OW18991   3.131   4.377   6.001 -0.0715  0.7473  0.0107
 2511SOL    HW118992   3.087   4.307   6.049 -1.5041  1.2813 -0.5428
 2511SOL    HW218993   3.075   4.398   5.927 -0.8332  1.4614  0.7889
 2512SOL     OW18994   2.885   0.702   6.538  0.9181  0.4200  0.2371
 2512SOL    HW118995   2.962   0.685   6.484  2.0863  0.9416  1.7539
 2512SOL    HW218996   2.899   0.642   6.611 -1.4699 -0.2321  0.1710
 2513SOL     OW18997   1.587   2.433   3.649  0.2271 -0.0913  0.2453
 2513SOL    HW118998   1.655   2.446   3.583 -1.0246 -1.0304 -1.2345
 2513SOL    HW218999   1.627   2.507   3.694  2.9887 -2.0915  1.1438
 2514SOL     OW19000   3.239   2.637   8.225  0.5641 -0.1955  0.6210
 2514SOL    HW119001   3.293   2.637   8.147  1.7106 -1.3411  1.4021
 2514SOL    HW219002   3.240   2.544   8.250 -1.2212 -0.2970  0.3204
 2515SOL     OW19003   3.293   3.515  15.224  0.3040 -0.0488  0.0448
 2515SOL    HW119004   3.295   3.441  15.162  2.1910 -1.5489  1.8761
 2515SOL    HW219005   3.258   3.582  15.166 -1.1074  0.2613  1.2551
 2516SOL     OW19006   0.647   2.668   5.895  0.4482 -0.0644 -0.3952
 2516SOL    HW119007   0.667   2.593   5.952 -1.6357 -0.4926 -0.2206
 2516SOL    HW219008   0.732   2.712   5.899  0.0626  0.6087  0.5068
 2517SOL     OW19009   4.681   0.129   7.431  0.4235 -0.2908  0.0466
 2517SOL    HW119010   4.691   0.219   7.399 -1.4789  0.2293  0.9222
 2517SOL    HW219011   0.008   0.128   7.512  1.0075  0.5163 -0.3044
 2518SOL     OW19012   3.791   2.841   6.716  0.2952  0.5896  0.1947
 2518SOL    HW119013   3.765   2.803   6.632  0.2384  0.8050  0.1150
 2518SOL    HW219014   3.868   2.789   6.739 -0.1570 -0.1332  0.0712
 2519SOL     OW19015   4.193   0.992  10.745 -0.4106  0.1233  0.0970
 2519SOL    HW119016   4.109   0.981  10.789 -0.5610  0.8697 -0.0060
 2519SOL    HW219017   4.164   1.058  10.683 -0.5834  1.0060  1.1326
 2520SOL     OW19018   3.721   0.334  13.532 -0.2556  0.3790 -0.6129
 2520SOL    HW119019   3.765   0.340  13.616 -0.0056  0.2552 -0.7361
 2520SOL    HW219020   3.743   0.243  13.512  1.2271  0.8568 -1.1310
 2521SOL     OW19021   2.468   2.827   5.869 -0.1843  0.1290  0.3234
 2521SOL    HW119022   2.453   2.856   5.959 -0.2357 -0.5580  0.5361
 2521SOL    HW219023   2.511   2.902   5.828  0.3295 -0.0618  0.5029
 2522SOL     OW19024   1.731   1.557   2.213 -0.7389 -0.0694 -0.3885
 2522SOL    HW119025   1.772   1.576   2.129 -1.5604 -0.3780 -0.8595
 2522SOL    HW219026   1.656   1.499   2.198  0.8430 -1.7311 -1.7816
 2523SOL     OW19027   1.728   3.528   5.031 -0.2042 -0.4955  0.2624
 2523SOL    HW119028   1.727   3.434   5.047  0.4225 -1.0194 -2.7623
 2523SOL    HW219029   1.675   3.523   4.952  1.4968  0.5587 -0.9467
 2524SOL     OW19030   0.257   2.593   2.476  0.2449  0.1137  0.3480
 2524SOL    HW119031   0.231   2.505   2.500 -2.0983  0.8174  0.3725
 2524SOL    HW219032   0.174   2.641   2.472 -0.4488 -1.1247 -0.0594
 2525SOL     OW19033   0.179   0.887   4.098 -0.5848  0.3939 -0.1913
 2525SOL    HW119034   0.119   0.848   4.162  1.8615 -0.2073  1.7486
 2525SOL    HW219035   0.123   0.961   4.074 -0.4052  0.5597 -0.1022
 2526SOL     OW19036   0.999   2.305   4.902  0.3954  0.2298 -0.2143
 2526SOL    HW119037   0.974   2.213   4.910 -1.5093  0.7930  0.2885
 2526SOL    HW219038   0.923   2.347   4.862  0.8434 -0.6209 -1.9450
 2527SOL     OW19039   2.998   2.201   3.937 -0.1841  0.4761 -0.4603
 2527SOL    HW119040   2.959   2.151   4.008  1.8114 -0.2126  0.1310
 2527SOL    HW219041   3.071   2.145   3.912 -0.5033  0.2759 -0.9438
 2528SOL     OW19042   1.800   3.200   2.540  0.8273 -0.2260 -0.4373
 2528SOL    HW119043   1.791   3.277   2.484 -1.2894 -1.6335 -2.0487
 2528SOL    HW219044   1.888   3.163   2.538  0.5936 -0.8111  0.4655
 2529SOL     OW19045   1.529   3.332   4.612 -0.5968 -0.5190  0.6085
 2529SOL    HW119046   1.601   3.366   4.560  0.0794 -0.2100  1.7564
 2529SOL    HW219047   1.516   3.243   4.579 -0.8105  0.3791 -1.7237
 2530SOL     OW19048   3.923   1.344   1.681  0.2971 -0.1742  0.2445
 2530SOL    HW119049   3.979   1.420   1.699  0.4041 -0.4547  1.0608
 2530SOL    HW219050   3.845   1.389   1.649  1.2581  0.9485 -0.5417
 2531SOL     OW19051   1.904   4.409   5.997 -0.3548  0.2392  0.3231
 2531SOL    HW119052   1.829   4.395   5.939  2.6100 -2.0615 -2.9395
 2531SOL    HW219053   1.888   4.350   6.071 -0.0232  0.5422  0.6339
 2532SOL     OW19054   3.186   0.021   5.735 -0.1935  0.3472 -0.7808
 2532SOL    HW119055   3.117   0.068   5.783  2.5179  0.7828  2.6888
 2532SOL    HW219056   3.165   0.024   5.642 -0.2321  0.3724 -0.7714
 2533SOL     OW19057   0.960   2.999  10.853  0.2071  0.4820  0.2131
 2533SOL    HW119058   0.921   2.979  10.767 -0.0464  2.1086 -0.0516
 2533SOL    HW219059   1.022   2.926  10.854 -0.1457  0.1717 -0.4339
 2534SOL     OW19060   2.853   2.608   7.652 -0.6904  0.4188  0.0873
 2534SOL    HW119061   2.843   2.514   7.667 -0.4318  0.0793 -1.8978
 2534SOL    HW219062   2.933   2.614   7.705 -0.4179  1.8811 -0.4779
 2535SOL     OW19063   3.207   2.557   7.456  0.0772  0.1992 -0.0830
 2535SOL    HW119064   3.230   2.564   7.364  2.2057  0.0593  0.4393
 2535SOL    HW219065   3.111   2.562   7.449 -0.1349 -2.8850  0.4969
 2536SOL     OW19066   1.666   0.557  11.893  0.4349 -0.5402 -0.4022
 2536SOL    HW119067   1.755   0.587  11.911 -0.2868  0.9323  0.7222
 2536SOL    HW219068   1.655   0.496  11.965 -1.6052 -0.6801 -0.8336
 2537SOL     OW19069   2.841   3.146   6.037 -0.2764  0.6710 -0.0092
 2537SOL    HW119070   2.792   3.078   5.990  0.3988  0.3606 -0.2533
 2537SOL    HW219071   2.927   3.105   6.046 -0.7137 -0.4925 -1.1253
 2538SOL     OW19072   3.683   0.407   4.269  0.2153 -0.0983 -0.0890
 2538SOL    HW119073   3.617   0.338   4.267  1.0521 -0.9113  0.4893
 2538SOL    HW219074   3.667   0.445   4.356 -0.9657 -1.7517  0.4224
 2539SOL     OW19075   0.155   0.544   7.994  0.0690 -0.0742 -0.6421
 2539SOL    HW119076   0.088   0.612   8.002 -0.2672 -0.2462 -1.8947
 2539SOL    HW219077   0.213   0.556   8.069 -0.2708 -2.0926 -0.0425
 2540SOL     OW19078   0.091   4.309   8.694  0.0679  0.1616  0.1723
 2540SOL    HW119079   0.112   4.300   8.601  1.9769 -0.5872  0.6891
 2540SOL    HW219080   0.120   4.223   8.724 -2.6384 -0.7723  0.1358
 2541SOL     OW19081   0.712   3.234   8.220  0.3923  0.0089 -0.6041
 2541SOL    HW119082   0.664   3.264   8.142 -0.4078  0.3097  0.0017
 2541SOL    HW219083   0.794   3.283   8.220 -0.5315  1.5569  1.3431
 2542SOL     OW19084   2.454   1.348  16.843 -0.1021 -0.0457  0.5841
 2542SOL    HW119085   2.462   1.301  16.760  0.8482  1.1484 -0.0069
 2542SOL    HW219086   2.432   1.434  16.807  0.6612  0.0317  0.3056
 2543SOL     OW19087   2.445   4.569  10.106 -0.2127  0.0378  0.1844
 2543SOL    HW119088   2.535   4.595  10.086  0.3332 -1.0791  1.2291
 2543SOL    HW219089   2.431   4.525  10.022  0.0771  1.9742 -0.8854
 2544SOL     OW19090   4.190   2.806   5.006  0.0654  0.3102 -0.4054
 2544SOL    HW119091   4.204   2.753   5.085 -2.3841  2.4326  1.4557
 2544SOL    HW219092   4.284   2.800   4.986  0.4107  0.9607  1.0583
 2545SOL     OW19093   0.981   4.430   0.402 -0.3770  0.0562  0.1477
 2545SOL    HW119094   0.973   4.338   0.380  3.1394 -0.2295  0.0274
 2545SOL    HW219095   1.038   4.439   0.479 -0.6555 -4.1030  0.7957
 2546SOL     OW19096   0.718   3.068   3.445  0.0083  0.1256  0.4532
 2546SOL    HW119097   0.709   3.163   3.439 -1.4682 -0.0355  0.0148
 2546SOL    HW219098   0.742   3.048   3.355 -0.7226  0.2856  0.2208
 2547SOL     OW19099   2.988   3.609   4.090 -0.2920  0.5063  0.2196
 2547SOL    HW119100   3.062   3.562   4.127 -1.3325 -0.0664  1.5484
 2547SOL    HW219101   2.923   3.576   4.152 -0.6828 -0.0159 -0.4652
 2548SOL     OW19102   0.951   0.503   3.620 -0.3178  0.2430 -0.2739
 2548SOL    HW119103   1.034   0.546   3.600 -0.3482  0.3451 -0.1792
 2548SOL    HW219104   0.893   0.577   3.601  2.2703  2.2066 -0.4266
 2549SOL     OW19105   2.406   1.195   6.398 -0.2844 -0.1097 -0.3817
 2549SOL    HW119106   2.379   1.103   6.404  0.5297 -0.1396  2.7120
 2549SOL    HW219107   2.495   1.181   6.366 -0.6075 -1.9758 -0.4428
 2550SOL     OW19108   0.230   3.216   7.521 -0.4328 -0.5466 -0.6130
 2550SOL    HW119109   0.154   3.274   7.528  0.2259  0.1360  1.0097
 2550SOL    HW219110   0.301   3.279   7.539 -1.0901  0.5846 -1.9655
 2551SOL     OW19111   2.273   4.421   4.349  0.2623 -0.2717  0.1990
 2551SOL    HW119112   2.189   4.377   4.335  0.9063 -1.3009 -0.4470
 2551SOL    HW219113   2.274   4.430   4.444  0.2788  1.6293  0.0220
 2552SOL     OW19114   1.356   1.745   0.003 -0.2448 -0.3874 -0.0180
 2552SOL    HW119115   1.430   1.704  17.654  1.3848  0.0813  2.2103
 2552SOL    HW219116   1.286   1.716  17.641 -1.3981  1.3740  0.4769
 2553SOL     OW19117   2.261   0.732  10.980 -0.1402  0.2002 -0.8013
 2553SOL    HW119118   2.291   0.693  11.062  0.0989  1.9164 -0.0508
 2553SOL    HW219119   2.273   0.825  11.001 -0.1395 -0.0732  0.3641
 2554SOL     OW19120   2.310   4.639   5.138 -0.5210  0.1662  0.9293
 2554SOL    HW119121   2.308   4.720   5.189 -3.5792  0.5073  0.2641
 2554SOL    HW219122   2.216   4.624   5.126 -0.0816 -2.2090  0.4408
 2555SOL     OW19123   2.494   1.818   3.475  0.0753 -0.3767 -0.3623
 2555SOL    HW119124   2.455   1.745   3.522  3.0604 -1.3511  0.5933
 2555SOL    HW219125   2.579   1.831   3.517 -0.0052 -2.9163  0.5839
 2556SOL     OW19126   4.032   2.825   7.351  0.2795 -0.5173 -0.2960
 2556SOL    HW119127   4.128   2.821   7.347  0.2784 -2.8755  2.3847
 2556SOL    HW219128   4.017   2.731   7.341 -3.3245  0.2269 -1.8411
 2557SOL     OW19129   3.360   2.540   5.872 -0.0934  0.3237  0.5849
 2557SOL    HW119130   3.393   2.498   5.952 -1.5696  0.3193  1.2044
 2557SOL    HW219131   3.392   2.629   5.889  1.6853  0.5927 -4.2512
 2558SOL     OW19132   4.293   3.778   5.139  0.4494  0.4002 -0.0506
 2558SOL    HW119133   4.320   3.687   5.155 -1.4471  0.0648  1.1516
 2558SOL    HW219134   4.365   3.826   5.180  1.6508 -0.4106 -1.1863
 2559SOL     OW19135   1.693   2.527   1.337  0.3467  0.0109 -0.8006
 2559SOL    HW119136   1.740   2.606   1.308  0.2357 -0.1228 -1.3525
 2559SOL    HW219137   1.722   2.520   1.428 -2.4554 -1.4483 -0.0206
 2560SOL     OW19138   3.332   3.056  17.347 -0.2697 -0.1187 -0.6105
 2560SOL    HW119139   3.337   3.134  17.403  0.4285 -0.5850 -0.0306
 2560SOL    HW219140   3.389   2.996  17.395  0.0723  0.7703  0.0873
 2561SOL     OW19141   1.293   0.899  10.051  0.2096 -0.2020  0.3870
 2561SOL    HW119142   1.266   0.907  10.143  1.4878 -1.6591  0.8888
 2561SOL    HW219143   1.336   0.814  10.048 -2.0204 -1.2417 -2.0459
 2562SOL     OW19144   0.484   0.260   2.272  0.3899 -0.3241  0.2758
 2562SOL    HW119145   0.484   0.312   2.352  1.9266  1.0604 -0.6066
 2562SOL    HW219146   0.577   0.237   2.267  0.2890 -0.8636  0.9769
 2563SOL     OW19147   0.166   4.406   6.822 -0.0851  0.2109 -0.6073
 2563SOL    HW119148   0.144   4.399   6.915 -3.6302 -0.0724 -1.4723
 2563SOL    HW219149   0.095   4.463   6.792 -1.1068 -0.6250  0.2300
 2564SOL     OW19150   0.592   1.421   5.446 -0.2524  0.1817 -0.2412
 2564SOL    HW119151   0.651   1.423   5.521  0.7821  3.0374 -1.1582
 2564SOL    HW219152   0.664   1.436   5.385 -1.2525 -1.3319 -1.8122
 2565SOL     OW19153   1.201   1.514   8.730  0.3436  0.3561  0.3599
 2565SOL    HW119154   1.265   1.551   8.669 -0.0943  0.5749  0.0290
 2565SOL    HW219155   1.181   1.590   8.784 -3.1076 -0.0564 -0.3584
 2566SOL     OW19156   4.588   0.640   6.581 -0.0409  0.4365  0.2707
 2566SOL    HW119157   4.575   0.731   6.608 -2.3190  0.1142  0.2240
 2566SOL    HW219158   4.659   0.646   6.517 -0.0021 -1.2798  0.1420
 2567SOL     OW19159   1.819   4.269  10.272  0.3557  0.0793  0.1718
 2567SOL    HW119160   1.802   4.357  10.306 -1.2476 -1.4937  3.4464
 2567SOL    HW219161   1.829   4.221  10.354  0.4669 -1.0671 -0.5035
 2568SOL     OW19162   3.343   4.631   0.544  0.1843  0.0098 -0.2256
 2568SOL    HW119163   3.424   4.613   0.496  0.4915 -1.5137  0.9007
 2568SOL    HW219164   3.370   4.638   0.635 -0.2118 -1.1547 -0.0285
 2569SOL     OW19165   1.439   4.008   5.266 -0.0110  0.0966 -0.3330
 2569SOL    HW119166   1.415   4.062   5.190 -0.9708  0.4847  0.2449
 2569SOL    HW219167   1.379   4.046   5.330 -2.1346 -1.8594 -1.1210
 2570SOL     OW19168   0.836   0.087  10.479  0.3977 -0.5543 -0.4174
 2570SOL    HW119169   0.922   0.086  10.437  0.3038  2.4447 -0.6132
 2570SOL    HW219170   0.827   0.169  10.527  0.6332 -0.8998  0.2111
 2571SOL     OW19171   3.969   0.327   8.513  0.2783 -0.1008 -0.2166
 2571SOL    HW119172   3.931   0.263   8.453 -1.4639 -2.5365  3.4733
 2571SOL    HW219173   3.918   0.407   8.499 -0.2024 -0.8758 -2.8716
 2572SOL     OW19174   3.817   0.744   5.606 -0.6337  0.4506  0.9545
 2572SOL    HW119175   3.854   0.775   5.689 -0.0783  1.8481  0.1839
 2572SOL    HW219176   3.866   0.662   5.606  0.0047  0.8223 -0.4009
 2573SOL     OW19177   3.958   4.130   8.877 -0.2654 -0.7176  0.5227
 2573SOL    HW119178   3.870   4.151   8.906 -1.0249 -2.1494 -0.7086
 2573SOL    HW219179   4.016   4.191   8.922  0.5309  0.1633 -1.6773
 2574SOL     OW19180   2.195   4.394   9.602  0.5381  0.6800  0.4167
 2574SOL    HW119181   2.121   4.395   9.541 -0.5402  2.7019  1.7352
 2574SOL    HW219182   2.265   4.392   9.537 -0.2578  0.5573 -0.4427
 2575SOL     OW19183   2.504   0.541   1.956  0.7362 -0.0155  0.2859
 2575SOL    HW119184   2.440   0.534   1.886 -0.6845 -0.7990  1.6757
 2575SOL    HW219185   2.519   0.635   1.964  1.0050  0.0079 -0.5418
 2576SOL     OW19186   1.453   0.372   4.648  0.2600  0.3214 -0.2429
 2576SOL    HW119187   1.508   0.421   4.708 -0.7598  0.7390  0.3601
 2576SOL    HW219188   1.516   0.311   4.610  0.3576  1.5817 -2.0340
 2577SOL     OW19189   1.981   3.492  14.953  0.0060  0.1043  0.7640
 2577SOL    HW119190   1.911   3.514  15.014  0.4525 -1.8009  1.9691
 2577SOL    HW219191   2.037   3.565  14.979 -1.1688  0.6407  1.7930
 2578SOL     OW19192   4.310   0.095   2.592  0.4774 -0.0652  0.3891
 2578SOL    HW119193   4.370   0.149   2.540 -1.3307 -0.9517 -2.5696
 2578SOL    HW219194   4.354   0.074   2.675  0.6530  0.9955  0.5739
 2579SOL     OW19195   1.892   3.783   4.905  0.3699 -0.3982  0.0351
 2579SOL    HW119196   1.836   3.785   4.982  1.6141  0.4859  0.9141
 2579SOL    HW219197   1.929   3.872   4.910 -0.1652 -0.3370  2.9763
 2580SOL     OW19198   1.698   3.987  11.706  0.1314 -0.3677  0.1076
 2580SOL    HW119199   1.669   4.078  11.720  2.4943  0.5529 -1.0984
 2580SOL    HW219200   1.793   3.997  11.708  0.3131 -1.8128 -1.3447
 2581SOL     OW19201   0.743   4.684   8.939 -0.0101  0.1527  0.0028
 2581SOL    HW119202   0.777   4.657   9.024 -1.8704 -2.0985  0.0222
 2581SOL    HW219203   0.699   0.043   8.957  3.7415  1.4391  3.2377
 2582SOL     OW19204   3.702   0.821   3.081 -0.1933 -0.0186 -0.6929
 2582SOL    HW119205   3.757   0.832   3.159 -0.2178  2.4699 -0.9979
 2582SOL    HW219206   3.766   0.841   3.012 -0.2619  0.3678 -0.6478
 2583SOL     OW19207   1.245   0.409  11.675  0.0673 -0.1768 -0.1534
 2583SOL    HW119208   1.238   0.387  11.582  0.6958 -0.1924 -0.1927
 2583SOL    HW219209   1.203   0.496  11.679  0.7108  0.1743 -1.1346
 2584SOL     OW19210   0.601   1.864   5.439 -0.2443 -0.1904 -0.1347
 2584SOL    HW119211   0.613   1.798   5.371  0.3271 -0.6456  0.4068
 2584SOL    HW219212   0.673   1.925   5.424  0.0211 -0.4305  0.1579
 2585SOL     OW19213   4.359   4.318   4.340 -0.0524 -0.3169 -0.5429
 2585SOL    HW119214   4.380   4.384   4.274  0.9027  0.9686  1.0331
 2585SOL    HW219215   4.274   4.303   4.299 -0.9233  0.1704  1.0634
 2586SOL     OW19216   3.411   1.613   1.508  0.0804 -0.3116 -0.1546
 2586SOL    HW119217   3.356   1.607   1.430 -1.5570  2.5154  0.7629
 2586SOL    HW219218   3.473   1.680   1.478 -0.1768 -0.1673 -0.3556
 2587SOL     OW19219   4.252   3.353   5.921  0.1232 -0.0416  0.3498
 2587SOL    HW119220   4.275   3.337   6.013  2.3586 -0.2858 -0.2538
 2587SOL    HW219221   4.168   3.308   5.923 -0.3553  0.8552  0.9303
 2588SOL     OW19222   0.113   2.312   8.297  0.4064  0.6110  0.1582
 2588SOL    HW119223   0.124   2.323   8.392  3.2044 -3.3004  0.2937
 2588SOL    HW219224   0.201   2.292   8.264 -0.4339  1.2408 -2.4733
 2589SOL     OW19225   2.441   3.123   0.355 -0.2291  0.9669 -0.2012
 2589SOL    HW119226   2.359   3.081   0.331 -0.2915  0.6394  0.5894
 2589SOL    HW219227   2.426   3.217   0.347 -1.5072  0.8830  1.2729
 2590SOL     OW19228   3.955   0.727  14.737  0.2553  0.5144  0.3916
 2590SOL    HW119229   3.972   0.801  14.678  0.3284  0.7206  0.6735
 2590SOL    HW219230   3.965   0.764  14.824  2.9815  0.7313  0.0013
 2591SOL     OW19231   1.001   1.116   4.026  0.1059 -0.1456  0.6868
 2591SOL    HW119232   0.982   1.054   4.095 -0.9079  1.1350  1.5564
 2591SOL    HW219233   1.055   1.178   4.076 -0.1514  0.1031  0.6580
 2592SOL     OW19234   0.350   2.958   2.598  0.0503 -0.5092 -0.3502
 2592SOL    HW119235   0.337   2.977   2.505  1.1226  0.6749 -0.2520
 2592SOL    HW219236   0.267   2.911   2.613 -0.8877  1.2887  0.1033
 2593SOL     OW19237   0.054   2.283   1.812  0.4070  0.1287  0.7535
 2593SOL    HW119238   0.107   2.340   1.867  3.0475 -1.1501 -0.4493
 2593SOL    HW219239   0.014   2.234   1.884  0.5767  0.1424  0.8557
 2594SOL     OW19240   0.968   4.373   7.313  0.2453  0.1473 -0.2885
 2594SOL    HW119241   0.928   4.288   7.330 -2.0876  1.3604  0.2715
 2594SOL    HW219242   1.042   4.382   7.374  0.5193  2.6729 -0.9949
 2595SOL     OW19243   2.768   3.040   2.545 -0.0010 -0.0722 -0.7636
 2595SOL    HW119244   2.838   3.023   2.609  0.6830 -1.8187 -1.9889
 2595SOL    HW219245   2.741   2.949   2.537 -2.5560  0.6729 -0.7389
 2596SOL     OW19246   3.628   4.011   3.826 -0.1821  0.6955  0.0284
 2596SOL    HW119247   3.619   3.975   3.738 -0.2233 -1.5905  0.9591
 2596SOL    HW219248   3.673   4.095   3.820  0.7783 -0.0398 -3.0705
 2597SOL     OW19249   3.436   4.337  10.658  0.9131 -0.6698 -0.4504
 2597SOL    HW119250   3.510   4.356  10.600  2.5142 -1.2277  1.3929
 2597SOL    HW219251   3.367   4.332  10.592  0.9029  2.8874 -0.7139
 2598SOL     OW19252   0.923   4.363   2.493  0.2937 -0.4217 -0.5426
 2598SOL    HW119253   0.988   4.298   2.519 -1.4319 -1.5206  0.9680
 2598SOL    HW219254   0.846   4.306   2.488 -0.0544 -0.1302  1.3356
 2599SOL     OW19255   3.349   1.568   4.073 -0.3475  0.3916  0.5972
 2599SOL    HW119256   3.379   1.654   4.102  2.3371 -0.1435 -0.7013
 2599SOL    HW219257   3.401   1.559   3.994 -0.1611 -0.0102  0.7665
 2600SOL     OW19258   1.101   1.330  11.212  0.0406  0.1271 -0.0573
 2600SOL    HW119259   1.016   1.359  11.179 -0.1273  0.0047  0.2615
 2600SOL    HW219260   1.158   1.357  11.141 -0.8679  2.9192  0.2720
 2601SOL     OW19261   3.120   1.701   8.244 -0.6757 -0.0860  0.1446
 2601SOL    HW119262   3.084   1.678   8.329 -1.9533  0.4459 -0.2587
 2601SOL    HW219263   3.212   1.717   8.268 -1.2702  2.3716  0.8199
 2602SOL     OW19264   1.187   0.146  14.938 -0.1197 -0.0962 -0.7761
 2602SOL    HW119265   1.140   0.178  15.015 -0.4591 -0.3013 -0.8970
 2602SOL    HW219266   1.164   0.054  14.925 -0.3508 -0.3297  1.3019
 2603SOL     OW19267   1.606   2.615  12.030  0.3610 -0.0822  0.2018
 2603SOL    HW119268   1.567   2.701  12.016  0.7631 -0.3518 -2.5203
 2603SOL    HW219269   1.527   2.562  12.014 -0.8360  2.3659 -1.9289
 2604SOL     OW19270   0.318   1.682   5.408 -0.0336 -0.0022 -0.7002
 2604SOL    HW119271   0.238   1.734   5.405 -0.3790 -0.4913  0.0688
 2604SOL    HW219272   0.305   1.620   5.480 -0.6375 -1.1593 -1.8085
 2605SOL     OW19273   0.420   3.517   6.852  0.0978 -0.9965  0.4217
 2605SOL    HW119274   0.512   3.532   6.874  0.5555 -0.7976 -1.6570
 2605SOL    HW219275   0.388   3.602   6.882  1.7292 -0.7008  1.3748
 2606SOL     OW19276   1.901   4.096   9.818 -0.1001  0.0197  0.4833
 2606SOL    HW119277   1.970   4.156   9.845  0.0533 -0.5239  1.2786
 2606SOL    HW219278   1.835   4.108   9.887  0.3733  1.1467  0.7334
 2607SOL     OW19279   0.219   1.228  15.161 -0.2658 -0.2121  0.5895
 2607SOL    HW119280   0.182   1.304  15.204  0.4331 -0.1672  1.1167
 2607SOL    HW219281   0.185   1.156  15.214 -0.5664  1.1213  2.1909
 2608SOL     OW19282   0.730   0.462  10.707  0.1068 -0.4715 -0.0387
 2608SOL    HW119283   0.739   0.369  10.730  0.3744 -0.5440 -0.4279
 2608SOL    HW219284   0.717   0.468  10.613 -2.5976 -3.7054  0.1302
 2609SOL     OW19285   1.043   1.944   4.669 -0.1180 -0.4198 -0.3395
 2609SOL    HW119286   1.017   1.858   4.699 -2.5273  0.2771 -0.4586
 2609SOL    HW219287   0.965   1.999   4.666  0.3710  0.1762 -2.2065
 2610SOL     OW19288   0.016   2.802   3.577  0.0820  0.0501 -0.2141
 2610SOL    HW119289   0.053   2.888   3.597  2.7446 -0.8224 -1.4334
 2610SOL    HW219290   0.086   2.772   3.520  0.0024 -1.7127  0.6090
 2611SOL     OW19291   2.467   0.286  10.169 -0.0718  0.2219 -0.2797
 2611SOL    HW119292   2.453   0.192  10.178 -1.6577  0.4401 -0.4579
 2611SOL    HW219293   2.408   0.338  10.225  0.7547  1.7183 -0.7944
 2612SOL     OW19294   3.564   3.445  14.041  0.8160 -1.1442 -0.4839
 2612SOL    HW119295   3.553   3.350  14.034 -0.7706 -0.9900 -0.1031
 2612SOL    HW219296   3.483   3.482  14.005  1.6799  1.3323  0.0867
 2613SOL     OW19297   4.441   4.060   6.925  0.5673 -0.0964  0.4653
 2613SOL    HW119298   4.359   4.109   6.930 -0.4746 -1.6444 -1.0491
 2613SOL    HW219299   4.415   3.983   6.873  1.0897  0.9182 -1.2971
 2614SOL     OW19300   2.662   1.357  14.613  0.0418 -0.4297 -0.2189
 2614SOL    HW119301   2.756   1.357  14.630  0.1850  0.2453 -1.0157
 2614SOL    HW219302   2.641   1.338  14.704 -1.6971 -0.1795 -0.5654
 2615SOL     OW19303   3.146   3.909   8.075  0.9154 -0.1887  0.2125
 2615SOL    HW119304   3.212   3.844   8.100 -0.9139 -2.3002 -0.4133
 2615SOL    HW219305   3.193   3.990   8.056  0.8043  0.2398  1.8025
 2616SOL     OW19306   2.289   1.487   6.114 -0.3220  0.3876 -0.0885
 2616SOL    HW119307   2.338   1.404   6.112 -1.9946 -0.5858 -0.1484
 2616SOL    HW219308   2.204   1.449   6.093  0.7774 -1.9968 -0.2789
 2617SOL     OW19309   2.931   1.130   8.353 -0.0348  0.0160 -0.1258
 2617SOL    HW119310   2.895   1.180   8.426  0.8254  2.7520 -1.5888
 2617SOL    HW219311   2.865   1.150   8.287  0.0968 -0.5066 -0.4173
 2618SOL     OW19312   2.350   1.415  12.229 -0.0557  0.5127  0.3882
 2618SOL    HW119313   2.374   1.405  12.137  0.9454  0.5813  0.6365
 2618SOL    HW219314   2.408   1.352  12.271  2.6396  0.3933 -3.5686
 2619SOL     OW19315   4.353   2.078   5.997 -0.0102  0.2299 -0.4209
 2619SOL    HW119316   4.363   2.032   6.080 -1.4283 -1.5031 -1.2007
 2619SOL    HW219317   4.348   2.170   6.022 -2.2085  0.0786 -0.3283
 2620SOL     OW19318   0.267   2.921  10.226 -0.1150  0.0495  0.2538
 2620SOL    HW119319   0.182   2.931  10.270 -1.0305 -1.6721 -1.1423
 2620SOL    HW219320   0.305   2.849  10.276  0.3628  0.9999  1.2566
 2621SOL     OW19321   2.891   0.302   8.257  0.3316 -0.5625  0.4121
 2621SOL    HW119322   2.981   0.332   8.262  0.2718 -0.0049 -1.9769
 2621SOL    HW219323   2.888   0.253   8.340 -2.0019 -0.8411  0.1821
 2622SOL     OW19324   0.348   0.391   2.846  0.0617 -0.3002 -0.3226
 2622SOL    HW119325   0.257   0.385   2.875 -0.3083 -0.7490 -1.5554
 2622SOL    HW219326   0.401   0.403   2.925 -0.9297 -1.6028  0.5322
 2623SOL     OW19327   1.484   4.327   2.352  0.3465 -0.2399 -0.1956
 2623SOL    HW119328   1.429   4.405   2.358 -0.0283 -0.5637  0.5981
 2623SOL    HW219329   1.456   4.290   2.268  1.3318  1.3677 -1.2458
 2624SOL     OW19330   0.724   3.109   2.469 -0.3099 -1.2702  0.9776
 2624SOL    HW119331   0.738   3.020   2.502  0.6146 -1.1017  1.0449
 2624SOL    HW219332   0.765   3.104   2.383 -0.7596  0.8900  0.6324
 2625SOL     OW19333   3.153   1.919   4.204 -0.1700 -0.1922 -0.2587
 2625SOL    HW119334   3.107   1.836   4.209 -0.1972 -0.0861  1.2189
 2625SOL    HW219335   3.214   1.912   4.277 -2.3073 -0.3337  1.4955
 2626SOL     OW19336   0.860   4.365   6.104  0.0568 -0.4682 -0.5821
 2626SOL    HW119337   0.807   4.288   6.083 -1.1445  0.6452 -1.6836
 2626SOL    HW219338   0.883   4.404   6.020 -1.1830 -2.0859 -1.6557
 2627SOL     OW19339   1.248   3.304   8.925 -0.0582  0.8396  0.1346
 2627SOL    HW119340   1.188   3.238   8.890  0.4235  0.0065  0.8913
 2627SOL    HW219341   1.195   3.319   9.004 -1.0535  1.7153 -0.7062
 2628SOL     OW19342   0.453   4.353   4.018 -0.7748 -0.2557 -0.0096
 2628SOL    HW119343   0.505   4.275   4.000 -0.9525 -0.4653  0.3985
 2628SOL    HW219344   0.514   4.385   4.085 -1.8567  0.6083  0.5529
 2629SOL     OW19345   0.674   2.156   8.355 -0.2136 -0.1803 -0.9748
 2629SOL    HW119346   0.768   2.142   8.344  0.1110 -0.4414  2.0836
 2629SOL    HW219347   0.674   2.250   8.339  1.4397  0.1790  1.1972
 2630SOL     OW19348   3.234   4.412   1.907 -0.1314  0.8674 -0.3373
 2630SOL    HW119349   3.270   4.498   1.929  0.6786  0.0533  1.5464
 2630SOL    HW219350   3.163   4.428   1.845 -1.7582  2.4100  1.8948
 2631SOL     OW19351   1.290   3.085  16.144 -0.3721 -0.6591  0.7903
 2631SOL    HW119352   1.314   3.171  16.108 -0.8585 -1.8393 -2.3252
 2631SOL    HW219353   1.210   3.067  16.095 -1.1163  2.0159  1.0094
 2632SOL     OW19354   2.510   1.336   2.889 -0.6764 -0.5399  0.3613
 2632SOL    HW119355   2.591   1.293   2.917 -1.2978 -0.3370  2.4622
 2632SOL    HW219356   2.446   1.269   2.913  0.0063 -0.8274  1.4048
 2633SOL     OW19357   1.115   2.538   7.697  0.0763 -0.3259 -0.0660
 2633SOL    HW119358   1.123   2.535   7.792  1.7953  0.0080 -0.2067
 2633SOL    HW219359   1.041   2.597   7.682  0.1347 -0.5857 -1.4284
 2634SOL     OW19360   2.117   0.935   7.387 -0.3606  0.7574 -0.4056
 2634SOL    HW119361   2.096   0.972   7.301  0.1670 -2.5194 -1.9095
 2634SOL    HW219362   2.104   1.007   7.450  1.5579  1.6279 -0.9897
 2635SOL     OW19363   3.059   4.332   4.176 -0.6597 -0.5222 -0.0847
 2635SOL    HW119364   3.148   4.337   4.141 -0.7627 -1.5870 -0.5031
 2635SOL    HW219365   3.011   4.318   4.094  1.0575 -2.4104 -0.7882
 2636SOL     OW19366   4.255   4.262   2.805 -0.0459 -0.0494 -0.5703
 2636SOL    HW119367   4.275   4.300   2.720  0.8881  0.3383 -0.1739
 2636SOL    HW219368   4.159   4.258   2.803 -0.1161  1.2703  0.6196
 2637SOL     OW19369   0.110   4.462   3.668  0.1921  0.5559 -0.1512
 2637SOL    HW119370   0.107   4.556   3.652  0.8478  0.0854 -3.0257
 2637SOL    HW219371   0.139   4.463   3.759  1.1167 -3.4721 -0.3952
 2638SOL     OW19372   0.358   2.757   4.692  0.1067  0.2210 -0.2213
 2638SOL    HW119373   0.332   2.681   4.640 -1.2743 -0.2358  1.1374
 2638SOL    HW219374   0.427   2.785   4.632 -0.6672 -1.9346 -2.1421
 2639SOL     OW19375   1.291   0.091   4.745 -0.8046  0.1796 -0.3311
 2639SOL    HW119376   1.276   0.091   4.840 -0.8595  0.8430 -0.3411
 2639SOL    HW219377   1.340   0.173   4.740  0.5178 -0.6206 -0.4079
 2640SOL     OW19378   0.978   0.417   8.041  0.0382 -0.2623 -0.0737
 2640SOL    HW119379   1.040   0.348   8.018  0.6130 -0.3766  1.8359
 2640SOL    HW219380   0.911   0.388   7.980  0.8392 -2.2932  0.0037
 2641SOL     OW19381   4.040   3.747   6.918  0.4525 -0.3840 -0.2182
 2641SOL    HW119382   3.989   3.721   6.994  0.9523  1.5632  0.8107
 2641SOL    HW219383   3.988   3.815   6.875  1.8623  0.2158 -1.0037
 2642SOL     OW19384   2.568   3.232   9.100  0.2850 -0.3452 -0.6055
 2642SOL    HW119385   2.569   3.150   9.149 -2.4859  0.2431  0.4669
 2642SOL    HW219386   2.482   3.213   9.062 -0.4730  0.0495  0.8900
 2643SOL     OW19387   0.828   0.554  10.946  0.1645  0.2593  0.5593
 2643SOL    HW119388   0.789   0.524  10.863 -0.3357 -0.1546  0.9461
 2643SOL    HW219389   0.833   0.465  10.979 -0.9197  0.9705  2.6131
 2644SOL     OW19390   2.511   4.070   8.719 -0.4189  0.3513 -0.3575
 2644SOL    HW119391   2.584   4.072   8.657 -0.9601 -0.4131 -1.0271
 2644SOL    HW219392   2.519   4.154   8.765  0.7880  1.4257 -2.5385
 2645SOL     OW19393   3.035   0.666   0.953  0.1799 -0.0202 -0.0831
 2645SOL    HW119394   3.116   0.669   0.903  1.0308 -0.8273  1.2500
 2645SOL    HW219395   3.076   0.689   1.037 -1.2838 -1.0470  0.9193
 2646SOL     OW19396   3.858   3.854  17.216  0.9620 -0.0156  0.8860
 2646SOL    HW119397   3.932   3.838  17.158 -0.0962  1.0536 -0.7573
 2646SOL    HW219398   3.817   3.768  17.210  3.0137 -0.9086 -0.3217
 2647SOL     OW19399   2.196   1.858   3.767 -0.1276 -0.6357  0.0735
 2647SOL    HW119400   2.158   1.946   3.769 -1.5922 -1.1979 -2.2397
 2647SOL    HW219401   2.205   1.838   3.673  1.9197 -0.5285  0.2376
 2648SOL     OW19402   2.195   3.692   4.580  0.0945 -0.1917 -0.1026
 2648SOL    HW119403   2.248   3.771   4.567  0.5008 -0.1453  1.8006
 2648SOL    HW219404   2.106   3.728   4.578  0.2572  0.1573 -1.1475
 2649SOL     OW19405   4.160   3.519  16.135  0.5078 -0.3230  0.1650
 2649SOL    HW119406   4.234   3.457  16.133  0.9382  0.3137 -2.7696
 2649SOL    HW219407   4.090   3.461  16.107  1.4925 -1.4405  0.0109
 2650SOL     OW19408   0.753   0.197  15.794 -0.4961 -0.0097  0.2104
 2650SOL    HW119409   0.834   0.227  15.835 -0.2997 -0.7471  0.3625
 2650SOL    HW219410   0.738   0.118  15.847 -0.2652 -1.0662 -1.2951
 2651SOL     OW19411   4.397   2.805   3.882 -0.4303  0.0491  0.0809
 2651SOL    HW119412   4.398   2.797   3.977  1.1540  0.5129  0.0964
 2651SOL    HW219413   4.413   2.716   3.851  1.0320  0.3288  0.0434
 2652SOL     OW19414   2.145   2.719   2.192 -0.2245 -0.7145 -0.0628
 2652SOL    HW119415   2.099   2.683   2.268 -0.1598 -0.1385  0.2441
 2652SOL    HW219416   2.233   2.733   2.228  0.1274 -0.5487 -0.9955
 2653SOL     OW19417   1.022   2.633   8.069  0.7511 -0.2727  0.5984
 2653SOL    HW119418   1.047   2.715   8.111  0.4966 -0.0133  0.2519
 2653SOL    HW219419   1.110   2.606   8.043  0.3890  1.0075 -1.9765
 2654SOL     OW19420   3.430   1.154   0.171  0.5390 -0.5549 -0.1922
 2654SOL    HW119421   3.465   1.135   0.084 -2.5156  0.7666 -1.7385
 2654SOL    HW219422   3.366   1.083   0.178  1.4515 -1.3860 -0.3868
 2655SOL     OW19423   0.686   4.685   2.577  0.3272 -0.3981 -0.4074
 2655SOL    HW119424   0.774   4.711   2.602  0.3452 -2.5906  1.8363
 2655SOL    HW219425   0.674   4.605   2.628 -1.6981  1.2816  1.7831
 2656SOL     OW19426   3.215   0.631   5.923  0.1726 -0.1987  0.1922
 2656SOL    HW119427   3.157   0.604   5.994  1.0552 -2.8856 -0.1011
 2656SOL    HW219428   3.188   0.578   5.849  2.0135 -0.5526 -0.2270
 2657SOL     OW19429   3.964   0.246   3.829  0.1435 -0.0192  0.2227
 2657SOL    HW119430   3.926   0.283   3.909  1.3925  1.2956  0.2277
 2657SOL    HW219431   4.052   0.285   3.830  0.0794  0.0854  1.5519
 2658SOL     OW19432   1.759   2.859  15.604 -0.4370 -0.4061  0.5563
 2658SOL    HW119433   1.754   2.948  15.639 -1.7062  0.1536 -1.0598
 2658SOL    HW219434   1.799   2.808  15.675 -0.3485 -0.3533  0.5456
 2659SOL     OW19435   3.314   4.401   3.180  0.2391  0.2169  0.1278
 2659SOL    HW119436   3.309   4.436   3.092 -1.8693  1.6227  0.8100
 2659SOL    HW219437   3.405   4.375   3.191 -0.0350  0.0742  2.1212
 2660SOL     OW19438   0.755   1.986   9.354  0.4445 -0.1987  0.5445
 2660SOL    HW119439   0.724   1.896   9.347  0.8756 -0.2563 -0.5686
 2660SOL    HW219440   0.684   2.028   9.402 -0.1624  0.9846 -1.4100
 2661SOL     OW19441   3.622   0.629  13.674  0.1236  0.1519  0.1421
 2661SOL    HW119442   3.706   0.658  13.640  0.6034 -1.8962 -0.3830
 2661SOL    HW219443   3.633   0.672  13.759  3.2294  0.3204 -0.3622
 2662SOL     OW19444   0.421   4.685   7.818 -0.3410  0.2872  0.4549
 2662SOL    HW119445   0.419   4.681   7.914 -1.6255 -0.8658  0.3782
 2662SOL    HW219446   0.355   4.617   7.803  1.3202 -1.2294 -0.0538
 2663SOL     OW19447   2.465   1.416   9.108 -0.7511  0.1677 -0.2199
 2663SOL    HW119448   2.543   1.451   9.151 -0.3727  1.5345 -2.0295
 2663SOL    HW219449   2.397   1.467   9.151  0.7921  0.6414  1.6370
 2664SOL     OW19450   4.374   2.353   6.444 -0.0418 -0.6979 -0.2319
 2664SOL    HW119451   4.304   2.418   6.439  0.8535  0.2149 -0.8765
 2664SOL    HW219452   4.431   2.394   6.510 -0.7715  0.5365 -0.3780
 2665SOL     OW19453   1.114   4.258   4.169  0.5005  0.4065  0.0858
 2665SOL    HW119454   1.020   4.264   4.187  0.7664 -1.0516  2.0268
 2665SOL    HW219455   1.152   4.253   4.257  1.5122 -1.6077 -0.4689
 2666SOL     OW19456   4.183   1.662  13.554 -0.1333  0.5583 -0.3271
 2666SOL    HW119457   4.137   1.625  13.630  0.0333 -1.3214 -1.1595
 2666SOL    HW219458   4.272   1.628  13.554 -0.4227 -0.2178  0.8064
 2667SOL     OW19459   1.811   0.013   7.471  0.2671 -0.8084  0.1072
 2667SOL    HW119460   1.865   0.093   7.476 -0.3552 -0.5705  2.9144
 2667SOL    HW219461   1.788   0.019   7.378 -1.1307  0.9463  0.5654
 2668SOL     OW19462   4.223   0.222   6.903 -0.0469 -0.2926 -0.2075
 2668SOL    HW119463   4.256   0.246   6.816 -0.2260 -1.6327 -0.6387
 2668SOL    HW219464   4.236   0.127   6.902 -2.3359 -0.6012 -0.6923
 2669SOL     OW19465   0.487   1.851   1.015 -0.6641  0.0486 -0.4208
 2669SOL    HW119466   0.440   1.887   0.939  0.8843 -2.0613 -2.3986
 2669SOL    HW219467   0.501   1.927   1.071  2.0074 -0.8503  0.1191
 2670SOL     OW19468   0.142   4.685   2.252 -0.3411 -0.0666 -0.3852
 2670SOL    HW119469   0.141   4.598   2.291  1.2110 -0.9098 -2.2005
 2670SOL    HW219470   0.049   4.708   2.242 -0.4585 -0.8413 -1.0861
 2671SOL     OW19471   2.509   4.020  12.710 -0.4372  0.4491  0.2261
 2671SOL    HW119472   2.508   4.058  12.798 -0.5139  1.4492 -0.2023
 2671SOL    HW219473   2.586   4.059  12.670 -0.8373  0.8621 -0.1508
 2672SOL     OW19474   0.613   3.551  14.080 -0.0880 -0.1693 -0.1970
 2672SOL    HW119475   0.684   3.491  14.057  0.6022  0.4285  0.3880
 2672SOL    HW219476   0.604   3.551  14.176 -3.1717 -0.3198 -0.4877
 2673SOL     OW19477   0.154   4.049  13.091  0.1327 -0.1860 -0.1335
 2673SOL    HW119478   0.122   4.074  13.178 -0.8487  0.0547 -0.5590
 2673SOL    HW219479   0.187   4.129  13.049  0.9770 -0.7011 -0.4547
 2674SOL     OW19480   0.805   4.191   2.985 -0.1322 -0.6163  0.4737
 2674SOL    HW119481   0.758   4.113   2.955  0.1865 -0.3005 -0.8288
 2674SOL    HW219482   0.800   4.233   2.899 -0.8480 -2.0465 -0.1919
 2675SOL     OW19483   0.323   1.516  15.687  0.3618 -0.1314  0.2011
 2675SOL    HW119484   0.390   1.507  15.755 -1.1667 -2.2310  1.3953
 2675SOL    HW219485   0.260   1.575  15.728  1.3293 -0.6015  2.3501
 2676SOL     OW19486   0.915   1.540   8.694  0.8764  0.6850  0.0161
 2676SOL    HW119487   1.009   1.535   8.707  0.8287  0.0891  0.1397
 2676SOL    HW219488   0.885   1.493   8.772 -0.8380  1.0993 -0.3808
 2677SOL     OW19489   3.171   4.304   5.174 -0.5771 -0.0860 -0.4834
 2677SOL    HW119490   3.146   4.243   5.104 -3.3669 -0.7562  1.0683
 2677SOL    HW219491   3.157   4.248   5.250 -1.8355 -0.0638 -0.6960
 2678SOL     OW19492   4.409   4.285   3.666  0.8275  0.7655 -0.2286
 2678SOL    HW119493   4.492   4.297   3.620  0.6117  2.2189 -0.2285
 2678SOL    HW219494   4.404   4.371   3.707  0.5961  1.3210 -1.4387
 2679SOL     OW19495   2.034   4.401   3.739  0.1583 -0.1166  0.7396
 2679SOL    HW119496   1.961   4.357   3.694 -0.3836  1.2637  0.2634
 2679SOL    HW219497   2.012   4.492   3.759  0.3829 -0.2879  1.7409
 2680SOL     OW19498   0.747   4.476   1.292 -0.4933 -0.5308 -0.3169
 2680SOL    HW119499   0.729   4.542   1.358 -0.2119 -1.8721  1.0887
 2680SOL    HW219500   0.834   4.498   1.258 -0.7019  0.7617 -0.0038
 2681SOL     OW19501   1.592   1.972  16.699  0.1328  0.5916 -0.5793
 2681SOL    HW119502   1.507   1.997  16.665  0.4550  0.7179 -1.2803
 2681SOL    HW219503   1.567   1.950  16.789 -0.8600  0.3513 -0.9082
 2682SOL     OW19504   4.330   2.677   2.175 -0.2604  0.3965 -0.4794
 2682SOL    HW119505   4.277   2.640   2.105 -0.1337  0.9108 -0.8495
 2682SOL    HW219506   4.420   2.687   2.144 -1.4778  0.6939 -3.8498
 2683SOL     OW19507   1.334   0.970   4.212  0.2187  0.4577 -1.0146
 2683SOL    HW119508   1.396   0.934   4.149 -0.2239 -1.9042 -0.0733
 2683SOL    HW219509   1.327   1.064   4.193  1.3075  0.6459 -0.4635
 2684SOL     OW19510   0.117   0.822   1.526 -0.1373  0.1598  0.0197
 2684SOL    HW119511   0.105   0.896   1.585 -0.5463 -0.2930  0.5029
 2684SOL    HW219512   0.070   0.754   1.573  2.7129 -0.3480  2.0713
 2685SOL     OW19513   0.565   1.463  16.884  0.4566  0.2207 -0.2435
 2685SOL    HW119514   0.481   1.509  16.885  0.8845  0.8989  3.5389
 2685SOL    HW219515   0.588   1.498  16.970 -0.7757 -1.2133  0.6587
 2686SOL     OW19516   1.279   2.127  15.354  0.0880 -0.2722 -0.0712
 2686SOL    HW119517   1.222   2.072  15.408  0.7845 -0.3558  0.5709
 2686SOL    HW219518   1.244   2.106  15.267  1.4975 -1.1599 -0.4210
 2687SOL     OW19519   2.214   4.078  13.551  0.2279  0.3308 -0.3387
 2687SOL    HW119520   2.309   4.081  13.554  0.2994 -2.2746 -0.1611
 2687SOL    HW219521   2.206   4.080  13.456 -0.1008 -0.3349 -0.3265
 2688SOL     OW19522   1.365   0.144   7.876 -0.5059 -0.2588  0.4165
 2688SOL    HW119523   1.393   0.209   7.940  2.2514  1.2218 -2.2964
 2688SOL    HW219524   1.445   0.134   7.825  1.0319  2.2596  2.3681
 2689SOL     OW19525   0.125   3.842  17.656  0.4609  0.3177  0.2522
 2689SOL    HW119526   0.207   3.848  17.607  1.5782 -3.8195  1.5461
 2689SOL    HW219527   0.093   3.932  17.651 -2.0857 -0.5520  0.6482
 2690SOL     OW19528   0.274   1.544  13.663 -0.3496  0.4103  0.0911
 2690SOL    HW119529   0.229   1.542  13.748  1.2789 -0.5611  0.9343
 2690SOL    HW219530   0.341   1.477  13.668  0.2392  0.9339 -0.9277
 2691SOL     OW19531   2.626   4.248  11.369 -0.0402  0.2506 -0.2305
 2691SOL    HW119532   2.610   4.222  11.278  3.1401  1.2622 -1.0668
 2691SOL    HW219533   2.541   4.282  11.397  0.3755  0.3282  0.9005
 2692SOL     OW19534   2.065   1.895   2.937  0.1304 -0.1027 -0.0411
 2692SOL    HW119535   2.044   1.811   2.896 -0.0636  0.5814 -1.3214
 2692SOL    HW219536   2.036   1.955   2.869 -0.7389  0.2620  0.6474
 2693SOL     OW19537   4.651   1.667   2.866 -0.2225 -0.2312 -0.1088
 2693SOL    HW119538   0.019   1.696   2.870  0.2307 -1.6916  0.2296
 2693SOL    HW219539   4.616   1.704   2.947  0.2325  0.5449 -0.2703
 2694SOL     OW19540   1.286   2.499  13.725 -0.6100  0.6439 -0.5632
 2694SOL    HW119541   1.222   2.558  13.763 -1.6998 -1.1199  0.3485
 2694SOL    HW219542   1.312   2.542  13.643  1.6232 -0.0464 -0.2408
 2695SOL     OW19543   2.235   3.594   5.479  0.0974 -0.6961  0.1586
 2695SOL    HW119544   2.215   3.538   5.404  1.5784  0.1259 -0.8395
 2695SOL    HW219545   2.150   3.611   5.521  0.8614  2.9835  0.2621
 2696SOL     OW19546   1.552   4.354   6.016 -0.0566 -0.0996  0.0822
 2696SOL    HW119547   1.625   4.292   6.016 -0.2278 -0.3069  1.4358
 2696SOL    HW219548   1.606   4.430   6.038  1.3700 -0.3710 -2.4719
 2697SOL     OW19549   0.831   1.939   3.699  0.0674  0.0169 -0.2690
 2697SOL    HW119550   0.779   2.011   3.661  0.9853  0.4902 -0.6230
 2697SOL    HW219551   0.918   1.958   3.664 -0.1141  1.8675  0.2747
 2698SOL     OW19552   2.713   0.075  11.264  0.0752 -0.1458  0.2462
 2698SOL    HW119553   2.795   0.026  11.253 -0.6452 -1.4187  0.6255
 2698SOL    HW219554   2.644   0.009  11.263 -0.4679  0.4173  0.3102
 2699SOL     OW19555   4.543   4.329  17.411  0.0438  0.0807 -0.3645
 2699SOL    HW119556   4.633   4.326  17.377  0.7825  2.4937  1.3825
 2699SOL    HW219557   4.542   4.255  17.472  1.1363  0.5361  0.2087
 2700SOL     OW19558   0.436   2.667  12.307  0.3556 -0.2105  0.7805
 2700SOL    HW119559   0.354   2.674  12.356  0.4484 -4.0345  1.4642
 2700SOL    HW219560   0.403   2.680  12.218 -0.8082 -1.4484  1.0338
 2701SOL     OW19561   0.878   3.127   5.880  0.1365 -0.1371 -0.4854
 2701SOL    HW119562   0.816   3.177   5.933  0.2980  0.8591 -1.2423
 2701SOL    HW219563   0.943   3.099   5.945 -0.8184 -2.2753 -0.4812
 2702SOL     OW19564   4.078   0.200   9.385  0.1340  0.7030  0.1595
 2702SOL    HW119565   4.005   0.198   9.446 -1.1834  1.8195 -1.4158
 2702SOL    HW219566   4.036   0.199   9.299  2.3384  0.4229 -0.9168
 2703SOL     OW19567   3.118   0.653  14.792  0.3668 -0.1644  0.0231
 2703SOL    HW119568   3.067   0.725  14.829  0.0326  0.3350 -1.4259
 2703SOL    HW219569   3.067   0.642  14.712  0.0405 -0.0702  0.2180
 2704SOL     OW19570   1.618   1.711  13.691 -0.2085  0.1966 -0.3349
 2704SOL    HW119571   1.537   1.723  13.741 -0.3802 -0.4799 -0.4503
 2704SOL    HW219572   1.645   1.628  13.730  1.1348  0.4905 -0.6714
 2705SOL     OW19573   1.307   3.226  14.741  0.6206  0.4398  0.0853
 2705SOL    HW119574   1.236   3.266  14.792  2.5137 -1.2764  4.0432
 2705SOL    HW219575   1.355   3.174  14.805  0.9985 -0.6648 -1.0888
 2706SOL     OW19576   1.668   0.862  11.863 -0.1482  0.2753  0.6026
 2706SOL    HW119577   1.629   0.775  11.851 -1.3211  0.7215  1.1608
 2706SOL    HW219578   1.714   0.881  11.781  0.3641  2.6838  1.4706
 2707SOL     OW19579   1.089   2.256   2.649  0.4223  0.3081  0.1441
 2707SOL    HW119580   1.153   2.275   2.718  1.0159 -0.6504 -0.1388
 2707SOL    HW219581   1.139   2.231   2.571 -0.7303 -1.8260  0.0936
 2708SOL     OW19582   4.390   2.233   1.248 -0.6320  0.1491  0.0723
 2708SOL    HW119583   4.340   2.163   1.205 -0.4725 -0.1910  0.4413
 2708SOL    HW219584   4.481   2.206   1.257  0.0457  2.7505  0.9224
 2709SOL     OW19585   0.372   2.696   3.992 -0.4775 -0.1334  0.0593
 2709SOL    HW119586   0.365   2.757   3.919 -0.1782 -1.1012 -0.7751
 2709SOL    HW219587   0.438   2.740   4.047  0.0648 -0.3940 -0.3831
 2710SOL     OW19588   2.814   2.346   7.740  0.1148  0.3622 -0.0600
 2710SOL    HW119589   2.869   2.286   7.789 -1.7334  1.0391  2.8235
 2710SOL    HW219590   2.727   2.322   7.771 -0.3203 -1.0297 -2.3656
 2711SOL     OW19591   2.635   0.139   1.482 -0.0321 -0.5208  0.7680
 2711SOL    HW119592   2.631   0.158   1.388 -1.0016 -3.9933  0.1302
 2711SOL    HW219593   2.565   0.193   1.518 -1.4025 -0.9245 -1.3384
 2712SOL     OW19594   4.352   1.059   7.282 -0.8472 -0.6768  0.5518
 2712SOL    HW119595   4.355   1.105   7.198 -0.1144 -4.8075 -1.6332
 2712SOL    HW219596   4.278   1.105   7.323 -2.3168 -1.4195 -1.3020
 2713SOL     OW19597   3.282   0.751  12.153  0.3552 -0.4912  0.1645
 2713SOL    HW119598   3.299   0.841  12.126  1.9053 -1.2105 -1.2475
 2713SOL    HW219599   3.330   0.709  12.081  0.4645 -1.9711  1.1003
 2714SOL     OW19600   1.230   3.115   2.892 -0.0548 -0.1476  0.1026
 2714SOL    HW119601   1.148   3.067   2.905  0.1002 -0.0453  1.3980
 2714SOL    HW219602   1.302   3.052   2.902  1.6721  1.9888  0.9667
 2715SOL     OW19603   1.081   1.856   7.069  0.3987  0.8406  0.5670
 2715SOL    HW119604   1.025   1.899   7.134 -2.3253 -0.9125 -0.6060
 2715SOL    HW219605   1.102   1.773   7.110 -0.3327 -0.3197 -1.3938
 2716SOL     OW19606   2.407   2.095   2.160 -0.0548 -0.0348  0.3274
 2716SOL    HW119607   2.315   2.083   2.182 -0.8134  1.6055 -1.9890
 2716SOL    HW219608   2.399   2.172   2.103 -4.2381  1.9093  3.5141
 2717SOL     OW19609   2.717   0.819   1.962  0.2214 -0.3713 -0.2514
 2717SOL    HW119610   2.680   0.857   2.041  0.2153 -2.8767  0.9400
 2717SOL    HW219611   2.782   0.884   1.939 -0.5611  0.6832  0.5133
 2718SOL     OW19612   1.505   1.473   1.732 -0.4021 -0.2344 -0.1434
 2718SOL    HW119613   1.501   1.408   1.662  0.4138  0.0976 -0.4964
 2718SOL    HW219614   1.452   1.434   1.801  0.4249  1.4595  1.4608
 2719SOL     OW19615   1.369   3.688   4.317  0.0499 -0.5631  0.4005
 2719SOL    HW119616   1.284   3.718   4.348  0.6811  0.6084  1.0370
 2719SOL    HW219617   1.436   3.701   4.385  0.0034 -0.4362  0.4226
 2720SOL     OW19618   1.467   4.188   2.117  1.1422 -0.2654  0.5254
 2720SOL    HW119619   1.525   4.128   2.068 -0.0984 -0.1176 -1.1261
 2720SOL    HW219620   1.387   4.171   2.066  0.7891  0.8684  0.7119
 2721SOL     OW19621   0.040   4.663   0.831  0.1281  0.3015 -0.2901
 2721SOL    HW119622   0.062   4.664   0.924 -2.1886  2.0035  0.2523
 2721SOL    HW219623   0.079   4.580   0.803  2.6639  1.3302  0.1801
 2722SOL     OW19624   3.748   0.337  15.343  0.7079  0.0084 -0.0200
 2722SOL    HW119625   3.787   0.425  15.338  0.3861  0.0867 -1.0728
 2722SOL    HW219626   3.816   0.297  15.398  2.2682  1.6714 -0.7235
 2723SOL     OW19627   0.416   4.716   3.498 -0.2844  0.4673  0.0846
 2723SOL    HW119628   0.487   4.660   3.466 -0.8039 -0.2180  0.1504
 2723SOL    HW219629   0.349   4.688   3.436  1.2462  0.1725 -1.4383
 2724SOL     OW19630   3.545   3.372  13.114 -0.1669 -0.1928 -0.3207
 2724SOL    HW119631   3.507   3.287  13.094 -1.7081  0.0388  1.7505
 2724SOL    HW219632   3.639   3.351  13.115 -0.0350  0.3394 -0.7557
 2725SOL     OW19633   4.072   0.548   8.709  0.0547 -0.4285 -0.4619
 2725SOL    HW119634   3.999   0.538   8.647  0.0436 -2.5287 -0.1107
 2725SOL    HW219635   4.082   0.643   8.709 -0.5243 -0.3653 -1.9240
 2726SOL     OW19636   1.704   2.186   3.978  0.1952 -0.1669 -0.0330
 2726SOL    HW119637   1.736   2.229   4.058 -3.4245 -0.0815  1.3995
 2726SOL    HW219638   1.651   2.116   4.017  0.5019  0.2346  1.1103
 2727SOL     OW19639   4.720   0.507   5.210 -0.3746 -0.1177 -0.6272
 2727SOL    HW119640   4.723   0.448   5.135  1.3837 -1.8228  0.7930
 2727SOL    HW219641   0.057   0.573   5.176 -1.5623  2.0216  1.4020
 2728SOL     OW19642   1.102   4.707   2.015 -0.1737  0.0441  0.0196
 2728SOL    HW119643   1.045   4.631   2.003  2.4134 -1.6996 -1.3280
 2728SOL    HW219644   1.048   0.032   2.076 -1.1909 -1.2173  0.1280
 2729SOL     OW19645   1.973   3.700   4.148  0.0234 -0.5385  0.3308
 2729SOL    HW119646   1.941   3.702   4.058 -0.3226 -1.5532  0.4234
 2729SOL    HW219647   2.055   3.651   4.145  0.2321 -0.1188 -0.6097
 2730SOL     OW19648   1.706   2.354  10.773 -0.1421  0.4249 -0.1620
 2730SOL    HW119649   1.705   2.300  10.694 -0.7044  0.2521 -0.0329
 2730SOL    HW219650   1.618   2.391  10.776  0.5273  1.8200  2.1164
 2731SOL     OW19651   2.251   4.236   5.358  0.4546  0.2467  0.0246
 2731SOL    HW119652   2.344   4.216   5.372  0.4247  0.7904  0.9884
 2731SOL    HW219653   2.250   4.321   5.402 -1.2770 -0.6097  1.6315
 2732SOL     OW19654   1.529   0.406   2.494  0.8231 -0.1448 -0.4301
 2732SOL    HW119655   1.488   0.412   2.408 -0.0018  2.1476  0.1278
 2732SOL    HW219656   1.547   0.313   2.504  0.8284 -0.1489 -0.4779
 2733SOL     OW19657   3.615   2.127   9.768 -0.8778  0.4922 -0.4145
 2733SOL    HW119658   3.551   2.198   9.762 -0.8041  0.3375 -3.0637
 2733SOL    HW219659   3.569   2.060   9.717  1.1706 -2.0198  1.0307
 2734SOL     OW19660   1.283   2.073  13.232  0.0034 -0.2348  0.2942
 2734SOL    HW119661   1.357   2.073  13.172  1.1176 -0.6694  1.6520
 2734SOL    HW219662   1.331   2.045  13.310 -0.3381  0.2859  0.6979
 2735SOL     OW19663   2.608   3.095  16.565  0.2879  0.8308 -0.0028
 2735SOL    HW119664   2.648   3.070  16.482  2.1322 -0.4763  1.2743
 2735SOL    HW219665   2.599   3.190  16.558 -0.0733  0.8196  0.2894
 2736SOL     OW19666   2.418   1.990   9.483 -0.1809 -0.1230 -0.0999
 2736SOL    HW119667   2.453   1.959   9.566 -2.7811  1.6448  1.6363
 2736SOL    HW219668   2.447   2.081   9.478  0.8706 -0.3849  1.3869
 2737SOL     OW19669   3.354   0.553   6.365 -0.0098 -0.1126 -0.3818
 2737SOL    HW119670   3.283   0.604   6.404  0.9915  1.5960 -0.7575
 2737SOL    HW219671   3.422   0.619   6.377 -0.7023  0.8134 -1.4607
 2738SOL     OW19672   3.883   1.814   2.785  0.2933 -0.0308 -0.3720
 2738SOL    HW119673   3.849   1.743   2.732 -0.5141 -0.8238  1.1936
 2738SOL    HW219674   3.974   1.804   2.755  1.2315  0.0549  2.3898
 2739SOL     OW19675   3.058   1.639   8.515 -0.0175 -0.3182  0.2435
 2739SOL    HW119676   3.153   1.645   8.524  0.0963  0.6843 -1.5255
 2739SOL    HW219677   3.030   1.570   8.574  2.4011 -2.1550 -0.7366
 2740SOL     OW19678   1.697   1.758   4.607 -0.1967  0.0896  0.0359
 2740SOL    HW119679   1.619   1.711   4.635 -1.1023  1.8209  0.4220
 2740SOL    HW219680   1.720   1.709   4.529 -0.9559 -0.3756  0.1061
 2741SOL     OW19681   2.188   1.555   3.324  0.5425  0.0562 -0.4772
 2741SOL    HW119682   2.206   1.528   3.234  0.5310 -1.0917 -0.1379
 2741SOL    HW219683   2.119   1.614   3.294 -0.6428 -1.0438  0.0813
 2742SOL     OW19684   4.227   0.783  14.882  0.2774 -0.7143 -0.0127
 2742SOL    HW119685   4.190   0.745  14.962 -0.2909  2.2731  1.1211
 2742SOL    HW219686   4.227   0.872  14.917 -2.0574  0.1837 -2.2395
 2743SOL     OW19687   0.321   4.478   4.967  0.6254 -0.2899 -0.8830
 2743SOL    HW119688   0.307   4.392   4.926  0.8672 -1.0879  0.7414
 2743SOL    HW219689   0.251   4.490   5.031  2.1287 -1.5634  0.9580
 2744SOL     OW19690   0.619   2.759   8.407  0.7063  0.2975 -0.1071
 2744SOL    HW119691   0.619   2.853   8.425 -0.7729  0.7913 -2.6993
 2744SOL    HW219692   0.638   2.727   8.495  0.2664 -0.2175 -0.1993
 2745SOL     OW19693   1.604   3.024   9.760 -0.4597  0.2745  0.3221
 2745SOL    HW119694   1.610   2.930   9.775  0.0296  0.5756  2.0071
 2745SOL    HW219695   1.658   3.062   9.829 -1.7942  1.8017  0.5446
 2746SOL     OW19696   1.916   3.797   8.365  0.4051 -0.3635  0.2371
 2746SOL    HW119697   1.951   3.721   8.411  0.6172 -1.0354 -1.0136
 2746SOL    HW219698   1.933   3.869   8.425 -1.4773  0.9063 -0.7555
 2747SOL     OW19699   1.103   3.862  12.679  0.3435  0.1147  0.3247
 2747SOL    HW119700   1.135   3.824  12.597  0.1362 -1.2061  0.8548
 2747SOL    HW219701   1.073   3.779  12.715  1.5764  0.6640  2.6200
 2748SOL     OW19702   1.836   1.276   2.906  0.4376  0.6994  0.0031
 2748SOL    HW119703   1.845   1.267   2.811  1.9897  0.9851  0.1208
 2748SOL    HW219704   1.801   1.364   2.917 -1.4513 -0.0677  0.1249
 2749SOL     OW19705   0.720   1.715   3.550 -0.6425  0.3819  0.4684
 2749SOL    HW119706   0.795   1.736   3.495 -1.3317 -2.2501 -1.4816
 2749SOL    HW219707   0.745   1.770   3.624 -0.3829  0.5560  0.2489
 2750SOL     OW19708   0.190   1.380   2.367 -0.2788  0.1547  0.3461
 2750SOL    HW119709   0.180   1.413   2.278  0.2094  0.7075  0.4967
 2750SOL    HW219710   0.186   1.462   2.415 -1.1775  0.6630 -0.5890
 2751SOL     OW19711   2.069   1.369   8.118 -0.5334 -0.3139 -0.6356
 2751SOL    HW119712   2.133   1.299   8.103  0.2102  0.3203 -0.3707
 2751SOL    HW219713   2.066   1.417   8.035  0.7348 -0.3081 -0.6679
 2752SOL     OW19714   4.201   3.086   4.974 -0.1634  0.3722  0.1195
 2752SOL    HW119715   4.116   3.079   4.930 -0.0478 -0.9101  0.0880
 2752SOL    HW219716   4.233   2.997   4.991 -1.1942 -0.3729 -1.7273
 2753SOL     OW19717   2.258   1.684   8.773 -0.5256 -0.8841 -0.3471
 2753SOL    HW119718   2.276   1.590   8.781 -0.8786 -0.8280  1.0120
 2753SOL    HW219719   2.335   1.723   8.732 -0.6193  1.2141  1.4738
 2754SOL     OW19720   0.591   1.210   6.262  0.0801 -0.1630 -0.7627
 2754SOL    HW119721   0.686   1.200   6.275 -0.1372  0.1611  1.1843
 2754SOL    HW219722   0.598   1.302   6.234  1.1188  0.0848  0.2912
 2755SOL     OW19723   1.079   1.670   4.080  0.0218  0.1571  0.7011
 2755SOL    HW119724   1.038   1.638   4.160  0.3934  2.5185  1.7972
 2755SOL    HW219725   0.992   1.671   4.038 -0.5706 -0.1710  1.9326
 2756SOL     OW19726   2.485   2.986   7.266  0.0351  0.1084 -0.1508
 2756SOL    HW119727   2.420   2.993   7.336  1.0981  0.8711  0.7686
 2756SOL    HW219728   2.564   3.025   7.305 -0.6759  1.6949 -0.2956
 2757SOL     OW19729   2.898   4.672   6.431  0.5219  0.3801 -0.3731
 2757SOL    HW119730   2.895   4.580   6.403  4.1368  0.0582  0.3901
 2757SOL    HW219731   2.967   4.698   6.371 -0.2455  1.0908 -0.9525
 2758SOL     OW19732   4.681   4.611   7.839  0.0945  0.4274 -0.0315
 2758SOL    HW119733   4.617   4.582   7.904 -1.1327  0.4219 -1.2332
 2758SOL    HW219734   0.010   4.667   7.896 -0.6163  3.7538 -2.6624
 2759SOL     OW19735   0.902   2.003   9.764  0.0700 -0.2398 -0.2387
 2759SOL    HW119736   0.855   1.938   9.712 -0.5788  0.4034 -0.4651
 2759SOL    HW219737   0.975   2.027   9.706 -0.7640  1.0467 -0.7582
 2760SOL     OW19738   3.578   2.668   5.454 -0.2669  0.7762  0.1171
 2760SOL    HW119739   3.487   2.680   5.485 -0.8410 -0.8625 -0.9540
 2760SOL    HW219740   3.572   2.703   5.365 -1.2982  0.4782  0.0624
 2761SOL     OW19741   3.303   3.400  12.186  0.1192 -0.5663 -0.6913
 2761SOL    HW119742   3.385   3.393  12.235 -0.6740 -1.4875  0.4791
 2761SOL    HW219743   3.244   3.379  12.258 -0.9979 -0.0629 -1.4569
 2762SOL     OW19744   1.558   0.234   2.229 -0.0470  0.3765  0.0400
 2762SOL    HW119745   1.530   0.251   2.139 -0.9269 -1.7446 -0.0820
 2762SOL    HW219746   1.625   0.301   2.241  0.9432 -0.7716  0.8881
 2763SOL     OW19747   2.095   3.536   3.573  0.1333  0.6034 -0.3869
 2763SOL    HW119748   2.005   3.505   3.583 -0.2597  1.9843  0.4206
 2763SOL    HW219749   2.127   3.483   3.500 -1.0372  1.3098 -1.4092
 2764SOL     OW19750   1.093   2.565   9.193  0.1741 -0.4729 -0.2045
 2764SOL    HW119751   1.039   2.579   9.270  0.4149 -0.9736  0.0564
 2764SOL    HW219752   1.180   2.590   9.224 -0.0932  1.3029 -0.8778
 2765SOL     OW19753   3.934   3.476   2.356  0.2274  0.3774 -0.1834
 2765SOL    HW119754   3.839   3.481   2.371  0.5630  3.9829  0.6832
 2765SOL    HW219755   3.934   3.517   2.269 -2.0012  2.7836  0.9492
 2766SOL     OW19756   0.930   4.446   5.836  0.1365  0.1281 -0.6462
 2766SOL    HW119757   0.982   4.370   5.810 -1.7982 -1.2129 -0.6593
 2766SOL    HW219758   0.988   4.503   5.786  0.3986  0.3688 -0.0696
 2767SOL     OW19759   0.224   3.833   9.267 -0.0396  0.0645  0.6531
 2767SOL    HW119760   0.142   3.811   9.222  0.7988 -1.4044 -0.1652
 2767SOL    HW219761   0.207   3.868   9.355  0.3112 -0.9387  1.1185
 2768SOL     OW19762   2.359   2.502   5.013  0.2442 -0.1715 -0.2280
 2768SOL    HW119763   2.388   2.564   5.080  0.8117 -0.6279 -0.0481
 2768SOL    HW219764   2.373   2.544   4.928 -1.5331  2.5706  0.8489
 2769SOL     OW19765   1.287   1.686   1.780 -0.2184 -0.1250  0.8100
 2769SOL    HW119766   1.256   1.722   1.697  2.4914 -0.1365 -0.1987
 2769SOL    HW219767   1.344   1.758   1.807 -0.0453  0.3341 -0.8097
 2770SOL     OW19768   3.968   3.438   3.809 -0.3701 -0.0792 -0.2482
 2770SOL    HW119769   4.034   3.485   3.860 -0.6307  1.1391 -1.0147
 2770SOL    HW219770   3.980   3.481   3.724  0.4067 -2.4564 -1.3589
 2771SOL     OW19771   3.087   2.445  13.801  0.3099  0.0277 -1.0550
 2771SOL    HW119772   3.124   2.502  13.869 -1.8109 -2.5709  2.2860
 2771SOL    HW219773   3.012   2.500  13.775 -0.9607 -1.0957  0.2299
 2772SOL     OW19774   4.445   2.833   4.931  0.3393 -0.1341  0.5916
 2772SOL    HW119775   4.490   2.874   4.857  2.2585 -1.5977  0.9523
 2772SOL    HW219776   4.507   2.764   4.954  0.0558 -0.9467 -1.0941
 2773SOL     OW19777   0.453   1.070  15.090  0.0727 -0.4967 -0.4126
 2773SOL    HW119778   0.426   1.063  14.998  2.4244 -0.2702 -1.1152
 2773SOL    HW219779   0.371   1.101  15.128  0.4189  3.7632 -3.0694
 2774SOL     OW19780   3.572   0.273  13.995  0.2452 -0.1818  0.6079
 2774SOL    HW119781   3.536   0.258  14.083  0.3845  0.5050  0.7797
 2774SOL    HW219782   3.552   0.190  13.951  0.3622 -1.1310  2.3236
 2775SOL     OW19783   0.768   1.572   2.752 -0.6202  0.2376 -0.3278
 2775SOL    HW119784   0.682   1.530   2.751 -1.5668  2.1271  2.2977
 2775SOL    HW219785   0.761   1.605   2.841 -0.7863 -0.5666 -0.0461
 2776SOL     OW19786   4.156   0.100   5.216 -0.1287 -0.1536 -0.4579
 2776SOL    HW119787   4.131   0.044   5.289 -0.1627  1.5089  0.8351
 2776SOL    HW219788   4.237   0.062   5.183 -0.3253  0.2464 -1.4179
 2777SOL     OW19789   2.635   0.829   6.063 -0.3889  0.3120  0.3253
 2777SOL    HW119790   2.613   0.752   6.012 -1.5275  2.5331 -2.5116
 2777SOL    HW219791   2.729   0.827   6.045 -0.6975 -1.1567 -1.1055
 2778SOL     OW19792   1.688   3.364   9.851  0.2517 -0.0477 -0.0185
 2778SOL    HW119793   1.678   3.454   9.881  0.6917 -0.2872  0.8437
 2778SOL    HW219794   1.783   3.354   9.863  0.2030  0.6346  0.9318
 2779SOL     OW19795   2.015   0.416   9.939 -0.1586  0.4606 -0.4318
 2779SOL    HW119796   2.093   0.472   9.931  0.7981 -0.2284  4.0401
 2779SOL    HW219797   1.962   0.468   9.879 -0.9633  0.0680 -0.0526
 2780SOL     OW19798   2.356   1.496   3.941  0.1452 -0.0087 -0.1575
 2780SOL    HW119799   2.358   1.591   3.954 -0.5092  0.0798 -0.7262
 2780SOL    HW219800   2.335   1.467   4.029  1.7392  0.0025  0.2330
 2781SOL     OW19801   0.036   4.472   4.178 -0.8011 -0.1851 -0.1236
 2781SOL    HW119802   4.689   4.532   4.156  0.0441  0.7313 -0.3442
 2781SOL    HW219803   0.097   4.495   4.108 -0.1592 -1.1377  0.1095
 2782SOL     OW19804   0.952   4.679   4.410  0.5432 -0.5196 -0.1461
 2782SOL    HW119805   0.954   4.602   4.467  1.6824  0.5715  1.3052
 2782SOL    HW219806   0.959   4.638   4.324 -0.0260  1.3031 -1.0627
 2783SOL     OW19807   0.974   2.920   0.601  0.0475  0.0533  0.2223
 2783SOL    HW119808   0.988   2.828   0.579  1.5129  0.5268 -0.8200
 2783SOL    HW219809   1.053   2.963   0.567  1.5780 -1.1779  2.2314
 2784SOL     OW19810   4.660   0.327   4.999 -0.5511 -0.3036 -0.1264
 2784SOL    HW119811   4.673   0.277   4.919  3.1586  0.4732 -0.0073
 2784SOL    HW219812   4.572   0.359   4.977  0.4781  1.4173 -1.6430
 2785SOL     OW19813   3.953   3.335   8.246 -0.0561 -0.1515 -0.6343
 2785SOL    HW119814   3.950   3.252   8.199 -0.9911  1.3669 -3.2147
 2785SOL    HW219815   3.884   3.326   8.312  0.6838  2.0416  0.4319
 2786SOL     OW19816   2.508   2.707   4.142 -0.2924  0.6132 -0.1086
 2786SOL    HW119817   2.499   2.613   4.158  0.2597  0.7166  0.7976
 2786SOL    HW219818   2.456   2.736   4.217 -0.8101  0.0881 -0.2636
 2787SOL     OW19819   1.407   2.024   2.293  0.0534 -0.3193  0.4572
 2787SOL    HW119820   1.343   2.092   2.315 -2.2643 -2.7927  1.3195
 2787SOL    HW219821   1.459   2.033   2.372  1.1924  2.0066 -0.5439
 2788SOL     OW19822   0.573   3.622   9.167  0.0502  0.1839  0.2024
 2788SOL    HW119823   0.538   3.653   9.251 -0.1811  0.4897 -0.0074
 2788SOL    HW219824   0.507   3.561   9.135 -1.3231  2.1332 -0.6733
 2789SOL     OW19825   0.499   4.336   7.366  0.3735  0.7157 -0.0776
 2789SOL    HW119826   0.495   4.339   7.271 -1.1967  0.6439 -0.0112
 2789SOL    HW219827   0.545   4.417   7.391  0.3342  0.2867  1.3649
 2790SOL     OW19828   2.495   4.376   7.581  0.0707  0.1211 -0.1956
 2790SOL    HW119829   2.574   4.345   7.536  0.3407  0.4153  0.0718
 2790SOL    HW219830   2.516   4.367   7.674 -1.4531 -1.8544 -0.0504
 2791SOL     OW19831   2.846   3.835   7.581  0.0047  0.0178  0.1908
 2791SOL    HW119832   2.770   3.839   7.639  0.8627  1.2615  1.2341
 2791SOL    HW219833   2.825   3.753   7.537 -2.6592  0.3873  0.7257
 2792SOL     OW19834   4.317   1.340   2.045 -0.0374 -0.0117  1.0019
 2792SOL    HW119835   4.266   1.409   2.088 -0.7925 -0.4629  0.8343
 2792SOL    HW219836   4.254   1.270   2.027  3.3408 -2.4542 -1.2474
 2793SOL     OW19837   0.456   0.907   4.453  0.3852 -0.6977 -0.3464
 2793SOL    HW119838   0.361   0.915   4.451  0.3852 -1.1480 -2.0447
 2793SOL    HW219839   0.469   0.902   4.358 -1.9955 -1.3769 -0.6234
 2794SOL     OW19840   3.269   4.134   8.028  0.0396  0.1958 -0.4008
 2794SOL    HW119841   3.343   4.173   7.982 -0.6788 -0.5034 -2.1392
 2794SOL    HW219842   3.205   4.204   8.036  0.9863  0.7652  2.0649
 2795SOL     OW19843   3.695   2.812   0.767  0.1378 -0.5999  0.1948
 2795SOL    HW119844   3.775   2.759   0.764  0.7788  0.3789 -0.0376
 2795SOL    HW219845   3.702   2.831   0.860  0.7895 -0.0281  0.0305
 2796SOL     OW19846   0.817   1.385   8.484 -0.6514  0.2192 -0.3963
 2796SOL    HW119847   0.738   1.368   8.534 -1.4846 -0.2978 -1.8975
 2796SOL    HW219848   0.860   1.451   8.539  1.5717 -0.7348 -0.9556
 2797SOL     OW19849   2.931   3.325   3.416  0.1692  0.1244 -0.5642
 2797SOL    HW119850   2.948   3.401   3.360  1.8806  0.0695 -0.1223
 2797SOL    HW219851   2.837   3.335   3.434 -0.3827 -0.0256 -3.2708
 2798SOL     OW19852   3.578   0.550   8.030  0.3183 -0.4204 -0.2673
 2798SOL    HW119853   3.587   0.645   8.038  0.7082 -0.5373  0.7803
 2798SOL    HW219854   3.667   0.526   8.058  0.6756  0.6442 -0.4666
 2799SOL     OW19855   4.248   3.936  11.934 -0.3749 -0.0564 -0.1024
 2799SOL    HW119856   4.233   3.951  11.841 -1.7901  2.1296  0.4835
 2799SOL    HW219857   4.284   3.850  11.955 -0.7375  0.0434  0.9046
 2800SOL     OW19858   3.672   3.964   3.039 -0.3506 -0.2281  0.1866
 2800SOL    HW119859   3.650   3.920   3.121  0.6477  0.3706  0.7715
 2800SOL    HW219860   3.610   4.036   3.032 -1.8797 -1.6414 -0.7349
 2801SOL     OW19861   3.996   4.390   4.446 -0.0737 -0.0419 -0.8217
 2801SOL    HW119862   4.011   4.459   4.381  1.5842 -0.4953 -0.9109
 2801SOL    HW219863   4.037   4.314   4.405  0.0305  0.5454 -1.8118
 2802SOL     OW19864   4.544   4.066  10.386 -0.2650  0.5644 -0.0721
 2802SOL    HW119865   4.509   4.017  10.460  0.2045 -1.4927 -1.2205
 2802SOL    HW219866   4.513   4.021  10.307  0.2038  2.1272 -1.1624
 2803SOL     OW19867   1.761   1.810  15.465  0.6195 -0.4415 -0.0599
 2803SOL    HW119868   1.846   1.854  15.459  0.1425  0.2680 -1.5251
 2803SOL    HW219869   1.772   1.775  15.554  0.3236  1.0118  0.5625
 2804SOL     OW19870   4.587   0.964   5.612 -0.3428 -0.2377  0.3809
 2804SOL    HW119871   4.550   0.967   5.701  0.5800  0.2469  0.7433
 2804SOL    HW219872   4.605   0.870   5.611  0.9777  0.0206  0.3886
 2805SOL     OW19873   3.791   1.532   8.569  0.0583  0.2437  0.1617
 2805SOL    HW119874   3.882   1.554   8.592  0.0537 -0.7170  1.1156
 2805SOL    HW219875   3.797   1.436   8.573 -0.3501  0.2701  1.3792
 2806SOL     OW19876   3.175   1.624   1.986 -0.4126  0.8078 -0.1442
 2806SOL    HW119877   3.170   1.704   1.934  0.1193  1.1287  0.3086
 2806SOL    HW219878   3.203   1.561   1.920  1.7096  0.2393  1.3263
 2807SOL     OW19879   2.591   1.966   3.784 -0.1495  0.1970  0.2544
 2807SOL    HW119880   2.531   2.040   3.774  0.4667  0.7262  0.4578
 2807SOL    HW219881   2.641   1.970   3.703  0.2143  0.9039  0.5087
 2808SOL     OW19882   2.698   4.051   5.425 -0.8083 -0.1749 -0.3164
 2808SOL    HW119883   2.721   4.131   5.378 -1.3667 -0.6086 -1.3316
 2808SOL    HW219884   2.622   4.078   5.477  0.4221  0.6826  1.0338
 2809SOL     OW19885   2.801   3.498   3.220 -0.5137  0.5076  1.1933
 2809SOL    HW119886   2.743   3.471   3.292 -1.7510 -2.7412 -1.0148
 2809SOL    HW219887   2.741   3.531   3.153 -0.6937  0.5276  1.3611
 2810SOL     OW19888   1.757   3.337   6.973 -0.5061 -0.1153 -0.0892
 2810SOL    HW119889   1.788   3.427   6.979  0.4168 -0.3127 -1.8544
 2810SOL    HW219890   1.669   3.338   7.010  0.5460  0.0707  2.4517
 2811SOL     OW19891   3.501   3.244   6.749  0.3365 -0.3719  0.6415
 2811SOL    HW119892   3.517   3.298   6.827 -2.3920 -0.2442  1.0866
 2811SOL    HW219893   3.426   3.190   6.774 -0.1680  0.1747  0.3093
 2812SOL     OW19894   1.402   2.893   4.300 -0.6472 -0.4506 -0.0123
 2812SOL    HW119895   1.344   2.879   4.375 -0.5546  0.6419  0.2574
 2812SOL    HW219896   1.433   2.803   4.286  0.5164 -0.0491 -0.0325
 2813SOL     OW19897   1.824   1.485  11.390  0.0996  0.3547 -0.1229
 2813SOL    HW119898   1.880   1.453  11.320  0.3060  0.9789 -0.2395
 2813SOL    HW219899   1.737   1.451  11.367  0.7009 -1.0417 -0.3721
 2814SOL     OW19900   1.932   3.553  11.584  0.6097 -0.0396 -0.3186
 2814SOL    HW119901   1.882   3.496  11.525  1.3098  0.3049 -1.2374
 2814SOL    HW219902   2.000   3.496  11.619 -0.1721 -1.1237 -0.5595
 2815SOL     OW19903   3.884   3.059  15.925 -0.3099  0.4747  0.0209
 2815SOL    HW119904   3.955   3.004  15.960  0.0722  0.6653 -0.4561
 2815SOL    HW219905   3.854   3.105  16.004 -2.1027 -2.0636  0.8195
 2816SOL     OW19906   1.533   3.612  10.906  0.5424 -0.4165  0.4174
 2816SOL    HW119907   1.561   3.527  10.872 -1.6202 -0.9091 -0.1457
 2816SOL    HW219908   1.548   3.657  10.823  3.5441 -1.1284  0.5569
 2817SOL     OW19909   1.946   0.868   2.087 -0.5536 -0.1995  0.3608
 2817SOL    HW119910   2.022   0.822   2.122  0.5636 -0.2829 -2.1655
 2817SOL    HW219911   1.968   0.917   2.007 -2.7942  0.1713 -0.0137
 2818SOL     OW19912   3.692   1.558   7.763 -0.4076 -0.3355 -0.2610
 2818SOL    HW119913   3.737   1.638   7.792  1.1857 -2.1510  2.2978
 2818SOL    HW219914   3.764   1.501   7.737  0.6262  1.5152 -1.4923
 2819SOL     OW19915   1.321   3.100   3.695 -0.3936  0.2999  0.0329
 2819SOL    HW119916   1.320   3.008   3.722  0.6217  0.7926  1.7620
 2819SOL    HW219917   1.327   3.141   3.781 -0.4536 -2.1708  1.2247
 2820SOL     OW19918   0.890   4.131   5.268 -0.0186 -0.5861  0.2498
 2820SOL    HW119919   0.912   4.179   5.349 -0.3687 -0.0675  0.0378
 2820SOL    HW219920   0.803   4.164   5.247 -0.9383 -2.5990  0.8960
 2821SOL     OW19921   2.388   0.671  14.517 -0.0091  0.0709  0.3917
 2821SOL    HW119922   2.471   0.661  14.564 -0.3180 -0.7880  0.7582
 2821SOL    HW219923   2.383   0.578  14.492  0.1070  0.1810 -0.0482
 2822SOL     OW19924   1.732   3.082   4.804 -0.5223 -0.1988 -0.0961
 2822SOL    HW119925   1.703   3.143   4.737 -1.2520  0.5313  0.8849
 2822SOL    HW219926   1.799   3.029   4.759 -1.0100 -0.8395 -0.0692
 2823SOL     OW19927   0.871   2.875  16.752 -0.6665 -0.1990 -0.4519
 2823SOL    HW119928   0.891   2.913  16.838  0.1462 -0.3418 -0.5833
 2823SOL    HW219929   0.910   2.934  16.688  1.0400  0.4791  1.2184
 2824SOL     OW19930   2.879   2.433   7.153  0.2915 -0.4246  0.2590
 2824SOL    HW119931   2.870   2.420   7.247 -1.4393  0.2788  0.2043
 2824SOL    HW219932   2.799   2.484   7.136 -0.2681 -0.4088  2.8839
 2825SOL     OW19933   2.881   4.136   2.414 -0.2506  0.1784 -0.0248
 2825SOL    HW119934   2.868   4.177   2.500 -3.3021 -0.1368 -0.3269
 2825SOL    HW219935   2.800   4.085   2.411  0.1841 -0.4105 -1.8357
 2826SOL     OW19936   2.285   1.071  14.610 -0.5987 -0.0774 -0.5261
 2826SOL    HW119937   2.282   1.079  14.706  0.8093 -0.6909 -0.4286
 2826SOL    HW219938   2.351   1.002  14.601 -0.8850 -0.4813  0.4386
 2827SOL     OW19939   3.579   2.406  11.359  0.4534  0.4386 -0.4946
 2827SOL    HW119940   3.610   2.428  11.447 -1.2813 -0.9386  0.4624
 2827SOL    HW219941   3.659   2.409  11.306  0.3231  0.2933 -0.6978
 2828SOL     OW19942   4.159   3.726   2.145 -0.1557 -0.2951  0.0023
 2828SOL    HW119943   4.174   3.798   2.084 -0.9653  0.6021  0.8714
 2828SOL    HW219944   4.203   3.756   2.224 -0.2353 -1.3924  0.4656
 2829SOL     OW19945   4.036   3.278   6.123 -0.0236  0.0718  0.4925
 2829SOL    HW119946   3.943   3.255   6.122  0.0692 -0.3353  1.1001
 2829SOL    HW219947   4.054   3.326   6.204 -0.4210  2.5850 -0.9199
 2830SOL     OW19948   1.732   0.115   5.991 -0.2004  0.7605 -0.0915
 2830SOL    HW119949   1.823   0.115   6.022  0.1110 -0.3200 -1.0060
 2830SOL    HW219950   1.733   0.138   5.898  1.4852 -2.1899 -0.7941
 2831SOL     OW19951   2.706   0.570   2.767 -0.4092 -0.1959 -0.5276
 2831SOL    HW119952   2.724   0.511   2.840 -0.1995 -0.3204 -0.6799
 2831SOL    HW219953   2.795   0.570   2.731 -0.6718 -0.7719 -1.1738
 2832SOL     OW19954   1.843   3.148   8.990 -0.8588  0.0974 -0.3203
 2832SOL    HW119955   1.765   3.160   9.043  0.4409  0.3257  1.5458
 2832SOL    HW219956   1.819   3.148   8.898 -1.7701 -1.3294 -0.0965
 2833SOL     OW19957   4.345   0.030  16.675  0.3151  0.5444 -0.0309
 2833SOL    HW119958   4.354   0.096  16.744  0.6460  1.3907 -0.8848
 2833SOL    HW219959   4.250   0.021  16.673  0.1857  1.6250  1.2119
 2834SOL     OW19960   3.868   0.831   4.450  0.0928  0.0725 -0.1052
 2834SOL    HW119961   3.887   0.745   4.411 -0.9088 -0.2197  0.0449
 2834SOL    HW219962   3.956   0.856   4.476 -0.5258  1.2516  0.8263
 2835SOL     OW19963   0.282   2.803   2.079  0.1145  0.2829 -0.4074
 2835SOL    HW119964   0.235   2.789   1.997 -0.9955  1.9399 -0.0530
 2835SOL    HW219965   0.376   2.792   2.066  0.5295  2.1176  0.9062
 2836SOL     OW19966   1.538   1.639   4.321 -0.0368  0.1563  0.1250
 2836SOL    HW119967   1.492   1.720   4.345 -1.1686  0.2104 -2.2935
 2836SOL    HW219968   1.475   1.588   4.270  1.2169  1.0177 -2.2831
 2837SOL     OW19969   3.377   3.986  16.011 -0.0145  0.0558 -0.3697
 2837SOL    HW119970   3.434   3.934  15.954  0.7061  0.1269  0.2900
 2837SOL    HW219971   3.424   3.991  16.094 -0.1268 -0.1797 -0.2925
 2838SOL     OW19972   2.586   0.597   2.260 -0.2628  0.4148 -0.8180
 2838SOL    HW119973   2.572   0.689   2.279  0.3158 -0.2760  2.9828
 2838SOL    HW219974   2.498   0.566   2.241 -1.3128  2.9064  0.0087
 2839SOL     OW19975   4.352   2.297   8.431  0.3618 -0.0416  0.5609
 2839SOL    HW119976   4.412   2.365   8.461  1.7003 -1.1891  0.4934
 2839SOL    HW219977   4.277   2.348   8.459  0.0543  0.5832 -1.3923
 2840SOL     OW19978   0.594   3.968   5.903  0.0903  0.1161 -0.0409
 2840SOL    HW119979   0.511   3.920   5.904 -0.4865  1.0593 -2.9070
 2840SOL    HW219980   0.632   3.914   5.834  4.0805  1.7794  0.8137
 2841SOL     OW19981   1.633   2.328  14.800  0.3911 -0.7393  0.5211
 2841SOL    HW119982   1.641   2.407  14.746  1.3215 -1.1745  0.0199
 2841SOL    HW219983   1.722   2.295  14.809  0.0970 -1.6682 -0.0422
 2842SOL     OW19984   0.351   3.512   1.358 -1.0725  0.1597  0.2652
 2842SOL    HW119985   0.408   3.444   1.394 -0.2822  0.9937  0.5815
 2842SOL    HW219986   0.323   3.536   1.446  0.9744 -0.4162  1.0707
 2843SOL     OW19987   2.282   1.568   2.709  0.0289 -0.0326  0.0578
 2843SOL    HW119988   2.377   1.556   2.717 -0.2050 -1.1414  1.1548
 2843SOL    HW219989   2.273   1.593   2.617 -0.4641  0.8011  0.3315
 2844SOL     OW19990   3.812   0.471   9.846  0.0386  0.4362  0.0211
 2844SOL    HW119991   3.845   0.381   9.843 -1.3094 -0.0975  1.3743
 2844SOL    HW219992   3.731   0.440   9.887 -0.2229 -1.1120 -1.6669
 2845SOL     OW19993   3.124   2.765   3.592 -0.2213  0.6541  0.1393
 2845SOL    HW119994   3.058   2.698   3.576  1.6588 -0.9907 -0.7784
 2845SOL    HW219995   3.157   2.773   3.502  4.3147  0.9651  1.8148
 2846SOL     OW19996   4.076   2.014  15.929  0.1869 -0.1670 -0.0924
 2846SOL    HW119997   3.990   2.003  15.971  0.2232 -0.7420 -0.1602
 2846SOL    HW219998   4.129   2.045  16.002  1.4185 -0.5954 -0.8113
 2847SOL     OW19999   4.537   3.964   2.325  0.5257  0.0851  0.2463
 2847SOL    HW120000   4.614   3.907   2.321 -0.1351 -0.6565 -1.9097
 2847SOL    HW220001   4.520   3.968   2.231  0.9902  2.8293  0.2759
 2848SOL     OW20002   4.427   3.497   4.797  0.0683 -0.1745 -0.6578
 2848SOL    HW120003   4.415   3.403   4.814 -2.5444  0.1575 -0.6363
 2848SOL    HW220004   4.372   3.514   4.720 -2.6799  0.6042  1.4572
 2849SOL     OW20005   3.645   4.304   9.171  0.0026  0.3014 -0.0004
 2849SOL    HW120006   3.579   4.248   9.210  0.4908  0.7902  1.5305
 2849SOL    HW220007   3.650   4.381   9.228 -1.8441  0.9987 -0.7849
 2850SOL     OW20008   2.433   2.147   4.027  0.0177 -0.1867 -0.4911
 2850SOL    HW120009   2.386   2.196   3.961  0.3612 -1.2890 -1.5483
 2850SOL    HW220010   2.363   2.102   4.075  0.4550  0.4894  0.7989
 2851SOL     OW20011   3.488   4.271   0.320  0.2895 -0.7885  0.5368
 2851SOL    HW120012   3.584   4.279   0.316 -0.0256  2.9418  0.4301
 2851SOL    HW220013   3.473   4.179   0.343  0.3344 -1.1131 -0.7643
 2852SOL     OW20014   2.644   3.013  11.927  0.2597 -0.6854 -0.0833
 2852SOL    HW120015   2.729   2.984  11.895 -1.1660 -2.8108 -2.0102
 2852SOL    HW220016   2.595   2.953  11.871 -1.3919  1.1112 -0.5363
 2853SOL     OW20017   1.369   0.576   8.992 -0.0507  0.1703  0.1744
 2853SOL    HW120018   1.431   0.556   8.922 -0.7546 -1.7962  0.1011
 2853SOL    HW220019   1.423   0.607   9.065 -3.7457 -0.1526  3.0545
 2854SOL     OW20020   4.174   0.635  15.116  0.5357 -0.2389 -0.0788
 2854SOL    HW120021   4.146   0.567  15.176  0.6533 -1.2018 -1.1186
 2854SOL    HW220022   4.167   0.713  15.171 -1.6421 -1.5435  1.4717
 2855SOL     OW20023   1.439   1.593   6.871 -0.5411 -0.1142 -0.0990
 2855SOL    HW120024   1.401   1.526   6.928 -1.6510  0.2485 -0.4109
 2855SOL    HW220025   1.464   1.659   6.935 -1.1153  2.9961 -3.1091
 2856SOL     OW20026   1.700   4.344   8.788 -0.1121 -0.1368  0.0566
 2856SOL    HW120027   1.686   4.430   8.747 -1.4648 -0.6370 -0.5428
 2856SOL    HW220028   1.736   4.367   8.874  0.9630 -2.0291  0.1115
 2857SOL     OW20029   1.199   4.119   3.698 -0.2354 -0.0982  0.1743
 2857SOL    HW120030   1.198   4.192   3.759 -1.3245  0.7272 -0.8210
 2857SOL    HW220031   1.275   4.067   3.723 -0.8676 -0.0866  2.1249
 2858SOL     OW20032   2.833   2.304   5.475  0.1062 -0.1221  0.5142
 2858SOL    HW120033   2.773   2.351   5.534  1.5112  1.9189  0.2739
 2858SOL    HW220034   2.907   2.363   5.485  1.5140 -1.8671  0.3945
 2859SOL     OW20035   2.822   4.616  15.658 -0.0774 -0.0296 -0.3630
 2859SOL    HW120036   2.856   4.622  15.569  0.1793  0.2139 -0.2475
 2859SOL    HW220037   2.900   4.641  15.707  0.6069 -1.7099 -0.5984
 2860SOL     OW20038   3.946   1.799   2.165 -0.3014  0.3070 -0.0114
 2860SOL    HW120039   3.948   1.792   2.260 -0.0348  2.0386  0.1177
 2860SOL    HW220040   3.861   1.756   2.152  1.1710 -2.1843 -1.3107
 2861SOL     OW20041   3.701   3.669  14.137 -0.0523 -0.3411  0.8080
 2861SOL    HW120042   3.652   3.590  14.113 -0.3580  0.7753 -2.2387
 2861SOL    HW220043   3.716   3.718  14.056  1.5251 -1.4545  0.4265
 2862SOL     OW20044   3.035   2.117   8.319 -0.1946  0.4391  1.0146
 2862SOL    HW120045   3.118   2.069   8.330 -1.4733 -2.0978 -0.3994
 2862SOL    HW220046   3.065   2.196   8.275  0.0435  0.1300  0.6154
 2863SOL     OW20047   3.424   0.914   4.730 -0.4994  0.4641 -0.2065
 2863SOL    HW120048   3.451   0.823   4.742  0.0860  0.9222  1.9248
 2863SOL    HW220049   3.463   0.932   4.644 -0.1027 -1.6081 -0.4684
 2864SOL     OW20050   2.863   0.814   2.541  0.3160  0.0909 -0.3232
 2864SOL    HW120051   2.842   0.797   2.449  1.4788 -1.4894 -0.2985
 2864SOL    HW220052   2.887   0.905   2.524  0.3789 -0.1652 -1.5965
 2865SOL     OW20053   1.170   0.931  15.535 -0.2308 -0.0811  0.1538
 2865SOL    HW120054   1.138   1.020  15.551 -1.9206 -1.1045  2.4434
 2865SOL    HW220055   1.119   0.876  15.595  0.5867 -0.4022  0.5394
 2866SOL     OW20056   3.515   4.503  10.011  0.1321  0.2303  0.3271
 2866SOL    HW120057   3.452   4.542   9.950  0.0437  1.0199  0.9184
 2866SOL    HW220058   3.460   4.470  10.082  0.2253  1.4309  0.9647
 2867SOL     OW20059   3.728   0.227   6.008  0.0603 -0.6740 -0.3402
 2867SOL    HW120060   3.813   0.196   6.037 -0.4245 -0.9862  0.7543
 2867SOL    HW220061   3.718   0.181   5.925 -0.9209 -0.4791 -0.3382
 2868SOL     OW20062   2.529   0.226   3.735  0.1698 -0.4746  0.3868
 2868SOL    HW120063   2.574   0.153   3.777  2.3614 -0.1202 -1.3681
 2868SOL    HW220064   2.562   0.301   3.785 -0.4907  0.2272 -0.2316
 2869SOL     OW20065   1.953   0.112   4.674 -0.4846 -0.3120 -0.3766
 2869SOL    HW120066   1.983   0.038   4.621 -1.4931 -1.3981  0.5530
 2869SOL    HW220067   1.957   0.182   4.610 -2.6303 -1.2432 -1.5394
 2870SOL     OW20068   1.254   1.041   8.020 -0.3938  0.2003  0.1996
 2870SOL    HW120069   1.315   1.109   8.047  0.8893 -0.3331 -1.3251
 2870SOL    HW220070   1.251   0.974   8.088  2.7616 -0.5952 -0.4354
 2871SOL     OW20071   4.457   3.658   0.556  0.1590  0.0263 -0.7827
 2871SOL    HW120072   4.526   3.612   0.509 -0.0561 -0.7476 -0.3402
 2871SOL    HW220073   4.378   3.609   0.531 -0.5981 -0.0285  1.7057
 2872SOL     OW20074   3.878   1.771   7.789  0.1546 -0.1406  0.0527
 2872SOL    HW120075   3.971   1.751   7.778 -0.8282 -5.2709  1.1424
 2872SOL    HW220076   3.868   1.853   7.741  1.1237 -1.4327 -2.3515
 2873SOL     OW20077   3.022   1.590   8.016  0.1153  0.3346  0.1021
 2873SOL    HW120078   3.054   1.621   8.100 -0.2520  4.2105 -1.2157
 2873SOL    HW220079   3.103   1.575   7.965 -0.4749  0.4568 -0.8736
 2874SOL     OW20080   1.188   0.755   2.160 -0.0653  0.2230 -0.2985
 2874SOL    HW120081   1.174   0.812   2.084  0.7710 -0.0529 -0.6577
 2874SOL    HW220082   1.185   0.823   2.227 -3.5486  0.7183 -0.9772
 2875SOL     OW20083   0.532   2.708  15.499 -0.3704  0.5074 -0.2237
 2875SOL    HW120084   0.580   2.719  15.417 -0.8163  0.4601 -0.4960
 2875SOL    HW220085   0.490   2.623  15.485 -0.9832  0.9038 -0.8037
 2876SOL     OW20086   3.061   2.709   1.176  0.1103 -0.3901  0.1957
 2876SOL    HW120087   2.996   2.745   1.115 -0.2000 -1.6291 -0.2093
 2876SOL    HW220088   3.105   2.650   1.115 -0.6697 -0.2416 -0.5220
 2877SOL     OW20089   1.816   3.334   3.077 -0.4138  0.0644  0.3116
 2877SOL    HW120090   1.844   3.269   3.013  0.4356  0.3414  0.3993
 2877SOL    HW220091   1.791   3.404   3.016 -1.0760 -1.5002 -1.1960
 2878SOL     OW20092   2.297   1.767   1.277 -0.0418  0.2114  0.4907
 2878SOL    HW120093   2.248   1.691   1.308 -1.2082  0.8376  0.1850
 2878SOL    HW220094   2.268   1.768   1.186 -2.0660  0.0213  1.1383
 2879SOL     OW20095   0.387   2.101  16.079  0.3399 -0.4717 -0.2684
 2879SOL    HW120096   0.398   2.009  16.055  1.1959 -0.3525 -0.3300
 2879SOL    HW220097   0.292   2.107  16.077  0.4099  0.0071 -1.8569
 2880SOL     OW20098   3.407   0.769   1.285  0.2041  0.0298 -0.5892
 2880SOL    HW120099   3.414   0.704   1.355 -1.2916  1.3264  0.7858
 2880SOL    HW220100   3.474   0.745   1.221  1.5920  0.7292  0.5917
 2881SOL     OW20101   1.056   0.393   2.209 -0.4864  0.0491 -0.0630
 2881SOL    HW120102   1.061   0.342   2.290  2.7992 -1.6746 -1.3678
 2881SOL    HW220103   1.111   0.469   2.228  1.0009 -0.7775 -1.0626
 2882SOL     OW20104   1.057   1.460   3.034 -0.1024 -0.2975  0.2783
 2882SOL    HW120105   1.011   1.544   3.033 -1.2357 -0.9533 -1.6929
 2882SOL    HW220106   1.019   1.421   2.956  0.4299  0.8897 -0.5648
 2883SOL     OW20107   3.472   0.890  17.616  0.2119 -0.0298  0.1321
 2883SOL    HW120108   3.529   0.872  17.541 -0.1658 -1.3344  0.1406
 2883SOL    HW220109   3.481   0.985  17.615  2.6522 -0.2739  0.5185
 2884SOL     OW20110   3.986   3.528   1.839  0.1673 -0.4911 -0.5924
 2884SOL    HW120111   4.032   3.467   1.782 -0.6235  1.0491 -2.8970
 2884SOL    HW220112   4.022   3.614   1.816  0.8878 -0.6895 -0.1988
 2885SOL     OW20113   0.947   2.776   3.689 -0.2340  0.8015 -0.9915
 2885SOL    HW120114   0.855   2.800   3.696  0.4373  2.4975  2.2719
 2885SOL    HW220115   0.967   2.726   3.768 -2.0640  1.0864 -0.3396
 2886SOL     OW20116   4.494   4.267   9.767  0.5823 -0.2889 -0.0156
 2886SOL    HW120117   4.498   4.352   9.722  0.9627 -0.2422  0.1111
 2886SOL    HW220118   4.401   4.243   9.764  0.6860 -0.5307 -1.1095
 2887SOL     OW20119   4.290   0.921   4.099 -0.4246 -0.7097  0.3836
 2887SOL    HW120120   4.251   0.997   4.057 -0.2206 -0.0953  1.3155
 2887SOL    HW220121   4.317   0.946   4.187  0.3848 -1.7437  0.4261
 2888SOL     OW20122   1.835   0.180   5.736 -0.5003  0.4458  0.2200
 2888SOL    HW120123   1.854   0.272   5.716  0.9774 -0.0471 -0.6125
 2888SOL    HW220124   1.876   0.137   5.660  0.5373 -0.3804  1.2548
 2889SOL     OW20125   1.257   1.040   2.261  0.3029  0.3078  0.0284
 2889SOL    HW120126   1.258   1.035   2.356  1.8489 -0.4703 -0.0300
 2889SOL    HW220127   1.213   1.123   2.240  0.3291  0.0705 -1.0006
 2890SOL     OW20128   1.279   4.517   7.528 -0.3529 -0.0200  0.6047
 2890SOL    HW120129   1.224   4.587   7.561 -0.0589 -0.6617  2.4989
 2890SOL    HW220130   1.363   4.549   7.563  0.0208 -0.2758 -0.0663
 2891SOL     OW20131   1.597   2.134   8.068  0.5886 -0.0348  0.5609
 2891SOL    HW120132   1.523   2.176   8.026  1.1417  0.4143  0.0396
 2891SOL    HW220133   1.568   2.121   8.159  0.2608 -3.5816 -0.0484
 2892SOL     OW20134   2.968   4.043   6.605  0.2097  0.0555  0.0957
 2892SOL    HW120135   2.884   4.083   6.628 -0.2610  0.4529 -2.3527
 2892SOL    HW220136   3.025   4.109   6.644  0.4907  0.1247 -0.4297
 2893SOL     OW20137   0.176   0.889  15.093 -0.5353  0.2435 -0.4950
 2893SOL    HW120138   0.109   0.822  15.108  1.2406 -0.9980  1.9661
 2893SOL    HW220139   0.158   0.944  15.170  1.0780 -1.1997  0.9103
 2894SOL     OW20140   3.210   3.511   3.493 -0.6397  0.4576  0.4595
 2894SOL    HW120141   3.139   3.567   3.525 -1.5939 -0.7108  0.3628
 2894SOL    HW220142   3.178   3.429   3.531  0.5660 -0.3173 -0.1981
 2895SOL     OW20143   3.675   1.331   1.901 -0.7172  0.6146  0.3219
 2895SOL    HW120144   3.738   1.386   1.947  0.5349 -1.0962  0.6606
 2895SOL    HW220145   3.630   1.392   1.843 -1.0903  0.0544  0.0204
 2896SOL     OW20146   2.739   4.063   7.081  0.0213  0.2785  0.5540
 2896SOL    HW120147   2.689   4.026   7.154 -0.4503  1.8804  1.0407
 2896SOL    HW220148   2.702   4.013   7.009  0.9422  1.1702 -0.5327
 2897SOL     OW20149   4.371   3.240   6.720 -0.1910 -0.1131  0.1089
 2897SOL    HW120150   4.398   3.332   6.728  1.7587 -0.4342 -2.6104
 2897SOL    HW220151   4.459   3.208   6.742 -0.6443 -1.6130 -0.2843
 2898SOL     OW20152   2.289   2.669   6.123  0.1537 -0.0476 -0.2641
 2898SOL    HW120153   2.214   2.721   6.096  0.2828  0.5473  0.5189
 2898SOL    HW220154   2.280   2.665   6.218  0.4696 -0.9148 -0.2760
 2899SOL     OW20155   2.895   4.704  17.565  0.2015 -0.1166 -0.6558
 2899SOL    HW120156   2.836   0.010  17.635 -0.2046 -0.7880 -0.7132
 2899SOL    HW220157   2.902   4.614  17.597 -2.1587 -0.3174 -0.6623
 2900SOL     OW20158   3.523   2.008   4.267 -0.1950  0.3349  0.2004
 2900SOL    HW120159   3.555   2.089   4.227 -0.1842 -1.1640 -2.8363
 2900SOL    HW220160   3.473   2.043   4.341  0.1902  0.5635  0.3551
 2901SOL     OW20161   2.373   3.892   4.639 -0.0445 -0.4432  0.3525
 2901SOL    HW120162   2.295   3.947   4.637 -0.2923 -0.8532 -0.9934
 2901SOL    HW220163   2.440   3.954   4.669  0.4552 -1.0474  0.5101
 2902SOL     OW20164   0.677   2.299   3.836  0.3525 -1.0698 -0.3041
 2902SOL    HW120165   0.749   2.309   3.899 -0.1242 -0.9497  0.2204
 2902SOL    HW220166   0.606   2.342   3.883  0.1169 -1.7540 -0.0356
 2903SOL     OW20167   0.375   1.048   5.803  0.2413  0.2321  0.2897
 2903SOL    HW120168   0.336   1.131   5.828  0.2259  0.3260 -0.0525
 2903SOL    HW220169   0.308   1.006   5.749 -0.4939  2.2420 -0.3516
 2904SOL     OW20170   3.916   1.750  11.977 -0.1641  0.7409 -0.0996
 2904SOL    HW120171   3.881   1.684  12.036 -0.1973 -2.2445 -3.4414
 2904SOL    HW220172   4.005   1.761  12.010  0.8770  2.0482 -3.3651
 2905SOL     OW20173   3.404   4.090  13.161  0.3578 -0.0215  0.4035
 2905SOL    HW120174   3.410   3.997  13.185 -0.7439 -0.3626 -0.6090
 2905SOL    HW220175   3.491   4.107  13.124  0.1304  1.3296  0.5118
 2906SOL     OW20176   2.151   4.501   5.417  0.2415 -0.4105 -0.0862
 2906SOL    HW120177   2.168   4.580   5.468  0.0480 -1.3711  1.4828
 2906SOL    HW220178   2.131   4.535   5.330 -0.6449  0.2467  0.3777
 2907SOL     OW20179   4.510   2.032   2.781  0.4605  0.3991  0.3667
 2907SOL    HW120180   4.605   2.041   2.774  0.3559  2.7845  1.9319
 2907SOL    HW220181   4.505   2.011   2.874  1.1024 -2.8503 -0.3276
 2908SOL     OW20182   0.291   4.175   3.002 -0.5455  0.0316  0.0875
 2908SOL    HW120183   0.295   4.218   2.917  1.3637 -0.8828 -0.2890
 2908SOL    HW220184   0.223   4.225   3.046  0.0836  1.6921 -0.8644
 2909SOL     OW20185   0.978   0.812  13.429  0.1226 -0.0065 -0.3476
 2909SOL    HW120186   0.990   0.740  13.490 -0.7448 -2.0308 -2.5806
 2909SOL    HW220187   0.913   0.777  13.368  0.8558 -1.5819 -0.2240
 2910SOL     OW20188   0.259   3.434   1.099  0.0786  0.2947 -0.1375
 2910SOL    HW120189   0.305   3.433   1.182  0.7446  0.4993 -0.5014
 2910SOL    HW220190   0.247   3.528   1.082  0.0712  0.8964  3.2165
 2911SOL     OW20191   4.330   4.464   4.081 -0.2233  0.4417  0.3756
 2911SOL    HW120192   4.385   4.408   4.026 -1.9077 -0.5145 -0.3495
 2911SOL    HW220193   4.388   4.540   4.075  0.6471 -0.1760  0.9086
 2912SOL     OW20194   3.274   2.600   6.305 -0.2715 -0.2596 -0.0194
 2912SOL    HW120195   3.228   2.560   6.378  0.8973  0.5718  1.1855
 2912SOL    HW220196   3.338   2.535   6.276  0.0544 -0.7287  1.7079
 2913SOL     OW20197   1.059   3.282  12.866 -0.2954  0.2234  0.3982
 2913SOL    HW120198   1.007   3.202  12.868 -0.9600  0.6824  2.3313
 2913SOL    HW220199   1.145   3.251  12.893  0.3639  3.5764  2.2409
 2914SOL     OW20200   2.194   3.667  16.233 -1.2337 -0.0701 -0.2640
 2914SOL    HW120201   2.184   3.747  16.284  1.7143  1.0815 -1.5228
 2914SOL    HW220202   2.137   3.605  16.280  0.4578  0.4011  2.4289
 2915SOL     OW20203   1.821   0.075   8.867 -0.4035 -0.0959 -0.0168
 2915SOL    HW120204   1.770   0.102   8.791 -1.1145 -0.3059  0.3844
 2915SOL    HW220205   1.893   0.023   8.831  1.1060  1.8081  0.2556
 2916SOL     OW20206   2.188   2.709   5.340 -0.1653 -0.1352 -0.3403
 2916SOL    HW120207   2.096   2.690   5.326 -0.3332 -0.3187  1.0794
 2916SOL    HW220208   2.208   2.640   5.404 -0.6273  1.3974  1.4563
 2917SOL     OW20209   2.995   2.702   4.059 -0.0551 -0.2052  0.0577
 2917SOL    HW120210   3.064   2.684   3.995  0.2644  0.2314  0.2797
 2917SOL    HW220211   2.949   2.772   4.011  0.6233  0.6663  0.6715
 2918SOL     OW20212   0.386   1.206   3.251  0.1499  0.1715  0.1363
 2918SOL    HW120213   0.426   1.267   3.188  1.7310  0.5637  1.5323
 2918SOL    HW220214   0.417   1.251   3.329 -0.3119  1.0215 -0.1728
 2919SOL     OW20215   3.711   0.122   6.661  0.2980 -0.1803  0.0757
 2919SOL    HW120216   3.777   0.053   6.670 -0.9776 -1.4712 -0.4206
 2919SOL    HW220217   3.767   0.200   6.662  0.1295 -0.0951  2.7453
 2920SOL     OW20218   4.165   0.763   0.720 -0.6103  0.1482  0.3177
 2920SOL    HW120219   4.102   0.745   0.790 -0.3708  1.0243  0.7537
 2920SOL    HW220220   4.155   0.858   0.727  2.4619  0.5432 -0.9982
 2921SOL     OW20221   3.052   2.761  16.221 -0.1115 -0.2742  0.4228
 2921SOL    HW120222   3.067   2.855  16.211  1.3746 -0.4155  1.3633
 2921SOL    HW220223   2.972   2.757  16.168  1.0277  1.9002 -1.4684
 2922SOL     OW20224   1.080   2.891   5.131  0.5069 -0.4629  0.3482
 2922SOL    HW120225   1.056   2.887   5.223  0.7000 -1.8561  0.3275
 2922SOL    HW220226   1.005   2.943   5.101  0.8311 -0.8358 -1.0998
 2923SOL     OW20227   4.518   2.601   5.980 -0.3542 -0.6380 -0.5642
 2923SOL    HW120228   4.475   2.616   6.065  1.7733 -0.2046  0.4385
 2923SOL    HW220229   4.450   2.640   5.925  0.3345  0.6237 -0.5134
 2924SOL     OW20230   0.245   3.751   6.436 -0.8001  0.0455  0.2752
 2924SOL    HW120231   0.316   3.798   6.479 -1.1738 -0.6497  1.6624
 2924SOL    HW220232   0.219   3.690   6.504 -1.0164  2.7003  2.5653
 2925SOL     OW20233   1.876   3.714   2.741 -0.3728  0.3420  0.2297
 2925SOL    HW120234   1.860   3.734   2.834  0.7543  0.0853  0.4803
 2925SOL    HW220235   1.935   3.789   2.732  1.1157 -0.8211  0.3023
 2926SOL     OW20236   3.393   1.434  17.622  0.1970 -0.2656 -0.5226
 2926SOL    HW120237   3.465   1.496  17.608 -0.6012  1.2348  2.0769
 2926SOL    HW220238   3.322   1.496  17.607  0.8471 -0.0571 -2.8347
 2927SOL     OW20239   3.294   3.464   1.420 -0.3429 -0.2790  0.7890
 2927SOL    HW120240   3.295   3.416   1.337  1.6987  0.5570  0.3320
 2927SOL    HW220241   3.345   3.400   1.470  0.9042  1.1408  1.3409
 2928SOL     OW20242   0.282   1.200  12.103 -0.7042  0.0407 -1.0696
 2928SOL    HW120243   0.187   1.216  12.110 -0.2061  1.6390  2.0666
 2928SOL    HW220244   0.296   1.227  12.193 -1.3054 -1.6429 -0.4799
 2929SOL     OW20245   1.810   1.047   1.844  0.0014 -0.9420 -0.3161
 2929SOL    HW120246   1.774   0.968   1.804 -1.7056 -0.6132  0.5949
 2929SOL    HW220247   1.870   1.081   1.777 -0.3729 -0.2132 -0.2783
 2930SOL     OW20248   3.401   3.550   5.124 -0.0812  0.1756  0.1640
 2930SOL    HW120249   3.448   3.474   5.155  0.4875 -0.5465 -2.4799
 2930SOL    HW220250   3.377   3.524   5.035 -1.4284  0.4439  0.4512
 2931SOL     OW20251   2.276   2.734   7.014 -0.0694  0.7341 -0.1803
 2931SOL    HW120252   2.293   2.825   7.039  1.2355 -0.3803  2.9752
 2931SOL    HW220253   2.226   2.719   7.095 -0.3339  2.0242 -0.1117
 2932SOL     OW20254   2.697   3.390   0.349  0.1794 -0.0004 -0.2347
 2932SOL    HW120255   2.692   3.436   0.433  0.4505  1.7065 -1.1408
 2932SOL    HW220256   2.627   3.439   0.305  0.3956 -1.2222 -1.9538
 2933SOL     OW20257   1.255   3.441   5.052  0.1727  0.6308 -0.2146
 2933SOL    HW120258   1.315   3.384   5.004 -0.4405 -0.9818  0.9263
 2933SOL    HW220259   1.189   3.375   5.076  0.2736  0.5974 -0.0267
 2934SOL     OW20260   2.661   3.928  10.843 -0.1843  0.0927  0.7692
 2934SOL    HW120261   2.750   3.955  10.822  0.9068 -0.8082  4.1548
 2934SOL    HW220262   2.623   3.924  10.756  1.0644  1.3639  0.1750
 2935SOL     OW20263   3.263   3.646   7.714 -0.4313  0.2384 -0.2510
 2935SOL    HW120264   3.280   3.700   7.637  1.3861  0.0525  0.0262
 2935SOL    HW220265   3.291   3.698   7.789 -0.8983  1.1946 -0.7448
 2936SOL     OW20266   1.746   1.702   6.222  0.2367 -0.3411 -0.3482
 2936SOL    HW120267   1.814   1.762   6.193  0.0078 -0.9455 -2.1288
 2936SOL    HW220268   1.776   1.621   6.182 -1.1500 -1.3788  0.7438
 2937SOL     OW20269   2.021   4.436   7.231  0.2183  0.1312 -0.0603
 2937SOL    HW120270   2.067   4.361   7.269  0.6254  0.9875  1.1298
 2937SOL    HW220271   1.934   4.422   7.269 -0.0141  0.6942 -0.3811
 2938SOL     OW20272   2.148   1.974   7.810 -0.1836 -0.8334 -0.1673
 2938SOL    HW120273   2.088   1.931   7.871  1.4305 -0.0949  1.9240
 2938SOL    HW220274   2.217   1.910   7.796  0.6941 -0.2199  1.3503
 2939SOL     OW20275   3.858   1.009  15.954  0.3194 -0.3514  1.3668
 2939SOL    HW120276   3.949   1.039  15.956  0.2835 -0.0852 -0.9207
 2939SOL    HW220277   3.820   1.057  15.881  0.4434 -0.1124  1.4578
 2940SOL     OW20278   2.504   0.158   7.094  0.3478  0.6252  0.2484
 2940SOL    HW120279   2.590   0.181   7.129 -1.4844 -0.0355  5.1037
 2940SOL    HW220280   2.502   0.065   7.115  2.2447 -0.2714 -3.4257
 2941SOL     OW20281   0.721   2.284   8.991 -0.4126  0.4263  0.5437
 2941SOL    HW120282   0.798   2.272   9.047  1.0068 -1.2918 -1.7956
 2941SOL    HW220283   0.654   2.267   9.057 -0.5994  1.3290  0.5930
 2942SOL     OW20284   1.985   1.738  15.177 -0.1510  0.2889  0.3205
 2942SOL    HW120285   1.944   1.721  15.092 -0.4503 -1.3823  0.7995
 2942SOL    HW220286   1.930   1.678  15.227 -0.2199  0.4864  0.4812
 2943SOL     OW20287   2.791   0.562  10.726  0.3410 -0.2975 -0.2339
 2943SOL    HW120288   2.748   0.556  10.641 -2.1997  2.1693  0.8967
 2943SOL    HW220289   2.869   0.613  10.702  0.1663  0.6866  1.2955
 2944SOL     OW20290   2.334   3.751  11.243 -0.3202 -0.1698 -0.2414
 2944SOL    HW120291   2.249   3.766  11.202  1.5800  2.4454 -3.2797
 2944SOL    HW220292   2.388   3.800  11.181 -0.1763  1.7387  1.3852
 2945SOL     OW20293   0.454   0.258   7.374 -0.1168 -0.2001  0.0477
 2945SOL    HW120294   0.370   0.294   7.403 -0.2759  0.5007 -1.2823
 2945SOL    HW220295   0.447   0.163   7.386 -1.3387 -0.0446  0.6036
 2946SOL     OW20296   0.170   2.531   3.209 -0.2056 -0.0195  0.4967
 2946SOL    HW120297   0.089   2.494   3.174 -1.4799  1.3691  1.9776
 2946SOL    HW220298   0.221   2.450   3.214  0.4261  0.2016 -2.2106
 2947SOL     OW20299   0.413   2.497   9.064 -0.1209 -0.2884 -0.3453
 2947SOL    HW120300   0.403   2.564   9.131 -2.7321 -1.4161  0.3987
 2947SOL    HW220301   0.433   2.418   9.115 -1.2107  0.7350  1.6645
 2948SOL     OW20302   3.036   4.695  16.142 -0.7627  0.1539 -0.1042
 2948SOL    HW120303   3.061   0.011  16.226  2.4414  1.5662 -1.7251
 2948SOL    HW220304   3.115   4.709  16.089 -0.7086 -1.4301 -0.4621
 2949SOL     OW20305   3.467   4.223   9.378  0.6693 -0.2032  0.3992
 2949SOL    HW120306   3.498   4.302   9.422 -2.7669  0.8399  0.9191
 2949SOL    HW220307   3.440   4.163   9.448  0.4299 -0.7626 -0.1701
 2950SOL     OW20308   1.210   2.199   2.326 -0.1604  1.0931 -0.1188
 2950SOL    HW120309   1.178   2.224   2.239 -3.6108  0.4520  0.9845
 2950SOL    HW220310   1.148   2.132   2.354 -0.8419  3.0867  3.0391
 2951SOL     OW20311   2.459   0.198  15.073  0.1837  0.8762  0.4710
 2951SOL    HW120312   2.371   0.191  15.035  0.2947 -0.1674  0.3946
 2951SOL    HW220313   2.456   0.123  15.133 -0.2898 -0.3727 -1.0958
 2952SOL     OW20314   1.337   2.451   5.313  0.0341  0.4295 -0.0178
 2952SOL    HW120315   1.347   2.512   5.240  2.6246 -3.2976 -2.8008
 2952SOL    HW220316   1.388   2.495   5.380 -0.0871  2.4953 -1.2942
 2953SOL     OW20317   3.072   4.590  11.909  0.0215  0.2886  0.3074
 2953SOL    HW120318   3.017   4.539  11.849 -1.6190 -0.1004  2.1039
 2953SOL    HW220319   3.080   4.678  11.873  1.0159 -0.7630 -2.0155
 2954SOL     OW20320   3.937   0.819   5.838 -0.6558  0.0397 -0.1642
 2954SOL    HW120321   4.012   0.857   5.790  0.9505 -1.7372  0.9286
 2954SOL    HW220322   3.985   0.743   5.873 -1.9939 -0.6271  0.2172
 2955SOL     OW20323   2.039   4.196   2.155 -0.4687 -0.1003  0.5525
 2955SOL    HW120324   2.071   4.135   2.221 -0.5241  0.1765  0.8372
 2955SOL    HW220325   1.965   4.150   2.115 -1.8274  1.3668  1.3835
 2956SOL     OW20326   2.405   0.925   6.246  0.1564 -0.7672 -0.1478
 2956SOL    HW120327   2.485   0.926   6.193 -0.2437  1.2322 -0.6943
 2956SOL    HW220328   2.367   0.838   6.233 -1.5120 -0.0655  0.0839
 2957SOL     OW20329   0.168   4.150   3.985  0.1907  0.5989 -0.1668
 2957SOL    HW120330   0.258   4.156   3.953 -0.4903 -1.9545 -2.5639
 2957SOL    HW220331   0.183   4.101   4.066  0.8905  2.0349  0.5755
 2958SOL     OW20332   1.905   1.864  10.253 -0.8061  0.0699  0.4115
 2958SOL    HW120333   1.820   1.872  10.211  0.2996  0.8823 -1.6953
 2958SOL    HW220334   1.887   1.912  10.333  0.3691  0.1993  0.5981
 2959SOL     OW20335   0.048   4.458   4.726  0.3768  0.8282  0.7177
 2959SOL    HW120336   0.012   4.449   4.637 -1.1113 -1.7974  1.5854
 2959SOL    HW220337   4.692   4.481   4.774  2.1487  3.1055  2.5756
 2960SOL     OW20338   2.900   0.475   3.994  0.6023  0.0374  0.0258
 2960SOL    HW120339   2.900   0.555   3.942  1.0985  1.4029  2.0827
 2960SOL    HW220340   2.982   0.447   3.954  1.0947 -0.1121  1.1317
 2961SOL     OW20341   4.128   2.722  10.726  0.4529  0.3557 -0.4053
 2961SOL    HW120342   4.168   2.808  10.741  0.2961 -0.0442  2.1629
 2961SOL    HW220343   4.177   2.666  10.786 -0.8022 -0.9177 -0.5679
 2962SOL     OW20344   1.999   1.424   0.164  0.4044 -0.1914  0.4252
 2962SOL    HW120345   2.031   1.373   0.090  0.0341  0.2320 -0.0191
 2962SOL    HW220346   1.979   1.508   0.124  0.8923 -1.0419 -1.5726
 2963SOL     OW20347   3.620   3.048   4.722  0.3455 -0.3438  0.5989
 2963SOL    HW120348   3.685   2.979   4.708 -0.5243 -0.7201 -1.5013
 2963SOL    HW220349   3.653   3.082   4.805 -0.1359 -0.4825  0.8505
 2964SOL     OW20350   1.828   4.301   7.053 -0.2751  0.1090 -0.7634
 2964SOL    HW120351   1.880   4.338   7.124  0.9342 -0.9843 -1.0593
 2964SOL    HW220352   1.738   4.309   7.083 -0.9725  0.0214 -2.8033
 2965SOL     OW20353   2.030   0.681   0.613  0.4721  0.5295 -0.3604
 2965SOL    HW120354   2.039   0.587   0.627  1.7899  0.4475 -1.6467
 2965SOL    HW220355   2.111   0.695   0.562  1.2679  0.1362  0.7905
 2966SOL     OW20356   3.583   1.427   3.533  0.4829 -0.7859 -0.5883
 2966SOL    HW120357   3.516   1.493   3.549  0.0781 -0.8662 -1.9048
 2966SOL    HW220358   3.620   1.415   3.620  1.0919 -0.3520 -0.7880
 2967SOL     OW20359   4.198   0.647   4.068 -0.2064  0.2523  1.3331
 2967SOL    HW120360   4.198   0.742   4.074  2.0729  0.1893  2.4251
 2967SOL    HW220361   4.190   0.624   4.161 -0.5698 -0.9519  1.0056
 2968SOL     OW20362   2.118   0.632   5.133  0.5032 -0.6610 -0.0963
 2968SOL    HW120363   2.143   0.595   5.217  0.9228  0.4663  0.2782
 2968SOL    HW220364   2.077   0.714   5.160 -0.6774 -1.4976  0.6758
 2969SOL     OW20365   3.955   2.952   6.315 -0.4312  0.4821 -0.0221
 2969SOL    HW120366   3.948   2.996   6.400 -0.4441 -0.5224  0.4931
 2969SOL    HW220367   3.915   3.014   6.254  1.2895  1.4787 -0.1596
 2970SOL     OW20368   0.151   4.280   7.091 -0.3774 -0.2117 -0.1325
 2970SOL    HW120369   0.075   4.226   7.114 -1.1051  0.0547 -1.9549
 2970SOL    HW220370   0.151   4.342   7.164  2.5533 -0.2611 -0.1104
 2971SOL     OW20371   0.470   3.551  13.848  0.2396  0.1312  0.5503
 2971SOL    HW120372   0.529   3.578  13.777  0.6695  1.5317  1.4221
 2971SOL    HW220373   0.518   3.566  13.930  0.1554  0.8428  0.4728
 2972SOL     OW20374   2.596   1.415  13.829  0.8691  0.4715  0.8272
 2972SOL    HW120375   2.545   1.437  13.906  0.8562  0.0216  0.9495
 2972SOL    HW220376   2.552   1.464  13.760 -0.4384  1.0142  2.0632
 2973SOL     OW20377   2.650   2.828   8.402  0.7182  0.5473 -0.7977
 2973SOL    HW120378   2.555   2.827   8.391  0.8258 -2.2839 -1.5443
 2973SOL    HW220379   2.660   2.899   8.466 -0.0968  0.9112 -1.0718
 2974SOL     OW20380   2.372   2.280   6.157  0.0281 -0.3705 -0.0737
 2974SOL    HW120381   2.393   2.349   6.095  1.3271 -1.3319 -0.7132
 2974SOL    HW220382   2.449   2.282   6.213  0.0760  0.5416 -0.1840
 2975SOL     OW20383   3.134   4.112   4.646 -0.5912 -0.5646 -0.3820
 2975SOL    HW120384   3.042   4.097   4.668 -0.1740 -2.1248  0.2622
 2975SOL    HW220385   3.119   4.184   4.585  1.0586  0.3201  0.2621
 2976SOL     OW20386   3.469   4.276   5.019 -0.2515 -0.0214  0.9844
 2976SOL    HW120387   3.450   4.302   5.109  0.8603 -0.9684  1.4839
 2976SOL    HW220388   3.379   4.262   4.989  0.4330  0.4707 -1.2354
 2977SOL     OW20389   3.876   0.730  16.012 -0.2315  0.9412 -0.1369
 2977SOL    HW120390   3.875   0.824  15.998  1.1467  0.9878  0.1750
 2977SOL    HW220391   3.867   0.729  16.107  1.2765 -0.9058 -0.0084
 2978SOL     OW20392   4.164   0.387   5.386 -0.0898  0.2891  0.3979
 2978SOL    HW120393   4.084   0.395   5.437 -2.0243 -0.0314 -2.5857
 2978SOL    HW220394   4.194   0.302   5.418  0.4944  0.0724 -0.7126
 2979SOL     OW20395   4.339   2.476   1.174  0.8712  0.3519  0.3023
 2979SOL    HW120396   4.350   2.383   1.192  1.3798 -0.1510 -2.7481
 2979SOL    HW220397   4.396   2.487   1.098 -1.1651  0.2294 -1.2368
 2980SOL     OW20398   0.206   3.065  15.763  0.1729 -0.5162 -0.8340
 2980SOL    HW120399   0.194   3.069  15.668 -0.2627  0.5953 -0.7290
 2980SOL    HW220400   0.291   3.020  15.767  1.2076  1.5726  0.5544
 2981SOL     OW20401   0.525   4.121   9.471 -0.5563  0.5078  0.0022
 2981SOL    HW120402   0.615   4.130   9.503 -0.4278 -1.8347  0.2865
 2981SOL    HW220403   0.501   4.214   9.469 -2.7667 -0.1005 -1.1871
 2982SOL     OW20404   0.527   1.163  11.936  0.1506  0.1771  0.2948
 2982SOL    HW120405   0.588   1.107  11.984  1.8473  1.8179  0.0385
 2982SOL    HW220406   0.459   1.191  11.997 -2.0706 -1.0803 -1.6234
 2983SOL     OW20407   3.127   4.227   6.759  0.1921 -0.0691 -0.3878
 2983SOL    HW120408   3.215   4.243   6.724 -0.5521 -0.3382 -2.4094
 2983SOL    HW220409   3.093   4.317   6.760 -1.2597 -0.6472  0.7375
 2984SOL     OW20410   1.685   0.405   2.894 -0.2073  0.5351  0.3284
 2984SOL    HW120411   1.700   0.484   2.841 -0.4073  0.2744 -0.1217
 2984SOL    HW220412   1.733   0.429   2.973  1.3595 -0.1321 -0.4389
 2985SOL     OW20413   1.948   2.251   1.337 -0.1431 -0.2225 -0.1359
 2985SOL    HW120414   1.988   2.230   1.421 -2.1757 -0.7799  0.7050
 2985SOL    HW220415   1.869   2.197   1.342 -0.0220 -0.3140  0.6939
 2986SOL     OW20416   2.281   3.917  13.015  0.5033  0.0169 -0.2033
 2986SOL    HW120417   2.262   3.877  12.931 -2.6936  1.7170 -0.3040
 2986SOL    HW220418   2.372   3.894  13.034  0.5011 -1.3635 -1.8990
 2987SOL     OW20419   3.173   2.151   6.523  0.3088 -0.2447 -0.5680
 2987SOL    HW120420   3.222   2.187   6.597 -1.2639  1.5910 -0.4202
 2987SOL    HW220421   3.250   2.100   6.497 -0.7859 -0.9391 -2.4171
 2988SOL     OW20422   1.579   3.914  16.598 -0.2637 -0.4888 -0.4790
 2988SOL    HW120423   1.670   3.931  16.574  0.0850  0.7757  1.7143
 2988SOL    HW220424   1.571   3.977  16.670  0.9917 -0.1950 -0.6053
 2989SOL     OW20425   3.946   0.769  13.983  0.2676  0.5004 -0.5280
 2989SOL    HW120426   3.929   0.823  14.060 -2.2142 -1.2582  0.1370
 2989SOL    HW220427   3.977   0.687  14.021 -2.3198  0.0625  0.6743
 2990SOL     OW20428   0.382   0.878   1.250 -0.0334 -0.1951 -0.3081
 2990SOL    HW120429   0.399   0.950   1.310  1.2856  0.5570 -1.5698
 2990SOL    HW220430   0.308   0.910   1.198  0.6627  1.4987 -0.2650
 2991SOL     OW20431   2.587   4.071   5.907 -0.4355  0.1540 -0.0822
 2991SOL    HW120432   2.518   4.104   5.850 -1.2258  1.3823  1.5719
 2991SOL    HW220433   2.541   4.080   5.991 -1.8161 -1.4643 -0.6623
 2992SOL     OW20434   2.720   0.231   6.614  0.1080 -0.2260  0.3936
 2992SOL    HW120435   2.814   0.248   6.609  0.0873 -0.2115  0.0146
 2992SOL    HW220436   2.694   0.186   6.533 -1.2522 -0.5225  1.0016
 2993SOL     OW20437   3.580   4.205  15.347 -0.5434  0.1803 -0.6130
 2993SOL    HW120438   3.630   4.234  15.423 -0.9894 -0.8035  0.0678
 2993SOL    HW220439   3.505   4.159  15.387 -1.8528  0.9219 -2.2320
 2994SOL     OW20440   0.262   3.213   8.626  0.1255 -0.1663 -0.1756
 2994SOL    HW120441   0.228   3.190   8.712  1.3071  1.2809  0.6867
 2994SOL    HW220442   0.182   3.262   8.608 -0.0472 -0.2249  0.4438
 2995SOL     OW20443   3.202   1.509   7.837 -0.2251  0.0441  0.5433
 2995SOL    HW120444   3.283   1.527   7.790 -0.6419  0.4120 -0.0331
 2995SOL    HW220445   3.234   1.451   7.907 -1.6158 -2.9023 -1.2394
 2996SOL     OW20446   3.430   4.224  14.103  0.0569 -0.1072  0.2897
 2996SOL    HW120447   3.362   4.194  14.042  0.9590 -0.2888 -0.6211
 2996SOL    HW220448   3.417   4.318  14.091 -0.5862 -0.5074 -2.1929
 2997SOL     OW20449   3.673   0.877  11.623 -0.4975  0.7510  0.4346
 2997SOL    HW120450   3.595   0.837  11.586 -1.2111  2.0519  0.5435
 2997SOL    HW220451   3.733   0.859  11.550 -0.3278  1.2979  0.4408
 2998SOL     OW20452   0.481   1.404   5.213  0.6746  0.1960 -0.1360
 2998SOL    HW120453   0.398   1.356   5.221  0.6178  0.7644  2.8562
 2998SOL    HW220454   0.509   1.416   5.304  0.2185 -1.4151  0.2085
 2999SOL     OW20455   1.961   0.118  17.086  0.0764  0.1822 -0.2063
 2999SOL    HW120456   1.962   0.213  17.099  0.9042  0.0258  0.8215
 2999SOL    HW220457   2.024   0.107  17.014  0.5939  1.4571  0.0515
 3000SOL     OW20458   0.034   0.887   2.093  0.3235  0.2227 -0.3929
 3000SOL    HW120459   0.112   0.833   2.080 -0.0886 -0.4310 -0.1644
 3000SOL    HW220460   4.699   0.817   2.122  0.1943 -0.4571 -2.3198
 3001SOL     OW20461   3.931   3.324  14.149  0.1013 -0.3011 -0.1384
 3001SOL    HW120462   4.000   3.275  14.193  1.0650  1.4600  0.2864
 3001SOL    HW220463   3.940   3.278  14.066  2.8786 -0.5048  0.2813
 3002SOL     OW20464   0.236   2.956   7.583  0.1471  1.0597  0.0977
 3002SOL    HW120465   0.220   2.974   7.676  0.6688  1.1728  0.1673
 3002SOL    HW220466   0.239   3.046   7.550 -2.6868  1.3006  0.4934
 3003SOL     OW20467   0.849   3.852   5.310 -0.3204  0.1563 -0.3817
 3003SOL    HW120468   0.939   3.818   5.313 -0.3638  0.1137  0.4747
 3003SOL    HW220469   0.865   3.943   5.283 -0.2355  0.2936  0.1340
 3004SOL     OW20470   0.303   0.472   2.608 -0.0133 -0.1506  0.1815
 3004SOL    HW120471   0.250   0.550   2.625 -0.6449 -0.6118  0.3216
 3004SOL    HW220472   0.327   0.441   2.696  0.9635 -3.1437 -1.1581
 3005SOL     OW20473   0.498   4.585   5.153  0.4521  0.4013 -0.0202
 3005SOL    HW120474   0.455   4.668   5.173 -2.0590 -0.7718 -0.5172
 3005SOL    HW220475   0.451   4.561   5.073  0.0671 -0.4538  0.4664
 3006SOL     OW20476   4.197   4.428   4.781  0.4872  0.1208 -0.3922
 3006SOL    HW120477   4.121   4.414   4.725  0.1391  0.1602  0.0677
 3006SOL    HW220478   4.158   4.485   4.848  0.0333 -1.1007  0.3843
 3007SOL     OW20479   1.324   3.657  11.376 -0.3667 -0.0684 -0.6107
 3007SOL    HW120480   1.400   3.628  11.326  0.8237  2.2337 -0.0962
 3007SOL    HW220481   1.301   3.737  11.330 -1.3670  0.5318  0.9053
 3008SOL     OW20482   0.263   1.647   6.544 -0.3972  0.1363  0.0082
 3008SOL    HW120483   0.191   1.709   6.552  0.3142  1.0376 -0.7504
 3008SOL    HW220484   0.239   1.584   6.476  0.9357 -1.7683  1.2803
 3009SOL     OW20485   3.890   0.372   0.822 -0.3494  0.0771 -0.3224
 3009SOL    HW120486   3.967   0.425   0.803 -0.3563 -0.5016 -1.9373
 3009SOL    HW220487   3.929   0.289   0.848  1.4800  1.7010  2.1333
 3010SOL     OW20488   0.324   2.251   3.278 -0.7710 -0.4635  0.0902
 3010SOL    HW120489   0.407   2.267   3.233 -1.1179 -3.0175 -1.4638
 3010SOL    HW220490   0.338   2.170   3.328 -0.8258 -1.0723 -0.8842
 3011SOL     OW20491   0.398   3.957   5.480  0.2778  0.2674 -0.2595
 3011SOL    HW120492   0.387   3.965   5.385 -1.1706 -1.5785 -0.2328
 3011SOL    HW220493   0.475   3.900   5.486  0.5150  0.5710 -0.3957
 3012SOL     OW20494   1.838   1.580   5.345 -0.0699 -0.1779  0.1827
 3012SOL    HW120495   1.827   1.655   5.405 -2.3783 -0.4915  0.1697
 3012SOL    HW220496   1.762   1.528   5.374 -0.0626 -0.5235 -0.4300
 3013SOL     OW20497   1.476   0.619   7.416  0.1601  0.7222  0.3033
 3013SOL    HW120498   1.433   0.696   7.380  3.7303  1.2386 -2.9103
 3013SOL    HW220499   1.397   0.566   7.425  1.8473 -2.1950 -2.3681
 3014SOL     OW20500   3.914   1.713   7.427 -0.0930 -0.7356 -0.1538
 3014SOL    HW120501   3.919   1.807   7.409 -0.9923 -0.5914  0.3386
 3014SOL    HW220502   3.970   1.681   7.356  0.1299  1.7209 -1.0815
 3015SOL     OW20503   0.054   0.758   8.556 -0.2130 -0.3366 -0.0205
 3015SOL    HW120504   0.047   0.676   8.506 -1.0607  0.2283 -0.8168
 3015SOL    HW220505   0.098   0.812   8.491 -1.0920  1.1632  0.6513
 3016SOL     OW20506   0.141   2.768  15.611  0.1820 -0.1057  0.1391
 3016SOL    HW120507   0.218   2.814  15.645  0.3066  0.5638 -1.0630
 3016SOL    HW220508   0.146   2.793  15.519 -0.0457  0.1399  0.1927
 3017SOL     OW20509   0.222   0.679   8.730  0.1016  0.2057  0.3335
 3017SOL    HW120510   0.149   0.710   8.677  0.2961  2.0000  1.1085
 3017SOL    HW220511   0.222   0.584   8.720  1.2998  0.5107 -2.6835
 3018SOL     OW20512   1.640   1.626  10.408 -0.4483 -0.4707  0.3684
 3018SOL    HW120513   1.678   1.541  10.383 -2.7265 -0.5837 -2.6918
 3018SOL    HW220514   1.711   1.650  10.468 -1.6058 -1.4739  2.1705
 3019SOL     OW20515   0.667   1.403   4.543  0.0539  0.0696  0.2878
 3019SOL    HW120516   0.610   1.357   4.481 -1.0736 -0.0362  1.4158
 3019SOL    HW220517   0.637   1.494   4.549  2.4824  0.8153  1.2584
 3020SOL     OW20518   4.284   2.912  15.064 -0.2467  0.0560  0.0337
 3020SOL    HW120519   4.312   2.988  15.013 -0.5149  0.8590  1.0774
 3020SOL    HW220520   4.253   2.850  14.999 -1.4852  0.2045  0.4861
 3021SOL     OW20521   0.894   0.706  12.538  0.6025 -0.3223  0.0848
 3021SOL    HW120522   0.958   0.764  12.498 -0.2541  3.1515  3.7357
 3021SOL    HW220523   0.847   0.767  12.595 -1.2143 -1.4620 -0.1899
 3022SOL     OW20524   1.817   3.189   6.590 -0.1103  0.6736  0.0977
 3022SOL    HW120525   1.760   3.164   6.517 -0.4863  3.3130 -0.5124
 3022SOL    HW220526   1.853   3.103   6.612 -0.9463  0.0684 -0.8885
 3023SOL     OW20527   3.626   0.965   4.514  0.0813  0.4633 -0.0027
 3023SOL    HW120528   3.703   0.907   4.512 -0.0935  0.3068 -2.5509
 3023SOL    HW220529   3.567   0.906   4.468 -0.4212  2.0190 -1.3259
 3024SOL     OW20530   4.652   3.681   8.888  0.5397 -0.1060 -0.1566
 3024SOL    HW120531   4.572   3.653   8.844  0.7500 -0.5657 -0.2431
 3024SOL    HW220532   4.682   3.596   8.918 -4.6814 -1.5893  0.8352
 3025SOL     OW20533   1.110   3.782  10.305 -0.5695  0.0055  0.1267
 3025SOL    HW120534   1.017   3.756  10.306 -0.2434 -1.2041 -1.0534
 3025SOL    HW220535   1.146   3.709  10.256 -0.8825  0.4172 -0.7190
 3026SOL     OW20536   0.928   1.605   7.862  0.2742 -0.3361 -0.3593
 3026SOL    HW120537   0.907   1.515   7.889  1.3784 -0.3680  0.3497
 3026SOL    HW220538   1.020   1.601   7.837  0.6075  0.8716  0.7394
 3027SOL     OW20539   1.104   0.687   5.154  0.4113  0.3776  0.3945
 3027SOL    HW120540   1.034   0.659   5.212  1.7646 -3.0315  0.4364
 3027SOL    HW220541   1.073   0.646   5.073  0.5371 -0.9345  1.0027
 3028SOL     OW20542   2.196   3.749   3.374  0.7435  0.0271 -0.3256
 3028SOL    HW120543   2.126   3.684   3.367  0.0240  0.4901  2.4576
 3028SOL    HW220544   2.210   3.788   3.288  1.9420 -0.2435 -0.2505
 3029SOL     OW20545   4.237   3.939  12.712  0.0714  0.3351  0.5824
 3029SOL    HW120546   4.254   3.944  12.618 -1.3019 -1.6824  0.2398
 3029SOL    HW220547   4.326   3.938  12.748  0.9245 -2.3608 -1.5868
 3030SOL     OW20548   0.029   4.147  11.388  0.5266  0.1605 -0.3122
 3030SOL    HW120549   0.034   4.086  11.314 -1.6914 -1.1587  0.6263
 3030SOL    HW220550   0.042   4.227  11.337 -0.8903 -0.0866 -1.0604
 3031SOL     OW20551   1.049   1.874  17.401  0.4629  0.5614 -0.2291
 3031SOL    HW120552   1.117   1.911  17.345  0.9703  0.3031  0.2255
 3031SOL    HW220553   1.033   1.958  17.445 -1.1017 -0.1608  0.5897
 3032SOL     OW20554   3.307   1.669   6.046  0.1321  0.9366 -0.3158
 3032SOL    HW120555   3.314   1.575   6.064 -1.7378  0.9384  0.3259
 3032SOL    HW220556   3.254   1.670   5.967 -1.0249  0.8522  0.4559
 3033SOL     OW20557   1.009   0.058   6.078 -0.0812 -0.6200  0.0138
 3033SOL    HW120558   0.940   0.028   6.019 -2.2552 -0.3967  2.4486
 3033SOL    HW220559   0.986   0.151   6.068  1.0444 -0.1626  1.7898
 3034SOL     OW20560   4.396   3.518  10.599 -0.4204 -0.1443  0.6992
 3034SOL    HW120561   4.347   3.598  10.578 -0.9965  0.1884  3.2893
 3034SOL    HW220562   4.330   3.457  10.567 -0.3038 -0.1144  0.4035
 3035SOL     OW20563   1.962   0.238   5.271  0.5690 -0.2164 -0.3765
 3035SOL    HW120564   1.969   0.222   5.177  0.6292 -1.5684 -0.1462
 3035SOL    HW220565   1.947   0.332   5.266 -2.2155 -0.7941 -3.1096
 3036SOL     OW20566   2.523   2.548  10.411 -0.2846 -0.2643  0.2811
 3036SOL    HW120567   2.462   2.496  10.463 -0.9008  0.4343  0.2628
 3036SOL    HW220568   2.602   2.562  10.463  1.5578 -2.5826 -1.9579
 3037SOL     OW20569   0.682   3.602   8.098  0.4266  0.2966 -0.1588
 3037SOL    HW120570   0.755   3.651   8.061  0.4729  1.5068  1.5357
 3037SOL    HW220571   0.695   3.519   8.051  1.3363  0.0547  0.5064
 3038SOL     OW20572   3.473   0.784   5.303 -0.0013 -0.0195 -0.9135
 3038SOL    HW120573   3.406   0.853   5.302  1.2690  1.2177 -1.3663
 3038SOL    HW220574   3.460   0.753   5.213 -0.3985 -3.1768  0.2470
 3039SOL     OW20575   4.145   0.276  14.109 -0.6666  0.0271 -0.3061
 3039SOL    HW120576   4.102   0.291  14.025  1.9273 -2.0267 -2.0190
 3039SOL    HW220577   4.231   0.258  14.070 -0.8731  2.4715 -1.8970
 3040SOL     OW20578   3.122   4.714  11.152 -0.3417 -0.0046  0.2345
 3040SOL    HW120579   3.044   4.664  11.177 -2.1585  1.9597 -1.5371
 3040SOL    HW220580   3.188   4.660  11.194 -0.3641  0.0516  0.3416
 3041SOL     OW20581   2.790   3.008   7.300 -0.5698  0.7741 -0.0645
 3041SOL    HW120582   2.854   3.080   7.295  1.0614 -0.6354  0.5919
 3041SOL    HW220583   2.850   2.937   7.322 -1.3337  0.3511  0.6370
 3042SOL     OW20584   3.040   3.380   4.810 -0.4732  0.6001  0.0165
 3042SOL    HW120585   2.946   3.365   4.795 -0.7315  1.4013  0.8376
 3042SOL    HW220586   3.033   3.474   4.827  4.3005  1.0413 -0.5396
 3043SOL     OW20587   0.290   3.777   5.729  0.2797  0.1161 -0.0923
 3043SOL    HW120588   0.318   3.734   5.810  1.6096 -0.2247 -0.7255
 3043SOL    HW220589   0.366   3.830   5.707 -1.2207  1.6998 -1.4469
 3044SOL     OW20590   1.433   3.413   1.936 -0.2660 -0.2545 -0.5423
 3044SOL    HW120591   1.435   3.319   1.954  0.9143  0.0214  0.7434
 3044SOL    HW220592   1.366   3.418   1.868 -2.2128  0.2325  1.4537
 3045SOL     OW20593   3.111   2.228  16.282  0.0457  0.0681  0.0336
 3045SOL    HW120594   3.108   2.153  16.223 -2.1152  1.2520 -1.3614
 3045SOL    HW220595   3.203   2.230  16.306  0.5114  1.2309 -1.8883
 3046SOL     OW20596   2.851   2.690  15.149  0.4952  0.4487  0.3095
 3046SOL    HW120597   2.884   2.761  15.204  1.0524 -0.2591  0.8907
 3046SOL    HW220598   2.895   2.710  15.066  2.5468 -1.1192  0.9981
 3047SOL     OW20599   3.326   1.418   6.658  0.5982  0.3406 -0.0545
 3047SOL    HW120600   3.403   1.437   6.605  1.3257 -2.0510  0.1575
 3047SOL    HW220601   3.315   1.328   6.628  1.6010  0.7552 -1.6758
 3048SOL     OW20602   1.588   1.075   7.999  0.3311 -0.1403  0.3133
 3048SOL    HW120603   1.598   1.164   8.032  0.3284 -0.7609  2.0297
 3048SOL    HW220604   1.574   1.083   7.905  1.1623  2.1185  0.3997
 3049SOL     OW20605   3.955   4.487  15.378 -0.0624 -0.2172 -0.2680
 3049SOL    HW120606   3.978   4.410  15.327 -2.6960 -1.5214  0.5215
 3049SOL    HW220607   4.045   4.515  15.397 -0.6373  1.9905 -0.7787
 3050SOL     OW20608   3.854   4.655  15.580  0.2430  0.1782 -0.5326
 3050SOL    HW120609   3.773   4.668  15.531 -0.2708  1.1084  0.5611
 3050SOL    HW220610   3.886   4.579  15.533  1.7169  0.8956 -0.6948
 3051SOL     OW20611   0.484   3.671   8.864  0.0584  0.3486 -0.5911
 3051SOL    HW120612   0.449   3.721   8.938  2.8248  1.4114 -0.0115
 3051SOL    HW220613   0.403   3.626   8.838 -0.0499 -0.3074  0.9018
 3052SOL     OW20614   4.395   0.255  15.736  0.3423  0.2056 -0.0648
 3052SOL    HW120615   4.465   0.300  15.785  1.5657 -1.8217  0.0510
 3052SOL    HW220616   4.380   0.323  15.671 -2.0625  0.0006  0.3000
 3053SOL     OW20617   0.701   0.893   8.253  0.2067  0.0624  0.1693
 3053SOL    HW120618   0.765   0.822   8.261  1.2108  0.7656 -1.7241
 3053SOL    HW220619   0.738   0.964   8.305  1.1398  0.1626 -0.6235
 3054SOL     OW20620   3.477   3.352   9.791  0.3783 -0.3152  0.6829
 3054SOL    HW120621   3.526   3.324   9.868  1.4097 -0.2343  0.0618
 3054SOL    HW220622   3.513   3.292   9.725 -1.0155 -2.1880  1.6401
 3055SOL     OW20623   1.218   3.399   5.794  0.5386  0.1262  0.3324
 3055SOL    HW120624   1.247   3.440   5.712  1.1541  0.1775  0.5732
 3055SOL    HW220625   1.208   3.469   5.859 -1.1028  2.2664 -2.2053
 3056SOL     OW20626   1.166   1.035  10.262  0.2370 -0.0065 -0.6782
 3056SOL    HW120627   1.227   1.005  10.330 -1.3081  3.2333  2.1877
 3056SOL    HW220628   1.173   1.130  10.255  0.1615  0.0863  0.4736
 3057SOL     OW20629   4.592   0.550   1.213 -0.4401  0.6424  0.6760
 3057SOL    HW120630   4.614   0.529   1.304  0.9596  1.2410  0.4649
 3057SOL    HW220631   4.680   0.564   1.178 -0.8184  0.8260 -0.2049
 3058SOL     OW20632   3.256   3.940  14.949 -0.1935  0.0694  0.0854
 3058SOL    HW120633   3.194   4.012  14.936 -0.5444 -0.5142 -1.4703
 3058SOL    HW220634   3.310   3.946  14.870  0.9390  0.8959  0.9119
 3059SOL     OW20635   0.621   3.487   3.096 -0.0262 -0.1530  0.4354
 3059SOL    HW120636   0.557   3.499   3.026  1.8129 -0.5444 -1.3115
 3059SOL    HW220637   0.699   3.471   3.043  0.0003 -0.6644  0.6269
 3060SOL     OW20638   3.997   2.298   4.281  0.2199 -0.0912  0.4254
 3060SOL    HW120639   4.091   2.318   4.292  0.7025 -1.3813 -1.3533
 3060SOL    HW220640   3.983   2.307   4.187  0.9330 -0.4636  0.2813
 3061SOL     OW20641   0.599   0.264   8.097  0.1067  0.3555  0.1186
 3061SOL    HW120642   0.575   0.309   8.177 -0.0426 -0.7805  0.7066
 3061SOL    HW220643   0.624   0.176   8.123  0.9210  0.7102  0.5382
 3062SOL     OW20644   3.891   1.689   4.894 -0.6710  0.4206 -0.1547
 3062SOL    HW120645   3.829   1.617   4.881 -1.9387  1.4991 -0.1063
 3062SOL    HW220646   3.836   1.765   4.875 -2.3440 -0.0343  2.7754
 3063SOL     OW20647   4.703   2.131  17.614  0.6871 -0.3350  0.5860
 3063SOL    HW120648   0.025   2.215  17.609 -0.7305  0.4893  1.5035
 3063SOL    HW220649   4.690   2.118   0.013 -1.8185  0.1264  0.3141
 3064SOL     OW20650   3.739   0.769  17.574  0.1130  0.6634  0.3276
 3064SOL    HW120651   3.679   0.750  17.502 -0.5942  2.7143  0.3815
 3064SOL    HW220652   3.742   0.681  17.611  1.1968  0.2815 -0.6781
 3065SOL     OW20653   2.645   0.681  14.615  0.3275  1.1378  0.1780
 3065SOL    HW120654   2.646   0.591  14.582  1.8414  0.6837  1.4501
 3065SOL    HW220655   2.709   0.718  14.554  1.0888  0.1437  0.3815
 3066SOL     OW20656   1.208   0.459   8.761 -0.1072  0.2809  0.1290
 3066SOL    HW120657   1.217   0.387   8.823 -1.8545  0.1768  0.2602
 3066SOL    HW220658   1.221   0.537   8.816 -1.1987 -1.1490  2.3757
 3067SOL     OW20659   1.601   4.532  17.657  0.2119  0.3150  0.7379
 3067SOL    HW120660   1.644   4.615  17.678  1.1303  0.4585 -1.7344
 3067SOL    HW220661   1.576   4.556  17.568  0.1621  1.0439  0.9448
 3068SOL     OW20662   4.117   2.147   9.828  0.1724 -0.6273 -0.7353
 3068SOL    HW120663   4.030   2.141   9.868  0.0267 -0.4756 -1.0259
 3068SOL    HW220664   4.097   2.205   9.755 -0.6644  2.1132  1.6546
 3069SOL     OW20665   2.682   4.380   7.792  0.2840 -0.0023  0.1482
 3069SOL    HW120666   2.744   4.313   7.820 -0.5159 -0.1689  1.5128
 3069SOL    HW220667   2.669   4.430   7.872 -0.0445  2.5908 -1.5225
 3070SOL     OW20668   2.722   1.998   2.649 -0.0087  0.3841 -0.4058
 3070SOL    HW120669   2.715   2.089   2.622  0.1174  0.5629  0.1633
 3070SOL    HW220670   2.753   1.958   2.568 -0.3074  0.0580 -0.3623
 3071SOL     OW20671   3.747   0.833   5.367  0.5075  0.2810 -0.5242
 3071SOL    HW120672   3.784   0.790   5.444 -0.3251 -0.9814 -0.8256
 3071SOL    HW220673   3.654   0.811   5.367  0.4111  0.6438  1.1981
 3072SOL     OW20674   3.486   4.537  15.914  0.0771  0.6900 -0.1070
 3072SOL    HW120675   3.553   4.545  15.982  0.4231  2.5110 -0.6728
 3072SOL    HW220676   3.538   4.493  15.847  2.0716 -0.6681  2.3410
 3073SOL     OW20677   1.140   3.718   6.621  0.1180  0.5358 -0.6904
 3073SOL    HW120678   1.174   3.769   6.547  1.5990  0.6321  0.0417
 3073SOL    HW220679   1.133   3.626   6.596  0.8039  0.0101  1.0280
 3074SOL     OW20680   0.898   4.538   6.582  0.0808  0.4281  0.2379
 3074SOL    HW120681   0.871   4.624   6.612 -0.9723  0.3672 -0.5255
 3074SOL    HW220682   0.905   4.554   6.487  0.1720  0.9573  0.3374
 3075SOL     OW20683   1.141   0.300   7.643  0.0335  0.4258  0.0885
 3075SOL    HW120684   1.126   0.277   7.734 -2.1503  0.6136 -0.2335
 3075SOL    HW220685   1.149   0.395   7.637  1.5414  0.3520  0.9789
 3076SOL     OW20686   0.105   1.884   6.696 -0.1754  0.0430 -0.3573
 3076SOL    HW120687   0.054   1.963   6.712  0.3881  0.4057 -0.3610
 3076SOL    HW220688   0.054   1.821   6.747  0.4949  2.5340  3.3550
 3077SOL     OW20689   1.712   4.697   2.397 -0.2358  0.4223  0.4278
 3077SOL    HW120690   1.699   4.649   2.316 -1.2012 -0.4610  1.1074
 3077SOL    HW220691   1.769   0.049   2.378 -0.7034  0.4094 -1.0426
 3078SOL     OW20692   1.957   4.442   8.570  0.1839  0.1141 -0.1907
 3078SOL    HW120693   1.913   4.358   8.587  1.4912  0.0355  2.9023
 3078SOL    HW220694   1.891   4.498   8.529 -0.3225 -1.9232 -2.1616
 3079SOL     OW20695   0.740   0.688   2.984  0.3834 -0.6532  0.7050
 3079SOL    HW120696   0.777   0.692   3.072 -1.5255  3.1666  1.3355
 3079SOL    HW220697   0.821   0.697   2.932 -0.1723  0.7958  0.0974
 3080SOL     OW20698   4.267   2.445   5.151  0.2141 -0.1141 -0.4271
 3080SOL    HW120699   4.224   2.378   5.204 -1.4287  0.7987 -0.6160
 3080SOL    HW220700   4.357   2.417   5.169  0.0591 -0.4826 -0.2209
 3081SOL     OW20701   3.829   2.945   7.173 -0.1734  0.8347 -0.2530
 3081SOL    HW120702   3.907   2.909   7.215 -1.0680 -0.6038  0.1658
 3081SOL    HW220703   3.754   2.903   7.215  0.6036 -0.3565 -0.0492
 3082SOL     OW20704   3.718   3.706   0.110 -0.0125  0.2809  0.0261
 3082SOL    HW120705   3.742   3.624   0.153  0.3689  0.5896  0.4047
 3082SOL    HW220706   3.645   3.734   0.166 -0.5100 -1.0134  0.0162
 3083SOL     OW20707   3.064   2.014   7.062  0.1157  0.0558  0.0639
 3083SOL    HW120708   3.102   2.093   7.100 -0.6374  0.7155 -0.5230
 3083SOL    HW220709   3.140   1.984   7.012 -1.4564 -0.4041 -2.0619
 3084SOL     OW20710   0.616   0.036   6.147  0.3172  0.5597  0.0889
 3084SOL    HW120711   0.664   0.105   6.193  0.3392 -1.6756  3.4389
 3084SOL    HW220712   0.664   0.011   6.067  0.0972  2.3740 -0.5968
 3085SOL     OW20713   1.682   0.957   3.208  0.5045 -0.0932  0.6577
 3085SOL    HW120714   1.650   0.893   3.145 -1.7351  0.2372  1.4687
 3085SOL    HW220715   1.611   1.021   3.214  0.0494 -0.5255 -0.1490
 3086SOL     OW20716   1.958   0.952   0.546  0.2600 -0.3323  0.1759
 3086SOL    HW120717   1.863   0.945   0.557  0.4035 -0.4098  1.3402
 3086SOL    HW220718   1.986   0.862   0.565 -1.3128 -0.7983  0.2769
 3087SOL     OW20719   3.159   2.533   0.862  0.4153  0.1385 -0.1055
 3087SOL    HW120720   3.099   2.472   0.904  1.1817 -0.5002  0.0592
 3087SOL    HW220721   3.204   2.490   0.790  1.1981 -1.0572  1.0877
 3088SOL     OW20722   3.495   3.225  14.274  0.6758 -0.2867 -0.0715
 3088SOL    HW120723   3.565   3.280  14.309  1.2637 -0.7344 -0.5387
 3088SOL    HW220724   3.523   3.211  14.184 -1.0054 -0.4304 -0.5845
 3089SOL     OW20725   2.802   1.795  13.628  0.1104  0.1830  0.2291
 3089SOL    HW120726   2.763   1.714  13.662  1.3987 -0.4864  0.0982
 3089SOL    HW220727   2.828   1.833  13.712  2.9869 -0.0336 -0.5954
 3090SOL     OW20728   3.867   4.180   5.255 -0.5679 -0.7286  0.2653
 3090SOL    HW120729   3.945   4.129   5.277 -0.1493  0.1940  0.9295
 3090SOL    HW220730   3.824   4.121   5.193 -1.8078  1.9265 -1.4155
 3091SOL     OW20731   4.162   3.939   5.505  0.4595  0.0918  0.3585
 3091SOL    HW120732   4.158   3.983   5.420 -3.8862  0.6827  0.8950
 3091SOL    HW220733   4.237   3.981   5.548  1.4932 -1.1741 -0.1867
 3092SOL     OW20734   3.557   0.917  16.337  0.2667  0.2616  0.0386
 3092SOL    HW120735   3.644   0.952  16.317  0.2972 -0.2598 -0.7501
 3092SOL    HW220736   3.522   0.985  16.394 -3.0873 -0.7025 -0.8732
 3093SOL     OW20737   3.328   4.634   9.835  0.2031  0.2293 -0.0835
 3093SOL    HW120738   3.399   4.660   9.776  0.7365 -0.8545  0.0778
 3093SOL    HW220739   3.258   4.593   9.784 -0.9774  3.0035 -0.6772
 3094SOL     OW20740   0.069   1.190   3.632 -0.1073  0.6036 -0.0443
 3094SOL    HW120741   0.086   1.271   3.680  2.3637  1.7842 -2.8645
 3094SOL    HW220742   0.131   1.139   3.684 -2.4698  0.1731  2.3211
 3095SOL     OW20743   0.226   3.629   2.118 -0.6530 -0.3636 -0.0326
 3095SOL    HW120744   0.257   3.713   2.153 -0.9534 -0.2208 -0.1043
 3095SOL    HW220745   0.307   3.580   2.123  0.1382  0.8000 -1.2851
 3096SOL     OW20746   4.134   2.081   7.088 -0.0114 -0.3843  0.0676
 3096SOL    HW120747   4.219   2.124   7.094  0.0495 -0.6361  0.9616
 3096SOL    HW220748   4.075   2.154   7.065 -1.6420 -1.8532 -0.4175
 3097SOL     OW20749   3.543   3.694  15.051  0.1605 -0.2822  0.3521
 3097SOL    HW120750   3.560   3.629  15.118 -0.1264  0.1205  0.8184
 3097SOL    HW220751   3.534   3.772  15.105 -2.5007  1.4639 -2.5876
 3098SOL     OW20752   1.207   0.560  14.322 -0.1014  0.3580 -0.6046
 3098SOL    HW120753   1.117   0.567  14.353  0.5708 -0.4302  1.5126
 3098SOL    HW220754   1.246   0.540  14.407 -1.6144  1.5375  0.3712
 3099SOL     OW20755   3.146   0.265   6.280  0.4917 -0.4216 -0.0876
 3099SOL    HW120756   3.174   0.178   6.307  1.0748 -0.1278  0.2511
 3099SOL    HW220757   3.104   0.250   6.195 -0.3607  1.7728 -0.0736
 3100SOL     OW20758   3.819   0.644   4.241  0.1307 -0.6724 -0.2534
 3100SOL    HW120759   3.742   0.592   4.219  1.1417 -2.8377  1.3679
 3100SOL    HW220760   3.865   0.579   4.293 -1.0521 -1.4063 -0.1263
 3101SOL     OW20761   2.831   4.663   3.849 -0.1768 -0.3434 -0.0904
 3101SOL    HW120762   2.911   4.644   3.898 -0.1253  1.0659  0.3707
 3101SOL    HW220763   2.779   4.703   3.920  1.2341 -1.4011  1.5492
 3102SOL     OW20764   2.816   2.770   3.551 -0.4479  0.1875 -0.5912
 3102SOL    HW120765   2.874   2.839   3.581 -0.3695 -1.0714  2.2498
 3102SOL    HW220766   2.817   2.713   3.629  1.0073  2.3658  0.9686
 3103SOL     OW20767   3.506   2.435  16.435  0.5779 -0.0489  0.5046
 3103SOL    HW120768   3.569   2.504  16.414 -0.5078  0.9671  0.5732
 3103SOL    HW220769   3.533   2.428  16.527 -1.7540  0.2388  1.2342
 3104SOL     OW20770   1.330   3.474  11.644 -0.1502  0.6028 -0.0428
 3104SOL    HW120771   1.285   3.390  11.648  0.1609  0.4067 -0.7041
 3104SOL    HW220772   1.285   3.523  11.575 -0.2943 -0.6668 -0.8499
 3105SOL     OW20773   4.257   0.033  13.274  0.1496  0.7974 -0.4365
 3105SOL    HW120774   4.348   0.051  13.299  0.8578 -0.6478 -2.0264
 3105SOL    HW220775   4.254   0.047  13.180 -0.5742  0.2923 -0.4795
 3106SOL     OW20776   4.265   0.301   8.105 -0.0153 -0.1623  0.5873
 3106SOL    HW120777   4.279   0.294   8.200 -0.8592 -2.8811  0.5015
 3106SOL    HW220778   4.325   0.370   8.078 -1.3596  0.6482 -0.2645
 3107SOL     OW20779   2.931   2.863   8.452 -0.0208  0.0401 -0.3471
 3107SOL    HW120780   2.886   2.890   8.371 -0.4627  1.2488  0.2956
 3107SOL    HW220781   2.864   2.842   8.517 -0.7317  1.4806 -0.5902
 3108SOL     OW20782   3.409   4.436   6.974 -0.2665 -0.2451 -0.8689
 3108SOL    HW120783   3.315   4.418   6.972 -0.1491 -1.1274  1.0754
 3108SOL    HW220784   3.434   4.362   7.030  2.5813 -0.8832 -2.9260
 3109SOL     OW20785   4.139   1.327   4.105 -0.2291  0.4957 -0.1241
 3109SOL    HW120786   4.172   1.269   4.036 -0.9435 -0.4286  0.3003
 3109SOL    HW220787   4.130   1.272   4.183  1.3844 -0.4697 -0.6279
 3110SOL     OW20788   1.468   1.482   5.753 -0.0295  0.0506 -0.7218
 3110SOL    HW120789   1.527   1.463   5.825 -1.7521 -1.1860  0.3697
 3110SOL    HW220790   1.472   1.576   5.737  2.0500 -0.2029 -1.6654
 3111SOL     OW20791   3.724   0.917   3.646  0.5183  0.4744 -0.7137
 3111SOL    HW120792   3.681   0.836   3.620 -1.5567  1.6398 -0.8735
 3111SOL    HW220793   3.752   0.896   3.735 -0.8682  0.3815 -0.2957
 3112SOL     OW20794   1.219   0.612   3.183  0.2028  0.8497  0.1712
 3112SOL    HW120795   1.281   0.558   3.135 -1.1477 -0.2388 -0.3510
 3112SOL    HW220796   1.199   0.692   3.135 -0.3415  0.2521 -0.6008
 3113SOL     OW20797   1.232   1.049   8.570 -0.5515  0.8201  0.3123
 3113SOL    HW120798   1.208   1.107   8.642 -2.4074 -0.0019  0.3615
 3113SOL    HW220799   1.281   0.982   8.618 -1.6181  1.7053  2.6211
 3114SOL     OW20800   3.988   1.766   6.483 -0.0991 -0.5350 -0.3804
 3114SOL    HW120801   4.068   1.744   6.530  0.6217  0.6119 -1.0724
 3114SOL    HW220802   4.016   1.834   6.421  1.9048 -0.3050  0.7850
 3115SOL     OW20803   1.550   4.076   3.781  0.3710  0.2420 -0.2810
 3115SOL    HW120804   1.473   4.020   3.794  1.7387 -1.1069  2.2067
 3115SOL    HW220805   1.587   4.034   3.704  1.7924 -0.2594  0.6600
 3116SOL     OW20806   2.544   2.572   3.608 -0.0813 -0.1913 -0.3801
 3116SOL    HW120807   2.517   2.660   3.633  2.6282 -0.2239  2.6664
 3116SOL    HW220808   2.551   2.582   3.514  3.1376  0.4157 -0.0432
 3117SOL     OW20809   4.465   3.964   8.496  0.2089 -0.1258  0.1535
 3117SOL    HW120810   4.547   4.013   8.506  0.0367 -0.2611  2.3096
 3117SOL    HW220811   4.484   3.926   8.411 -2.1273  0.0434 -0.4416
 3118SOL     OW20812   3.341   1.512   9.856 -0.2278  0.8406  0.2084
 3118SOL    HW120813   3.324   1.591   9.907 -1.3451  1.0008 -0.4113
 3118SOL    HW220814   3.422   1.483   9.898 -1.1058 -1.6109  0.2071
 3119SOL     OW20815   1.351   3.523   8.754  0.0159  0.1857 -0.7933
 3119SOL    HW120816   1.409   3.553   8.824  0.7713  0.3216 -1.4810
 3119SOL    HW220817   1.292   3.464   8.802  1.2506  0.6610  1.2815
 3120SOL     OW20818   3.802   1.407   3.341 -0.3480  0.1772 -0.3074
 3120SOL    HW120819   3.722   1.407   3.394 -0.8741  0.0269 -1.0815
 3120SOL    HW220820   3.872   1.399   3.405 -1.4440  0.5775  0.9307
 3121SOL     OW20821   2.127   3.059   6.841  0.5170 -0.2537 -0.1410
 3121SOL    HW120822   2.061   3.066   6.911  0.2214  2.7082 -0.7370
 3121SOL    HW220823   2.200   3.014   6.884 -0.7779 -2.1977  0.0580
 3122SOL     OW20824   1.580   3.139   9.056  0.0105 -0.6191  0.3631
 3122SOL    HW120825   1.538   3.214   9.012  0.1071 -0.2169  0.9579
 3122SOL    HW220826   1.511   3.120   9.119  0.7098  0.0029  1.3166
 3123SOL     OW20827   4.437   0.136  10.687 -0.4737  0.3454  0.2336
 3123SOL    HW120828   4.360   0.175  10.645 -0.9395 -0.5581  0.2516
 3123SOL    HW220829   4.500   0.208  10.692 -2.5124  1.9136  2.9822
 3124SOL     OW20830   0.149   3.509  16.177 -0.3152  0.0516  0.0023
 3124SOL    HW120831   0.141   3.596  16.216  0.1901  0.4598 -0.8003
 3124SOL    HW220832   0.208   3.467  16.240 -0.0800  1.7463  0.9229
 3125SOL     OW20833   2.704   4.683   1.705  0.3922 -0.1241  0.0109
 3125SOL    HW120834   2.740   4.616   1.646 -0.9961 -1.0187  0.1822
 3125SOL    HW220835   2.684   0.017   1.631 -0.5508  1.4319  1.4807
 3126SOL     OW20836   2.908   4.519   7.587  0.4833 -1.5729 -0.0704
 3126SOL    HW120837   2.877   4.535   7.497  0.8735 -2.1796 -0.3121
 3126SOL    HW220838   2.821   4.530   7.626 -0.0711  0.5493 -1.8647
 3127SOL     OW20839   3.471   1.440   1.148  0.2398  0.3183 -0.2058
 3127SOL    HW120840   3.509   1.366   1.101 -1.4242  0.1998 -1.3878
 3127SOL    HW220841   3.484   1.508   1.082 -1.3280 -0.7017 -1.5844
 3128SOL     OW20842   1.720   3.941   7.619  0.1336  0.1871  0.2142
 3128SOL    HW120843   1.743   3.967   7.708 -1.5100 -2.8822  1.5469
 3128SOL    HW220844   1.688   4.023   7.582 -1.9055 -0.8328 -0.2938
 3129SOL     OW20845   1.954   1.631   8.177 -0.3429  0.2872 -0.1569
 3129SOL    HW120846   1.863   1.641   8.148 -0.2754 -0.1904 -0.5230
 3129SOL    HW220847   1.960   1.537   8.192 -0.4182  0.5045  1.2056
 3130SOL     OW20848   0.356   0.044  17.643  0.0707 -0.0402 -0.0547
 3130SOL    HW120849   0.294   0.068   0.016  0.0444 -2.0117  0.6162
 3130SOL    HW220850   0.323   4.682  17.612 -2.4849  1.1050 -0.4928
 3131SOL     OW20851   0.857   2.835   3.381  0.3517  0.1479  0.9849
 3131SOL    HW120852   0.804   2.897   3.430  1.0194  0.4158  1.3735
 3131SOL    HW220853   0.930   2.888   3.349  0.8136 -1.7260 -1.0299
 3132SOL     OW20854   4.094   2.543   7.204 -0.0658  0.1412 -0.5071
 3132SOL    HW120855   4.128   2.544   7.114 -0.0361  0.7249 -0.4887
 3132SOL    HW220856   4.109   2.452   7.230 -0.2755  0.1961 -0.1938
 3133SOL     OW20857   3.111   2.277  11.867  0.4726 -0.3292 -0.3830
 3133SOL    HW120858   3.118   2.301  11.959  1.2974 -0.6750 -0.3554
 3133SOL    HW220859   3.119   2.362  11.823  0.1277  0.7024  1.5544
 3134SOL     OW20860   1.742   0.415   9.308 -0.1648  0.2177  0.8088
 3134SOL    HW120861   1.771   0.506   9.296  0.6262 -0.1707 -0.1758
 3134SOL    HW220862   1.721   0.386   9.219 -0.5895 -0.0379  0.9946
 3135SOL     OW20863   4.240   2.882  14.469 -0.4594 -0.0298 -1.0062
 3135SOL    HW120864   4.300   2.956  14.458  0.2014 -0.3411  0.4599
 3135SOL    HW220865   4.298   2.810  14.444  0.4591 -0.4551  2.2277
 3136SOL     OW20866   3.629   4.090   2.595 -0.2530  0.1376  0.4181
 3136SOL    HW120867   3.694   4.160   2.599  0.0350 -0.1167  0.2772
 3136SOL    HW220868   3.541   4.125   2.584  0.2240  0.3888 -2.4700
 3137SOL     OW20869   1.199   4.431   6.600 -0.6383  0.1967 -0.2539
 3137SOL    HW120870   1.244   4.367   6.656 -0.7801  0.2411 -0.0890
 3137SOL    HW220871   1.107   4.407   6.617 -0.1162 -2.2299 -0.7728
 3138SOL     OW20872   0.560   1.592   8.933 -0.6544 -0.2721  0.4702
 3138SOL    HW120873   0.541   1.680   8.900 -0.0784  0.2506  1.5232
 3138SOL    HW220874   0.487   1.538   8.900 -3.7734  1.9043  3.8012
 3139SOL     OW20875   2.606   1.610   6.777  0.4959  0.2446 -0.9288
 3139SOL    HW120876   2.580   1.677   6.840  0.2464 -1.7523  1.0776
 3139SOL    HW220877   2.696   1.604   6.809  0.0589 -2.8101 -0.3236
 3140SOL     OW20878   3.330   2.459  12.061 -1.0178 -0.0997 -0.5947
 3140SOL    HW120879   3.264   2.528  12.066 -1.0097 -0.0455 -1.2727
 3140SOL    HW220880   3.276   2.386  12.089  0.4046 -0.1622  2.0069
 3141SOL     OW20881   2.299   2.563   2.826 -0.0494 -0.0778  0.1550
 3141SOL    HW120882   2.304   2.482   2.877  0.1470 -0.8105 -1.0070
 3141SOL    HW220883   2.335   2.627   2.887  2.1439  0.7652 -1.9999
 3142SOL     OW20884   3.389   2.208  16.334  0.1544 -0.1174 -0.4883
 3142SOL    HW120885   3.420   2.295  16.360  2.6558 -0.2767 -2.9632
 3142SOL    HW220886   3.458   2.149  16.365  0.6587  0.2497 -0.9056
 3143SOL     OW20887   2.422   1.616  11.684  0.0063  0.6091 -0.3638
 3143SOL    HW120888   2.340   1.644  11.643 -0.2773 -0.6834 -0.6639
 3143SOL    HW220889   2.454   1.692  11.732 -0.2683  0.4669  0.0413
 3144SOL     OW20890   0.590   3.386   1.427  0.3307 -0.3507  0.1960
 3144SOL    HW120891   0.685   3.389   1.440  0.8720 -0.2391 -3.5431
 3144SOL    HW220892   0.597   3.353   1.337  2.9464 -0.0764  0.3063
 3145SOL     OW20893   2.692   4.556   3.653  0.1749 -0.0471 -0.5354
 3145SOL    HW120894   2.661   4.491   3.716 -1.0616  0.1922 -0.9013
 3145SOL    HW220895   2.748   4.600   3.717 -0.8991  0.6433 -0.0834
 3146SOL     OW20896   1.232   4.068  10.286 -0.3285  0.4594 -0.2050
 3146SOL    HW120897   1.238   4.062  10.382  0.4472 -1.0857 -0.3637
 3146SOL    HW220898   1.206   3.977  10.271  2.5107 -0.5645  1.1531
 3147SOL     OW20899   2.409   1.959  11.011  0.2367  0.4086  0.2982
 3147SOL    HW120900   2.351   1.921  10.945  1.6578 -0.0680 -0.6589
 3147SOL    HW220901   2.452   2.026  10.958 -1.7873  0.3870 -1.3641
 3148SOL     OW20902   0.230   2.758   3.396 -0.5299  0.4430  0.0017
 3148SOL    HW120903   0.288   2.826   3.361  1.1184 -0.7111  0.4970
 3148SOL    HW220904   0.243   2.688   3.332  1.1907  0.0302  0.7994
 3149SOL     OW20905   2.022   4.673  17.601  0.0554  0.8069 -0.1874
 3149SOL    HW120906   2.090   0.014  17.587 -0.9459  2.2707  1.6213
 3149SOL    HW220907   2.068   4.629  17.673 -1.8685 -0.8378  0.0429
 3150SOL     OW20908   3.924   3.721   8.253  0.4899 -0.0864 -0.0438
 3150SOL    HW120909   3.924   3.703   8.347 -2.0169 -1.6045 -0.3362
 3150SOL    HW220910   3.847   3.777   8.260  0.3970 -0.1289 -0.6945
 3151SOL     OW20911   3.403   3.620   4.352  0.2593 -0.4790 -0.4659
 3151SOL    HW120912   3.435   3.690   4.296 -1.2862  0.8529  0.3026
 3151SOL    HW220913   3.405   3.661   4.438  3.0638  1.0083 -1.2638
 3152SOL     OW20914   4.165   2.651   2.386 -0.4610 -0.0881  0.0324
 3152SOL    HW120915   4.150   2.737   2.424 -0.5550 -1.3473  2.8677
 3152SOL    HW220916   4.247   2.654   2.336 -0.5372 -4.3992 -0.3527
 3153SOL     OW20917   1.265   2.996   5.548 -0.4641  0.0140  0.1109
 3153SOL    HW120918   1.257   3.072   5.490  1.1124  1.4266  1.7249
 3153SOL    HW220919   1.206   2.932   5.510  0.6222 -1.6070  1.1528
 3154SOL     OW20920   0.134   3.345   3.002  0.7519  0.0221 -0.7615
 3154SOL    HW120921   0.140   3.430   2.959  0.5850 -0.7374 -2.3037
 3154SOL    HW220922   0.182   3.374   3.079 -1.4743  2.4948 -0.2931
 3155SOL     OW20923   2.046   4.179   5.784  0.4074  0.1238 -0.1185
 3155SOL    HW120924   2.002   4.259   5.755 -0.6547 -0.3627  0.1313
 3155SOL    HW220925   2.011   4.103   5.736 -0.1339  2.0274 -2.7382
 3156SOL     OW20926   0.946   1.917   4.335  0.4650  0.0247  0.1295
 3156SOL    HW120927   0.910   2.005   4.350  1.6950  0.5576 -0.0526
 3156SOL    HW220928   1.016   1.940   4.274  0.6034 -1.1085 -0.1392
 3157SOL     OW20929   1.094   4.348   6.858  0.3347 -0.2191  0.8845
 3157SOL    HW120930   1.113   4.256   6.871 -1.1040 -0.7762 -0.9971
 3157SOL    HW220931   1.180   4.378   6.887 -0.2904  1.8688  0.6538
 3158SOL     OW20932   0.145   1.988  15.072  0.1189  0.4640 -0.5345
 3158SOL    HW120933   0.080   2.056  15.055 -0.4938 -0.2089 -0.8887
 3158SOL    HW220934   0.098   1.910  15.044 -1.3406  1.5507 -1.0912
 3159SOL     OW20935   4.710   2.287   6.043  0.4974 -0.2336  0.6502
 3159SOL    HW120936   4.685   2.236   6.120  0.6988  0.3721  1.1088
 3159SOL    HW220937   0.064   2.332   6.075 -0.5000  1.6381  0.4067
 3160SOL     OW20938   3.549   2.186   7.917 -0.3165  0.2123 -0.2535
 3160SOL    HW120939   3.491   2.144   7.854  1.0572  2.3666 -2.9561
 3160SOL    HW220940   3.623   2.224   7.869 -0.6248 -0.4375 -1.2414
 3161SOL     OW20941   0.005   3.813   3.583  0.4796  0.0330 -0.4906
 3161SOL    HW120942   4.656   3.752   3.597  0.1456  0.8430  1.3846
 3161SOL    HW220943   4.720   3.871   3.659 -0.6907 -0.1843 -0.4461
 3162SOL     OW20944   0.986   0.109   5.724  0.5478  0.6381 -0.6270
 3162SOL    HW120945   0.920   0.073   5.782  2.6798 -0.5233  1.0678
 3162SOL    HW220946   0.944   0.192   5.702 -0.1256  0.6490  0.7370
 3163SOL     OW20947   3.118   2.471   5.768 -0.2087 -0.0123  0.1291
 3163SOL    HW120948   3.198   2.501   5.810 -0.8434 -0.9120  2.0055
 3163SOL    HW220949   3.124   2.381   5.801 -0.7412 -0.5544 -1.2233
 3164SOL     OW20950   2.224   0.581   1.304  0.2475 -0.2544 -0.1938
 3164SOL    HW120951   2.147   0.633   1.326 -0.7031 -1.0761 -1.5670
 3164SOL    HW220952   2.193   0.491   1.295  0.7511 -0.3804 -0.6826
 3165SOL     OW20953   3.754   1.335   5.147  0.2650 -0.0152 -0.3622
 3165SOL    HW120954   3.761   1.260   5.205  1.0740 -0.3735 -0.9250
 3165SOL    HW220955   3.710   1.292   5.074  1.6551  0.1697 -1.2946
 3166SOL     OW20956   1.400   3.838   6.197  0.4766  0.1302 -0.2745
 3166SOL    HW120957   1.322   3.795   6.163  1.0479 -0.4308 -0.8680
 3166SOL    HW220958   1.372   3.857   6.287  1.2098 -0.4453  0.0860
 3167SOL     OW20959   4.662   1.242   8.374  0.1307  0.8072 -0.3393
 3167SOL    HW120960   4.567   1.238   8.379  0.3587 -3.3440  0.6622
 3167SOL    HW220961   4.674   1.337   8.366  2.4795  0.5153 -0.2641
 3168SOL     OW20962   2.228   4.461   4.770  0.4084 -0.5318  0.6961
 3168SOL    HW120963   2.261   4.537   4.723  0.3299  0.4307  2.2072
 3168SOL    HW220964   2.230   4.385   4.712  1.5272 -0.9380  1.2707
 3169SOL     OW20965   3.942   1.846   5.211 -0.5050  0.1778  0.0007
 3169SOL    HW120966   4.017   1.802   5.170 -0.2305  0.0700  0.6186
 3169SOL    HW220967   3.884   1.770   5.208  0.2832 -0.3214 -2.6131
 3170SOL     OW20968   3.721   2.280   0.334 -0.2379  0.0314  1.0969
 3170SOL    HW120969   3.724   2.189   0.305  1.8175  0.7451 -0.9658
 3170SOL    HW220970   3.690   2.262   0.423 -1.1233 -2.7437  0.1974
 3171SOL     OW20971   3.624   0.029  14.638 -0.3299  0.2419 -0.0060
 3171SOL    HW120972   3.705   0.073  14.613  0.0488 -0.7913 -0.6045
 3171SOL    HW220973   3.646   4.685  14.702 -1.1114 -0.8862 -0.9142
 3172SOL     OW20974   3.875   0.478   7.629 -0.8704 -0.1797 -0.2500
 3172SOL    HW120975   3.789   0.442   7.610 -1.5195  0.7188  0.9569
 3172SOL    HW220976   3.869   0.471   7.725 -0.2139 -1.0823 -0.2736
 3173SOL     OW20977   4.361   1.357  12.021 -0.1431 -0.3354 -0.2393
 3173SOL    HW120978   4.319   1.365  12.107 -0.3823 -1.5365 -0.2442
 3173SOL    HW220979   4.402   1.444  12.021  0.2950 -0.5413 -0.0619
 3174SOL     OW20980   3.563   1.385  15.424 -0.1049 -0.7259 -0.4864
 3174SOL    HW120981   3.561   1.481  15.434  3.1913 -0.6262 -0.7550
 3174SOL    HW220982   3.657   1.385  15.441 -0.5632  1.6818  2.1143
 3175SOL     OW20983   4.640   3.739  12.375 -0.0083 -0.2533  0.0989
 3175SOL    HW120984   4.602   3.651  12.379 -0.0651 -0.2235  0.2239
 3175SOL    HW220985   4.587   3.781  12.443 -0.5771  0.1242 -0.5712
 3176SOL     OW20986   2.272   0.644   9.169  0.4036 -0.0775  0.6210
 3176SOL    HW120987   2.189   0.601   9.189 -0.3831  2.0939  2.0285
 3176SOL    HW220988   2.244   0.666   9.080 -0.7446 -1.9808  0.5045
 3177SOL     OW20989   2.640   0.042   2.826  0.2069 -0.2795  0.1628
 3177SOL    HW120990   2.586   4.694   2.791  0.1004  0.4670 -1.2099
 3177SOL    HW220991   2.727   0.004   2.838  0.4419 -0.3662 -1.7537
 3178SOL     OW20992   3.574   1.799   3.332  0.0477 -0.0812  0.1634
 3178SOL    HW120993   3.630   1.875   3.347  1.0827 -0.2545 -2.8740
 3178SOL    HW220994   3.597   1.780   3.241 -1.2268 -0.1553 -0.1487
 3179SOL     OW20995   3.969   4.671   9.945  0.0843  0.2114 -0.5402
 3179SOL    HW120996   3.979   4.626  10.029 -1.1712 -3.3491 -2.2871
 3179SOL    HW220997   4.062   4.685   9.931  0.2925  0.3523  1.0244
 3180SOL     OW20998   2.281   3.933   8.010  0.3451  0.3398 -0.0269
 3180SOL    HW120999   2.347   3.989   7.969  0.9497  0.2856  0.8611
 3180SOL    HW221000   2.249   3.997   8.074 -1.4357  0.7218 -1.3137
 3181SOL     OW21001   3.223   1.012  17.549  0.7322  0.6324 -0.0180
 3181SOL    HW121002   3.242   1.101  17.582  0.5007  1.2313 -1.5265
 3181SOL    HW221003   3.148   1.023  17.491  0.2342 -0.7051  0.3727
 3182SOL     OW21004   0.467   4.274   6.387  0.1044  0.0273  0.0298
 3182SOL    HW121005   0.483   4.366   6.369 -1.6682  0.6301  1.5568
 3182SOL    HW221006   0.456   4.276   6.482  0.0666 -0.4182  0.0364
 3183SOL     OW21007   1.808   2.797  10.069 -0.2230  0.1437 -0.1060
 3183SOL    HW121008   1.790   2.826  10.158  3.0871 -0.8439  0.8988
 3183SOL    HW221009   1.903   2.781  10.072 -0.3322  0.1012  2.6889
 3184SOL     OW21010   4.166   4.678   0.463  0.0363  0.0909  0.3828
 3184SOL    HW121011   4.216   4.713   0.389  4.3573 -1.5698  2.5281
 3184SOL    HW221012   4.165   4.586   0.440  0.7632 -0.1810  1.4620
 3185SOL     OW21013   3.063   4.057  12.570  0.1348  0.4240  0.4580
 3185SOL    HW121014   2.997   4.125  12.580  0.3869  0.4702  1.7949
 3185SOL    HW221015   3.008   3.979  12.578  0.6785 -0.0239 -0.1485
 3186SOL     OW21016   2.618   1.015  10.847  0.8288 -0.0457 -0.3321
 3186SOL    HW121017   2.607   0.920  10.854 -0.4471  0.2515  1.6462
 3186SOL    HW221018   2.679   1.024  10.920  0.3575 -1.9070  0.2967
 3187SOL     OW21019   2.382   1.138  14.355 -0.0607  0.4163  0.4610
 3187SOL    HW121020   2.352   1.117  14.444 -0.3308  1.5211  0.6231
 3187SOL    HW221021   2.399   1.049  14.323  0.5953 -0.5572  3.5127
 3188SOL     OW21022   4.150   0.279  12.433  0.5861 -0.0697 -0.0574
 3188SOL    HW121023   4.071   0.329  12.452  0.3507  0.0928 -1.4663
 3188SOL    HW221024   4.135   0.244  12.346  1.0961 -0.5704  0.0561
 3189SOL     OW21025   4.403   3.299  14.134  0.8160  0.1659 -0.4509
 3189SOL    HW121026   4.419   3.208  14.158 -0.7396  0.0631  0.1529
 3189SOL    HW221027   4.319   3.283  14.092  0.0579 -0.8067  1.4630
 3190SOL     OW21028   1.823   3.768  10.501 -0.0483  0.0958  0.4542
 3190SOL    HW121029   1.781   3.854  10.503  1.3570  0.7713  0.9621
 3190SOL    HW221030   1.745   3.712  10.508 -0.3530  0.3614 -0.6876
 3191SOL     OW21031   3.250   3.107   7.325  0.6886 -0.3358  0.9040
 3191SOL    HW121032   3.308   3.121   7.400 -0.5776 -1.5507  2.1111
 3191SOL    HW221033   3.304   3.039   7.286  1.6338  1.4729 -0.9303
 3192SOL     OW21034   4.681   0.162   6.745 -0.2028 -0.0848  0.0083
 3192SOL    HW121035   4.657   0.164   6.838  3.0539  2.1798  0.8210
 3192SOL    HW221036   4.660   0.252   6.721 -0.9649 -0.0981  0.6056
 3193SOL     OW21037   4.545   0.871   7.215  0.2135  0.0279 -0.3345
 3193SOL    HW121038   4.533   0.796   7.273 -3.4891 -0.7193 -2.0429
 3193SOL    HW221039   4.496   0.942   7.256  0.1153 -0.6228  0.6746
 3194SOL     OW21040   3.780   2.954  10.759 -0.1970 -0.6391 -0.0207
 3194SOL    HW121041   3.771   2.875  10.813 -2.5005  0.1819  0.7657
 3194SOL    HW221042   3.695   2.996  10.764  0.9844  1.4436  2.4098
 3195SOL     OW21043   1.026   0.301   5.043 -0.3829  0.0240 -0.3435
 3195SOL    HW121044   1.093   0.347   4.992  0.3935 -0.4679  0.2398
 3195SOL    HW221045   0.989   0.257   4.967  1.7796 -1.3974 -0.5719
 3196SOL     OW21046   1.063   0.304  13.869  0.2233  0.2903  0.3290
 3196SOL    HW121047   1.038   0.394  13.893 -0.0497  0.1761  0.4686
 3196SOL    HW221048   1.157   0.316  13.872  0.1936  0.0065  2.2623
 3197SOL     OW21049   4.674   2.323  13.384 -0.2604 -0.3657  0.0310
 3197SOL    HW121050   4.649   2.402  13.336  0.3515  0.6666  1.4143
 3197SOL    HW221051   0.040   2.306  13.354  0.0542  0.8664  0.2496
 3198SOL     OW21052   3.234   4.127   7.321 -0.2348 -0.3611 -0.2277
 3198SOL    HW121053   3.151   4.174   7.327  0.5460  0.9797  0.0639
 3198SOL    HW221054   3.262   4.112   7.412  0.0721 -2.9460 -0.7433
 3199SOL     OW21055   4.596   2.935   6.743  0.1341 -0.1567 -0.7735
 3199SOL    HW121056   4.521   2.884   6.712 -1.3965  1.5273  0.0796
 3199SOL    HW221057   4.617   2.888   6.824 -2.0242 -1.6716 -1.1063
 3200SOL     OW21058   2.203   4.104   9.650 -0.5457  0.9794  0.0654
 3200SOL    HW121059   2.160   4.129   9.568  0.2356  0.6537 -0.4501
 3200SOL    HW221060   2.190   4.186   9.697  2.3647  0.6838  1.4111
 3201SOL     OW21061   3.518   1.902   5.835 -0.4821 -0.5672 -0.2845
 3201SOL    HW121062   3.520   1.906   5.931  1.2722  0.7373 -0.3987
 3201SOL    HW221063   3.533   1.808   5.822  1.2103 -0.0705 -1.8260
 3202SOL     OW21064   3.610   3.819   3.276  0.0076  0.4608 -0.7316
 3202SOL    HW121065   3.594   3.724   3.274 -2.4033  0.8848 -1.2023
 3202SOL    HW221066   3.520   3.849   3.291 -1.1877 -2.7808 -1.2892
 3203SOL     OW21067   4.269   1.440   6.816 -0.6172  0.5003  0.5604
 3203SOL    HW121068   4.298   1.372   6.755 -0.1318  1.1235  0.0839
 3203SOL    HW221069   4.210   1.493   6.761  0.3255 -0.4813 -1.4083
 3204SOL     OW21070   1.630   0.290   0.788 -0.2717 -0.4673 -0.1948
 3204SOL    HW121071   1.645   0.289   0.693 -3.0732  2.6266 -0.7108
 3204SOL    HW221072   1.590   0.376   0.803  2.3831  0.7081 -0.0148
 3205SOL     OW21073   2.153   4.200   7.338  0.6948 -0.6616 -0.0382
 3205SOL    HW121074   2.171   4.262   7.408  2.2238 -0.9404 -0.1764
 3205SOL    HW221075   2.072   4.169   7.378  0.6666 -1.7000 -0.8993
 3206SOL     OW21076   1.831   3.930  15.092 -0.0725  0.6656 -0.2563
 3206SOL    HW121077   1.905   3.983  15.061 -0.8027  0.8494 -1.7198
 3206SOL    HW221078   1.760   3.949  15.030 -0.7507 -1.5213 -0.1495
 3207SOL     OW21079   4.388   0.007   4.888  0.2582  0.3523  0.2184
 3207SOL    HW121080   4.398   0.036   4.978 -0.6802 -3.0391  1.4070
 3207SOL    HW221081   4.433   0.078   4.842 -2.3497  2.5610  1.1023
 3208SOL     OW21082   3.203   4.348  10.460  0.2486  0.0332  0.0489
 3208SOL    HW121083   3.154   4.275  10.498 -2.7047  1.5265 -0.8065
 3208SOL    HW221084   3.143   4.423  10.461  2.1542  1.5257  0.9827
 3209SOL     OW21085   3.853   1.497   2.012  0.1706  0.8131  0.5457
 3209SOL    HW121086   3.946   1.519   2.026  0.2086 -0.3741  2.0761
 3209SOL    HW221087   3.807   1.573   2.049  1.6104  2.0182 -0.1224
 3210SOL     OW21088   3.570   4.015   8.161  0.3987 -0.0963  0.4193
 3210SOL    HW121089   3.602   4.105   8.169 -1.6438  0.5217  1.7303
 3210SOL    HW221090   3.634   3.992   8.094  0.9987 -1.1791  1.3715
 3211SOL     OW21091   1.674   3.112  16.458 -0.4306  0.5826  0.0006
 3211SOL    HW121092   1.593   3.087  16.414  0.2527 -0.3396 -0.7265
 3211SOL    HW221093   1.723   3.030  16.451 -3.3960 -1.2833  1.3910
 3212SOL     OW21094   0.701   4.579  11.831  0.0618 -0.3408 -0.0319
 3212SOL    HW121095   0.667   4.494  11.858 -0.8400  0.1667  0.4125
 3212SOL    HW221096   0.623   4.621  11.794  0.8303  0.1000 -1.1657
 3213SOL     OW21097   3.173   3.369   6.297 -0.3924 -0.4668 -0.3774
 3213SOL    HW121098   3.196   3.355   6.389 -2.3905  2.1399  0.5085
 3213SOL    HW221099   3.151   3.462   6.299 -2.5994 -0.9768 -0.9977
 3214SOL     OW21100   4.675   3.242   5.493 -0.3998 -0.4101 -0.3044
 3214SOL    HW121101   0.006   3.170   5.522  0.0321 -0.1079 -0.3666
 3214SOL    HW221102   4.597   3.215   5.443  0.3531 -3.6004  0.2773
 3215SOL     OW21103   3.116   1.671  11.912 -0.8204  0.3717 -0.2197
 3215SOL    HW121104   3.042   1.694  11.969 -0.9625 -0.1888 -0.1758
 3215SOL    HW221105   3.092   1.734  11.844 -2.2935  0.0239 -0.0133
 3216SOL     OW21106   3.559   3.106   3.472 -0.0732 -0.2466  0.8901
 3216SOL    HW121107   3.526   3.114   3.383  0.7921  1.4465  0.7196
 3216SOL    HW221108   3.631   3.046   3.452 -1.6774 -1.7023 -0.5580
 3217SOL     OW21109   3.749   0.961   0.318  0.7129  0.2548 -0.2442
 3217SOL    HW121110   3.776   1.049   0.343 -0.3398  0.8289 -1.1313
 3217SOL    HW221111   3.774   0.961   0.225  1.8050  0.8598  0.0538
 3218SOL     OW21112   2.100   2.925   2.625 -0.0520 -0.3443 -0.0583
 3218SOL    HW121113   2.153   2.907   2.547  3.1717  0.5264  1.9687
 3218SOL    HW221114   2.121   3.018   2.633 -3.1410  0.4793 -1.4280
 3219SOL     OW21115   2.815   0.890   6.338 -0.0306  0.0221  0.6340
 3219SOL    HW121116   2.796   0.828   6.409  0.4484  0.6080  1.2782
 3219SOL    HW221117   2.769   0.845   6.267  0.6229  0.3627 -0.0067
 3220SOL     OW21118   3.381   0.487   3.834 -0.6404 -0.4016  0.4583
 3220SOL    HW121119   3.355   0.539   3.758  0.8276  1.3609  1.1718
 3220SOL    HW221120   3.463   0.446   3.807 -1.5842 -3.0376  1.6044
 3221SOL     OW21121   2.238   3.878  14.874  0.1494 -0.7603  0.0877
 3221SOL    HW121122   2.206   3.961  14.909 -1.2803 -0.7133 -1.3144
 3221SOL    HW221123   2.177   3.862  14.802 -0.5086  0.8688  0.2734
 3222SOL     OW21124   3.966   4.438   7.825 -0.7410  0.0726 -0.0113
 3222SOL    HW121125   3.989   4.481   7.743  0.4862  0.3914  0.5018
 3222SOL    HW221126   4.044   4.438   7.881 -1.0833  1.6238  0.4657
 3223SOL     OW21127   3.551   3.599   6.240 -0.3741 -0.2536  0.1722
 3223SOL    HW121128   3.639   3.567   6.219 -0.1453 -0.8594  2.1403
 3223SOL    HW221129   3.541   3.675   6.182  0.1216 -0.4681 -0.1975
 3224SOL     OW21130   1.604   0.161   7.594 -0.0405 -0.1503  0.1351
 3224SOL    HW121131   1.615   0.255   7.610  0.5341 -0.2564  0.3752
 3224SOL    HW221132   1.681   0.139   7.541  0.3270 -0.1438  0.6641
 3225SOL     OW21133   1.244   4.322  17.387 -0.0810  0.1417  0.9575
 3225SOL    HW121134   1.286   4.237  17.401  0.3461  0.8548  4.1014
 3225SOL    HW221135   1.297   4.356  17.315 -1.4991 -1.7980 -0.9978
 3226SOL     OW21136   1.504   0.157   5.575 -0.2660 -0.2335 -0.2687
 3226SOL    HW121137   1.570   0.199   5.520  0.5068 -1.0175  0.0721
 3226SOL    HW221138   1.429   0.203   5.536  0.0804 -0.4831 -1.2192
 3227SOL     OW21139   2.779   0.299   8.804  0.6588  0.8717 -0.8096
 3227SOL    HW121140   2.856   0.247   8.823  0.0813  0.1425 -0.4482
 3227SOL    HW221141   2.747   0.324   8.891 -2.0367 -0.3294 -1.4559
 3228SOL     OW21142   4.287   1.397   1.784 -0.0857  0.4541  0.0378
 3228SOL    HW121143   4.306   1.312   1.743 -1.6949  0.4219 -0.6646
 3228SOL    HW221144   4.308   1.383   1.876 -1.6489 -0.5663  0.2452
 3229SOL     OW21145   1.778   1.675  15.717 -0.1057 -0.0246 -0.0687
 3229SOL    HW121146   1.697   1.642  15.756  0.2421 -0.7080  0.0618
 3229SOL    HW221147   1.839   1.618  15.764 -1.3112 -0.4666  0.9499
 3230SOL     OW21148   0.619   4.357  14.029 -0.1712 -0.1860  0.5919
 3230SOL    HW121149   0.560   4.285  14.007  1.2985 -0.9190 -0.9227
 3230SOL    HW221150   0.585   4.424  13.970  0.0045  0.0061  0.7094
 3231SOL     OW21151   2.615   2.363   8.058  0.4112  0.0931 -0.4077
 3231SOL    HW121152   2.683   2.431   8.051 -0.2602  0.8201  0.1166
 3231SOL    HW221153   2.660   2.293   8.105  2.7324  2.1665  0.4794
 3232SOL     OW21154   1.261   3.206  11.647 -0.0352 -0.4773  0.1419
 3232SOL    HW121155   1.259   3.216  11.552 -0.8640  1.3611  0.3529
 3232SOL    HW221156   1.245   3.112  11.656 -1.6392 -0.4107 -1.8797
 3233SOL     OW21157   0.615   1.257   2.730  0.2131  0.7120 -0.2936
 3233SOL    HW121158   0.695   1.261   2.678 -1.0196 -0.9617 -2.3028
 3233SOL    HW221159   0.545   1.227   2.672 -0.2508  1.6964 -0.2404
 3234SOL     OW21160   3.567   4.456  14.921 -0.2397 -0.5014  0.4669
 3234SOL    HW121161   3.594   4.543  14.949  0.8200 -0.4105 -0.8440
 3234SOL    HW221162   3.604   4.405  14.993 -0.2660 -0.3527  0.5842
 3235SOL     OW21163   3.890   3.021   7.492  0.3205  0.1529 -0.4129
 3235SOL    HW121164   3.940   2.958   7.440  0.2089  0.8394 -1.3645
 3235SOL    HW221165   3.957   3.079   7.528  0.9775  0.4839 -2.1629
 3236SOL     OW21166   1.037   2.096   2.903  0.2406  0.2049 -0.4733
 3236SOL    HW121167   1.056   2.146   2.824  1.4062 -1.3824 -1.2038
 3236SOL    HW221168   1.125   2.091   2.942  0.4075  2.7480 -0.5725
 3237SOL     OW21169   0.981   2.781  16.102 -0.2021  0.2566 -0.6637
 3237SOL    HW121170   1.036   2.738  16.036  0.7655  1.3313 -0.5664
 3237SOL    HW221171   0.919   2.715  16.131 -0.7474  0.6063 -1.0322
 3238SOL     OW21172   1.968   2.684   4.625 -0.4042  0.3768 -0.0538
 3238SOL    HW121173   1.894   2.690   4.687  0.4615 -0.3073  1.0519
 3238SOL    HW221174   1.951   2.761   4.570 -1.5150 -1.3201 -2.0543
 3239SOL     OW21175   4.090   4.248   9.079 -0.7667 -0.1630  0.1266
 3239SOL    HW121176   4.166   4.205   9.041 -1.6138  0.1560 -1.8987
 3239SOL    HW221177   4.127   4.330   9.111 -1.1470 -0.2311  0.7535
 3240SOL     OW21178   1.257   0.847   2.772  0.2244 -0.6519  0.2786
 3240SOL    HW121179   1.235   0.764   2.731  2.5470 -1.6418  1.0681
 3240SOL    HW221180   1.204   0.850   2.851 -0.4792  2.5244 -0.2910
 3241SOL     OW21181   2.311   3.332   6.924 -0.1679 -0.8122 -0.0645
 3241SOL    HW121182   2.398   3.367   6.904 -0.5992  1.2654  1.7024
 3241SOL    HW221183   2.271   3.345   6.838 -0.8272 -0.6889  0.2634
 3242SOL     OW21184   2.343   4.667  16.579  0.7514  0.5134 -0.0634
 3242SOL    HW121185   2.355   4.698  16.490 -0.8825 -0.1628 -0.5149
 3242SOL    HW221186   2.414   4.708  16.628  0.5635  1.6736 -0.7694
 3243SOL     OW21187   2.515   4.397  10.316  0.0582 -0.3624 -1.2037
 3243SOL    HW121188   2.479   4.462  10.255 -0.6856  0.0659 -0.2966
 3243SOL    HW221189   2.544   4.453  10.388 -2.3284 -0.8013  0.0708
 3244SOL     OW21190   1.806   1.921   5.396 -0.0557  0.5036 -0.1221
 3244SOL    HW121191   1.798   1.840   5.446 -1.2151  0.4854 -0.3244
 3244SOL    HW221192   1.714   1.929   5.369 -0.1075 -1.2586 -0.4782
 3245SOL     OW21193   1.014   3.110   7.691  0.2570  0.4219 -0.3574
 3245SOL    HW121194   1.086   3.054   7.664 -0.6772 -0.8791 -0.1577
 3245SOL    HW221195   0.980   3.063   7.767  2.4337 -0.1399  0.2588
 3246SOL     OW21196   1.929   0.962   7.936  0.0705 -0.2875  0.2891
 3246SOL    HW121197   1.930   1.034   7.998 -1.3765 -0.2974  0.3239
 3246SOL    HW221198   1.989   0.898   7.974 -0.0593  0.6857  2.1233
 3247SOL     OW21199   0.103   0.192   8.213 -0.3180 -0.0324  0.3373
 3247SOL    HW121200   0.120   0.173   8.305  0.2257  1.0346  0.4507
 3247SOL    HW221201   0.176   0.250   8.196 -0.3282 -0.6617 -1.9496
 3248SOL     OW21202   4.716   1.744   4.830  0.1753  0.1477 -0.2928
 3248SOL    HW121203   0.008   1.650   4.823  0.5623  0.0625  1.7359
 3248SOL    HW221204   0.026   1.755   4.919  0.9547 -0.7691 -0.4681
 3249SOL     OW21205   0.047   4.235   7.968  0.6366 -0.2934  0.6205
 3249SOL    HW121206   0.016   4.297   8.034 -0.9703  0.4155 -0.8364
 3249SOL    HW221207   0.065   4.156   8.020  0.8016 -0.4948  0.2542
 3250SOL     OW21208   3.496   0.100   8.217  0.0140  0.5382  0.3179
 3250SOL    HW121209   3.506   0.184   8.172 -2.5232  1.5410  1.6758
 3250SOL    HW221210   3.421   0.068   8.167  0.9188  1.5070 -1.6908
 3251SOL     OW21211   1.453   1.989   4.504  0.1357  0.2710 -0.3550
 3251SOL    HW121212   1.483   1.979   4.594  0.8381  1.6611 -0.4322
 3251SOL    HW221213   1.439   1.897   4.483  0.2707  0.1386  0.1388
 3252SOL     OW21214   2.441   2.715   1.203 -0.0468  0.8444 -0.2027
 3252SOL    HW121215   2.470   2.624   1.209 -0.7913  0.3792 -3.6539
 3252SOL    HW221216   2.518   2.747   1.156  0.7546  1.6151  1.6289
 3253SOL     OW21217   4.659   2.195   6.557  0.1826 -0.0997 -0.0419
 3253SOL    HW121218   4.666   2.187   6.652 -0.3022  2.0279  0.1728
 3253SOL    HW221219   4.645   2.289   6.550  1.2284  0.0163 -0.5785
 3254SOL     OW21220   4.564   4.342   9.130  0.5288  0.1852 -0.5319
 3254SOL    HW121221   4.592   4.374   9.215  1.8238 -1.6653 -0.2637
 3254SOL    HW221222   4.572   4.248   9.147 -1.7451  0.3592  1.5029
 3255SOL     OW21223   4.242   2.860  17.481 -0.3858 -0.2242 -0.0921
 3255SOL    HW121224   4.257   2.820  17.396  1.2252  2.2491 -0.9797
 3255SOL    HW221225   4.191   2.791  17.522  1.1068 -0.4985  1.2962
 3256SOL     OW21226   2.572   0.218   3.134  0.3726  0.0060  0.4720
 3256SOL    HW121227   2.585   0.140   3.081  0.6180 -0.4630  1.2272
 3256SOL    HW221228   2.484   0.216   3.172 -0.0910  1.4532 -0.4964
 3257SOL     OW21229   3.962   0.241   7.024 -0.4749  0.1120  0.0764
 3257SOL    HW121230   3.980   0.192   7.105  0.2095  0.6730  0.2680
 3257SOL    HW221231   4.043   0.264   6.979 -0.3181 -0.5451  0.0280
 3258SOL     OW21232   1.747   4.103   4.392 -0.2745  1.0101 -0.0843
 3258SOL    HW121233   1.818   4.038   4.403  0.5485  2.0813  0.9661
 3258SOL    HW221234   1.699   4.070   4.317  0.5588 -0.1593 -0.1084
 3259SOL     OW21235   2.354   0.042   6.013  0.0960  0.4459 -0.0676
 3259SOL    HW121236   2.282   0.099   6.040  0.7847  0.3928  1.9051
 3259SOL    HW221237   2.401   0.039   6.097  1.3413 -0.0559 -0.7861
 3260SOL     OW21238   0.647   0.687  11.823  0.0870 -0.9529  0.3190
 3260SOL    HW121239   0.637   0.780  11.806 -2.1794 -1.1999  0.2243
 3260SOL    HW221240   0.607   0.650  11.744 -2.3289  0.4488  0.8650
 3261SOL     OW21241   3.176   0.233   7.351 -0.2532  0.3033 -0.0362
 3261SOL    HW121242   3.238   0.166   7.320  1.5922  1.2818  1.5476
 3261SOL    HW221243   3.159   0.195   7.437 -2.1221  0.1536 -0.4825
 3262SOL     OW21244   3.429   2.248  13.479  0.4505  0.0135  0.9933
 3262SOL    HW121245   3.501   2.192  13.507  1.3883  0.7289  0.0194
 3262SOL    HW221246   3.354   2.203  13.518 -0.2110 -0.2272 -0.5596
 3263SOL     OW21247   2.736   4.161   6.708 -0.2734  0.1641  0.0477
 3263SOL    HW121248   2.748   4.141   6.800  0.9786 -1.5451 -0.4855
 3263SOL    HW221249   2.641   4.158   6.695 -0.2098  0.3128 -0.4626
 3264SOL     OW21250   2.375   2.532   8.248  0.6532  0.4796 -0.1279
 3264SOL    HW121251   2.310   2.463   8.261  0.8273  0.6216  1.5428
 3264SOL    HW221252   2.459   2.489   8.262  0.3651  0.3483  1.2554
 3265SOL     OW21253   3.706   0.065   5.786  0.2470  0.0105 -0.5030
 3265SOL    HW121254   3.622   0.053   5.741 -1.1324  3.2232  1.1751
 3265SOL    HW221255   3.763   0.056   5.710 -1.8968 -1.4913 -1.9354
 3266SOL     OW21256   1.806   4.156   7.826 -0.3914  0.0482 -0.4154
 3266SOL    HW121257   1.794   4.146   7.921  0.9412  2.4769  0.0066
 3266SOL    HW221258   1.729   4.211   7.812  0.4583  1.4821  0.5227
 3267SOL     OW21259   2.297   2.296   5.819 -0.0354 -0.2031  0.6402
 3267SOL    HW121260   2.218   2.284   5.872  0.1183 -1.8598  0.4887
 3267SOL    HW221261   2.328   2.380   5.854  1.5585  0.0964 -1.4989
 3268SOL     OW21262   2.715   2.480  10.884 -0.4753  1.0664  0.1196
 3268SOL    HW121263   2.708   2.408  10.947 -0.2165 -1.9903 -3.3707
 3268SOL    HW221264   2.768   2.541  10.936  2.8441 -1.2868 -0.5798
 3269SOL     OW21265   4.109   2.273   2.811  0.1047 -0.5112 -0.1080
 3269SOL    HW121266   4.201   2.267   2.836  0.1481  1.7165  0.2350
 3269SOL    HW221267   4.059   2.282   2.892 -0.4428 -2.0733 -0.2598
 3270SOL     OW21268   1.060   3.941   8.141 -0.4129  1.1781  0.5927
 3270SOL    HW121269   1.025   3.972   8.058  1.9862  1.4281 -0.3467
 3270SOL    HW221270   0.982   3.899   8.177 -1.5947 -0.1768 -3.5618
 3271SOL     OW21271   1.072   3.014   6.038 -0.1276  0.4186 -0.5120
 3271SOL    HW121272   1.125   2.937   6.059  0.0730  0.5775 -0.4415
 3271SOL    HW221273   1.137   3.048   5.977 -0.4347  2.3009  0.2081
 3272SOL     OW21274   1.871   4.300   2.792  0.3775 -0.2534  0.2537
 3272SOL    HW121275   1.862   4.313   2.698 -1.4400  1.4891  0.6758
 3272SOL    HW221276   1.957   4.261   2.811  0.0516 -2.1515 -2.2610
 3273SOL     OW21277   3.177   2.614  14.024 -0.0204 -0.7466 -0.1549
 3273SOL    HW121278   3.169   2.699  14.069 -1.4928 -0.8887 -0.1515
 3273SOL    HW221279   3.250   2.626  13.964 -1.3775 -2.6276 -2.1663
 3274SOL     OW21280   4.028   4.551   4.968  0.5569 -0.0666 -0.2776
 3274SOL    HW121281   3.985   4.622   4.921  0.1960 -1.2234 -1.6973
 3274SOL    HW221282   3.991   4.471   4.930 -1.0004  1.3326 -1.7099
 3275SOL     OW21283   0.673   2.475   7.612  0.0201  0.0598 -0.0231
 3275SOL    HW121284   0.632   2.525   7.540  1.1980  0.2830 -0.5359
 3275SOL    HW221285   0.715   2.554   7.647  1.2487 -0.2371 -0.8222
 3276SOL     OW21286   3.770   2.469  12.376 -0.4804  0.2579 -0.6903
 3276SOL    HW121287   3.705   2.467  12.306 -1.2867 -2.8196  0.1261
 3276SOL    HW221288   3.769   2.376  12.399  1.9157 -0.0012 -1.6295
 3277SOL     OW21289   2.834   3.161   0.611  0.4324  0.3514  0.1790
 3277SOL    HW121290   2.764   3.110   0.569  1.1140 -0.0869 -0.4280
 3277SOL    HW221291   2.832   3.231   0.546  4.4660 -0.1523 -0.4630
 3278SOL     OW21292   3.043   3.781   5.077 -0.5317 -0.0349 -0.0678
 3278SOL    HW121293   3.091   3.726   5.139  1.3608  0.4428 -1.1096
 3278SOL    HW221294   3.105   3.851   5.059  0.1503 -0.2304  1.5662
 3279SOL     OW21295   4.619   3.706   6.439 -0.4888 -0.2416  0.8866
 3279SOL    HW121296   4.684   3.730   6.373  0.2637  0.1461  1.7579
 3279SOL    HW221297   4.581   3.793   6.445  1.5293  0.6996 -0.1150
 3280SOL     OW21298   0.937   3.128   7.403 -0.2740  0.0679 -0.0622
 3280SOL    HW121299   0.953   3.159   7.492 -2.3571  1.7460 -0.2752
 3280SOL    HW221300   0.863   3.070   7.419 -0.3158  0.2542  0.4227
 3281SOL     OW21301   2.438   2.472   5.979  0.1970  0.3019  0.5391
 3281SOL    HW121302   2.391   2.546   6.018 -0.8561  0.8105 -1.7227
 3281SOL    HW221303   2.503   2.517   5.924  0.1093  0.7344  0.7893
 3282SOL     OW21304   4.504   3.186   2.934  0.3212 -0.8855 -0.2464
 3282SOL    HW121305   4.497   3.256   2.999 -1.2678 -0.0690 -1.3012
 3282SOL    HW221306   4.472   3.108   2.978  1.0324 -0.0867  1.6790
 3283SOL     OW21307   1.097   2.912   3.259 -0.4733  0.1622  0.6805
 3283SOL    HW121308   1.175   2.939   3.210  0.4582 -0.1425  2.0160
 3283SOL    HW221309   1.122   2.943   3.346 -0.4331  2.5101 -0.1429
 3284SOL     OW21310   3.919   0.635   6.190  0.0795 -0.3456  0.0483
 3284SOL    HW121311   3.914   0.546   6.224 -0.6278 -0.3765 -0.1408
 3284SOL    HW221312   3.920   0.621   6.096  0.3271  3.4513 -0.5236
 3285SOL     OW21313   3.430   2.283   8.649 -0.1965 -0.0342 -0.1012
 3285SOL    HW121314   3.336   2.297   8.641 -0.4074 -1.2177  0.2911
 3285SOL    HW221315   3.434   2.198   8.692  1.7733  1.1545  2.0743
 3286SOL     OW21316   2.701   3.247   3.628  0.1414 -0.1418  0.0315
 3286SOL    HW121317   2.704   3.340   3.650  1.8070  0.1010 -1.2043
 3286SOL    HW221318   2.629   3.227   3.687 -0.2390  0.6777 -0.1599
 3287SOL     OW21319   4.451   2.947   2.289 -0.8059 -0.1615 -0.1625
 3287SOL    HW121320   4.480   3.036   2.270 -1.0273 -0.5099 -2.1763
 3287SOL    HW221321   4.493   2.899   2.218  0.7846  0.8685  0.0743
 3288SOL     OW21322   0.833   1.954   7.879  0.0342  0.4804  0.0802
 3288SOL    HW121323   0.846   2.046   7.853 -1.1161  0.2646 -1.3076
 3288SOL    HW221324   0.917   1.910   7.871 -2.0006 -3.1792 -1.4271
 3289SOL     OW21325   3.416   0.430   6.087 -0.6579  0.5893  0.1911
 3289SOL    HW121326   3.466   0.508   6.110  1.5826 -0.9683  0.5835
 3289SOL    HW221327   3.378   0.406   6.172 -2.9971 -1.1435 -1.3487
 3290SOL     OW21328   2.727   1.117   1.175 -0.7272  0.5765 -0.1766
 3290SOL    HW121329   2.687   1.038   1.211 -0.4084 -0.2150 -1.5426
 3290SOL    HW221330   2.810   1.116   1.221 -0.9522  0.4900  0.2273
 3291SOL     OW21331   4.657   2.217   4.353  0.2922 -0.7393 -0.8812
 3291SOL    HW121332   4.583   2.240   4.409 -0.5014  0.0545 -2.2586
 3291SOL    HW221333   4.614   2.187   4.272 -0.3406  1.0110 -1.1965
 3292SOL     OW21334   3.613   2.949   8.074 -0.1217  0.1529 -0.4199
 3292SOL    HW121335   3.634   3.026   8.127 -0.6055  1.1992 -1.7590
 3292SOL    HW221336   3.520   2.967   8.060  0.0809  1.6093  0.0853
 3293SOL     OW21337   4.093   3.241   2.285  0.4199  0.0199  0.6084
 3293SOL    HW121338   4.164   3.261   2.224 -1.4525 -3.1091 -2.6305
 3293SOL    HW221339   4.067   3.327   2.317  0.5449 -0.2437  1.4209
 3294SOL     OW21340   2.772   4.078   9.046  0.5787  0.2561  0.0370
 3294SOL    HW121341   2.850   4.062   8.993  1.2860 -1.1062  1.4806
 3294SOL    HW221342   2.731   4.144   8.990 -2.1841  0.4321  2.2476
 3295SOL     OW21343   2.107   0.793   2.864  0.0218  0.2343  0.1914
 3295SOL    HW121344   2.194   0.762   2.836 -0.1109  0.8948 -0.9535
 3295SOL    HW221345   2.072   0.711   2.898 -0.6530  0.8894  1.0868
 3296SOL     OW21346   2.220   0.177  14.953  0.1351 -0.3381 -0.3204
 3296SOL    HW121347   2.256   0.089  14.943  1.3899  0.3397 -1.8050
 3296SOL    HW221348   2.174   0.207  14.875  0.1895  1.7199  0.4106
 3297SOL     OW21349   1.574   2.232   0.965 -0.5611 -0.1031  0.2054
 3297SOL    HW121350   1.664   2.242   0.996 -0.7477  3.8780 -0.5046
 3297SOL    HW221351   1.551   2.159   1.021  2.8220 -1.8342 -0.6331
 3298SOL     OW21352   3.313   2.931   8.609  0.0994  0.0036  0.4874
 3298SOL    HW121353   3.345   2.863   8.550 -0.0173 -1.0963  1.6803
 3298SOL    HW221354   3.250   2.982   8.559 -1.1626 -1.5757  0.4616
 3299SOL     OW21355   0.115   0.359   5.445  0.1590 -0.5129  0.0727
 3299SOL    HW121356   0.156   0.445   5.448 -0.4071 -0.2393  0.1123
 3299SOL    HW221357   0.070   0.360   5.360  2.8574  0.2392 -1.3416
 3300SOL     OW21358   1.594   4.244   8.468 -0.2261 -0.1458  0.5014
 3300SOL    HW121359   1.640   4.162   8.486  0.7156  0.9592  3.0970
 3300SOL    HW221360   1.519   4.256   8.526 -0.0075  2.3298  0.2924
 3301SOL     OW21361   0.593   4.119   3.897  0.1391  0.0127 -0.6206
 3301SOL    HW121362   0.549   4.046   3.852  2.0716 -0.5805 -1.5956
 3301SOL    HW221363   0.630   4.163   3.820  0.2967 -0.8738 -1.0549
 3302SOL     OW21364   1.323   3.498   5.525  0.3688  0.1251 -0.6193
 3302SOL    HW121365   1.258   3.549   5.478  1.7699 -0.1910 -2.8703
 3302SOL    HW221366   1.401   3.506   5.469  0.5286  1.1902 -0.2588
 3303SOL     OW21367   4.645   1.753   7.556 -0.1625  0.1236 -0.6147
 3303SOL    HW121368   4.593   1.674   7.571  0.8972 -0.4735 -0.0789
 3303SOL    HW221369   4.709   1.707   7.503  0.2472 -1.1902  1.0254
 3304SOL     OW21370   3.347   2.550   4.013  0.4475  0.0703 -0.3220
 3304SOL    HW121371   3.310   2.638   4.005  0.6750  0.1577 -0.4284
 3304SOL    HW221372   3.370   2.537   4.105  0.5338  1.1432 -0.1997
 3305SOL     OW21373   3.410   3.788   8.161 -0.5851  0.4676  0.0921
 3305SOL    HW121374   3.472   3.860   8.145  1.2208 -1.1563 -0.2155
 3305SOL    HW221375   3.455   3.732   8.225 -1.3515  0.2621  0.4504
 3306SOL     OW21376   1.187   4.684  13.449  0.1601  0.1322  0.4675
 3306SOL    HW121377   1.153   0.003  13.528  1.6229  1.9737  0.1189
 3306SOL    HW221378   1.225   4.610  13.494  2.8248  2.0908  1.4412
 3307SOL     OW21379   0.492   3.413   6.217  0.1107 -0.3847 -0.2710
 3307SOL    HW121380   0.445   3.355   6.277  0.5198 -1.8621 -1.3837
 3307SOL    HW221381   0.442   3.396   6.138  0.2760 -1.4578 -0.1451
 3308SOL     OW21382   0.742   2.379   4.764  0.7441  0.1391  0.1165
 3308SOL    HW121383   0.651   2.352   4.780  0.8203 -0.0645  0.1973
 3308SOL    HW221384   0.730   2.452   4.703  1.5164  1.1548  1.1817
 3309SOL     OW21385   1.006   4.314  16.986 -0.1151  0.0113  0.1355
 3309SOL    HW121386   0.972   4.235  17.027 -0.5499  0.2055  0.1445
 3309SOL    HW221387   0.992   4.290  16.895 -0.4835 -0.3620  0.2915
 3310SOL     OW21388   3.091   4.584   5.286 -0.2951 -0.1420 -1.0950
 3310SOL    HW121389   3.042   4.505   5.264  0.4346 -0.8061 -0.3014
 3310SOL    HW221390   3.053   4.600   5.373 -0.5980  0.1031 -1.2708
 3311SOL     OW21391   3.414   4.451   5.221 -0.0031  0.1555 -0.0060
 3311SOL    HW121392   3.329   4.427   5.184 -0.5443  1.8079  0.1929
 3311SOL    HW221393   3.396   4.535   5.262  1.9780 -0.4058  2.0313
 3312SOL     OW21394   2.318   3.109   2.275 -0.3472 -0.4676 -0.0394
 3312SOL    HW121395   2.241   3.166   2.269  0.4097  0.6479  1.0207
 3312SOL    HW221396   2.370   3.164   2.334 -0.1468 -1.7271  0.9465
 3313SOL     OW21397   1.471   3.210   5.863 -0.5978 -0.5725  0.5109
 3313SOL    HW121398   1.410   3.279   5.836  1.2359  0.8912  0.1522
 3313SOL    HW221399   1.415   3.135   5.843 -2.1714  0.3619  1.3532
 3314SOL     OW21400   2.436   2.164  10.654  0.2716 -0.4171  0.2732
 3314SOL    HW121401   2.351   2.120  10.655 -0.2158  0.5095 -0.3931
 3314SOL    HW221402   2.495   2.102  10.697 -1.4561 -1.0072  1.8163
 3315SOL     OW21403   4.143   3.510   9.740  1.4124 -0.1938  0.6874
 3315SOL    HW121404   4.234   3.481   9.752  1.5939 -0.2778 -0.8289
 3315SOL    HW221405   4.085   3.441   9.770 -0.1213  0.2737 -1.2089
 3316SOL     OW21406   3.331   0.436   6.709  0.1013  0.0131  0.4210
 3316SOL    HW121407   3.345   0.412   6.618  1.8195  1.8385  0.2003
 3316SOL    HW221408   3.273   0.366   6.739 -1.8467  1.2212 -0.5368
 3317SOL     OW21409   1.703   3.270   8.131  0.3006  0.3985  0.1228
 3317SOL    HW121410   1.689   3.190   8.080  0.3814  0.5979 -0.2151
 3317SOL    HW221411   1.669   3.244   8.217 -0.5927 -0.8862 -0.6089
 3318SOL     OW21412   0.565   4.380   7.732 -0.7012  0.0394 -0.5407
 3318SOL    HW121413   0.600   4.433   7.804  1.5670 -1.3515 -0.6217
 3318SOL    HW221414   0.610   4.397   7.649  0.8361  1.9998  0.6806
 3319SOL     OW21415   3.633   1.454   6.953 -0.5353  0.2141  0.0528
 3319SOL    HW121416   3.617   1.364   6.982 -1.0096  0.4756  0.6001
 3319SOL    HW221417   3.546   1.489   6.934  0.5041  3.3028  0.9546
 3320SOL     OW21418   3.937   4.661  17.527  0.0496  0.0848 -0.0144
 3320SOL    HW121419   3.861   4.606  17.512 -0.5733  0.6874  0.9756
 3320SOL    HW221420   3.980   4.616  17.600  0.4864  1.6512  0.6936
 3321SOL     OW21421   3.976   3.978   7.634  0.1715  0.1223 -0.1119
 3321SOL    HW121422   3.943   3.895   7.600 -0.7122  0.9173 -1.2061
 3321SOL    HW221423   4.064   3.953   7.660  0.1042  0.1743  0.1597
 3322SOL     OW21424   2.248   0.007   7.733 -0.2608  0.4384  0.0676
 3322SOL    HW121425   2.317   4.700   7.792 -0.4064  0.5006  0.2690
 3322SOL    HW221426   2.307   0.063   7.683  0.1217  0.2876  0.3462
 3323SOL     OW21427   1.748   4.295  15.546 -0.7121  0.5261 -0.0431
 3323SOL    HW121428   1.738   4.336  15.631 -1.3400  1.5885 -0.6351
 3323SOL    HW221429   1.730   4.203  15.567  0.1790  0.2561 -0.4374
 3324SOL     OW21430   2.050   3.778  14.284  0.0012 -0.6498 -0.4710
 3324SOL    HW121431   2.087   3.795  14.198 -1.0485  0.6654 -0.6606
 3324SOL    HW221432   2.086   3.691  14.301 -0.9161 -0.8272  0.5976
 3325SOL     OW21433   3.507   2.705  12.335  0.1680  0.0760 -0.2996
 3325SOL    HW121434   3.558   2.639  12.289 -0.2088 -0.1095 -0.4558
 3325SOL    HW221435   3.535   2.788  12.295  1.6003  0.3500  1.3162
 3326SOL     OW21436   3.141   2.337   4.719  0.1631 -0.1277  0.1551
 3326SOL    HW121437   3.224   2.371   4.752 -1.5711  1.5762  2.6778
 3326SOL    HW221438   3.087   2.332   4.797 -0.6593  1.0658 -0.3397
 3327SOL     OW21439   0.682   1.663   7.160 -0.1239 -0.3755 -0.8867
 3327SOL    HW121440   0.635   1.710   7.229  0.1510  1.8749 -2.2326
 3327SOL    HW221441   0.632   1.692   7.084  0.6004 -0.0303 -1.2252
 3328SOL     OW21442   0.755   0.581  12.363  0.5661  0.2717  0.1091
 3328SOL    HW121443   0.775   0.634  12.286  1.2025  0.4329  0.3847
 3328SOL    HW221444   0.810   0.616  12.433  0.7047  1.1083 -0.4292
 3329SOL     OW21445   1.722   1.981  15.209 -0.1282  0.3812 -0.1716
 3329SOL    HW121446   1.723   1.932  15.291  4.2958  0.8651  0.0811
 3329SOL    HW221447   1.648   2.038  15.226  0.6668  1.8518 -1.5795
 3330SOL     OW21448   0.971   3.107  14.237  0.0073  0.1030 -0.2427
 3330SOL    HW121449   1.009   3.183  14.282  0.4295 -1.3105  1.7561
 3330SOL    HW221450   0.877   3.125  14.239 -0.2985 -1.7357  1.7757
 3331SOL     OW21451   3.533   2.936   2.399 -0.5086  0.1408 -0.5880
 3331SOL    HW121452   3.567   2.921   2.310 -0.3708 -1.8355 -0.2069
 3331SOL    HW221453   3.441   2.912   2.387 -0.8332  1.0654  0.1101
 3332SOL     OW21454   3.018   2.036   2.420  0.7163 -0.2240 -0.0451
 3332SOL    HW121455   2.931   2.010   2.390  0.6401 -2.3117  2.0070
 3332SOL    HW221456   3.012   2.012   2.512 -0.5082  0.6865  0.1070
 3333SOL     OW21457   4.063   0.824   7.789 -0.0066 -0.0287 -0.5604
 3333SOL    HW121458   4.070   0.729   7.799 -0.9333 -0.0890 -0.5385
 3333SOL    HW221459   4.034   0.834   7.698 -0.4901 -1.2013 -0.5363
 3334SOL     OW21460   0.861   2.810   5.948  0.0093 -0.8157  0.1747
 3334SOL    HW121461   0.874   2.829   6.041 -0.8610 -0.0019  0.1298
 3334SOL    HW221462   0.848   2.897   5.909 -0.4095  0.2499  2.7367
 3335SOL     OW21463   2.589   2.603   5.795 -0.5894  0.6872 -0.3473
 3335SOL    HW121464   2.561   2.691   5.822 -0.4721  0.0200  2.0094
 3335SOL    HW221465   2.684   2.607   5.810 -0.3003  1.5478 -2.4574
 3336SOL     OW21466   1.084   3.914   6.329 -0.5945 -0.2167  0.1333
 3336SOL    HW121467   1.110   3.949   6.414 -1.7102  0.7512  0.0700
 3336SOL    HW221468   1.053   3.997   6.292 -1.4810 -0.0340  1.3031
 3337SOL     OW21469   3.886   1.788   6.731  0.0911 -0.1120 -0.0355
 3337SOL    HW121470   3.791   1.777   6.736 -0.0103  0.6071 -0.3165
 3337SOL    HW221471   3.893   1.780   6.636 -1.6059 -0.1868 -0.1561
 3338SOL     OW21472   4.307   0.473  15.555 -0.3744  0.4090  0.2770
 3338SOL    HW121473   4.261   0.553  15.533  0.4427  0.4430 -1.2869
 3338SOL    HW221474   4.389   0.493  15.509  0.0871 -1.6718  0.1857
 3339SOL     OW21475   4.638   1.511   3.280 -0.0880 -0.4057  0.2245
 3339SOL    HW121476   4.722   1.467   3.299 -0.1858 -0.7530 -0.1620
 3339SOL    HW221477   4.572   1.447   3.308  0.1704  0.1344  2.1062
 3340SOL     OW21478   1.025   1.511  10.155  0.6665  0.7593 -0.0831
 3340SOL    HW121479   1.050   1.495  10.246  2.1310  1.9385 -0.2832
 3340SOL    HW221480   1.056   1.425  10.126 -0.4459 -0.0674  1.2051
 3341SOL     OW21481   2.298   3.378   4.980  0.4690 -0.0959 -0.0355
 3341SOL    HW121482   2.260   3.320   5.047 -1.6344  0.0064 -1.1562
 3341SOL    HW221483   2.242   3.454   4.994 -1.4558 -1.5940  0.3082
 3342SOL     OW21484   3.295   2.991   3.230  0.2160  0.2665 -0.1240
 3342SOL    HW121485   3.325   2.920   3.288 -1.1404  0.4730  0.8254
 3342SOL    HW221486   3.202   2.970   3.220 -0.3892  1.2382  3.3418
 3343SOL     OW21487   1.358   1.523  17.381  0.3029  0.5279 -0.0143
 3343SOL    HW121488   1.278   1.535  17.431 -0.9206  1.3856 -2.1761
 3343SOL    HW221489   1.425   1.556  17.442  0.3135  2.3434 -1.0183
 3344SOL     OW21490   3.481   3.490   9.551 -0.6563 -0.1073 -0.5026
 3344SOL    HW121491   3.501   3.440   9.631  0.7818  0.8228 -0.2794
 3344SOL    HW221492   3.480   3.427   9.479  1.6235 -0.6461 -0.0840
 3345SOL     OW21493   0.072   3.356   6.118 -0.0158  0.2635  0.2402
 3345SOL    HW121494   0.068   3.447   6.145  1.1651  0.6665 -0.9378
 3345SOL    HW221495   0.151   3.354   6.064  0.0091 -2.0084  0.3354
 3346SOL     OW21496   0.568   3.998   7.934 -0.0050 -0.1526 -0.1280
 3346SOL    HW121497   0.590   4.021   8.025  1.4526 -1.2280 -0.1959
 3346SOL    HW221498   0.474   3.982   7.937 -0.1634  0.6770 -0.8553
 3347SOL     OW21499   0.307   4.335   9.163  0.0053  0.0854  0.2374
 3347SOL    HW121500   0.377   4.317   9.225 -0.9669 -1.0348  1.0094
 3347SOL    HW221501   0.305   4.431   9.162  1.0907  0.1072  0.1834
 3348SOL     OW21502   0.279   0.880   8.353  0.4119 -0.6252  0.2618
 3348SOL    HW121503   0.357   0.912   8.398 -0.1548  1.4018 -0.2383
 3348SOL    HW221504   0.223   0.955   8.370 -1.8958 -2.1130 -0.7984
 3349SOL     OW21505   1.526   3.643  14.996  0.5846  0.0767 -0.0972
 3349SOL    HW121506   1.498   3.677  15.082  1.1240  1.2956 -0.4027
 3349SOL    HW221507   1.502   3.714  14.936 -1.4375 -1.5367 -1.1766
 3350SOL     OW21508   3.882   0.071   4.151  0.3428 -0.6269  0.0894
 3350SOL    HW121509   3.892   4.700   4.137  1.9211 -0.1716 -1.9289
 3350SOL    HW221510   3.797   0.075   4.109 -0.2463  0.4187  1.3820
 3351SOL     OW21511   3.331   0.813   0.390 -0.0400  0.5359 -0.0674
 3351SOL    HW121512   3.263   0.781   0.450  1.9499  0.7053  2.2940
 3351SOL    HW221513   3.396   0.850   0.449 -2.4807  1.4014  2.0693
 3352SOL     OW21514   0.004   4.121  13.699  0.4449  0.7117  0.0263
 3352SOL    HW121515   4.632   4.135  13.696  0.2089 -0.4939  1.3295
 3352SOL    HW221516   4.723   4.026  13.689 -0.2565  0.6503  0.8419
 3353SOL     OW21517   0.047   4.254  14.642  0.1575 -0.1298  0.4364
 3353SOL    HW121518   0.048   4.228  14.550 -0.7509 -0.2751  0.4724
 3353SOL    HW221519   0.104   4.330  14.653 -0.8407  1.0006 -2.3742
 3354SOL     OW21520   0.285   4.449   1.011 -0.0535  0.3006 -0.1152
 3354SOL    HW121521   0.264   4.367   1.056  2.3655 -0.7546 -0.8615
 3354SOL    HW221522   0.366   4.462   1.061 -0.5958  0.8935  0.6023
 3355SOL     OW21523   3.904   1.475  17.328 -0.3011 -0.2934 -0.2370
 3355SOL    HW121524   3.913   1.380  17.331  1.0175 -0.1557  0.4814
 3355SOL    HW221525   3.977   1.499  17.385  0.5613  1.2588 -1.9716
 3356SOL     OW21526   2.359   0.763   1.803 -0.4763  0.2054 -0.2012
 3356SOL    HW121527   2.352   0.673   1.773  1.9670 -0.0939  0.0936
 3356SOL    HW221528   2.447   0.777   1.768 -0.6748  2.8589  0.3427
 3357SOL     OW21529   2.778   1.959   2.910  0.3953 -0.5068 -0.1304
 3357SOL    HW121530   2.785   1.869   2.878 -2.9186 -0.6979 -0.2695
 3357SOL    HW221531   2.765   2.015   2.834  0.6595  2.3935  1.9707
 3358SOL     OW21532   1.687   2.794   2.835 -0.8968 -0.0361 -0.0066
 3358SOL    HW121533   1.773   2.758   2.855 -1.2029 -0.4024  0.6483
 3358SOL    HW221534   1.686   2.801   2.739  3.2540 -1.3661 -0.1625
 3359SOL     OW21535   1.843   3.733  11.413  0.7638  0.0172 -0.1595
 3359SOL    HW121536   1.888   3.675  11.475  1.3464  1.0729  0.4156
 3359SOL    HW221537   1.889   3.736  11.329 -2.0778  1.2813 -1.6534
 3360SOL     OW21538   0.582   3.742   7.152 -0.2929 -0.0926  0.2934
 3360SOL    HW121539   0.590   3.671   7.216  0.7343 -0.3963 -0.1798
 3360SOL    HW221540   0.530   3.805   7.203 -0.5631  0.9722 -1.2969
 3361SOL     OW21541   3.432   1.886  12.945  0.6762  0.4349  0.5814
 3361SOL    HW121542   3.441   1.849  13.033  0.5029 -2.0189 -0.4222
 3361SOL    HW221543   3.518   1.855  12.918  1.5468  4.4354 -1.2497
 3362SOL     OW21544   0.982   3.263   5.380 -0.6676  0.2697  0.1529
 3362SOL    HW121545   1.073   3.291   5.382  0.4482 -3.0709 -2.8565
 3362SOL    HW221546   0.974   3.232   5.470 -1.9541 -0.4132 -0.1861
 3363SOL     OW21547   1.301   2.322   4.574 -0.2408  0.1376 -0.1047
 3363SOL    HW121548   1.270   2.392   4.631 -0.8213  0.3945 -0.7363
 3363SOL    HW221549   1.296   2.257   4.644  1.4167  0.7847  0.6076
 3364SOL     OW21550   3.554   1.717   7.168 -0.4981  0.1521 -0.2409
 3364SOL    HW121551   3.603   1.748   7.092 -0.3165  1.0841  0.2452
 3364SOL    HW221552   3.471   1.761   7.150 -0.9272 -1.0057 -1.0338
 3365SOL     OW21553   2.198   2.496  11.596  0.3387 -0.1383 -0.0327
 3365SOL    HW121554   2.115   2.496  11.548 -0.5477 -1.9916  1.5490
 3365SOL    HW221555   2.162   2.509  11.683 -0.4550  0.0242 -0.3825
 3366SOL     OW21556   1.105   0.141  15.227 -0.2409  0.1389  0.4886
 3366SOL    HW121557   1.049   0.077  15.269 -2.5074  0.9951 -1.1913
 3366SOL    HW221558   1.068   0.221  15.265  0.8543  0.3700  1.0675
 3367SOL     OW21559   2.266   0.702   3.237 -0.1968  0.4179  0.4022
 3367SOL    HW121560   2.336   0.639   3.219  0.9189  2.0179 -0.7884
 3367SOL    HW221561   2.212   0.638   3.283 -2.1960  0.7664 -1.4650
 3368SOL     OW21562   3.870   4.464   9.385  0.3657  0.3009 -0.2984
 3368SOL    HW121563   3.919   4.507   9.455  1.2973 -1.5053  0.1418
 3368SOL    HW221564   3.916   4.381   9.386  1.0293  0.6811  0.3061
 3369SOL     OW21565   3.471   0.615   6.862  0.5140  0.0079 -0.1127
 3369SOL    HW121566   3.428   0.603   6.947  0.0762 -0.1766 -0.3640
 3369SOL    HW221567   3.426   0.556   6.802  0.8408  0.2019 -0.5449
 3370SOL     OW21568   4.089   2.552  15.977  0.3858  0.1939 -0.4623
 3370SOL    HW121569   4.148   2.572  15.904  1.2326  2.5960  0.8779
 3370SOL    HW221570   4.027   2.490  15.939 -1.8901  2.3917 -0.3917
 3371SOL     OW21571   2.276   4.452   8.825  0.3206  0.3307  0.1852
 3371SOL    HW121572   2.236   4.482   8.743  2.2719  3.0238  0.2437
 3371SOL    HW221573   2.247   4.528   8.876  0.9157 -0.5963  1.9003
 3372SOL     OW21574   3.463   4.130   2.940 -0.5427  0.1612  0.0634
 3372SOL    HW121575   3.449   4.211   2.891  2.0263  0.9781  0.6406
 3372SOL    HW221576   3.434   4.068   2.874 -0.1305  0.2592 -0.2139
 3373SOL     OW21577   4.511   1.958   2.494  0.3303 -0.1806 -0.4666
 3373SOL    HW121578   4.474   1.884   2.543  0.0955  0.2660  0.0224
 3373SOL    HW221579   4.520   2.027   2.559  0.3900  0.2293 -0.9138
 3374SOL     OW21580   1.925   2.757   6.625 -0.4252 -0.2197 -0.1885
 3374SOL    HW121581   1.832   2.766   6.647 -0.6327  0.2496 -1.2532
 3374SOL    HW221582   1.920   2.680   6.568 -0.7947  0.1326 -0.6339
 3375SOL     OW21583   2.670   2.842  12.812 -0.2194 -0.5543 -0.2185
 3375SOL    HW121584   2.726   2.791  12.753  0.7999 -0.4779  0.6620
 3375SOL    HW221585   2.637   2.769  12.865 -0.8365 -1.6825 -2.1594
 3376SOL     OW21586   3.528   1.469   6.474 -0.3231 -0.4066  0.4784
 3376SOL    HW121587   3.604   1.506   6.520  0.3073  0.2900 -1.1194
 3376SOL    HW221588   3.552   1.479   6.382 -2.3145 -1.0169 -0.1107
 3377SOL     OW21589   2.629   0.374   4.000 -0.4754 -0.2399  0.2726
 3377SOL    HW121590   2.604   0.448   4.055  0.4450 -0.7495  1.3831
 3377SOL    HW221591   2.721   0.396   3.985 -0.7549  2.0821  2.0413
 3378SOL     OW21592   2.355   1.176   3.997 -0.4234  1.0628 -0.4872
 3378SOL    HW121593   2.266   1.143   3.986  0.4601 -1.1774 -0.9507
 3378SOL    HW221594   2.345   1.251   4.056  0.5271  0.3303  0.5950
 3379SOL     OW21595   4.209   1.115   3.940  0.2230 -0.2159 -0.1719
 3379SOL    HW121596   4.292   1.084   3.903  0.2568  0.3382 -0.5628
 3379SOL    HW221597   4.163   1.128   3.857 -0.2172 -0.1800  0.0756
 3380SOL     OW21598   3.864   4.140   9.209 -0.1628 -0.2983  0.1680
 3380SOL    HW121599   3.803   4.211   9.188 -0.1804 -0.1358  0.7752
 3380SOL    HW221600   3.943   4.178   9.171 -0.4706 -0.8962 -1.0779
 3381SOL     OW21601   0.573   0.985   8.024 -0.0080  0.0636  0.3884
 3381SOL    HW121602   0.615   0.938   8.096 -0.7008 -3.1890 -1.3405
 3381SOL    HW221603   0.650   1.001   7.969 -1.5086  1.2079 -1.3666
 3382SOL     OW21604   0.407   4.579  17.275  0.4879 -0.1105 -0.5175
 3382SOL    HW121605   0.345   4.538  17.213 -0.1476 -0.5083  0.3817
 3382SOL    HW221606   0.351   4.641  17.322 -1.8412 -2.3065 -0.3950
 3383SOL     OW21607   2.298   1.162   4.813 -1.0350  0.0071 -0.6424
 3383SOL    HW121608   2.266   1.228   4.876  1.3368 -0.2042  0.7877
 3383SOL    HW221609   2.389   1.189   4.801 -1.0469 -0.0228 -0.8039
 3384SOL     OW21610   0.136   2.482   0.741 -0.2042  0.5324  0.6734
 3384SOL    HW121611   0.069   2.503   0.676  0.3445  1.6047  0.4644
 3384SOL    HW221612   0.085   2.444   0.813 -1.1373  0.9892  0.2520
 3385SOL     OW21613   2.734   2.258   6.957  0.5681 -0.8537 -0.5358
 3385SOL    HW121614   2.772   2.324   7.015 -0.2994  0.1494 -1.0996
 3385SOL    HW221615   2.666   2.305   6.908 -0.1854 -1.4319 -0.0385
 3386SOL     OW21616   1.973   4.548   4.215 -0.4278 -0.0035  0.4742
 3386SOL    HW121617   2.054   4.575   4.171 -1.7226  1.4976 -0.9673
 3386SOL    HW221618   1.949   4.495   4.140 -0.1437  0.9011 -0.2549
 3387SOL     OW21619   1.734   0.729   5.166 -0.5553  0.0555 -0.0805
 3387SOL    HW121620   1.687   0.780   5.232  1.0750  1.1785  0.2222
 3387SOL    HW221621   1.729   0.789   5.092  0.9730 -1.9164 -1.7878
 3388SOL     OW21622   4.248   3.188   9.277  0.2877 -0.3565 -0.0811
 3388SOL    HW121623   4.313   3.121   9.259 -0.2339 -0.6815 -0.7243
 3388SOL    HW221624   4.243   3.232   9.192 -0.5395 -0.7176 -0.2237
 3389SOL     OW21625   0.531   2.990  12.451 -0.5407  0.2786 -0.5248
 3389SOL    HW121626   0.530   3.070  12.398  1.0320  0.2203 -0.6393
 3389SOL    HW221627   0.481   2.929  12.396 -0.5871 -0.1795  0.0281
 3390SOL     OW21628   0.658   1.780   4.042  0.2894 -0.4308 -0.1483
 3390SOL    HW121629   0.627   1.847   3.981  0.0241  0.6478  1.1617
 3390SOL    HW221630   0.578   1.771   4.094 -0.3644 -0.4693 -1.1493
 3391SOL     OW21631   2.108   4.136   6.501  0.3100  0.0925 -0.7076
 3391SOL    HW121632   2.140   4.099   6.583  0.9306 -2.5153 -2.1052
 3391SOL    HW221633   2.032   4.079   6.498 -0.7049  1.4814 -1.3374
 3392SOL     OW21634   1.425   2.088  12.555 -0.1982  0.3592  0.3038
 3392SOL    HW121635   1.385   2.005  12.531  0.1096  0.4213 -0.4150
 3392SOL    HW221636   1.516   2.070  12.581  0.1432  0.5226 -0.7688
 3393SOL     OW21637   4.179   3.034  10.424  0.4007 -0.2890 -0.3336
 3393SOL    HW121638   4.097   3.014  10.468 -1.3188  0.0058 -3.3772
 3393SOL    HW221639   4.184   2.970  10.352 -0.8447  1.3373 -1.8738
 3394SOL     OW21640   1.164   4.391   8.093  0.1902 -0.2145  0.0870
 3394SOL    HW121641   1.222   4.451   8.046 -0.6502  1.0454  0.6595
 3394SOL    HW221642   1.087   4.404   8.037  0.4643  1.2024  0.0182
 3395SOL     OW21643   3.112   1.999   2.122  0.0226 -0.1313  0.4622
 3395SOL    HW121644   3.135   2.084   2.160  1.1409 -0.6177  0.8609
 3395SOL    HW221645   3.070   1.961   2.199 -1.1867  1.0180  0.3654
 3396SOL     OW21646   1.514   4.433  10.513 -0.1846  0.4770 -0.4792
 3396SOL    HW121647   1.506   4.338  10.501 -1.6574  0.4190  1.0682
 3396SOL    HW221648   1.427   4.450  10.549 -0.9177  1.4526 -2.7469
 3397SOL     OW21649   3.409   1.919  15.099  0.3457  0.1586 -0.3520
 3397SOL    HW121650   3.475   1.849  15.102 -0.7883 -0.9938 -1.9601
 3397SOL    HW221651   3.473   1.989  15.086 -1.9715  2.1775 -0.7580
 3398SOL     OW21652   2.554   3.108   5.767  0.3062  0.6176  0.1599
 3398SOL    HW121653   2.477   3.162   5.745 -0.6342 -0.9271 -0.3519
 3398SOL    HW221654   2.595   3.141   5.846 -1.6797 -1.8635  2.2264
 3399SOL     OW21655   2.140   2.079   6.084 -0.1061 -0.0645 -0.6725
 3399SOL    HW121656   2.148   2.011   6.150  1.5434  1.5575  0.7632
 3399SOL    HW221657   2.205   2.128   6.133  0.5437 -0.3999 -1.1988
 3400SOL     OW21658   0.488   2.037   7.592 -0.5008 -0.2543  0.1827
 3400SOL    HW121659   0.571   2.085   7.601  0.2772 -1.3038 -1.4874
 3400SOL    HW221660   0.494   1.962   7.651 -1.6732 -0.2542  0.2892
 3401SOL     OW21661   3.190   3.177   4.675 -0.2121 -0.1969 -0.1784
 3401SOL    HW121662   3.143   3.247   4.721 -0.7277 -1.0265  0.5621
 3401SOL    HW221663   3.280   3.209   4.686 -0.5953  1.1962 -1.0659
 3402SOL     OW21664   4.650   4.644  17.462 -0.1921  0.5054  0.1500
 3402SOL    HW121665   4.652   4.695  17.543 -1.7087  0.8376 -0.0149
 3402SOL    HW221666   4.712   4.694  17.410 -2.5028  3.3845  0.1618
 3403SOL     OW21667   1.705   4.130   2.254  0.8540  0.2184  0.0261
 3403SOL    HW121668   1.747   4.091   2.178  0.0117  2.1148 -1.4166
 3403SOL    HW221669   1.625   4.156   2.208  0.9113 -0.7808 -0.6331
 3404SOL     OW21670   4.354   2.240   9.294  0.0887  0.0178 -0.6728
 3404SOL    HW121671   4.262   2.252   9.270 -0.0444  0.7168  0.1696
 3404SOL    HW221672   4.392   2.328   9.286  1.8759 -0.5112  1.9152
 3405SOL     OW21673   1.323   0.850  10.409  0.0363 -0.2391 -0.5822
 3405SOL    HW121674   1.369   0.854  10.493 -2.0396 -0.2557  0.5721
 3405SOL    HW221675   1.384   0.787  10.371  1.6839 -0.2879  2.1383
 3406SOL     OW21676   0.359   4.463   8.856 -0.1213 -0.0179 -0.4771
 3406SOL    HW121677   0.424   4.511   8.907  0.8734 -2.7596  0.8211
 3406SOL    HW221678   0.412   4.390   8.825  0.5031  1.2658 -2.4500
 3407SOL     OW21679   3.729   1.212   8.315 -0.1763 -0.3278  0.1419
 3407SOL    HW121680   3.750   1.267   8.240 -0.2414  1.1724  1.2151
 3407SOL    HW221681   3.650   1.169   8.281  0.0994 -1.8132  1.3829
 3408SOL     OW21682   0.390   0.773   1.501  0.4691  0.1067 -0.3718
 3408SOL    HW121683   0.302   0.802   1.525 -0.5766 -0.9658 -2.8983
 3408SOL    HW221684   0.397   0.799   1.409  0.2279 -1.0851 -0.7229
 3409SOL     OW21685   0.952   3.116   8.483  0.5024  0.5115  0.1663
 3409SOL    HW121686   0.987   3.177   8.418  0.8250 -0.5136 -0.6163
 3409SOL    HW221687   0.915   3.180   8.544  1.1655 -0.6308  1.7727
 3410SOL     OW21688   2.401   0.287   4.238  0.4429 -0.0804 -0.6271
 3410SOL    HW121689   2.491   0.255   4.241  0.2801 -0.2259  2.6290
 3410SOL    HW221690   2.395   0.331   4.322 -1.0499 -1.5689  0.0296
 3411SOL     OW21691   1.942   0.132   3.351  0.0429 -0.3988 -0.5480
 3411SOL    HW121692   1.864   0.121   3.404  0.9523 -1.0374  0.6642
 3411SOL    HW221693   1.990   0.050   3.366 -1.3186 -0.9643  0.6494
 3412SOL     OW21694   1.658   3.203  11.012 -0.2369  0.2371 -0.2545
 3412SOL    HW121695   1.584   3.256  10.981 -1.1636 -0.5942  0.5814
 3412SOL    HW221696   1.630   3.113  11.002  1.2327 -0.2492 -0.0066
 3413SOL     OW21697   3.418   2.019   7.707 -0.0736  0.0628 -0.1996
 3413SOL    HW121698   3.435   1.932   7.670 -0.0441  0.0578 -0.1751
 3413SOL    HW221699   3.486   2.077   7.671 -1.4385  1.8642  0.1395
 3414SOL     OW21700   4.416   0.235   4.062 -0.0121  0.4486 -0.0492
 3414SOL    HW121701   4.333   0.189   4.047  0.2721 -0.6277  1.6874
 3414SOL    HW221702   4.430   0.228   4.157 -0.4160  3.0169  0.2025
 3415SOL     OW21703   1.025   0.846   6.134 -0.1779 -0.7272  0.2251
 3415SOL    HW121704   0.952   0.907   6.145 -0.3206 -0.7305 -0.7576
 3415SOL    HW221705   1.094   0.909   6.158 -0.7929 -1.2168  3.2599
 3416SOL     OW21706   4.598   3.674   3.937  0.1716  0.3017  0.4517
 3416SOL    HW121707   4.628   3.627   3.860 -2.5908 -0.4613 -0.1422
 3416SOL    HW221708   4.683   3.703   3.970 -0.0587  0.0712  1.2442
 3417SOL     OW21709   1.927   0.398   4.298 -0.3000  0.6954  0.3002
 3417SOL    HW121710   1.839   0.364   4.312 -0.2015 -0.5109 -2.0039
 3417SOL    HW221711   1.970   0.397   4.384  0.3258 -0.1691 -0.0199
 3418SOL     OW21712   3.307   0.533  10.102 -0.7490  1.3408  0.2493
 3418SOL    HW121713   3.257   0.535  10.020  1.9863  1.0114 -1.4054
 3418SOL    HW221714   3.261   0.604  10.148  1.7560  1.3364  2.7306
 3419SOL     OW21715   1.120   3.910   1.409  0.0518  0.3882 -0.6786
 3419SOL    HW121716   1.150   3.827   1.445  0.0868  1.1060  0.9680
 3419SOL    HW221717   1.079   3.953   1.484 -0.2572 -1.6604  0.3158
 3420SOL     OW21718   1.495   3.788  16.896  0.4481 -0.0454  0.2076
 3420SOL    HW121719   1.513   3.861  16.837  0.6439 -0.3364 -0.0897
 3420SOL    HW221720   1.412   3.758  16.860  0.8149  0.8714 -1.3936
 3421SOL     OW21721   4.345   0.398  11.609 -0.1557 -0.3002 -0.0266
 3421SOL    HW121722   4.419   0.356  11.654  0.0144 -1.1075 -1.0665
 3421SOL    HW221723   4.267   0.367  11.656  0.5555 -1.3751  0.4677
 3422SOL     OW21724   2.046   4.629   8.755 -0.2150 -0.0964  0.0363
 3422SOL    HW121725   2.019   4.561   8.693 -1.7794 -0.8396  1.5515
 3422SOL    HW221726   2.094   4.685   8.694 -1.7223 -0.8363 -1.8258
 3423SOL     OW21727   4.060   4.479  15.996 -0.5494  0.3284 -0.3917
 3423SOL    HW121728   4.045   4.438  15.910  1.0416 -0.3198 -0.3707
 3423SOL    HW221729   4.131   4.540  15.974  0.4084 -0.8898 -0.6998
 3424SOL     OW21730   0.085   0.614   7.338  0.7615  0.0117 -0.8315
 3424SOL    HW121731   4.716   0.618   7.362  0.5461 -0.6313 -1.5680
 3424SOL    HW221732   0.110   0.705   7.354  0.1272  0.0732 -0.2012
 3425SOL     OW21733   2.335   1.596   5.856  0.7353 -0.3822  0.0627
 3425SOL    HW121734   2.376   1.682   5.867  1.6939 -0.7924 -0.3449
 3425SOL    HW221735   2.344   1.559   5.944 -1.1586  0.1506  0.4775
 3426SOL     OW21736   1.071   3.957  15.055 -0.3878 -0.2912 -0.3709
 3426SOL    HW121737   1.096   3.899  14.983 -0.4944 -0.1796 -0.4975
 3426SOL    HW221738   0.983   3.987  15.031  0.2892  0.1771 -2.2743
 3427SOL     OW21739   3.638   1.608   5.453  0.0453 -0.2582  0.7966
 3427SOL    HW121740   3.666   1.565   5.373  2.0086 -0.2453  1.4796
 3427SOL    HW221741   3.713   1.665   5.471  1.5362 -1.4084 -1.8701
 3428SOL     OW21742   3.633   3.212   4.960 -0.2496  0.2555 -0.1825
 3428SOL    HW121743   3.561   3.154   4.985  0.6299 -0.7477  0.0506
 3428SOL    HW221744   3.659   3.239   5.048 -1.8645 -1.0181  0.6798
 3429SOL     OW21745   2.983   0.982  14.561  0.4993  0.0454 -0.0924
 3429SOL    HW121746   3.066   0.998  14.516  0.1564  1.1126 -0.3491
 3429SOL    HW221747   3.002   0.941  14.645 -0.4831 -2.7266 -1.2227
 3430SOL     OW21748   4.437   4.299  10.272  0.0782 -0.2324 -0.0146
 3430SOL    HW121749   4.506   4.285  10.208  0.1070  1.1855 -0.2892
 3430SOL    HW221750   4.439   4.223  10.330 -0.8470 -0.4561 -0.2800
 3431SOL     OW21751   1.013   2.291  12.956 -0.1278  0.3709  0.6029
 3431SOL    HW121752   1.004   2.376  13.000 -1.4616 -0.3608  1.7481
 3431SOL    HW221753   1.016   2.231  13.030 -3.1706  1.7428  1.8501
 3432SOL     OW21754   3.843   2.855   4.348  0.3546 -0.5675  0.2527
 3432SOL    HW121755   3.818   2.853   4.255 -3.9913 -0.8076  1.4324
 3432SOL    HW221756   3.792   2.932   4.377 -0.5747 -1.1860  0.2717
 3433SOL     OW21757   0.970   2.078  14.777  0.0654  0.0744 -0.1323
 3433SOL    HW121758   0.953   1.984  14.771 -4.0374  0.7277  1.7578
 3433SOL    HW221759   1.059   2.069  14.743  0.1877  0.3436  0.1131
 3434SOL     OW21760   0.085   2.637   8.516  0.6344  0.6895 -0.1601
 3434SOL    HW121761   0.062   2.610   8.427  2.3185 -1.6133  0.0959
 3434SOL    HW221762   0.121   2.556   8.553 -0.8989 -0.6987 -1.6989
 3435SOL     OW21763   3.594   1.900   8.083 -0.2455 -0.1530  0.0994
 3435SOL    HW121764   3.603   1.981   8.034 -0.8391 -0.6355 -0.8023
 3435SOL    HW221765   3.687   1.893   8.104 -0.3947 -0.4004  0.6850
 3436SOL     OW21766   2.532   2.832   2.935  0.3688  0.3855  0.0164
 3436SOL    HW121767   2.439   2.845   2.916  0.5185 -0.0978 -1.0419
 3436SOL    HW221768   2.555   2.923   2.956  1.1922  0.4234 -1.0537
 3437SOL     OW21769   1.220   0.090  14.674  0.8189 -0.3047 -0.6177
 3437SOL    HW121770   1.290   0.034  14.708 -1.5360 -1.8729  1.6237
 3437SOL    HW221771   1.186   0.111  14.761  1.8769 -1.9926  0.1870
 3438SOL     OW21772   2.401   1.897   0.905  0.0654 -0.1211  0.2668
 3438SOL    HW121773   2.425   1.946   0.984 -1.8711  2.9043 -1.0077
 3438SOL    HW221774   2.320   1.856   0.936 -0.3442  0.7216  0.3226
 3439SOL     OW21775   1.878   2.310  15.775 -0.0301  0.3397 -0.6573
 3439SOL    HW121776   1.873   2.228  15.824  1.0773  1.3979  1.2414
 3439SOL    HW221777   1.862   2.272  15.688  0.5166  0.8378 -0.9840
 3440SOL     OW21778   1.290   0.391  11.956 -0.4293 -0.4569  0.1931
 3440SOL    HW121779   1.340   0.469  11.980  0.7142 -0.9170 -0.6243
 3440SOL    HW221780   1.281   0.406  11.861  1.9648  1.0127  0.1954
 3441SOL     OW21781   3.355   0.475   7.393  0.2562 -0.1293 -0.0169
 3441SOL    HW121782   3.300   0.428   7.330  2.2762  0.9574 -2.5950
 3441SOL    HW221783   3.351   0.419   7.471 -0.0297 -2.9655 -2.0489
 3442SOL     OW21784   1.220   2.700   8.344 -0.7740 -0.4989 -0.1767
 3442SOL    HW121785   1.144   2.753   8.367 -0.4875 -1.8012  3.6819
 3442SOL    HW221786   1.249   2.704   8.435  0.8183  1.1659 -0.7379
 3443SOL     OW21787   1.082   3.323  16.279 -0.0568 -0.6085  0.7421
 3443SOL    HW121788   1.087   3.410  16.320 -1.6848 -0.3964  0.4918
 3443SOL    HW221789   1.034   3.335  16.197  0.5900  0.5150  0.5247
 3444SOL     OW21790   0.788   2.070   2.200 -0.3482  0.2129 -0.1095
 3444SOL    HW121791   0.702   2.033   2.219 -0.8051  1.7066  0.6819
 3444SOL    HW221792   0.767   2.153   2.158 -2.0603 -0.7596 -1.1795
 3445SOL     OW21793   2.449   4.311   2.441 -0.3766  0.1091  0.6623
 3445SOL    HW121794   2.422   4.394   2.402 -2.3696 -1.2839 -0.8920
 3445SOL    HW221795   2.368   4.297   2.490 -0.9691  1.7834  0.1553
 3446SOL     OW21796   3.637   4.408  11.957  0.6084 -0.2553 -0.8045
 3446SOL    HW121797   3.546   4.391  11.981  0.2965  3.7200  0.8145
 3446SOL    HW221798   3.641   4.376  11.867  2.6857 -1.7904 -0.1519
 3447SOL     OW21799   4.387   3.184   5.737 -0.1997  1.0088 -0.1793
 3447SOL    HW121800   4.403   3.203   5.830 -0.1448  0.5120 -0.0878
 3447SOL    HW221801   4.302   3.140   5.740  0.3916 -0.0773  0.6690
 3448SOL     OW21802   4.253   4.025   4.270  0.2328 -0.2065  0.1778
 3448SOL    HW121803   4.337   4.051   4.310  0.7027  0.1790 -1.0450
 3448SOL    HW221804   4.224   4.111   4.242  1.4907 -0.5048 -2.0981
 3449SOL     OW21805   0.492   4.490   1.177 -0.2260  0.4049 -0.3691
 3449SOL    HW121806   0.573   4.490   1.228  0.8830  1.6220 -2.1136
 3449SOL    HW221807   0.447   4.572   1.197  0.0861 -0.5510  4.1486
 3450SOL     OW21808   1.406   3.968   9.512 -0.3462 -0.1642  0.8817
 3450SOL    HW121809   1.387   4.061   9.513 -0.2571 -0.1582  1.9286
 3450SOL    HW221810   1.320   3.931   9.494  0.7858 -1.6077 -1.6005
 3451SOL     OW21811   2.015   0.822   9.277  0.2026  0.3053  0.7918
 3451SOL    HW121812   2.039   0.786   9.191  1.9837  0.9517  1.0265
 3451SOL    HW221813   2.092   0.874   9.298  0.6350 -1.0560  2.5387
 3452SOL     OW21814   3.442   1.149  10.262 -0.2607 -0.1238 -0.4465
 3452SOL    HW121815   3.457   1.192  10.178 -1.2286  0.1090 -0.5013
 3452SOL    HW221816   3.352   1.118  10.253 -0.2374 -0.2471 -0.2512
 3453SOL     OW21817   2.747   0.153  15.662 -0.1432 -0.1636  0.0195
 3453SOL    HW121818   2.752   0.060  15.685  2.0163 -0.2891 -0.9261
 3453SOL    HW221819   2.790   0.143  15.576  2.3215  1.4098  1.0557
 3454SOL     OW21820   1.859   0.264  14.111  0.0985 -0.4630 -0.0947
 3454SOL    HW121821   1.823   0.296  14.194  2.1301  0.0946  0.5702
 3454SOL    HW221822   1.835   0.343  14.063 -2.8637 -1.6456 -0.5663
 3455SOL     OW21823   4.277   3.554   2.921  0.4602 -0.3260  0.5288
 3455SOL    HW121824   4.218   3.617   2.879  2.2123  1.0756  0.1882
 3455SOL    HW221825   4.241   3.470   2.894 -1.2918  0.4802  0.3451
 3456SOL     OW21826   3.359   0.510   8.239 -0.3226 -0.2640 -0.2845
 3456SOL    HW121827   3.374   0.595   8.279  1.9079 -0.2335 -1.1833
 3456SOL    HW221828   3.410   0.507   8.158 -0.8932 -3.3214 -0.5431
 3457SOL     OW21829   3.502   1.165  17.594 -0.1792 -0.3304  0.0694
 3457SOL    HW121830   3.468   1.254  17.604 -0.2623 -0.1973 -1.4252
 3457SOL    HW221831   3.567   1.171  17.524 -0.5770 -1.5826 -0.3970
 3458SOL     OW21832   1.608   3.313   3.885  0.1901  0.6549  0.1403
 3458SOL    HW121833   1.612   3.270   3.800 -0.5786 -0.3146  0.5974
 3458SOL    HW221834   1.696   3.350   3.893 -0.1448  1.1512  1.5545
 3459SOL     OW21835   4.694   0.514  15.355  0.2207  0.0836  0.6418
 3459SOL    HW121836   4.630   0.575  15.317 -0.6752 -1.0364  0.3704
 3459SOL    HW221837   4.664   0.519  15.446  1.9141 -1.5212  1.2742
 3460SOL     OW21838   3.081   1.323  16.416  0.3234 -0.0263 -0.5857
 3460SOL    HW121839   3.007   1.384  16.414  2.1133  2.1841  0.2002
 3460SOL    HW221840   3.040   1.241  16.443  0.1082  0.7446  1.4547
 3461SOL     OW21841   3.698   0.373  14.794  0.3512  0.2893  0.2530
 3461SOL    HW121842   3.684   0.317  14.717 -0.3004  1.3608 -0.4198
 3461SOL    HW221843   3.764   0.322  14.841 -0.5090  1.6682  2.9268
 3462SOL     OW21844   3.052   1.114   8.921  0.2370 -0.3346 -0.3924
 3462SOL    HW121845   3.080   1.187   8.866 -1.6366 -0.8891 -2.0997
 3462SOL    HW221846   2.995   1.169   8.974  1.9178  0.5881  0.4405
 3463SOL     OW21847   4.013   0.518   0.394  0.1494 -0.1882  0.3736
 3463SOL    HW121848   3.934   0.554   0.353 -0.8914 -0.5792  2.0690
 3463SOL    HW221849   4.005   0.423   0.389  0.4773 -0.1127 -1.4238
 3464SOL     OW21850   4.611   1.395   2.423 -0.6759  0.2147 -0.1143
 3464SOL    HW121851   4.605   1.368   2.332 -0.2087  0.5249 -0.2366
 3464SOL    HW221852   4.645   1.312   2.458  1.1718  0.7812 -0.5694
 3465SOL     OW21853   4.595   4.667   1.165  0.0576 -0.0571  0.4632
 3465SOL    HW121854   4.590   4.700   1.254  0.3172 -0.7643  0.7397
 3465SOL    HW221855   4.691   4.669   1.156  0.0404 -0.7588  0.1649
 3466SOL     OW21856   4.243   3.662  14.837 -0.0866  0.1591 -0.0805
 3466SOL    HW121857   4.196   3.638  14.757 -1.2332 -0.3730  0.7592
 3466SOL    HW221858   4.179   3.638  14.904 -0.0809 -1.2882 -0.5941
 3467SOL     OW21859   0.382   1.371   3.467  0.5666  0.0352 -0.0041
 3467SOL    HW121860   0.348   1.460   3.475 -1.0363 -0.7580  2.0945
 3467SOL    HW221861   0.446   1.357   3.536 -0.7016  1.3871  1.4554
 3468SOL     OW21862   2.856   2.538   8.063 -0.1585 -0.2495  0.1481
 3468SOL    HW121863   2.841   2.626   8.028  0.2238 -0.2373  0.0150
 3468SOL    HW221864   2.890   2.555   8.151  0.1923  0.2178 -0.0804
 3469SOL     OW21865   2.815   1.794  13.909  0.0414 -0.3239  0.2246
 3469SOL    HW121866   2.781   1.737  13.977  0.8047  0.6910  1.4532
 3469SOL    HW221867   2.834   1.877  13.951 -1.1911 -0.0360  0.2051
 3470SOL     OW21868   3.887   2.971  11.973  0.3330  0.0897 -0.0355
 3470SOL    HW121869   3.796   2.993  11.952  0.0854  1.7957  2.7752
 3470SOL    HW221870   3.927   3.050  11.937  0.4832  0.5006  1.0153
 3471SOL     OW21871   1.413   2.316  14.247  0.3972 -0.3657  0.1668
 3471SOL    HW121872   1.469   2.283  14.317  0.8429 -1.7629 -0.8530
 3471SOL    HW221873   1.333   2.324  14.300  0.0990  0.5385 -0.4177
 3472SOL     OW21874   2.553   2.471   2.108  0.2518 -0.1015  0.2654
 3472SOL    HW121875   2.520   2.402   2.052 -0.5610  0.7954 -0.3606
 3472SOL    HW221876   2.599   2.526   2.044 -0.0435 -0.3995 -0.2027
 3473SOL     OW21877   2.877   1.499  14.346  0.2958 -0.6093 -0.3966
 3473SOL    HW121878   2.825   1.436  14.396  0.8310 -0.6646  0.0895
 3473SOL    HW221879   2.896   1.452  14.265 -0.1161  0.7575 -1.3002
 3474SOL     OW21880   0.811   2.423   6.382 -0.4394  0.0717  0.9004
 3474SOL    HW121881   0.788   2.421   6.475  0.1249  2.1662  1.0853
 3474SOL    HW221882   0.885   2.363   6.376 -0.0102  0.5808  1.1435
 3475SOL     OW21883   0.386   3.554   4.129  0.1426 -0.0788  0.1389
 3475SOL    HW121884   0.350   3.616   4.066 -2.5792  0.3161  2.0871
 3475SOL    HW221885   0.450   3.613   4.169  1.1613 -0.1318 -1.4280
 3476SOL     OW21886   1.513   2.903   7.247  0.3905  0.4829  0.2241
 3476SOL    HW121887   1.478   2.826   7.292 -0.3577 -0.4869 -2.0193
 3476SOL    HW221888   1.597   2.872   7.213  1.3998  1.6877  1.6305
 3477SOL     OW21889   2.896   1.335  10.762  0.1789 -0.0268 -0.1371
 3477SOL    HW121890   2.839   1.403  10.725 -1.4969 -1.9546 -1.0568
 3477SOL    HW221891   2.833   1.266  10.743 -0.1838  0.3633 -0.3567
 3478SOL     OW21892   3.603   3.248   4.162 -0.3390  0.2193  0.2940
 3478SOL    HW121893   3.633   3.310   4.095 -2.5388  2.1078  1.0681
 3478SOL    HW221894   3.537   3.199   4.112 -0.6128  0.9874 -0.0981
 3479SOL     OW21895   0.135   2.282   9.852  0.9293  0.1520  0.0328
 3479SOL    HW121896   0.159   2.197   9.816  0.6533  0.2409 -0.3666
 3479SOL    HW221897   0.185   2.269   9.932  1.4710 -0.0120 -0.3293
 3480SOL     OW21898   3.845   3.808   6.569 -0.5413  0.4321  0.1189
 3480SOL    HW121899   3.820   3.719   6.541  1.1071  0.4230 -1.2842
 3480SOL    HW221900   3.825   3.789   6.661  0.5277 -1.2275  0.0100
 3481SOL     OW21901   0.568   3.144   6.383  0.1556 -0.0410  0.0509
 3481SOL    HW121902   0.649   3.099   6.360 -1.3656 -1.7922 -1.8199
 3481SOL    HW221903   0.541   3.096   6.462 -1.3000  1.3662  0.4136
 3482SOL     OW21904   2.906   0.243   9.826 -0.2488 -0.6319  0.2538
 3482SOL    HW121905   2.818   0.228   9.861 -0.5081 -0.1803 -0.2116
 3482SOL    HW221906   2.915   0.337   9.841  0.1438 -0.7391  0.6902
 3483SOL     OW21907   2.990   1.486   4.403 -0.2832  0.3401 -0.0264
 3483SOL    HW121908   2.918   1.425   4.385 -0.5849  1.1524 -1.5420
 3483SOL    HW221909   3.066   1.432   4.424  0.8327  1.4535 -1.2306
 3484SOL     OW21910   1.790   2.511   1.592  0.7577 -0.3221 -0.0604
 3484SOL    HW121911   1.872   2.560   1.589  0.8121 -0.4662 -0.8326
 3484SOL    HW221912   1.815   2.459   1.669 -1.5555 -1.5214 -0.1343
 3485SOL     OW21913   1.983   0.650  10.964  0.3101  0.3313  0.0590
 3485SOL    HW121914   1.972   0.731  10.913  1.0194  1.0773  1.0847
 3485SOL    HW221915   2.070   0.671  10.999  0.7472 -1.5116  0.0452
 3486SOL     OW21916   2.186   4.436   3.486 -0.3228 -0.5362  0.3485
 3486SOL    HW121917   2.168   4.389   3.568 -3.0087  0.1405  0.1633
 3486SOL    HW221918   2.134   4.515   3.500 -1.2339 -1.0333 -0.2686
 3487SOL     OW21919   3.144   0.663   7.657  0.2451 -0.5869 -0.1998
 3487SOL    HW121920   3.049   0.666   7.646 -0.0368 -0.4806  2.2842
 3487SOL    HW221921   3.177   0.606   7.587  1.7896 -0.4457  0.4186
 3488SOL     OW21922   2.050   2.395   8.068 -0.5298  0.2300 -0.3534
 3488SOL    HW121923   2.114   2.341   8.021  0.8209  1.7157 -0.2119
 3488SOL    HW221924   2.090   2.399   8.155  0.3553 -0.9899 -0.6998
 3489SOL     OW21925   0.449   0.928   4.173  0.0146 -0.6901 -0.6072
 3489SOL    HW121926   0.466   1.019   4.146 -0.8019 -0.5958 -0.8183
 3489SOL    HW221927   0.354   0.927   4.158  0.3008 -1.1911 -2.3272
 3490SOL     OW21928   3.875   4.623   6.527  0.3190  0.4349 -0.0364
 3490SOL    HW121929   3.942   4.569   6.570 -0.4748  0.0140  0.6652
 3490SOL    HW221930   3.829   4.556   6.476  1.2732 -0.0500 -0.2594
 3491SOL     OW21931   2.357   0.945   6.582 -0.4708 -0.2593 -0.1960
 3491SOL    HW121932   2.395   1.011   6.639 -0.4666  0.9836 -1.6393
 3491SOL    HW221933   2.426   0.922   6.520  0.2738 -0.0072  0.5357
 3492SOL     OW21934   2.097   3.593   4.965 -0.1890  0.5842 -0.7822
 3492SOL    HW121935   2.039   3.669   4.959  0.4638  1.0443 -1.3043
 3492SOL    HW221936   2.140   3.607   4.880  1.5327  0.5591  0.0819
 3493SOL     OW21937   1.572   0.046   1.831 -0.0532  0.4976 -0.2845
 3493SOL    HW121938   1.504   4.710   1.800 -1.2673  0.5566  2.2566
 3493SOL    HW221939   1.523   0.120   1.867  0.2502 -0.0889  1.3406
 3494SOL     OW21940   4.567   1.820   3.683  0.1051 -0.3988 -0.4017
 3494SOL    HW121941   4.655   1.785   3.671 -0.4221 -2.6394  2.2412
 3494SOL    HW221942   4.516   1.760   3.629  0.5931 -0.8119 -0.3964
 3495SOL     OW21943   0.567   4.254  15.234  0.6540 -0.2160 -0.8685
 3495SOL    HW121944   0.566   4.165  15.197  1.8636  0.0059 -1.4583
 3495SOL    HW221945   0.624   4.233  15.308 -0.7750 -0.7724  0.0690
 3496SOL     OW21946   1.769   2.129  13.985  0.0594 -0.6422 -0.7538
 3496SOL    HW121947   1.704   2.198  14.000  0.8165 -0.4501  1.6942
 3496SOL    HW221948   1.846   2.166  14.029  0.8273 -3.4517  0.2356
 3497SOL     OW21949   4.631   0.830   6.942  0.4391 -0.6666 -0.2905
 3497SOL    HW121950   4.595   0.889   7.008 -1.3792 -1.7611 -0.3261
 3497SOL    HW221951   4.621   0.749   6.992 -2.1011  0.0132  0.2986
 3498SOL     OW21952   2.984   4.205   4.405 -0.1443 -0.4630 -0.9065
 3498SOL    HW121953   3.018   4.118   4.385 -1.5034 -1.6669  2.1204
 3498SOL    HW221954   2.995   4.244   4.318 -0.7723 -0.9124 -1.1807
 3499SOL     OW21955   3.289   1.334   2.146  0.1150 -0.3342 -0.4754
 3499SOL    HW121956   3.283   1.299   2.057 -0.3691  1.6405 -1.2341
 3499SOL    HW221957   3.269   1.253   2.192  2.3405 -2.1528 -2.7690
 3500SOL     OW21958   1.966   1.472  15.800 -0.4273 -0.2956  0.3933
 3500SOL    HW121959   2.055   1.497  15.823 -0.9042  1.2232  0.5399
 3500SOL    HW221960   1.957   1.394  15.856 -0.2467  0.5064  1.5402
 3501SOL     OW21961   0.683   2.628  12.423 -0.2421 -0.4903  0.0077
 3501SOL    HW121962   0.674   2.643  12.517  1.0244  0.3534 -0.0047
 3501SOL    HW221963   0.626   2.553  12.404 -0.7743  0.2240 -1.2239
 3502SOL     OW21964   4.199   2.686   8.395  0.4494  0.0547 -1.0256
 3502SOL    HW121965   4.204   2.626   8.321  2.5455 -3.1174  1.6329
 3502SOL    HW221966   4.211   2.618   8.462  1.9581  1.4083  0.0793
 3503SOL     OW21967   4.672   1.428   6.228 -0.0283  0.3002 -0.0878
 3503SOL    HW121968   4.646   1.363   6.294 -0.6894 -0.2601 -0.8986
 3503SOL    HW221969   4.645   1.397   6.141  0.0217 -0.1825  0.0683
 3504SOL     OW21970   2.133   3.081  14.240  0.3897 -0.4475 -0.2150
 3504SOL    HW121971   2.045   3.116  14.258  1.7750  3.0748 -0.3467
 3504SOL    HW221972   2.176   3.153  14.195  0.4093 -0.2219  0.1611
 3505SOL     OW21973   2.824   0.697   8.248 -0.0363 -0.3569  0.4617
 3505SOL    HW121974   2.900   0.650   8.213 -1.8247 -2.0204 -1.1736
 3505SOL    HW221975   2.799   0.652   8.329 -1.4484  1.5138  1.0504
 3506SOL     OW21976   1.820   1.963   7.767 -0.2030  0.1928 -0.5007
 3506SOL    HW121977   1.866   1.999   7.691  0.4570 -0.6631 -0.5081
 3506SOL    HW221978   1.847   2.019   7.840  1.0177 -1.0748  0.0187
 3507SOL     OW21979   1.111   4.687   7.245  0.4672  0.0273  0.0747
 3507SOL    HW121980   1.126   4.694   7.339 -1.3132  2.6983  0.1519
 3507SOL    HW221981   1.117   4.592   7.234  0.6676 -0.2287  2.3784
 3508SOL     OW21982   0.949   2.599   8.779  0.4685 -0.0559 -0.4849
 3508SOL    HW121983   0.932   2.600   8.873  1.6872  0.0109 -0.2715
 3508SOL    HW221984   1.044   2.608   8.784  0.7135 -1.3028 -2.8392
 3509SOL     OW21985   2.925   0.577   5.074  0.2875  0.2001 -0.4066
 3509SOL    HW121986   2.889   0.596   4.987 -1.0593 -0.6087 -0.0217
 3509SOL    HW221987   2.847   0.586   5.128 -0.9548 -3.3020 -1.6160
 3510SOL     OW21988   1.952   0.642   0.323 -0.6653  0.5743  0.1931
 3510SOL    HW121989   1.933   0.588   0.399 -1.8427 -1.2637 -1.4115
 3510SOL    HW221990   1.905   0.596   0.253 -1.7496 -1.9342  2.5861
 3511SOL     OW21991   2.530   3.159   6.262 -0.0975  0.1063  0.0683
 3511SOL    HW121992   2.526   3.110   6.344 -0.7438  0.1621  0.0732
 3511SOL    HW221993   2.446   3.139   6.220  0.6827 -0.5856 -1.1724
 3512SOL     OW21994   1.436   3.778   7.578  0.0342 -0.2319  0.0747
 3512SOL    HW121995   1.446   3.759   7.672  0.4924  0.1158  0.0974
 3512SOL    HW221996   1.501   3.849   7.576  0.9055 -0.9843  1.4197
 3513SOL     OW21997   1.379   0.449   3.015  0.5599 -0.3786  0.5456
 3513SOL    HW121998   1.363   0.453   2.921 -2.3989 -2.2239  0.9828
 3513SOL    HW221999   1.474   0.441   3.013  0.5455 -0.8460  1.5023
 3514SOL     OW22000   2.758   3.996   8.575  0.4326 -0.1118  0.3171
 3514SOL    HW122001   2.763   3.944   8.495 -3.0475  0.6597 -0.4242
 3514SOL    HW222002   2.805   4.077   8.554  1.3859 -1.2080 -1.8007
 3515SOL     OW22003   3.682   4.182  13.060  0.5783  0.0303 -0.0281
 3515SOL    HW122004   3.673   4.259  13.117 -0.5480 -0.1866  0.0709
 3515SOL    HW222005   3.697   4.222  12.975  0.5893 -1.8543 -0.9076
 3516SOL     OW22006   4.711   2.768   8.155  0.4123 -0.2841  0.1115
 3516SOL    HW122007   4.659   2.689   8.172 -0.0211 -0.1081 -0.3994
 3516SOL    HW222008   0.075   2.731   8.141  1.0149  1.0801  0.3139
 3517SOL     OW22009   3.920   1.516  14.549  0.0704  0.0366  0.5538
 3517SOL    HW122010   3.835   1.522  14.507 -0.4358 -0.3574  1.5275
 3517SOL    HW222011   3.956   1.428  14.537  0.5120  0.4731 -1.2989
 3518SOL     OW22012   3.444   1.109  11.018 -0.5840  0.3076 -0.2359
 3518SOL    HW122013   3.353   1.130  10.996 -1.1934 -3.0714 -1.0704
 3518SOL    HW222014   3.492   1.136  10.940 -1.3289 -2.1100 -1.5343
 3519SOL     OW22015   2.640   0.571   1.548 -0.0207 -0.5419  0.0152
 3519SOL    HW122016   2.690   0.514   1.607 -0.2817 -0.0777  0.6836
 3519SOL    HW222017   2.630   0.650   1.602  2.6752 -1.2335  1.5375
 3520SOL     OW22018   0.581   3.763   5.688 -0.2909  0.2113  0.5572
 3520SOL    HW122019   0.620   3.771   5.600 -1.2066 -1.7597 -0.0359
 3520SOL    HW222020   0.630   3.687   5.719 -0.4803 -0.2918 -0.3580
 3521SOL     OW22021   3.519   1.313  10.029 -0.0035  0.2445 -0.2382
 3521SOL    HW122022   3.571   1.315  10.109  0.0936  0.5843 -0.3076
 3521SOL    HW222023   3.575   1.343   9.957  0.4340 -1.3379 -0.5378
 3522SOL     OW22024   4.697   1.144  16.956  0.1308 -0.2086  0.0305
 3522SOL    HW122025   4.695   1.109  16.866  1.9625  0.4104 -0.2663
 3522SOL    HW222026   4.625   1.206  16.952 -0.2753 -0.6189  1.2182
 3523SOL     OW22027   0.654   1.552  17.124 -0.6089 -0.0258 -0.7899
 3523SOL    HW122028   0.738   1.595  17.142 -0.0591 -1.2301 -0.5062
 3523SOL    HW222029   0.668   1.484  17.190  0.1467  2.1359  1.2588
 3524SOL     OW22030   4.286   0.739  10.864  0.1664  0.0954 -0.0040
 3524SOL    HW122031   4.193   0.747  10.845 -0.1300  1.6168  2.1262
 3524SOL    HW222032   4.301   0.828  10.833  0.7610 -0.0838 -0.2438
 3525SOL     OW22033   4.284   4.090   2.345  0.5961  0.3754 -0.1635
 3525SOL    HW122034   4.372   4.051   2.343  0.7642  0.6854  1.1991
 3525SOL    HW222035   4.282   4.135   2.261  0.2897  1.7289  0.5664
 3526SOL     OW22036   3.428   1.171   5.444  0.0449 -1.3021 -0.2952
 3526SOL    HW122037   3.386   1.255   5.428 -0.8270 -1.2804  2.0786
 3526SOL    HW222038   3.517   1.204   5.430 -0.1285 -0.8587 -0.3572
 3527SOL     OW22039   1.519   4.485  10.249  0.0595  0.0082  0.1811
 3527SOL    HW122040   1.437   4.448  10.215 -0.8951  1.8635  0.4028
 3527SOL    HW222041   1.497   4.475  10.341 -0.8203 -1.0798 -0.1499
 3528SOL     OW22042   1.423   3.925   9.014 -0.0436 -0.3603 -0.5915
 3528SOL    HW122043   1.435   3.966   8.928 -0.7861 -0.1317 -0.5812
 3528SOL    HW222044   1.513   3.926   9.047  0.2697  0.8657 -1.4670
 3529SOL     OW22045   2.205   1.915   4.574  0.0496  0.5833  0.4678
 3529SOL    HW122046   2.224   1.941   4.664 -0.8490 -1.5549  1.2872
 3529SOL    HW222047   2.110   1.929   4.572 -0.1254 -0.4182  1.5481
 3530SOL     OW22048   4.589   0.372   6.085 -0.1201  0.2805 -0.6737
 3530SOL    HW122049   4.583   0.400   5.994  0.1597 -0.8871 -1.0545
 3530SOL    HW222050   4.659   0.308   6.071  0.1695  0.4827 -0.1386
 3531SOL     OW22051   2.397   1.288   5.077 -0.0535  0.0699  0.8422
 3531SOL    HW122052   2.404   1.263   5.169 -2.6065 -1.5095  0.6211
 3531SOL    HW222053   2.367   1.378   5.088  1.8372  1.0812 -2.3397
 3532SOL     OW22054   0.987   1.069   2.983 -0.7703 -0.4803  0.4202
 3532SOL    HW122055   1.037   1.115   2.915  1.9640 -2.8897  0.8434
 3532SOL    HW222056   0.898   1.104   2.975 -0.2666  1.1397  1.7396
 3533SOL     OW22057   3.568   4.578   0.376  0.0086 -0.2435  0.4024
 3533SOL    HW122058   3.660   4.573   0.350 -0.3281 -2.4545 -0.3962
 3533SOL    HW222059   3.511   4.570   0.300 -1.9947  1.1184  1.7908
 3534SOL     OW22060   0.747   3.272   6.912 -0.3287  0.3946 -0.2601
 3534SOL    HW122061   0.841   3.289   6.910 -0.6830  2.3065 -0.1722
 3534SOL    HW222062   0.725   3.313   6.995 -1.2443 -0.8805  0.1405
 3535SOL     OW22063   0.887   1.236   2.630  0.1163 -0.1848 -0.4107
 3535SOL    HW122064   0.941   1.171   2.585  0.6441 -0.4302  0.5793
 3535SOL    HW222065   0.952   1.296   2.667 -1.0762  0.6094  0.3952
 3536SOL     OW22066   4.430   3.748   5.865 -0.0759 -0.1534  0.0766
 3536SOL    HW122067   4.442   3.739   5.770 -0.5244 -1.4004  0.1381
 3536SOL    HW222068   4.355   3.807   5.871 -1.2888 -1.4108 -2.6825
 3537SOL     OW22069   0.930   3.083  14.569 -0.2649  0.2100  0.4997
 3537SOL    HW122070   0.958   3.166  14.529  2.4894 -1.1280 -0.3317
 3537SOL    HW222071   0.924   3.026  14.493  2.3958 -0.0619  0.4845
 3538SOL     OW22072   1.356   2.824   9.038  0.1819  0.0836  0.4800
 3538SOL    HW122073   1.265   2.828   9.008 -0.5379  1.6016  2.7777
 3538SOL    HW222074   1.344   2.778   9.121  0.1889  0.9714  0.9820
 3539SOL     OW22075   3.040   4.069  12.066  0.5443  0.0155 -0.2989
 3539SOL    HW122076   3.070   4.054  12.156 -1.4111 -0.4765  0.2837
 3539SOL    HW222077   3.013   3.979  12.047  1.6275 -0.3094 -0.2731
 3540SOL     OW22078   4.354   0.978   8.121  0.2409  0.1445  0.5730
 3540SOL    HW122079   4.277   0.921   8.120 -0.5503  1.2131  1.0218
 3540SOL    HW222080   4.365   1.000   8.029  0.9021  0.1604  0.6562
 3541SOL     OW22081   2.448   4.126   8.309 -0.2433 -0.2622  0.2806
 3541SOL    HW122082   2.412   4.173   8.234 -2.7540 -0.8609  1.1010
 3541SOL    HW222083   2.370   4.097   8.358 -1.1040  2.0742  0.2612
 3542SOL     OW22084   1.644   2.434  12.233  0.0798 -0.3405 -0.7528
 3542SOL    HW122085   1.700   2.373  12.185  1.7570  0.0078  0.7697
 3542SOL    HW222086   1.615   2.484  12.157 -1.0295  1.3406  0.7926
 3543SOL     OW22087   1.893   1.684  12.121  0.0209 -0.8958  0.1337
 3543SOL    HW122088   1.918   1.622  12.052 -0.2023  0.6894 -1.3554
 3543SOL    HW222089   1.799   1.666  12.120 -0.4132  1.3903 -0.5999
 3544SOL     OW22090   1.573   3.178   4.143  0.1383 -0.3086  0.3510
 3544SOL    HW122091   1.560   3.222   4.059  0.2131 -3.6960 -1.4383
 3544SOL    HW222092   1.512   3.105   4.136 -0.8896  0.4795  0.9947
 3545SOL     OW22093   3.510   1.340   3.275 -0.5326 -0.2083 -0.0681
 3545SOL    HW122094   3.529   1.361   3.366  0.7394 -0.5513 -0.2508
 3545SOL    HW222095   3.582   1.278   3.260 -3.3271 -3.1759 -1.1745
 3546SOL     OW22096   3.597   2.690   4.694 -0.3892 -0.7980  0.1147
 3546SOL    HW122097   3.541   2.751   4.647  0.8105  0.1562 -0.0929
 3546SOL    HW222098   3.664   2.689   4.626  0.3192  1.4009  0.7476
 3547SOL     OW22099   1.708   2.029   6.132  0.1867  0.3814 -0.9765
 3547SOL    HW122100   1.659   2.054   6.210 -2.7911  0.1241 -2.7454
 3547SOL    HW222101   1.787   1.992   6.170  0.0458  0.5922 -0.4762
 3548SOL     OW22102   0.564   3.916   6.813  0.4674 -0.4226 -0.6285
 3548SOL    HW122103   0.566   4.001   6.857 -0.8772 -1.1165  0.7742
 3548SOL    HW222104   0.640   3.864   6.838  1.2504  0.2910 -1.4939
 3549SOL     OW22105   4.596   0.966  11.990  0.0650 -0.0497  0.6123
 3549SOL    HW122106   4.574   1.014  12.070 -0.6870  2.1132 -0.9091
 3549SOL    HW222107   4.578   1.033  11.925 -0.3505 -1.6799 -0.9386
 3550SOL     OW22108   3.831   1.108  13.075  0.1323 -0.3292 -0.1947
 3550SOL    HW122109   3.763   1.054  13.035  2.8720 -1.5047 -3.3341
 3550SOL    HW222110   3.846   1.155  12.993  1.0902 -1.4163 -0.6487
 3551SOL     OW22111   1.528   4.575   8.377  0.6334  0.2084 -0.2583
 3551SOL    HW122112   1.452   4.546   8.429  0.8874  2.3174  1.3225
 3551SOL    HW222113   1.531   4.520   8.299  1.0138 -0.8903  0.5371
 3552SOL     OW22114   3.225   4.374  17.577  0.4157 -0.3359 -0.7125
 3552SOL    HW122115   3.133   4.391  17.557 -0.4402 -1.7376  2.0555
 3552SOL    HW222116   3.222   4.284  17.608 -1.9776  0.3321  1.0142
 3553SOL     OW22117   2.215   0.831  14.799  0.1118 -0.6539 -0.2803
 3553SOL    HW122118   2.219   0.803  14.891 -2.4811  1.8883  0.6341
 3553SOL    HW222119   2.306   0.836  14.769  0.2638  0.6654  0.3956
 3554SOL     OW22120   2.460   0.488   3.230 -0.1203 -0.0616 -0.0401
 3554SOL    HW122121   2.452   0.445   3.315 -0.9513 -1.3712 -0.7798
 3554SOL    HW222122   2.461   0.407   3.179 -1.1759  0.6644 -1.2231
 3555SOL     OW22123   2.118   3.538   7.927  0.6158 -0.6559  0.2117
 3555SOL    HW122124   2.095   3.607   7.865  2.3482 -0.2735 -0.0065
 3555SOL    HW222125   2.169   3.482   7.869 -0.5759 -0.8245 -0.6697
 3556SOL     OW22126   2.130   2.892   8.832 -0.2737 -0.4865 -0.2622
 3556SOL    HW122127   2.213   2.916   8.789 -0.6850 -0.6429 -1.1457
 3556SOL    HW222128   2.163   2.864   8.917  2.1445  1.4863 -0.5286
 3557SOL     OW22129   3.531   2.290   5.798 -0.0256  0.1190  0.4000
 3557SOL    HW122130   3.449   2.298   5.749  0.7729 -0.0352 -0.9655
 3557SOL    HW222131   3.581   2.357   5.752  2.1153 -1.7431  0.0139
 3558SOL     OW22132   1.841   0.394   2.605  0.0734 -0.5973  0.0716
 3558SOL    HW122133   1.758   0.375   2.562  0.3817 -0.4928 -0.5721
 3558SOL    HW222134   1.861   0.486   2.584 -1.7194  0.0713  1.3047
 3559SOL     OW22135   0.314   4.218  17.652 -0.1230  0.4486 -0.3880
 3559SOL    HW122136   0.255   4.189  17.582 -1.8708  2.8035  0.1302
 3559SOL    HW222137   0.363   4.290  17.612 -1.6532  0.8407 -1.5476
 3560SOL     OW22138   1.244   1.809   8.427 -0.5502 -0.0461  1.1756
 3560SOL    HW122139   1.316   1.852   8.473  0.5368  1.0437 -1.5407
 3560SOL    HW222140   1.297   1.758   8.366  1.3301  1.1943  1.7649
 3561SOL     OW22141   2.341   0.249  11.435 -0.1492 -0.1816 -0.2878
 3561SOL    HW122142   2.324   0.259  11.341 -0.2252  0.5919 -0.1940
 3561SOL    HW222143   2.265   0.300  11.464 -2.0943 -1.9472 -2.3733
 3562SOL     OW22144   0.153   3.633   2.940 -0.2232 -0.1276 -0.4871
 3562SOL    HW122145   0.199   3.711   2.969  0.4775 -0.2845 -1.1665
 3562SOL    HW222146   0.187   3.638   2.850  2.2518  0.9418  0.4991
 3563SOL     OW22147   1.586   3.476  14.797  0.5739 -0.1070  0.4653
 3563SOL    HW122148   1.539   3.508  14.874 -1.1878  0.1156 -0.7128
 3563SOL    HW222149   1.596   3.382  14.811 -2.7254 -0.4227  0.6726
 3564SOL     OW22150   2.686   4.559   2.167  0.7979 -0.1168  0.2047
 3564SOL    HW122151   2.694   4.646   2.207 -2.2229  0.5701 -0.6944
 3564SOL    HW222152   2.779   4.537   2.164  1.3446  2.1346  0.7991
 3565SOL     OW22153   0.058   1.484  17.600 -0.2253  0.1484  0.4674
 3565SOL    HW122154   0.125   1.438  17.651  0.2087 -0.1702 -0.3998
 3565SOL    HW222155   0.028   1.414  17.541 -0.8298 -0.3279  1.3370
 3566SOL     OW22156   2.676   3.847   6.895 -0.1535 -0.2210  0.7824
 3566SOL    HW122157   2.769   3.862   6.880  0.3240 -1.6993  2.2449
 3566SOL    HW222158   2.644   3.818   6.809 -0.8611 -0.4178  1.1094
 3567SOL     OW22159   2.830   0.126  11.012  0.0155 -0.0905  0.0780
 3567SOL    HW122160   2.771   0.114  11.086  1.1149  1.6082  1.2404
 3567SOL    HW222161   2.772   0.175  10.953 -0.4816  2.2538  2.5350
 3568SOL     OW22162   1.898   3.962  10.281 -0.0256  0.2849  0.2764
 3568SOL    HW122163   1.865   4.029  10.341 -1.9179 -1.7905  1.5347
 3568SOL    HW222164   1.958   4.013  10.226 -0.0988 -0.7524 -0.7613
 3569SOL     OW22165   1.415   2.362   2.157  0.5768 -0.4537 -0.1353
 3569SOL    HW122166   1.338   2.307   2.171 -0.9765  1.9641  0.9088
 3569SOL    HW222167   1.405   2.389   2.066 -0.2475 -0.9604 -0.1985
 3570SOL     OW22168   2.574   1.475   7.607 -0.2122  0.0995 -0.2069
 3570SOL    HW122169   2.540   1.564   7.612  1.0213  0.6040 -0.6080
 3570SOL    HW222170   2.665   1.504   7.594  0.1250 -0.8363  0.0779
 3571SOL     OW22171   4.438   3.932   0.595 -0.6390  0.6857  0.1176
 3571SOL    HW122172   4.462   3.840   0.601 -2.1553  0.4285  2.0475
 3571SOL    HW222173   4.362   3.941   0.653 -1.9975 -0.9066 -1.3957
 3572SOL     OW22174   2.918   3.190   8.601 -0.4658 -0.5535 -0.0618
 3572SOL    HW122175   2.862   3.113   8.601  0.3144 -1.1233 -1.0378
 3572SOL    HW222176   2.864   3.253   8.554  0.9430  1.2743  0.7902
 3573SOL     OW22177   4.578   2.329   2.829  0.0141  0.4508 -0.4765
 3573SOL    HW122178   4.530   2.331   2.746 -2.4463 -1.6278  0.8819
 3573SOL    HW222179   4.638   2.256   2.813 -1.1678 -0.6715  0.2031
 3574SOL     OW22180   0.564   3.222   2.932  0.0087 -0.4877 -0.2865
 3574SOL    HW122181   0.536   3.309   2.957  0.6159 -0.0477 -1.1198
 3574SOL    HW222182   0.595   3.246   2.844 -1.0368  1.4400 -0.1101
 3575SOL     OW22183   4.125   2.044   4.560  0.1219 -0.0418 -0.0224
 3575SOL    HW122184   4.097   2.045   4.652 -0.2496  0.2566 -0.1372
 3575SOL    HW222185   4.133   2.137   4.541  3.2942 -0.4379 -0.6643
 3576SOL     OW22186   3.924   2.642   8.354 -0.4015  0.0069  0.4728
 3576SOL    HW122187   4.014   2.674   8.362 -1.4012  2.9701  0.0153
 3576SOL    HW222188   3.893   2.704   8.287 -1.0393 -0.8081  0.0184
 3577SOL     OW22189   4.062   0.967  16.419  0.1208 -0.0971 -0.3735
 3577SOL    HW122190   4.041   1.006  16.504  2.0697  0.1738 -0.0109
 3577SOL    HW222191   4.122   1.038  16.394 -0.4364 -0.1860 -1.9252
 3578SOL     OW22192   2.023   0.360   3.194  0.6482  0.1648  0.6063
 3578SOL    HW122193   2.028   0.409   3.276  2.2273 -0.5402  0.9256
 3578SOL    HW222194   1.983   0.279   3.228 -0.2006  0.9282  1.4103
 3579SOL     OW22195   1.530   2.618   3.254  0.0286 -0.0891 -0.5533
 3579SOL    HW122196   1.509   2.630   3.346 -2.7609  0.0267 -1.2104
 3579SOL    HW222197   1.585   2.693   3.229  0.6479 -0.1744  0.5652
 3580SOL     OW22198   2.403   1.387   1.728  0.0511 -0.1289  0.0051
 3580SOL    HW122199   2.493   1.421   1.732  0.4026 -0.8076 -2.1151
 3580SOL    HW222200   2.406   1.351   1.816 -2.7342 -0.4138 -0.0494
 3581SOL     OW22201   2.231   3.708  15.319  0.3420 -0.0775 -0.4487
 3581SOL    HW122202   2.156   3.767  15.328 -1.2891 -2.0115 -1.1525
 3581SOL    HW222203   2.268   3.705  15.407 -2.6352 -0.2706  0.8133
 3582SOL     OW22204   4.273   2.756   7.746 -0.0203  0.3514  0.1700
 3582SOL    HW122205   4.341   2.818   7.722  0.6973 -0.3828  0.2787
 3582SOL    HW222206   4.320   2.684   7.789  0.1221 -0.6122 -1.6051
 3583SOL     OW22207   1.251   0.571   2.370  0.6745 -0.3182  0.1852
 3583SOL    HW122208   1.217   0.627   2.300 -1.1987 -0.1543  1.2079
 3583SOL    HW222209   1.329   0.607   2.412  2.2040 -0.1939 -2.8164
 3584SOL     OW22210   2.413   2.800   3.743  0.4951  1.0061  0.9259
 3584SOL    HW122211   2.497   2.803   3.788  0.0334  3.5862  1.5943
 3584SOL    HW222212   2.398   2.894   3.731  0.0589  0.6201 -1.6348
 3585SOL     OW22213   1.641   2.035   6.829  0.3057  0.2424  0.0828
 3585SOL    HW122214   1.696   2.005   6.902  1.0181 -2.3068 -1.5218
 3585SOL    HW222215   1.710   2.062   6.768 -0.3308  1.0617 -0.2650
 3586SOL     OW22216   2.763   1.134  10.600  0.2016 -0.3504 -0.0860
 3586SOL    HW122217   2.713   1.075  10.657 -0.1767 -0.2209 -0.2877
 3586SOL    HW222218   2.765   1.078  10.522  0.6249 -0.7165  0.1805
 3587SOL     OW22219   3.486   1.495  14.012 -0.5441  0.3218 -0.4873
 3587SOL    HW122220   3.575   1.526  14.030 -0.1335  0.9071 -3.5619
 3587SOL    HW222221   3.496   1.499  13.917  0.6259  0.8349 -0.3460
 3588SOL     OW22222   2.052   4.547   6.780  0.8663  0.8939  0.3463
 3588SOL    HW122223   2.052   4.496   6.699  2.9839 -0.0620  0.9477
 3588SOL    HW222224   1.959   4.568   6.773  0.4926 -0.2294  1.9318
 3589SOL     OW22225   0.465   3.692  12.455 -0.2795  0.2079  0.6163
 3589SOL    HW122226   0.388   3.685  12.398  0.8640  0.5441 -0.9780
 3589SOL    HW222227   0.504   3.762  12.403 -3.1116  2.2156  1.1794
 3590SOL     OW22228   1.737   0.674   7.202 -0.0664 -0.0124  0.3967
 3590SOL    HW122229   1.793   0.714   7.269 -0.8442 -0.8663  1.5653
 3590SOL    HW222230   1.663   0.659   7.261 -1.2137 -1.4659 -1.4321
 3591SOL     OW22231   4.444   1.551  13.565  0.0828 -0.0532  0.2686
 3591SOL    HW122232   4.469   1.635  13.603  1.5788 -0.6080  0.5333
 3591SOL    HW222233   4.526   1.522  13.525  0.9110  1.2232  1.0240
 3592SOL     OW22234   2.543   2.926   6.105  0.1972 -0.3126  0.3397
 3592SOL    HW122235   2.555   3.003   6.160 -0.9342 -0.0500  0.2112
 3592SOL    HW222236   2.594   2.860   6.153 -0.1082  0.7174  2.0963
 3593SOL     OW22237   2.591   0.777   7.634 -0.3293  0.2824  0.2766
 3593SOL    HW122238   2.591   0.691   7.676 -0.9895  0.1060 -0.0933
 3593SOL    HW222239   2.560   0.759   7.545  1.5550 -1.8113  0.0309
 3594SOL     OW22240   4.639   4.065   9.149  0.4259  0.0617  0.2824
 3594SOL    HW122241   4.719   4.096   9.192  1.3359  1.0982 -2.1542
 3594SOL    HW222242   4.652   3.971   9.163 -2.1255 -0.5815 -1.7428
 3595SOL     OW22243   1.232   1.458   1.479  0.3593  0.5651  0.6369
 3595SOL    HW122244   1.200   1.533   1.429  0.0105 -1.2186 -1.8144
 3595SOL    HW222245   1.323   1.484   1.496  0.2592 -0.2457  2.4238
 3596SOL     OW22246   0.570   1.380   7.724 -0.2094  0.3364  0.2092
 3596SOL    HW122247   0.520   1.359   7.803 -2.3645  2.3211 -0.6189
 3596SOL    HW222248   0.498   1.411   7.669  1.9019 -0.3397 -2.9550
 3597SOL     OW22249   1.962   3.290   4.722 -0.0402 -0.7065  0.2779
 3597SOL    HW122250   1.915   3.224   4.671 -1.6233  0.8550 -0.3027
 3597SOL    HW222251   1.900   3.358   4.695  1.7718  0.7142 -0.2958
 3598SOL     OW22252   2.555   2.159  17.444  0.5010 -0.3519 -0.4694
 3598SOL    HW122253   2.551   2.169  17.349  0.4965  1.3150 -0.2849
 3598SOL    HW222254   2.552   2.249  17.476 -1.8844 -0.7667  0.4448
 3599SOL     OW22255   3.448   2.323   4.546  0.4747  0.1664 -0.0491
 3599SOL    HW122256   3.530   2.286   4.513 -0.1819  0.2948 -1.8287
 3599SOL    HW222257   3.394   2.244   4.549  1.6839 -0.6053  1.5527
 3600SOL     OW22258   3.878   0.016   2.220 -0.2103  0.0524 -0.2847
 3600SOL    HW122259   3.933   4.666   2.195 -0.5709 -0.1129 -0.5924
 3600SOL    HW222260   3.941   0.087   2.211  0.9140 -0.9831 -0.5210
 3601SOL     OW22261   2.050   4.580  14.800  0.1210 -0.2166 -0.0279
 3601SOL    HW122262   1.990   4.636  14.850 -2.0746 -1.8022 -0.9141
 3601SOL    HW222263   2.120   4.642  14.780  0.4495 -0.3697  0.6220
 3602SOL     OW22264   3.639   1.407   0.664 -0.1757 -0.4566  0.4453
 3602SOL    HW122265   3.650   1.488   0.715  0.2487  0.5445 -1.2436
 3602SOL    HW222266   3.578   1.445   0.601  0.4914  0.2484  0.2199
 3603SOL     OW22267   2.116   2.417  10.043 -0.1670 -0.1889  0.8202
 3603SOL    HW122268   2.119   2.371  10.127  0.9201 -0.0107  0.8805
 3603SOL    HW222269   2.191   2.384   9.993  0.8461 -0.4231  2.4989
 3604SOL     OW22270   3.163   0.172   6.571  0.0963  0.5481 -0.8261
 3604SOL    HW122271   3.252   0.172   6.537  0.5380  1.0269  0.3426
 3604SOL    HW222272   3.180   0.171   6.665  0.9730  0.3089 -0.9928
 3605SOL     OW22273   4.530   2.953   6.123 -0.3358  0.3489  0.2027
 3605SOL    HW122274   4.558   3.044   6.132  0.4140  0.0222  1.2836
 3605SOL    HW222275   4.441   2.963   6.155 -0.9800 -3.8167 -0.2962
 3606SOL     OW22276   2.887   1.746  17.310  0.3161 -0.0663  0.1056
 3606SOL    HW122277   2.879   1.821  17.251 -1.7582  0.8532  1.5625
 3606SOL    HW222278   2.893   1.793  17.393 -1.0711  5.1231 -2.7382
 3607SOL     OW22279   1.433   3.801   7.880 -0.5672  0.1138  0.2188
 3607SOL    HW122280   1.412   3.885   7.837  2.5532  0.2611 -0.9844
 3607SOL    HW222281   1.388   3.813   7.963 -0.3374 -0.0518  0.3663
 3608SOL     OW22282   1.559   0.179   3.165 -0.0728  0.2418 -0.1017
 3608SOL    HW122283   1.472   0.211   3.187  0.9491  2.4466  0.7556
 3608SOL    HW222284   1.611   0.252   3.199  1.0764 -0.5210 -0.2285
 3609SOL     OW22285   1.371   3.850  11.608 -0.0077 -0.0579  0.0813
 3609SOL    HW122286   1.295   3.907  11.624 -0.3961 -0.3645 -0.6554
 3609SOL    HW222287   1.350   3.809  11.524  1.6689  1.0669 -0.8725
 3610SOL     OW22288   3.929   3.698  14.449  0.4778 -0.8720  0.0732
 3610SOL    HW122289   4.003   3.746  14.412 -0.6960  0.8691 -0.0418
 3610SOL    HW222290   3.898   3.651  14.372 -2.6204 -0.9061  1.3382
 3611SOL     OW22291   4.470   1.798  11.912 -0.1215  0.5681  0.9415
 3611SOL    HW122292   4.513   1.795  11.998  0.2739 -0.0446  0.7244
 3611SOL    HW222293   4.506   1.879  11.876  0.0429 -0.1524 -0.5070
 3612SOL     OW22294   4.530   0.132   9.298 -0.1371  0.4716 -0.9457
 3612SOL    HW122295   4.525   0.042   9.330  2.1817  0.9095  0.7143
 3612SOL    HW222296   4.582   0.179   9.364  0.5602 -1.0815 -0.3897
 3613SOL     OW22297   1.372   1.562   3.853 -0.4270 -0.2030 -0.2798
 3613SOL    HW122298   1.367   1.503   3.778  0.2484  1.1941 -1.4200
 3613SOL    HW222299   1.412   1.640   3.814  2.2893 -1.5259 -0.1865
 3614SOL     OW22300   3.341   0.696  11.234 -0.3416 -0.7014  0.2906
 3614SOL    HW122301   3.304   0.608  11.227 -2.5056  0.3666 -1.5545
 3614SOL    HW222302   3.298   0.752  11.169 -1.0359 -0.2184  1.1666
 3615SOL     OW22303   2.057   1.226   3.563 -0.3690  0.3074 -0.0518
 3615SOL    HW122304   2.034   1.261   3.649 -0.8983 -2.6560  1.0008
 3615SOL    HW222305   1.986   1.259   3.507 -0.6359 -1.9038 -1.0119
 3616SOL     OW22306   0.426   3.575   4.476 -0.0571  0.7317 -0.2955
 3616SOL    HW122307   0.460   3.486   4.472 -0.9298  0.3683  0.5638
 3616SOL    HW222308   0.340   3.555   4.511 -0.2084  1.2105 -0.3918
 3617SOL     OW22309   0.591   0.757   5.796 -0.3049  0.1305 -0.2185
 3617SOL    HW122310   0.570   0.773   5.704 -0.1959 -0.9995 -0.4395
 3617SOL    HW222311   0.501   0.738   5.822 -0.8703  3.4121  0.2253
 3618SOL     OW22312   0.105   4.364   9.535  0.1833  0.3644  0.0158
 3618SOL    HW122313   0.165   4.418   9.586  0.2333  0.7528 -0.4619
 3618SOL    HW222314   0.085   4.302   9.605 -1.7889  2.2103  1.0542
 3619SOL     OW22315   3.596   2.540   2.469 -0.1190 -0.0473 -0.1085
 3619SOL    HW122316   3.645   2.577   2.542  1.2324 -1.2596 -0.4032
 3619SOL    HW222317   3.586   2.452   2.505 -1.1244 -0.7578 -2.1000
 3620SOL     OW22318   1.115   1.478   4.321  0.0499  0.8700  0.4896
 3620SOL    HW122319   1.198   1.469   4.273 -0.6799 -0.1254 -0.5736
 3620SOL    HW222320   1.121   1.400   4.376 -1.0892  0.5844  0.2066
 3621SOL     OW22321   1.965   0.309  13.762  0.2851  0.3495 -0.3197
 3621SOL    HW122322   2.009   0.238  13.808 -0.9866 -0.9962 -1.2005
 3621SOL    HW222323   1.991   0.280  13.675 -0.1643 -1.8534  0.2951
 3622SOL     OW22324   4.196   2.293  17.299  0.3586 -0.4284  0.2040
 3622SOL    HW122325   4.136   2.363  17.273  1.7831  0.1580 -1.4707
 3622SOL    HW222326   4.241   2.340  17.369  0.0473 -0.0071  0.1171
 3623SOL     OW22327   2.880   2.107   1.220  0.3656 -0.0575  0.6236
 3623SOL    HW122328   2.811   2.162   1.184 -0.9225 -0.6443  2.2009
 3623SOL    HW222329   2.855   2.025   1.176 -1.6528  0.5380  0.6487
 3624SOL     OW22330   3.218   2.764   3.866  0.4451 -0.4522  0.3910
 3624SOL    HW122331   3.239   2.857   3.870 -3.7390  0.5196 -0.4273
 3624SOL    HW222332   3.219   2.752   3.771  0.7590  0.0368  0.3335
 3625SOL     OW22333   1.249   0.405  14.840 -0.6594  0.0095  0.1981
 3625SOL    HW122334   1.271   0.447  14.923  1.5726 -0.4706 -0.1449
 3625SOL    HW222335   1.247   0.311  14.857 -0.3980 -0.8661 -4.7332
 3626SOL     OW22336   1.151   3.109  16.871 -0.3101  0.2658  0.1956
 3626SOL    HW122337   1.244   3.095  16.887 -0.3769 -0.2839  0.1034
 3626SOL    HW222338   1.117   3.028  16.907 -0.5839  0.5040  0.4651
 3627SOL     OW22339   2.665   2.766   2.588 -0.7701 -0.3410  0.0457
 3627SOL    HW122340   2.670   2.680   2.629 -1.4452  0.5639  2.0370
 3627SOL    HW222341   2.613   2.810   2.656  0.9113  1.3624  0.2293
 3628SOL     OW22342   0.957   2.631   1.089 -0.2435 -0.2515 -0.1945
 3628SOL    HW122343   0.891   2.679   1.140  0.1954 -0.4231  0.5337
 3628SOL    HW222344   1.010   2.704   1.056 -0.5664  0.3580  0.6260
 3629SOL     OW22345   0.745   0.547   8.427 -0.7521 -0.0434 -0.8160
 3629SOL    HW122346   0.716   0.560   8.517 -0.4056 -0.6712 -0.6139
 3629SOL    HW222347   0.836   0.565   8.454 -1.4419  0.2589  1.2988
 3630SOL     OW22348   2.670   1.602   1.382  0.5845 -0.0401 -0.1266
 3630SOL    HW122349   2.748   1.591   1.327  0.1971  0.5967 -0.7866
 3630SOL    HW222350   2.652   1.694   1.363  0.2912 -0.4801 -1.9196
 3631SOL     OW22351   0.365   0.127   5.081 -0.0970 -0.3636  0.0148
 3631SOL    HW122352   0.274   0.134   5.110 -0.1736 -1.7924  0.1139
 3631SOL    HW222353   0.385   0.218   5.057 -1.3484  0.3319  1.5895
 3632SOL     OW22354   3.692   2.812  10.362  0.0453 -0.4620  0.4721
 3632SOL    HW122355   3.773   2.838  10.407  0.4928  1.0933 -1.2584
 3632SOL    HW222356   3.649   2.896  10.348  0.5339 -0.1092  1.0444
 3633SOL     OW22357   1.467   2.533   8.836  0.3696  0.3048  0.2590
 3633SOL    HW122358   1.430   2.541   8.924 -0.3339  1.9130 -0.1821
 3633SOL    HW222359   1.509   2.448   8.847  0.6461  0.3407 -0.5038
 3634SOL     OW22360   2.573   0.775   5.112 -0.2353 -0.0393  0.6993
 3634SOL    HW122361   2.580   0.811   5.200  0.2969  0.8663  0.2773
 3634SOL    HW222362   2.490   0.809   5.079  0.9567  1.5131 -0.6847
 3635SOL     OW22363   0.269   3.194   1.317 -0.1092  0.1552  0.6934
 3635SOL    HW122364   0.318   3.125   1.360 -0.1376  1.5661  2.9718
 3635SOL    HW222365   0.236   3.241   1.393 -1.3403 -0.2009  0.3835
 3636SOL     OW22366   1.495   3.440  13.440 -0.0545 -0.4731 -0.1154
 3636SOL    HW122367   1.449   3.522  13.459  1.1296 -0.1465  1.3768
 3636SOL    HW222368   1.453   3.392  13.511  0.1281 -0.9176 -0.3085
 3637SOL     OW22369   3.334   4.300   9.131 -0.0266  0.3571  0.4894
 3637SOL    HW122370   3.375   4.306   9.218 -1.7643  0.4950  1.2905
 3637SOL    HW222371   3.260   4.241   9.144  0.3402 -0.2319 -0.1029
 3638SOL     OW22372   1.672   0.370  12.065  0.0439 -0.1661 -0.1187
 3638SOL    HW122373   1.684   0.280  12.036  1.6671 -0.8688  2.7163
 3638SOL    HW222374   1.634   0.366  12.152 -0.4929  1.0149 -0.2991
 3639SOL     OW22375   0.792   1.384   1.585  0.2229  0.0064 -0.0256
 3639SOL    HW122376   0.817   1.426   1.667 -2.0943 -0.6359  1.0265
 3639SOL    HW222377   0.874   1.342   1.561  0.3580 -0.7014  1.7020
 3640SOL     OW22378   0.631   0.544   6.680 -0.1622  0.5001 -0.3531
 3640SOL    HW122379   0.563   0.511   6.620 -0.2747  1.4031 -0.7301
 3640SOL    HW222380   0.617   0.491   6.758  0.7569  1.6773  0.6128
 3641SOL     OW22381   2.896   3.828  15.446  0.9134  0.1763  0.1094
 3641SOL    HW122382   2.952   3.756  15.475  2.8518  2.3895  1.9266
 3641SOL    HW222383   2.867   3.805  15.358 -0.4564  0.6214  0.4318
 3642SOL     OW22384   2.529   1.773  12.744 -0.0789 -0.1268 -0.1400
 3642SOL    HW122385   2.487   1.748  12.662 -2.1921 -0.1978  0.9755
 3642SOL    HW222386   2.620   1.752  12.723 -0.5904 -0.6505 -1.8184
 3643SOL     OW22387   3.580   0.058   7.416 -0.1542  0.0954  0.5647
 3643SOL    HW122388   3.493   0.068   7.377  0.5589  0.9658 -0.7934
 3643SOL    HW222389   3.626   4.723   7.357 -3.1732  1.6934 -3.3549
 3644SOL     OW22390   3.737   1.472   4.837  0.1070 -0.1802 -0.1636
 3644SOL    HW122391   3.686   1.496   4.914 -0.5396  0.1413 -0.6980
 3644SOL    HW222392   3.672   1.415   4.797  0.6697 -0.7975 -0.2084
 3645SOL     OW22393   0.123   3.009  10.584 -0.3762  0.0373  1.0794
 3645SOL    HW122394   0.068   3.065  10.529  1.3027  2.2546  1.6426
 3645SOL    HW222395   0.077   3.000  10.668  1.4207 -3.9417  1.6620
 3646SOL     OW22396   2.612   0.572   9.792  0.1764  0.3484 -0.4075
 3646SOL    HW122397   2.568   0.631   9.730 -0.8044 -1.3869 -1.3691
 3646SOL    HW222398   2.554   0.498   9.776 -0.6794  0.7935  0.7051
 3647SOL     OW22399   1.581   0.230   4.452 -0.1204  0.3838 -0.0077
 3647SOL    HW122400   1.520   0.162   4.423  1.1872 -1.0640  0.6281
 3647SOL    HW222401   1.669   0.195   4.440 -0.3300 -0.5387  1.0483
 3648SOL     OW22402   1.637   2.808   5.002 -0.3254 -0.0519 -0.7224
 3648SOL    HW122403   1.715   2.855   5.033  0.6163 -0.9269 -1.7576
 3648SOL    HW222404   1.675   2.774   4.921 -1.8291 -0.1561 -1.3763
 3649SOL     OW22405   0.257   4.002  14.091  0.1536 -0.7845  0.0044
 3649SOL    HW122406   0.175   4.045  14.116 -0.3268 -1.8030  0.2029
 3649SOL    HW222407   0.223   3.930  14.037  3.2525 -0.7624 -1.9937
 3650SOL     OW22408   3.904   4.323   8.280  0.2633  0.3748  0.1196
 3650SOL    HW122409   3.954   4.244   8.297 -1.3859 -0.0897  2.8837
 3650SOL    HW222410   3.849   4.297   8.206 -0.4205 -0.0364  0.7669
 3651SOL     OW22411   2.763   1.441   9.815  0.0999 -0.2658 -0.4141
 3651SOL    HW122412   2.815   1.408   9.889  1.7728 -2.6237 -2.6581
 3651SOL    HW222413   2.728   1.359   9.780 -0.0128 -0.1290 -0.6196
 3652SOL     OW22414   4.350   1.291   2.501 -0.0240 -0.5837  0.0262
 3652SOL    HW122415   4.342   1.271   2.594 -1.9335  0.1672  0.0081
 3652SOL    HW222416   4.427   1.236   2.484  0.7523  0.2071  0.9805
 3653SOL     OW22417   4.105   2.885   0.605 -0.5600  0.2933 -0.1733
 3653SOL    HW122418   4.182   2.900   0.551 -0.7025 -1.4784 -0.8510
 3653SOL    HW222419   4.075   2.973   0.630 -0.4080  0.7854 -1.7126
 3654SOL     OW22420   1.991   0.296  10.186  0.3333 -0.1595 -0.6530
 3654SOL    HW122421   1.974   0.346  10.105 -2.8468  0.0896  0.1391
 3654SOL    HW222422   1.907   0.307  10.231  1.9887 -0.3691  2.5090
 3655SOL     OW22423   1.997   0.984   8.905  0.4858 -0.3550 -0.5188
 3655SOL    HW122424   1.975   0.891   8.909  2.3879 -0.6884  2.2126
 3655SOL    HW222425   2.053   0.996   8.828 -0.4247 -3.7635 -1.7013
 3656SOL     OW22426   3.679   3.529   4.491  0.1809  0.1554  0.1955
 3656SOL    HW122427   3.746   3.531   4.559 -0.3696  0.1885  0.7339
 3656SOL    HW222428   3.608   3.568   4.542  0.7923 -0.0248  1.1758
 3657SOL     OW22429   0.785   0.002   7.359 -0.6352 -0.2228  0.2034
 3657SOL    HW122430   0.838   0.072   7.395  0.6239 -1.1104  0.0659
 3657SOL    HW222431   0.822   4.718   7.271 -1.5345 -0.0364 -0.1980
 3658SOL     OW22432   0.722   3.004   0.091  0.1986 -0.5183  0.1328
 3658SOL    HW122433   0.655   3.063   0.056  0.0059  0.0600  1.4810
 3658SOL    HW222434   0.801   3.038   0.048  1.1366 -1.8643  0.7754
 3659SOL     OW22435   2.028   4.396   6.530 -0.0589  0.0067 -0.0110
 3659SOL    HW122436   2.062   4.311   6.502  1.0813  0.5553 -0.2925
 3659SOL    HW222437   1.937   4.374   6.554 -0.8314  1.1819 -1.8733
 3660SOL     OW22438   2.701   1.450  15.110 -0.4068  0.4664  0.8407
 3660SOL    HW122439   2.647   1.527  15.128  1.1845  1.9424 -0.6494
 3660SOL    HW222440   2.687   1.409  15.196  1.4280  1.3332  1.5635
 3661SOL     OW22441   1.980   1.008   3.012 -0.1278 -0.0342  0.3874
 3661SOL    HW122442   2.056   0.970   2.968 -1.7513  0.7320 -3.0740
 3661SOL    HW222443   1.916   1.002   2.941 -0.3838  2.8763  0.3731
 3662SOL     OW22444   4.546   3.943  15.463  0.3330 -0.1573  0.0049
 3662SOL    HW122445   4.545   3.889  15.383  1.9260 -0.4119  0.1668
 3662SOL    HW222446   4.516   3.885  15.533  1.4577 -0.5409  0.1692
 3663SOL     OW22447   1.598   2.535   6.466 -0.3825 -0.0301 -0.4157
 3663SOL    HW122448   1.676   2.480   6.453 -0.3444 -0.8496  3.1641
 3663SOL    HW222449   1.554   2.494   6.541  0.4492 -1.2936 -0.6148
 3664SOL     OW22450   3.753   0.275   8.702 -0.5174  0.3848 -0.2313
 3664SOL    HW122451   3.828   0.306   8.651  2.5489 -1.0090  3.3807
 3664SOL    HW222452   3.736   0.348   8.762  1.0953  0.2024  0.4487
 3665SOL     OW22453   0.682   4.561   4.106 -0.1862 -0.1680 -0.3089
 3665SOL    HW122454   0.720   4.646   4.126 -0.1581 -0.2805  0.1003
 3665SOL    HW222455   0.654   4.582   4.017 -2.9579 -0.4402  0.4906
 3666SOL     OW22456   3.624   2.351   7.660 -0.3138 -0.3413  0.1921
 3666SOL    HW122457   3.658   2.423   7.713  0.6157  0.2179 -1.1451
 3666SOL    HW222458   3.571   2.394   7.592  0.8059  0.9681  0.1527
 3667SOL     OW22459   3.530   2.547   8.657  0.1467 -0.6623  0.5342
 3667SOL    HW122460   3.536   2.457   8.625 -0.8016 -1.0683  1.4630
 3667SOL    HW222461   3.562   2.584   8.575 -1.5914  0.4044  0.3489
 3668SOL     OW22462   2.725   4.256   8.466 -0.4668 -0.0303 -0.0101
 3668SOL    HW122463   2.704   4.205   8.388 -0.7439  0.8338 -0.4978
 3668SOL    HW222464   2.774   4.325   8.421  0.1702 -0.0099  0.7152
 3669SOL     OW22465   4.294   3.472  15.247  0.0182  0.0952 -0.0203
 3669SOL    HW122466   4.387   3.448  15.251 -0.2022 -0.3657  2.4977
 3669SOL    HW222467   4.252   3.400  15.199 -1.3387  0.7338  0.2188
 3670SOL     OW22468   4.554   4.074   5.912 -0.2463 -0.0296  0.0694
 3670SOL    HW122469   4.537   4.027   5.994  0.4065  0.8005  0.6759
 3670SOL    HW222470   4.562   4.159   5.956 -1.0806 -1.2124  2.5143
 3671SOL     OW22471   4.237   0.217   4.720 -0.1739 -0.0196  0.2525
 3671SOL    HW122472   4.222   0.168   4.639  0.0994  0.7011 -0.2294
 3671SOL    HW222473   4.231   0.142   4.780 -0.1608 -1.2896 -1.3261
 3672SOL     OW22474   4.043   1.213   2.267 -0.5742 -0.8842 -0.0412
 3672SOL    HW122475   4.075   1.159   2.340 -2.3218 -2.4984 -0.4594
 3672SOL    HW222476   3.980   1.273   2.305 -0.5641 -0.9238  0.0388
 3673SOL     OW22477   2.869   3.869  11.954  0.1185  0.2976 -0.3705
 3673SOL    HW122478   2.821   3.874  12.036 -1.1345 -0.8816 -1.0282
 3673SOL    HW222479   2.819   3.802  11.907 -0.4474  1.1363 -0.9741
 3674SOL     OW22480   4.120   2.978   0.005  0.6973  0.7669  0.0546
 3674SOL    HW122481   4.145   2.962  17.609  0.3570 -1.6607  0.3727
 3674SOL    HW222482   4.198   2.934   0.041 -0.2609 -0.6178  0.4437
 3675SOL     OW22483   2.112   3.381   7.545 -0.4986 -0.9717  1.5160
 3675SOL    HW122484   2.032   3.429   7.524  1.7914  1.9972 -0.5141
 3675SOL    HW222485   2.130   3.341   7.461  0.7823  0.9195  0.8831
 3676SOL     OW22486   2.439   2.279   4.744 -0.8149  0.3375  0.2069
 3676SOL    HW122487   2.352   2.268   4.783 -0.1263  2.1235  2.3052
 3676SOL    HW222488   2.485   2.325   4.815 -0.1627  1.7282 -1.1192
 3677SOL     OW22489   1.191   2.042   0.913  0.2472  0.2393  0.7860
 3677SOL    HW122490   1.263   2.080   0.862 -0.5726 -1.1419 -1.4105
 3677SOL    HW222491   1.207   2.095   0.991  0.4327 -0.9669  1.5675
 3678SOL     OW22492   0.559   0.455   9.774  0.0167 -1.0152  0.2612
 3678SOL    HW122493   0.636   0.504   9.746 -0.2517 -0.7561 -0.0347
 3678SOL    HW222494   0.581   0.384   9.835 -3.5203 -1.4607  1.0116
 3679SOL     OW22495   2.798   0.393  13.514 -0.2362  0.0621  0.5315
 3679SOL    HW122496   2.767   0.478  13.484 -0.6518 -0.8516 -1.6638
 3679SOL    HW222497   2.885   0.408  13.550 -0.1262 -0.9049  0.6795
 3680SOL     OW22498   4.182   4.432   0.411  0.1226  0.2046 -0.0321
 3680SOL    HW122499   4.195   4.348   0.455  3.3224  1.0913  0.6931
 3680SOL    HW222500   4.209   4.423   0.320  0.5428 -0.2320  0.1411
 3681SOL     OW22501   2.737   1.822   0.289  0.1021  0.0235 -0.0431
 3681SOL    HW122502   2.670   1.821   0.358 -0.7895 -0.5002 -0.9029
 3681SOL    HW222503   2.815   1.811   0.344  0.3474 -0.9777 -0.5886
 3682SOL     OW22504   0.441   1.415   7.208 -0.2887  0.0287  0.1691
 3682SOL    HW122505   0.404   1.418   7.296 -0.7885  0.6343 -0.0579
 3682SOL    HW222506   0.466   1.323   7.213 -2.1461 -0.4337  1.1936
 3683SOL     OW22507   2.851   0.444   6.026 -0.6632  0.1904  0.2413
 3683SOL    HW122508   2.774   0.398   5.991 -0.3462 -1.5788  1.8502
 3683SOL    HW222509   2.906   0.365   6.025 -0.0811  0.6077 -0.2055
 3684SOL     OW22510   1.840   1.803  13.081  0.8712  0.2511 -1.0450
 3684SOL    HW122511   1.810   1.716  13.109 -1.0890  0.8325 -1.3358
 3684SOL    HW222512   1.874   1.842  13.162  0.8582  1.6007 -1.6949
 3685SOL     OW22513   4.459   3.766  16.745  0.0399 -0.0764 -0.7988
 3685SOL    HW122514   4.481   3.674  16.730  0.7037 -0.1670  0.8014
 3685SOL    HW222515   4.542   3.797  16.779 -1.1731  0.3193  1.7859
 3686SOL     OW22516   0.869   4.430   0.098  0.3995  0.1704 -0.0515
 3686SOL    HW122517   0.943   4.390   0.143 -1.1127 -1.4475  0.9569
 3686SOL    HW222518   0.881   4.390   0.012  0.5854 -0.6110  0.3402
 3687SOL     OW22519   1.069   4.675   8.096 -0.6296  0.0922  0.4052
 3687SOL    HW122520   1.034   4.609   8.155  0.0150  0.3446  1.0721
 3687SOL    HW222521   1.157   4.641   8.079 -1.5744 -0.9059 -2.5710
 3688SOL     OW22522   4.375   3.035  13.404  0.0113  0.0171  0.2350
 3688SOL    HW122523   4.334   3.111  13.445 -0.2644  0.2262 -0.4395
 3688SOL    HW222524   4.423   2.999  13.478  0.9413  3.6199  1.3970
 3689SOL     OW22525   2.432   1.987   7.578  0.3186 -0.6252 -0.3603
 3689SOL    HW122526   2.524   2.011   7.573  0.0855  0.5358  0.7429
 3689SOL    HW222527   2.392   2.057   7.527  0.9435 -0.3946 -0.5216
 3690SOL     OW22528   3.803   2.505  12.677 -0.7218 -0.2271 -0.3974
 3690SOL    HW122529   3.793   2.555  12.596  0.7316 -2.0315 -1.7059
 3690SOL    HW222530   3.895   2.516  12.701 -1.0252 -1.1851  1.1834
 3691SOL     OW22531   3.698   4.339   9.669  0.0797  0.0008 -0.9368
 3691SOL    HW122532   3.624   4.286   9.697  0.4849  0.8466  1.7281
 3691SOL    HW222533   3.718   4.398   9.742 -1.6080  0.2416 -0.6790
 3692SOL     OW22534   1.731   0.218   4.039 -0.4771 -0.7841 -0.1728
 3692SOL    HW122535   1.806   0.198   4.094 -1.4851 -0.7663  1.2294
 3692SOL    HW222536   1.664   0.175   4.093 -0.7913 -1.1406 -0.8476
 3693SOL     OW22537   3.533   0.416   4.507 -0.1049 -0.3767 -0.0770
 3693SOL    HW122538   3.565   0.334   4.544 -0.5084  0.1920  1.5023
 3693SOL    HW222539   3.448   0.386   4.472 -0.4105  1.0127 -0.5338
 3694SOL     OW22540   0.254   4.579   3.338 -0.0570  0.6232  0.3681
 3694SOL    HW122541   0.277   4.557   3.248 -0.5314 -1.2595  0.7033
 3694SOL    HW222542   0.298   4.508   3.384 -2.1343 -0.3186  0.8973
 3695SOL     OW22543   0.585   0.022  10.589 -0.3217 -0.5813 -0.4715
 3695SOL    HW122544   0.517   0.059  10.533  1.4427  1.4811 -1.2711
 3695SOL    HW222545   0.650   0.011  10.519 -0.1650  0.7016 -0.5298
 3696SOL     OW22546   2.070   4.135  10.196 -0.4646 -0.0307  0.4579
 3696SOL    HW122547   2.136   4.198  10.168  2.3881 -2.7170  1.2333
 3696SOL    HW222548   2.000   4.196  10.220 -0.2484  1.5854 -3.0774
 3697SOL     OW22549   1.112   0.628   1.794  0.1861 -0.0190  0.5012
 3697SOL    HW122550   1.138   0.717   1.819 -0.4950  0.1835  0.4866
 3697SOL    HW222551   1.045   0.633   1.726  1.1477 -1.0687 -0.5217
 3698SOL     OW22552   3.586   3.965   6.831  0.5672  0.2310  0.1834
 3698SOL    HW122553   3.577   4.031   6.762  0.0600  0.5522  0.5572
 3698SOL    HW222554   3.498   3.954   6.866  0.1799 -0.4818 -1.0135
 3699SOL     OW22555   2.294   3.475  17.626  0.5947 -0.1115 -0.5981
 3699SOL    HW122556   2.331   3.421  17.556 -1.0779 -1.8816 -0.1212
 3699SOL    HW222557   2.210   3.490  17.583  0.1514  0.5378  0.4858
 3700SOL     OW22558   4.616   4.006   4.980 -0.1305  0.1168 -0.3179
 3700SOL    HW122559   4.543   4.065   4.998  1.4069  1.3987  1.7385
 3700SOL    HW222560   4.581   3.973   4.898  0.8697 -1.3676 -0.1479
 3701SOL     OW22561   4.583   4.383   4.524  0.0073  0.3296  0.0316
 3701SOL    HW122562   4.501   4.358   4.480  0.4452 -0.7075 -0.1898
 3701SOL    HW222563   4.637   4.305   4.529 -3.9024 -2.3327  1.0915
 3702SOL     OW22564   0.352   2.160   8.818  0.2647 -0.2613 -0.1564
 3702SOL    HW122565   0.391   2.081   8.855 -0.7941 -0.9310 -0.4576
 3702SOL    HW222566   0.380   2.157   8.727  0.8400  4.1496 -0.0914
 3703SOL     OW22567   4.203   3.326  10.535  0.3024  0.2844 -0.2525
 3703SOL    HW122568   4.189   3.266  10.462  0.8174 -1.4130  1.0635
 3703SOL    HW222569   4.119   3.371  10.534 -0.2176 -0.7637 -3.1987
 3704SOL     OW22570   0.066   0.676  14.876  0.3720 -0.0919 -0.2535
 3704SOL    HW122571   0.050   0.646  14.787  0.7380  1.9514 -0.9991
 3704SOL    HW222572   0.097   0.767  14.871  0.4651 -0.0297  1.4647
 3705SOL     OW22573   0.766   0.033   8.085  0.0683  0.4787 -0.1676
 3705SOL    HW122574   0.819   4.716   8.016  1.0575  2.4880 -0.5911
 3705SOL    HW222575   0.829   0.092   8.126  0.4496  1.3587 -2.0540
 3706SOL     OW22576   1.690   0.952  14.066 -0.1193  0.0876 -0.0961
 3706SOL    HW122577   1.739   0.936  14.146 -0.1368 -3.5130 -0.7679
 3706SOL    HW222578   1.762   0.993  14.019 -0.0309 -0.7867 -0.7199
 3707SOL     OW22579   0.859   2.519   7.909 -0.5422  0.2827  0.1979
 3707SOL    HW122580   0.912   2.546   7.983 -0.8667 -0.2470  0.6257
 3707SOL    HW222581   0.870   2.596   7.853  0.0918 -0.7529 -1.1138
 3708SOL     OW22582   2.413   3.943   3.029 -0.2783 -0.6623 -0.2352
 3708SOL    HW122583   2.346   3.876   3.013 -1.4535  0.8042 -1.5473
 3708SOL    HW222584   2.490   3.888   3.024  0.2142  0.1378 -1.6531
 3709SOL     OW22585   4.336   3.641   7.668  0.5364 -0.5737  0.0159
 3709SOL    HW122586   4.349   3.722   7.718 -1.0223 -0.5431  0.3747
 3709SOL    HW222587   4.308   3.676   7.584 -2.1202  0.0053  1.1508
 3710SOL     OW22588   1.791   2.901   7.621  0.1570  0.0594  0.3677
 3710SOL    HW122589   1.817   2.810   7.606  0.6759  0.2830 -0.0908
 3710SOL    HW222590   1.789   2.896   7.717  0.0745 -0.0550  0.3607
 3711SOL     OW22591   1.975   1.210   0.356 -0.6387 -0.1111 -0.3387
 3711SOL    HW122592   1.993   1.271   0.284  1.9165  0.7690  1.0467
 3711SOL    HW222593   1.933   1.258   0.427 -0.7098  0.8632 -1.0488
 3712SOL     OW22594   2.038   1.742   7.915  1.1827  0.4082 -0.1215
 3712SOL    HW122595   2.090   1.670   7.879 -0.4032  0.3785 -2.3379
 3712SOL    HW222596   2.023   1.718   8.007  0.5293  0.3900 -0.2273
 3713SOL     OW22597   1.332   2.059  17.008 -0.3584 -0.1996 -0.1409
 3713SOL    HW122598   1.371   1.979  16.972 -3.3005 -1.1991 -1.1714
 3713SOL    HW222599   1.313   2.112  16.930 -1.8896 -0.2537  0.2013
 3714SOL     OW22600   0.480   1.192   4.428  0.1083 -0.2798 -0.1122
 3714SOL    HW122601   0.489   1.101   4.456 -0.2214 -0.4011 -0.3902
 3714SOL    HW222602   0.517   1.184   4.340 -1.4620 -1.4256 -0.6813
 3715SOL     OW22603   1.019   0.501  15.797 -0.4858  0.3177  0.3756
 3715SOL    HW122604   0.970   0.499  15.879 -0.8120 -2.2580  0.1193
 3715SOL    HW222605   1.092   0.448  15.829 -0.1108  0.1838 -0.7023
 3716SOL     OW22606   3.219   3.919   6.761  0.3698  0.0908 -1.0043
 3716SOL    HW122607   3.270   3.857   6.813 -0.5257  0.6871  0.5878
 3716SOL    HW222608   3.216   3.892   6.669  2.5612 -1.1878 -0.6932
 3717SOL     OW22609   3.954   4.619  11.822 -0.0102 -0.4428 -0.2299
 3717SOL    HW122610   3.927   4.663  11.742  2.6589 -0.8198 -1.3221
 3717SOL    HW222611   3.994   4.543  11.778 -0.9026  0.2870 -2.3064
 3718SOL     OW22612   2.364   0.120   9.856 -0.3341 -0.3213  0.7506
 3718SOL    HW122613   2.337   0.123   9.948  3.2309 -1.4147  1.8491
 3718SOL    HW222614   2.294   0.066   9.819  0.3375 -1.8164  1.6501
 3719SOL     OW22615   1.509   0.398   8.803  0.1660 -0.1021 -0.6099
 3719SOL    HW122616   1.551   0.396   8.717  0.2372 -1.0796 -0.5511
 3719SOL    HW222617   1.418   0.371   8.789  0.5482 -1.5289 -0.3657
 3720SOL     OW22618   4.105   4.677   3.427 -0.3619  0.5561 -0.2806
 3720SOL    HW122619   4.172   4.722   3.376 -0.0824  1.7520  1.1351
 3720SOL    HW222620   4.020   4.706   3.396 -0.1499  0.8067 -0.6294
 3721SOL     OW22621   2.956   2.117   7.906 -0.3945  0.3198 -0.3618
 3721SOL    HW122622   3.000   2.058   7.844  1.4821  1.7665 -0.3916
 3721SOL    HW222623   2.865   2.087   7.915 -0.2881  0.4459  1.0175
 3722SOL     OW22624   1.486   4.067  15.201 -0.3092 -0.2269  0.0477
 3722SOL    HW122625   1.498   4.005  15.273 -0.0444 -0.1638  0.0613
 3722SOL    HW222626   1.551   4.135  15.222  0.2667 -0.6538 -0.3502
 3723SOL     OW22627   0.687   0.223   4.910  0.2005  0.2623  0.9478
 3723SOL    HW122628   0.779   0.197   4.909  0.2233  0.4088 -0.2795
 3723SOL    HW222629   0.644   0.144   4.878  1.2261 -0.8561  2.3187
 3724SOL     OW22630   0.507   0.434   8.880 -0.2239  0.0109  0.2454
 3724SOL    HW122631   0.513   0.528   8.866 -0.3565  0.1017  0.7946
 3724SOL    HW222632   0.475   0.433   8.971 -1.7050 -2.2503 -0.2936
 3725SOL     OW22633   3.245   4.569   3.730  0.1628 -0.1219 -0.2710
 3725SOL    HW122634   3.325   4.608   3.765  0.9334 -1.3287 -0.7043
 3725SOL    HW222635   3.273   4.510   3.660 -0.2473 -0.1846 -0.3840
 3726SOL     OW22636   3.972   3.039   6.950  0.5866  0.1269 -0.3493
 3726SOL    HW122637   3.895   3.063   6.899  0.2487  2.5159  1.2874
 3726SOL    HW222638   3.934   2.991   7.023  2.4916  0.7933  1.0905
 3727SOL     OW22639   4.289   1.548   7.763  0.1281  0.0365  0.0966
 3727SOL    HW122640   4.350   1.602   7.814  1.5031 -1.1631 -0.2564
 3727SOL    HW222641   4.350   1.522   7.693  0.6343 -1.3877  1.0676
 3728SOL     OW22642   3.844   1.443   2.810  0.2400  0.9955  0.1187
 3728SOL    HW122643   3.826   1.371   2.871 -0.1386  1.6904  0.8268
 3728SOL    HW222644   3.907   1.491   2.864  0.2598 -1.1646  2.0393
 3729SOL     OW22645   1.621   0.945  12.132 -0.4273  0.3913  0.2834
 3729SOL    HW122646   1.638   0.909  12.045  1.0915  2.5968 -0.3332
 3729SOL    HW222647   1.618   0.861  12.178 -0.0890 -0.2001 -0.7524
 3730SOL     OW22648   1.569   2.925   8.671  0.0669  0.5917  0.3127
 3730SOL    HW122649   1.647   2.893   8.626  0.4940  2.9003 -0.5865
 3730SOL    HW222650   1.606   2.901   8.756  0.3393 -0.5926 -0.1442
 3731SOL     OW22651   4.703   3.296   6.494  0.4511  0.1848  0.5368
 3731SOL    HW122652   4.635   3.359   6.469  0.2547  0.0083  0.6180
 3731SOL    HW222653   4.712   3.316   6.587  1.4430  1.1472  0.2373
 3732SOL     OW22654   0.059   1.359   5.094 -0.4198  0.0086  0.0618
 3732SOL    HW122655   4.709   1.417   5.114  0.5483  1.1484  0.2995
 3732SOL    HW222656   0.016   1.302   5.030  0.0211  1.7536 -1.7802
 3733SOL     OW22657   4.550   1.598   4.224 -0.0025  0.1245  0.3070
 3733SOL    HW122658   4.544   1.680   4.273  0.2277  0.4929 -0.2816
 3733SOL    HW222659   4.542   1.628   4.133  0.9496 -3.1669 -0.8614
 3734SOL     OW22660   3.535   0.984  11.239  0.5898  0.0431  0.0857
 3734SOL    HW122661   3.600   1.052  11.222 -0.9433  1.3767 -0.4967
 3734SOL    HW222662   3.478   1.024  11.173  0.9852 -1.9688 -1.4550
 3735SOL     OW22663   4.093   0.006   3.908  0.0739 -0.3588  0.2793
 3735SOL    HW122664   4.128   0.038   3.991  1.7290 -1.4969  0.0378
 3735SOL    HW222665   4.032   0.076   3.888 -0.6182 -1.3094 -0.9192
 3736SOL     OW22666   3.914   3.908   9.352 -0.2396  0.5568 -0.3276
 3736SOL    HW122667   3.889   3.954   9.272  1.2009  0.9398 -0.5578
 3736SOL    HW222668   3.915   3.981   9.413 -0.1141  1.2110 -1.1093
 3737SOL     OW22669   4.711   4.085   8.457  0.0048 -0.3812  0.0925
 3737SOL    HW122670   0.056   4.018   8.453  0.2700  0.0091 -1.6509
 3737SOL    HW222671   0.032   4.167   8.435  0.1294 -1.2136 -2.7274
 3738SOL     OW22672   0.950   2.383  13.452  0.0110  0.3158  0.0459
 3738SOL    HW122673   0.964   2.477  13.455 -1.0131  0.4494  0.5921
 3738SOL    HW222674   0.980   2.353  13.366  2.2739  4.0865 -0.4786
 3739SOL     OW22675   1.523   0.028   0.817 -0.1035 -0.5958  0.1243
 3739SOL    HW122676   1.553   0.119   0.809  1.2675 -1.3856 -3.5234
 3739SOL    HW222677   1.590   4.699   0.772 -0.0008  1.0864 -1.6814
 3740SOL     OW22678   1.370   4.164   4.826  0.4880 -0.0524  0.4805
 3740SOL    HW122679   1.440   4.189   4.765 -0.8109 -0.9436 -1.3627
 3740SOL    HW222680   1.399   4.081   4.863  1.8770 -0.3523 -1.2121
 3741SOL     OW22681   4.559   2.813   2.078 -0.2348  0.0254 -0.3412
 3741SOL    HW122682   4.567   2.856   1.993 -1.3592  2.2267  0.6913
 3741SOL    HW222683   4.636   2.756   2.081 -0.4557 -0.2976 -0.8422
 3742SOL     OW22684   2.856   0.966  10.132 -0.0588 -0.5660  0.2554
 3742SOL    HW122685   2.825   1.020  10.059  0.6992 -1.9175 -1.0624
 3742SOL    HW222686   2.833   1.037  10.193 -1.7435 -0.1884 -0.8300
 3743SOL     OW22687   1.087   3.321  14.416 -0.2694  0.0220  0.5972
 3743SOL    HW122688   1.031   3.363  14.351  2.3168  1.5695 -0.5874
 3743SOL    HW222689   1.150   3.392  14.425  0.1278 -0.3701  0.9037
 3744SOL     OW22690   2.368   1.594   3.540  0.0072  0.5804 -0.4521
 3744SOL    HW122691   2.346   1.589   3.447 -0.4142  0.0987 -0.3281
 3744SOL    HW222692   2.327   1.512   3.568  1.7007 -0.1018  0.1015
 3745SOL     OW22693   0.329   2.897  10.976 -0.2111  0.5859  0.3986
 3745SOL    HW122694   0.360   2.903  10.886  1.2660 -1.7667  0.7469
 3745SOL    HW222695   0.350   2.982  11.013 -0.8788  0.8209  0.2383
 3746SOL     OW22696   0.473   1.806   2.778  0.4698 -0.2805 -0.2694
 3746SOL    HW122697   0.501   1.849   2.858 -1.8879  0.4498  0.1677
 3746SOL    HW222698   0.535   1.734   2.763  1.2514  0.3098  0.1572
 3747SOL     OW22699   1.736   1.257   6.850 -0.1203 -0.4298  0.6109
 3747SOL    HW122700   1.693   1.222   6.928  0.2100 -0.2504  0.8680
 3747SOL    HW222701   1.776   1.331   6.895 -0.1693 -0.5012  0.7719
 3748SOL     OW22702   3.323   2.691   2.434  0.3852  0.0271 -0.9176
 3748SOL    HW122703   3.309   2.679   2.340  0.8614  1.8794 -1.2173
 3748SOL    HW222704   3.382   2.618   2.452  1.1033  0.1274 -2.8071
 3749SOL     OW22705   2.874   1.174  11.249 -0.0796 -0.2463  0.0156
 3749SOL    HW122706   2.863   1.171  11.344  0.1651 -1.5617 -0.0032
 3749SOL    HW222707   2.894   1.266  11.230 -1.1329 -0.0830 -0.2804
 3750SOL     OW22708   1.257   0.290   8.200  0.2467  0.2801 -0.3135
 3750SOL    HW122709   1.167   0.259   8.208  0.2514  0.7657  1.5908
 3750SOL    HW222710   1.276   0.305   8.293 -0.3852 -0.5932 -0.0408
 3751SOL     OW22711   1.808   2.519  11.904  0.5073 -0.2536 -0.5049
 3751SOL    HW122712   1.745   2.572  11.955 -0.4389 -0.3654 -1.5581
 3751SOL    HW222713   1.765   2.435  11.919  2.1935 -1.0817 -0.3947
 3752SOL     OW22714   1.820   3.414   1.662 -0.4553  0.2090 -0.4746
 3752SOL    HW122715   1.735   3.455   1.648 -1.9187 -2.5906  0.4011
 3752SOL    HW222716   1.809   3.357   1.738 -1.1662  0.4622 -0.3938
 3753SOL     OW22717   3.430   2.367   1.698 -0.2048 -0.2268 -0.0238
 3753SOL    HW122718   3.504   2.385   1.756  0.8006 -2.1784 -0.7133
 3753SOL    HW222719   3.367   2.326   1.758  0.6165  0.6448  1.4404
 3754SOL     OW22720   2.121   2.644   8.404 -0.4760 -0.1986 -0.4682
 3754SOL    HW122721   2.076   2.671   8.324 -2.4112 -0.3423  0.5747
 3754SOL    HW222722   2.135   2.550   8.389 -0.1562 -0.5583  2.0164
 3755SOL     OW22723   2.991   4.380   9.517  0.3926  0.0754  0.4501
 3755SOL    HW122724   3.001   4.382   9.422  0.0639  2.9698  0.4706
 3755SOL    HW222725   2.957   4.292   9.527 -0.7194  0.6274  1.5805
 3756SOL     OW22726   1.926   3.725   7.203 -0.3359 -0.0745 -0.1672
 3756SOL    HW122727   1.903   3.818   7.197  1.5353  0.4763  1.5451
 3756SOL    HW222728   1.850   3.695   7.152  0.0767  0.2553 -0.9850
 3757SOL     OW22729   0.870   4.353   5.020  0.1867  0.3442 -0.4395
 3757SOL    HW122730   0.788   4.315   5.053  1.2847 -0.9754  0.7250
 3757SOL    HW222731   0.840   4.438   4.987  0.0550  0.1930 -0.7151
 3758SOL     OW22732   0.888   2.329  12.484 -0.3043 -0.1781 -0.8509
 3758SOL    HW122733   0.834   2.316  12.562 -1.4851 -0.3178 -1.6958
 3758SOL    HW222734   0.969   2.283  12.508 -1.0306 -1.1208 -0.2545
 3759SOL     OW22735   2.533   1.850  16.025  0.6776 -0.3932  0.3755
 3759SOL    HW122736   2.484   1.783  15.978  1.6605 -1.2408  0.5698
 3759SOL    HW222737   2.522   1.932  15.977 -0.6824 -1.3047 -0.8626
 3760SOL     OW22738   1.789   1.245  10.557  0.5050 -0.3438 -0.5673
 3760SOL    HW122739   1.861   1.224  10.617  0.7881  0.8607 -0.4866
 3760SOL    HW222740   1.743   1.312  10.607  0.0586 -0.0727 -1.3443
 3761SOL     OW22741   0.870   4.383  17.406  0.1800  0.5629  0.0172
 3761SOL    HW122742   0.900   4.437  17.333  3.3944  1.1527  1.7915
 3761SOL    HW222743   0.850   4.462  17.456 -2.1679  0.3067 -0.5097
 3762SOL     OW22744   2.345   2.023  16.736 -0.6783 -0.4114  0.1644
 3762SOL    HW122745   2.269   1.970  16.712 -1.7675  1.0686  0.3512
 3762SOL    HW222746   2.388   1.958  16.793  0.8647  0.3409 -0.1476
 3763SOL     OW22747   3.095   2.163   1.400 -0.3167  0.2349 -0.5621
 3763SOL    HW122748   3.149   2.102   1.351  0.9135 -0.1175  1.2317
 3763SOL    HW222749   3.025   2.151   1.336 -1.0001 -1.1476  0.4399
 3764SOL     OW22750   0.882   1.737   3.842  0.4844  0.0613  0.0486
 3764SOL    HW122751   0.797   1.699   3.867  0.5045  0.1457  0.2499
 3764SOL    HW222752   0.850   1.813   3.794 -0.2496  0.5553  1.2891
 3765SOL     OW22753   4.511   3.891   2.730  0.1006 -0.5462  0.1914
 3765SOL    HW122754   4.564   3.954   2.682  2.7963 -3.5408 -0.7973
 3765SOL    HW222755   4.541   3.806   2.696  1.1265  1.0572 -2.8565
 3766SOL     OW22756   3.541   1.675   8.690  0.6686 -0.3690 -0.1281
 3766SOL    HW122757   3.608   1.624   8.736  1.1345  1.5194  1.2428
 3766SOL    HW222758   3.583   1.671   8.604  0.6653 -1.2946 -0.0850
 3767SOL     OW22759   2.543   2.936  15.683  0.2186  0.5993  0.5101
 3767SOL    HW122760   2.604   2.862  15.683 -0.4651  0.0382  1.8648
 3767SOL    HW222761   2.562   2.974  15.769 -0.7610 -1.5860  1.6998
 3768SOL     OW22762   1.434   0.398  15.070  0.7850 -0.0239 -0.1507
 3768SOL    HW122763   1.515   0.443  15.092  0.6260 -0.3670  1.1220
 3768SOL    HW222764   1.368   0.450  15.117  0.3830  0.1397 -0.8923
 3769SOL     OW22765   1.544   0.727   9.844  0.4564  1.1091  0.1401
 3769SOL    HW122766   1.556   0.632   9.835 -1.0500  1.1293 -2.1303
 3769SOL    HW222767   1.511   0.723   9.933 -0.2721 -0.0011 -0.1805
 3770SOL     OW22768   3.826   3.947   8.397 -0.0854 -0.4906 -0.2346
 3770SOL    HW122769   3.841   3.937   8.491  1.3483  0.8969 -0.3229
 3770SOL    HW222770   3.897   4.003   8.365  0.5990  0.7308  3.4716
 3771SOL     OW22771   4.714   3.324  16.043  0.0304 -0.7960 -0.0841
 3771SOL    HW122772   0.033   3.329  15.957 -0.3144  1.0999 -0.1378
 3771SOL    HW222773   0.048   3.382  16.093  1.4901 -2.3340  0.0093
 3772SOL     OW22774   0.122   0.415  14.895 -0.8450  0.0787  0.5450
 3772SOL    HW122775   0.033   0.379  14.892 -1.5805  2.0003 -0.6066
 3772SOL    HW222776   0.108   0.508  14.914 -1.1130 -0.1807  1.6492
 3773SOL     OW22777   3.975   4.640   7.358 -0.0589  0.2480 -0.3016
 3773SOL    HW122778   4.058   4.687   7.346  0.6147 -1.4879 -2.5695
 3773SOL    HW222779   3.929   4.658   7.275  4.9499  2.0327 -2.6973
 3774SOL     OW22780   2.986   4.070   8.254  0.0933 -0.0528 -0.0216
 3774SOL    HW122781   3.039   4.025   8.188 -0.7263 -0.4286 -0.4282
 3774SOL    HW222782   2.935   3.995   8.286 -0.2135 -0.2704 -1.0273
 3775SOL     OW22783   1.613   3.346   7.474  0.1190  0.6509 -0.1481
 3775SOL    HW122784   1.570   3.279   7.421  1.8234  1.1844 -2.2221
 3775SOL    HW222785   1.573   3.332   7.560  3.4945 -2.3909  0.9238
 3776SOL     OW22786   0.877   0.842  16.540 -0.3059 -0.1795 -0.0887
 3776SOL    HW122787   0.821   0.912  16.574  0.1959  0.5005 -0.6676
 3776SOL    HW222788   0.869   0.770  16.603  0.1333  0.7498  1.0379
 3777SOL     OW22789   0.722   4.592   4.951 -0.7665 -0.5416  0.3778
 3777SOL    HW122790   0.664   4.598   5.026 -0.7041 -1.8626  0.5270
 3777SOL    HW222791   0.666   4.639   4.889 -0.3391 -1.1318 -0.4543
 3778SOL     OW22792   3.349   3.258   5.441  0.2945 -0.5011 -0.3515
 3778SOL    HW122793   3.431   3.253   5.489 -0.5550 -4.7218  0.7027
 3778SOL    HW222794   3.346   3.352   5.423  3.2291 -0.3520 -0.1110
 3779SOL     OW22795   0.606   2.299   3.159 -0.6116  0.3603 -0.2603
 3779SOL    HW122796   0.652   2.279   3.077 -2.5853 -0.4108 -1.1767
 3779SOL    HW222797   0.680   2.326   3.213 -1.8264  0.6064  1.2858
 3780SOL     OW22798   4.522   3.459   2.815 -0.3609 -0.3316  0.1380
 3780SOL    HW122799   4.504   3.365   2.819  1.3518 -0.5727  1.8117
 3780SOL    HW222800   4.445   3.486   2.865  0.8888 -0.7866  2.2818
 3781SOL     OW22801   2.753   2.711   6.171  0.0519  0.3945  0.3801
 3781SOL    HW122802   2.799   2.644   6.119 -0.9602  1.0931 -1.4273
 3781SOL    HW222803   2.797   2.698   6.255 -2.9216 -1.2112  1.6705
 3782SOL     OW22804   3.085   2.536   5.267  1.0033  0.3590  0.1696
 3782SOL    HW122805   3.163   2.502   5.312  0.0330 -0.5566  1.1697
 3782SOL    HW222806   3.037   2.555   5.348  0.1282 -0.7553 -0.0870
 3783SOL     OW22807   0.945   3.705  14.845 -0.6453  0.6337  0.3891
 3783SOL    HW122808   0.868   3.734  14.893 -0.2432  2.0874  0.1427
 3783SOL    HW222809   1.020   3.760  14.869 -0.8744 -0.4449  3.5862
 3784SOL     OW22810   0.666   4.468   8.769 -0.2555  0.4796  0.0832
 3784SOL    HW122811   0.672   4.545   8.826  0.6863  1.2248 -1.0363
 3784SOL    HW222812   0.758   4.443   8.767 -0.4809 -0.2927 -0.5715
 3785SOL     OW22813   1.850   0.127   1.808 -0.3722  0.2526  0.2149
 3785SOL    HW122814   1.831   0.179   1.730  0.4083  1.4137  0.8090
 3785SOL    HW222815   1.770   0.075   1.822 -0.2713 -0.2866 -1.2219
 3786SOL     OW22816   0.878   3.220   1.960  0.0648  0.2476  0.5867
 3786SOL    HW122817   0.966   3.254   1.979  0.3383 -0.0889 -0.0761
 3786SOL    HW222818   0.834   3.304   1.954 -0.5753  0.0253  2.1627
 3787SOL     OW22819   4.359   1.879  15.243 -0.4363  0.3613 -0.4009
 3787SOL    HW122820   4.309   1.884  15.161 -1.7254  0.4180  0.3820
 3787SOL    HW222821   4.284   1.851  15.297  0.6476 -1.6485  0.0515
 3788SOL     OW22822   3.052   3.176  17.425  0.7680 -0.1633 -0.3496
 3788SOL    HW122823   3.005   3.259  17.414  1.7116  0.6600  1.8441
 3788SOL    HW222824   2.973   3.121  17.419  1.1427 -0.5994 -1.4164
 3789SOL     OW22825   4.064   1.563   1.751  0.1172 -0.3925 -0.1161
 3789SOL    HW122826   4.069   1.598   1.840 -0.7163  0.3719 -0.3678
 3789SOL    HW222827   4.141   1.506   1.749  0.2565 -0.2570  0.9696
 3790SOL     OW22828   3.384   0.007  14.499 -0.7172 -0.0227 -0.4751
 3790SOL    HW122829   3.453   0.006  14.566 -1.2084 -3.3600 -0.0060
 3790SOL    HW222830   3.311   0.043  14.549 -0.9623 -1.6452  0.3533
 3791SOL     OW22831   1.749   2.047   9.475  0.4751 -0.0395  0.4807
 3791SOL    HW122832   1.813   2.018   9.409  1.4167  3.3016 -0.0614
 3791SOL    HW222833   1.706   2.118   9.428  1.6630  0.5840  0.3289
 3792SOL     OW22834   2.666   4.313   4.338 -0.6655  0.6321  0.2844
 3792SOL    HW122835   2.612   4.290   4.263  0.0457  1.5817 -0.5064
 3792SOL    HW222836   2.693   4.233   4.383  0.3283  1.1501  0.6096
 3793SOL     OW22837   2.335   2.427   6.556 -0.3560 -0.4819  0.2385
 3793SOL    HW122838   2.305   2.348   6.511 -0.5322 -0.1928 -0.1556
 3793SOL    HW222839   2.309   2.493   6.491 -0.8364 -0.5757  0.3317
 3794SOL     OW22840   2.811   0.926  10.430  0.8708  0.2155  0.1808
 3794SOL    HW122841   2.825   0.840  10.469  0.5199 -0.3946 -1.0377
 3794SOL    HW222842   2.791   0.899  10.340 -3.4088 -0.7692  1.4219
 3795SOL     OW22843   0.928   1.356  14.776  0.2167 -0.3432  0.1080
 3795SOL    HW122844   0.991   1.398  14.717  1.0422 -0.2628  1.0573
 3795SOL    HW222845   0.846   1.396  14.746 -0.4531  0.1167  2.5632
 3796SOL     OW22846   2.608   0.262   0.459 -0.4285 -0.3115 -0.3681
 3796SOL    HW122847   2.679   0.205   0.488  0.3207  1.3039  0.9020
 3796SOL    HW222848   2.590   0.222   0.373  1.7384  0.8159 -1.3374
 3797SOL     OW22849   2.432   1.157   9.888  0.0323  0.0813  0.7211
 3797SOL    HW122850   2.411   1.239   9.842 -0.8919 -1.1878 -1.1261
 3797SOL    HW222851   2.419   1.178   9.980 -1.0985 -0.2845  0.6446
 3798SOL     OW22852   1.511   0.626   7.917  0.2083  0.2309 -0.3127
 3798SOL    HW122853   1.577   0.592   7.856 -0.6383 -0.5455 -0.7997
 3798SOL    HW222854   1.570   0.697   7.944  0.3798 -0.2002  0.4441
 3799SOL     OW22855   0.317   1.585   8.504 -0.4317 -0.0891 -0.0201
 3799SOL    HW122856   0.270   1.504   8.484 -1.9643  1.0834 -1.2305
 3799SOL    HW222857   0.403   1.560   8.470  0.3063  1.5420  0.6871
 3800SOL     OW22858   1.992   4.617   2.715 -0.0238 -0.0397  0.2759
 3800SOL    HW122859   1.944   4.637   2.795  1.2904  1.2148  0.7366
 3800SOL    HW222860   1.924   4.601   2.649  1.5254 -3.3188 -0.5104
 3801SOL     OW22861   0.317   1.944   8.443  0.2163  0.0379  0.1958
 3801SOL    HW122862   0.383   2.004   8.478  1.2385 -0.8551 -0.1810
 3801SOL    HW222863   0.312   1.964   8.350  0.2317  0.0316  0.1936
 3802SOL     OW22864   2.620   3.378   3.392 -0.6522  0.5027  0.5033
 3802SOL    HW122865   2.538   3.393   3.343 -0.2839 -0.9945 -0.5755
 3802SOL    HW222866   2.597   3.295   3.433  1.1057 -0.6067 -0.8125
 3803SOL     OW22867   1.153   0.026  16.342 -0.0267  0.2634  0.1099
 3803SOL    HW122868   1.115   4.719  16.425  1.9719 -0.4418  0.7519
 3803SOL    HW222869   1.243   0.015  16.371 -0.7020 -2.9081  0.9301
 3804SOL     OW22870   3.768   4.007   4.245 -0.1096 -0.0744  0.3931
 3804SOL    HW122871   3.703   4.000   4.314  0.7898  0.6941  1.3083
 3804SOL    HW222872   3.778   3.912   4.230  0.7992  0.5191 -2.8079
 3805SOL     OW22873   1.031   1.274   9.250 -0.5718  0.3075  0.2911
 3805SOL    HW122874   1.081   1.278   9.331  0.7767 -2.0192 -0.4314
 3805SOL    HW222875   0.947   1.313   9.276 -0.4161  0.3992  0.6620
 3806SOL     OW22876   1.606   3.857  14.468 -0.0068  0.3413  0.3564
 3806SOL    HW122877   1.536   3.836  14.406 -0.2866 -2.1010  1.5011
 3806SOL    HW222878   1.587   3.799  14.542 -0.9412  0.3639  0.1379
 3807SOL     OW22879   3.869   3.940   2.854  0.0730  0.2052  0.3416
 3807SOL    HW122880   3.807   3.987   2.910 -2.7991 -1.7413 -1.2545
 3807SOL    HW222881   3.814   3.894   2.791  0.6807 -2.5989  1.8624
 3808SOL     OW22882   0.097   0.770  13.217 -0.1455  0.4589 -0.3906
 3808SOL    HW122883   0.073   0.857  13.251  0.0358  2.1166 -4.5278
 3808SOL    HW222884   0.099   0.787  13.123  0.2284  0.6598 -0.3435
 3809SOL     OW22885   4.220   3.603  15.475  1.0814  0.0781  0.0576
 3809SOL    HW122886   4.135   3.572  15.444 -0.6813  2.3478  2.5668
 3809SOL    HW222887   4.280   3.576  15.406  1.0854 -0.1622  0.1539
 3810SOL     OW22888   3.688   3.383   1.249 -0.7879 -0.4396  0.4557
 3810SOL    HW122889   3.633   3.427   1.313  1.1524  2.2486  0.2941
 3810SOL    HW222890   3.638   3.396   1.168  1.4301  2.3892 -0.5047
 3811SOL     OW22891   3.146   4.490   9.704  0.2216  0.1274  0.2759
 3811SOL    HW122892   3.106   4.442   9.632  0.7576 -1.5937  1.1321
 3811SOL    HW222893   3.074   4.506   9.765 -0.7699 -1.2648 -0.5360
 3812SOL     OW22894   2.251   4.710  14.666  0.1055 -0.9733 -0.3539
 3812SOL    HW122895   2.294   0.009  14.583  1.6030  1.7597  1.1426
 3812SOL    HW222896   2.202   0.066  14.687  0.3655 -1.0701  0.6078
 3813SOL     OW22897   0.785   2.465  13.106  0.0473  0.0948  0.1805
 3813SOL    HW122898   0.756   2.556  13.118 -0.8030 -0.2563  0.8381
 3813SOL    HW222899   0.864   2.491  13.059 -1.1126  3.0419 -0.1198
 3814SOL     OW22900   2.628   3.380   7.039 -0.0380 -0.5060 -0.1596
 3814SOL    HW122901   2.558   3.428   7.082  1.2349  0.8223  0.4087
 3814SOL    HW222902   2.632   3.435   6.961 -1.4047 -2.4783 -1.6407
 3815SOL     OW22903   3.005   4.091  11.190  0.4041  0.6071  0.1937
 3815SOL    HW122904   3.049   4.073  11.107 -1.2045  1.3312 -0.8042
 3815SOL    HW222905   2.955   4.010  11.194  2.2661 -0.4414  2.0156
 3816SOL     OW22906   3.305   3.430   7.420  0.0911 -0.1451 -0.1875
 3816SOL    HW122907   3.267   3.516   7.406  1.5094  0.9119  2.5152
 3816SOL    HW222908   3.332   3.407   7.331 -0.4186  0.2921 -0.4567
 3817SOL     OW22909   2.047   3.767  10.096 -0.6792 -0.5270 -0.1482
 3817SOL    HW122910   2.096   3.846  10.073  1.8778 -2.6737 -2.0005
 3817SOL    HW222911   2.025   3.742  10.007 -0.6404  0.8163 -0.5262
 3818SOL     OW22912   3.182   1.471   1.754  0.4280 -0.3445 -0.2927
 3818SOL    HW122913   3.103   1.524   1.743  1.3058  0.8070 -0.9514
 3818SOL    HW222914   3.202   1.458   1.662 -2.2314 -2.8156 -0.5244
 3819SOL     OW22915   3.006   1.509   3.766  0.5860 -0.1554  0.0796
 3819SOL    HW122916   3.038   1.594   3.797  1.8567 -0.3089 -0.8183
 3819SOL    HW222917   3.018   1.507   3.671 -1.1369 -1.5234 -0.1181
 3820SOL     OW22918   2.373   1.826   4.378  0.0808 -0.2471  0.5799
 3820SOL    HW122919   2.300   1.864   4.427 -1.3058  1.1640 -2.5887
 3820SOL    HW222920   2.359   1.735   4.405  0.3376 -1.3404 -2.8729
 3821SOL     OW22921   4.026   1.071   3.642 -0.4203 -0.1544  0.0090
 3821SOL    HW122922   4.089   1.047   3.574  0.8027 -3.1323  2.1804
 3821SOL    HW222923   4.006   0.987   3.684 -1.9271  1.2180  2.0262
 3822SOL     OW22924   2.827   0.132   4.878 -0.1196 -0.1984  0.7474
 3822SOL    HW122925   2.801   0.054   4.829  0.3496 -1.0215  1.7997
 3822SOL    HW222926   2.740   0.170   4.887  0.8651  1.9228  1.3591
 3823SOL     OW22927   1.024   2.868   0.934  0.1896 -0.2135  0.1094
 3823SOL    HW122928   1.033   2.963   0.935  2.9099 -0.4732  1.1293
 3823SOL    HW222929   1.072   2.839   0.856 -0.7668  0.2010 -0.6410
 3824SOL     OW22930   2.730   4.095   0.616  0.0132 -0.1751  0.0327
 3824SOL    HW122931   2.824   4.082   0.610  0.3045  1.6641  0.6563
 3824SOL    HW222932   2.722   4.186   0.588 -0.4167 -0.8352 -2.0143
 3825SOL     OW22933   3.885   2.006  16.620  0.5992  0.2968 -0.0599
 3825SOL    HW122934   3.848   1.930  16.575  0.7174  0.8898 -1.1472
 3825SOL    HW222935   3.932   1.967  16.694  0.2355  1.0702  0.5857
 3826SOL     OW22936   4.379   3.465  16.813 -0.4708  0.9081  0.1909
 3826SOL    HW122937   4.296   3.505  16.836 -0.3010  0.0009  2.3215
 3826SOL    HW222938   4.338   3.389  16.771  1.8614 -1.6740  2.6081
 3827SOL     OW22939   3.624   2.710  12.576  0.7071  0.0602  1.0330
 3827SOL    HW122940   3.631   2.739  12.485 -0.7425  0.9074  1.2002
 3827SOL    HW222941   3.672   2.786  12.608  0.0100  0.7063  0.5465
 3828SOL     OW22942   4.663   1.217  14.954  0.1407 -0.4343 -0.6310
 3828SOL    HW122943   4.697   1.303  14.981 -2.8097  0.4541  0.2865
 3828SOL    HW222944   0.005   1.181  14.895  1.3225 -1.5748  1.3596
 3829SOL     OW22945   4.429   3.383   6.156  0.0588  0.3111  0.1589
 3829SOL    HW122946   4.492   3.404   6.087 -0.3268  0.5914 -0.1060
 3829SOL    HW222947   4.459   3.297   6.184  0.5914 -0.0941 -1.6713
 3830SOL     OW22948   3.658   4.441   6.834  0.2727  0.3789 -0.4770
 3830SOL    HW122949   3.694   4.368   6.783  1.2787  0.7454 -0.2916
 3830SOL    HW222950   3.562   4.434   6.836  0.2497  1.1656  0.8676
 3831SOL     OW22951   2.244   1.459   4.800 -0.5561 -1.0486  0.4992
 3831SOL    HW122952   2.227   1.547   4.834  0.7525 -0.5215 -0.2160
 3831SOL    HW222953   2.187   1.415   4.863 -0.8192  0.4110  1.2842
 3832SOL     OW22954   1.752   1.262  10.960  0.5031 -0.2257 -0.0222
 3832SOL    HW122955   1.722   1.352  10.965  0.5715 -0.0801 -2.7782
 3832SOL    HW222956   1.689   1.221  10.901 -0.1408  1.3042 -0.3923
 3833SOL     OW22957   2.600   1.914   4.052 -0.8831 -0.1550  0.2343
 3833SOL    HW122958   2.547   1.977   4.004 -1.6430  0.2860  1.6844
 3833SOL    HW222959   2.623   1.864   3.973  0.1669  0.1903  0.3142
 3834SOL     OW22960   4.352   1.890  13.448 -0.3222 -0.2680 -0.1946
 3834SOL    HW122961   4.287   1.870  13.516 -2.0243  0.8161 -1.5159
 3834SOL    HW222962   4.310   1.850  13.372 -0.7504 -3.0975  1.5259
 3835SOL     OW22963   1.278   3.338  13.270  0.5067 -0.2179 -0.0044
 3835SOL    HW122964   1.305   3.295  13.189 -0.5665 -2.4864  0.8236
 3835SOL    HW222965   1.360   3.378  13.300  0.7619  0.0736 -1.1057
 3836SOL     OW22966   0.090   4.310   0.102  0.0668  0.1321  0.3934
 3836SOL    HW122967   0.140   4.383   0.138  1.4500  0.1398 -1.5692
 3836SOL    HW222968   0.160   4.264   0.057  0.4691 -0.8610  2.0135
 3837SOL     OW22969   1.264   3.587   4.834 -0.3257  0.0746 -0.0079
 3837SOL    HW122970   1.251   3.531   4.910  0.0598  0.6677  0.5011
 3837SOL    HW222971   1.252   3.670   4.880  0.1730  0.7775 -1.1342
 3838SOL     OW22972   3.799   4.247   5.839 -0.1879  0.7862 -0.1462
 3838SOL    HW122973   3.876   4.215   5.793 -0.4429 -1.7392  1.2204
 3838SOL    HW222974   3.751   4.299   5.774  0.2096 -2.1142 -2.7702
 3839SOL     OW22975   3.415   1.353   0.427  0.0788 -0.0814  0.2226
 3839SOL    HW122976   3.343   1.310   0.382  0.4631 -0.3024 -0.1727
 3839SOL    HW222977   3.486   1.314   0.377 -0.7249 -1.5892  0.2617
 3840SOL     OW22978   0.120   0.982   5.107  0.1484  0.6356  0.4622
 3840SOL    HW122979   0.088   1.072   5.106 -1.9415 -0.0563  2.8504
 3840SOL    HW222980   0.197   0.983   5.051  0.6545 -0.1989  1.1405
 3841SOL     OW22981   1.970   3.177   4.974  0.5627  0.4295  0.8945
 3841SOL    HW122982   2.001   3.108   4.915 -0.1968  0.2474  0.7074
 3841SOL    HW222983   1.966   3.246   4.907 -0.4345 -1.3634 -0.8945
 3842SOL     OW22984   0.621   3.641   2.453  0.0233  0.1040  0.1265
 3842SOL    HW122985   0.585   3.553   2.446  0.9182 -0.2212 -0.4411
 3842SOL    HW222986   0.642   3.665   2.362  0.0675  1.7426  0.5667
 3843SOL     OW22987   3.976   1.204  17.395  0.3744 -0.0330 -0.6067
 3843SOL    HW122988   4.052   1.241  17.350 -0.0781  1.7388  0.0854
 3843SOL    HW222989   3.974   1.124  17.343  0.4368 -1.3798  1.4378
 3844SOL     OW22990   3.423   3.691   3.084 -0.8758  0.3097 -0.6234
 3844SOL    HW122991   3.339   3.650   3.063 -0.6176  0.1070 -1.2543
 3844SOL    HW222992   3.472   3.661   3.007  0.5744 -2.2988  1.3115
 3845SOL     OW22993   0.094   1.363   6.527 -0.4553 -0.1752 -0.1364
 3845SOL    HW122994   0.121   1.349   6.618  1.2790 -0.6813 -0.7410
 3845SOL    HW222995   0.180   1.346   6.489  0.8785 -0.3530  2.8804
 3846SOL     OW22996   1.795   1.978   7.046 -0.7672  0.5846 -0.2090
 3846SOL    HW122997   1.868   1.922   7.020 -1.7502 -0.9558  0.3734
 3846SOL    HW222998   1.837   2.025   7.119  0.9899  0.0717 -0.8805
 3847SOL     OW22999   0.075   4.403  17.300  0.2258 -0.4758  0.3767
 3847SOL    HW123000   0.047   4.493  17.319 -3.6051 -2.1087  2.5241
 3847SOL    HW223001   0.126   4.394  17.381 -0.6989 -1.3344  0.8588
 3848SOL     OW23002   4.594   0.802   5.160  0.5778  0.1161  0.0700
 3848SOL    HW123003   4.661   0.866   5.137  2.1213 -0.5769  2.6556
 3848SOL    HW223004   4.633   0.771   5.242 -0.9910  1.0211  1.1539
 3849SOL     OW23005   1.642   1.336   8.087  0.0801  0.2134  0.5867
 3849SOL    HW123006   1.646   1.378   8.173  3.1840  0.8129  0.1459
 3849SOL    HW223007   1.735   1.319   8.071 -0.2470 -0.3163 -0.7369
 3850SOL     OW23008   1.460   1.357   3.115 -0.5370 -0.0423  0.2467
 3850SOL    HW123009   1.457   1.411   3.036  1.2808 -0.1960  0.0824
 3850SOL    HW223010   1.500   1.419   3.176 -2.4463  1.8507 -0.3970
 3851SOL     OW23011   3.454   1.772   6.244  0.7271 -0.2651  0.2917
 3851SOL    HW123012   3.410   1.734   6.168  0.7320 -0.0748  0.1959
 3851SOL    HW223013   3.384   1.749   6.306 -1.7673  1.1285 -2.0189
 3852SOL     OW23014   4.567   1.148   5.125  0.3539 -0.4925  0.0426
 3852SOL    HW123015   4.558   1.149   5.220  0.5445 -2.2635  0.0817
 3852SOL    HW223016   4.477   1.148   5.093  0.6347  0.9224 -0.7379
 3853SOL     OW23017   0.797   1.334   7.563  0.2047 -0.0057 -0.0601
 3853SOL    HW123018   0.810   1.245   7.529 -1.1913  0.3126 -1.4232
 3853SOL    HW223019   0.709   1.327   7.599  0.8766 -2.4226  1.1750
 3854SOL     OW23020   0.125   1.985  17.119 -0.3018 -0.1124 -0.1383
 3854SOL    HW123021   0.198   1.957  17.065 -1.7946 -0.6462 -1.8780
 3854SOL    HW223022   0.052   1.961  17.062 -0.8191 -1.2904  1.0075
 3855SOL     OW23023   3.834   1.548   4.575  0.0267 -0.0556  0.1813
 3855SOL    HW123024   3.747   1.584   4.594 -0.1059  0.5366 -1.5734
 3855SOL    HW223025   3.876   1.614   4.520  2.2229 -1.1643  0.5302
 3856SOL     OW23026   1.247   3.792  12.182  0.1561  0.3939  0.5667
 3856SOL    HW123027   1.289   3.769  12.099  0.6969  0.3161  0.8631
 3856SOL    HW223028   1.173   3.827  12.133  0.4428  0.8217  0.4445
 3857SOL     OW23029   4.411   4.022   5.639  0.2232  0.4773 -0.0826
 3857SOL    HW123030   4.427   4.025   5.734  0.6058 -0.6886 -0.1058
 3857SOL    HW223031   4.449   3.936   5.620  1.7896  1.1814 -0.0882
 3858SOL     OW23032   0.804   0.618   5.959  0.5934  0.0693  0.0850
 3858SOL    HW123033   0.731   0.636   5.900  1.0869 -1.1845 -0.9041
 3858SOL    HW223034   0.766   0.660   6.036  1.2825  0.6940  0.0865
 3859SOL     OW23035   4.514   2.060   4.142  0.1867 -0.1421 -0.5619
 3859SOL    HW123036   4.421   2.076   4.154  0.4769  1.5873 -0.6477
 3859SOL    HW223037   4.519   2.009   4.062 -1.4757  1.9180 -1.9480
 3860SOL     OW23038   0.185   0.152   5.885  0.2646 -0.5082  0.5318
 3860SOL    HW123039   0.236   0.071   5.875  0.9416 -0.0937  0.6922
 3860SOL    HW223040   0.144   0.130   5.969 -0.2402 -1.1657  0.1158
 3861SOL     OW23041   0.422   0.802   0.022 -0.0168  0.3077  0.4096
 3861SOL    HW123042   0.495   0.753   0.059 -1.0855  0.7544  3.0730
 3861SOL    HW223043   0.462   0.887   0.039  2.1901 -0.7418  0.5175
 3862SOL     OW23044   2.052   1.639  17.682  0.2538  0.0574 -0.2383
 3862SOL    HW123045   2.040   1.732  17.666  0.0994 -0.2981 -2.1388
 3862SOL    HW223046   2.018   1.606  17.599  1.2773  0.4040 -0.7791
 3863SOL     OW23047   3.448   4.215   7.129  0.6203  0.2226 -0.2675
 3863SOL    HW123048   3.367   4.184   7.170  0.6685  0.1076 -0.2581
 3863SOL    HW223049   3.502   4.136   7.136 -0.4133 -0.4299  0.3413
 3864SOL     OW23050   2.166   3.083   3.546 -0.0531  0.1349 -0.4312
 3864SOL    HW123051   2.222   3.026   3.494 -0.3183  0.0679 -0.6469
 3864SOL    HW223052   2.097   3.021   3.568  0.0503  0.5874  1.1962
 3865SOL     OW23053   2.915   1.351   2.791 -0.9535 -0.1865 -0.0574
 3865SOL    HW123054   2.908   1.394   2.706 -2.3104 -0.9279 -0.3253
 3865SOL    HW223055   2.887   1.417   2.854  0.5996  0.0736  0.3530
 3866SOL     OW23056   0.036   3.107   8.782  0.1136  0.2530  0.0473
 3866SOL    HW123057   0.063   3.016   8.766 -0.2798  0.4650 -1.8017
 3866SOL    HW223058   4.680   3.115   8.730 -0.0045  0.4047  0.2545
 3867SOL     OW23059   0.541   1.967   3.021  0.0605  0.3672 -0.8089
 3867SOL    HW123060   0.461   1.976   3.072 -0.5798 -1.7800 -1.4714
 3867SOL    HW223061   0.563   2.060   3.011 -1.5046  0.6591 -1.4668
 3868SOL     OW23062   4.087   0.908   8.035 -0.1111 -0.1750 -0.2212
 3868SOL    HW123063   4.092   1.004   8.036  0.2853 -0.2051  1.0757
 3868SOL    HW223064   4.056   0.884   7.947  0.6818  0.8399 -0.7808
 3869SOL     OW23065   0.794   2.531   4.501 -0.1443  0.1655 -0.1823
 3869SOL    HW123066   0.722   2.515   4.439  1.1876  1.2406 -1.9947
 3869SOL    HW223067   0.867   2.477   4.471 -0.4742  1.3076 -3.0576
 3870SOL     OW23068   0.501   3.084   1.738 -0.2957 -0.1087 -0.4968
 3870SOL    HW123069   0.579   3.046   1.779  0.0905  2.0726  0.7718
 3870SOL    HW223070   0.483   3.031   1.660 -1.2902 -1.0701  0.3889
 3871SOL     OW23071   1.600   0.265  12.978  0.2637  0.0326 -0.0646
 3871SOL    HW123072   1.588   0.358  12.962  0.3555 -0.0828 -0.8305
 3871SOL    HW223073   1.510   0.233  12.987 -0.1370  0.5688 -2.1178
 3872SOL     OW23074   2.319   3.318  12.420 -0.1749 -0.4047 -0.3963
 3872SOL    HW123075   2.344   3.313  12.328  0.8875 -0.9524 -0.0759
 3872SOL    HW223076   2.325   3.410  12.445  0.9902 -0.5542 -0.1565
 3873SOL     OW23077   2.276   0.252   4.650 -0.2064  0.4734  0.2427
 3873SOL    HW123078   2.271   0.233   4.744  0.0189  2.8266  0.7451
 3873SOL    HW223079   2.363   0.286   4.628 -1.1452 -0.2683 -4.6233
 3874SOL     OW23080   2.580   1.285  10.198 -0.8695  0.5663 -0.5515
 3874SOL    HW123081   2.590   1.287  10.293  0.4570  3.0193 -0.7538
 3874SOL    HW223082   2.485   1.276  10.192 -0.5444 -2.1215 -1.9476
 3875SOL     OW23083   2.807   3.179   7.017 -0.4261 -0.5524 -0.7973
 3875SOL    HW123084   2.777   3.133   7.096 -0.5641  0.9517  0.0319
 3875SOL    HW223085   2.754   3.258   7.025  0.1788 -0.0439 -1.8016
 3876SOL     OW23086   0.629   0.748   2.264  0.6672  0.4654  0.5247
 3876SOL    HW123087   0.660   0.807   2.333 -3.1212  1.9256  0.9633
 3876SOL    HW223088   0.699   0.682   2.265 -0.0994 -0.3493  0.9897
 3877SOL     OW23089   1.381   2.238   7.953  0.1145  0.1073 -0.4690
 3877SOL    HW123090   1.386   2.174   7.882  1.0344 -1.4741  1.0355
 3877SOL    HW223091   1.309   2.208   8.008  0.9410 -3.6798 -1.4788
 3878SOL     OW23092   3.314   3.396   8.980  0.2692  0.3961 -0.2035
 3878SOL    HW123093   3.232   3.350   8.961 -0.2702  1.4980 -0.5871
 3878SOL    HW223094   3.343   3.340   9.052  0.2268  0.6244 -0.0091
 3879SOL     OW23095   3.402   4.581   0.160  0.5303 -0.2045  0.4391
 3879SOL    HW123096   3.336   4.512   0.172  1.0115 -0.9360 -1.0299
 3879SOL    HW223097   3.356   4.664   0.163 -0.8784 -0.9361 -1.1678
 3880SOL     OW23098   1.808   2.743   2.142 -0.0548 -0.2211  0.0585
 3880SOL    HW123099   1.730   2.698   2.111 -0.4417  1.2175 -1.0312
 3880SOL    HW223100   1.837   2.690   2.216  1.0661  0.8767  0.4066
 3881SOL     OW23101   1.447   0.129   2.882 -0.2140  0.2930  0.3564
 3881SOL    HW123102   1.413   0.114   2.970  1.3970  1.4483  1.1830
 3881SOL    HW223103   1.450   0.225   2.885  1.1186  0.1587  3.3844
 3882SOL     OW23104   2.886   2.720   2.394 -0.2790  0.0920 -0.2715
 3882SOL    HW123105   2.809   2.684   2.438  1.5363 -2.5914  0.6871
 3882SOL    HW223106   2.855   2.751   2.308  1.3795 -0.3237 -1.0186
 3883SOL     OW23107   3.427   4.140   3.435  0.5784  0.0734 -0.0367
 3883SOL    HW123108   3.513   4.102   3.455  1.1790  1.6962  0.4713
 3883SOL    HW223109   3.410   4.086   3.357  0.7783 -1.9317  1.2959
 3884SOL     OW23110   0.995   0.219  14.559  0.3064  0.1990 -0.1548
 3884SOL    HW123111   1.085   0.213  14.590  0.0604 -2.0459  0.1323
 3884SOL    HW223112   0.971   0.293  14.615 -3.1777 -0.1097 -1.1941
 3885SOL     OW23113   2.217   4.590   5.833  0.0695 -0.1746  0.1946
 3885SOL    HW123114   2.144   4.610   5.892  0.3627  1.2064  0.1000
 3885SOL    HW223115   2.287   4.633   5.883  1.8027 -1.6900 -0.9458
 3886SOL     OW23116   3.559   0.194  13.273  0.4824  0.3746  0.2557
 3886SOL    HW123117   3.551   0.147  13.356 -0.5087  1.1030  0.5860
 3886SOL    HW223118   3.624   0.147  13.221 -0.0741 -1.2607  1.0703
 3887SOL     OW23119   3.170   0.810   4.996  0.0846 -0.0995 -0.2640
 3887SOL    HW123120   3.152   0.891   5.043  0.2319 -0.1994 -0.0345
 3887SOL    HW223121   3.115   0.811   4.918  0.9026  1.4777 -0.8141
 3888SOL     OW23122   2.533   3.982  17.108 -0.7880 -0.0953 -0.4989
 3888SOL    HW123123   2.453   4.006  17.155 -0.6938  1.6337 -1.2163
 3888SOL    HW223124   2.489   3.969  17.024  0.7442 -0.7362 -1.2038
 3889SOL     OW23125   0.652   3.714   5.413  0.0121  0.2801  0.7225
 3889SOL    HW123126   0.639   3.644   5.349  0.5973  2.4659 -1.7761
 3889SOL    HW223127   0.686   3.784   5.358  0.1824 -0.7457 -0.4625
 3890SOL     OW23128   1.889   1.303   3.871 -0.3199  0.4103  0.1791
 3890SOL    HW123129   1.973   1.341   3.847 -0.9124  1.2427 -0.5990
 3890SOL    HW223130   1.876   1.353   3.951  0.1791 -1.4675  1.4331
 3891SOL     OW23131   1.196   4.177  17.116  0.2237  1.0450  0.1309
 3891SOL    HW123132   1.160   4.231  17.045  0.6227  0.5202 -0.4682
 3891SOL    HW223133   1.129   4.171  17.184  1.8539  0.4461  1.6841
 3892SOL     OW23134   3.437   2.303  11.625 -0.3867 -0.9223  0.2689
 3892SOL    HW123135   3.429   2.347  11.710 -2.7648  1.4808 -1.2281
 3892SOL    HW223136   3.517   2.346  11.594 -1.5352  0.2349 -1.0791
 3893SOL     OW23137   1.517   4.117   8.775 -0.1171 -0.0184  0.4814
 3893SOL    HW123138   1.436   4.139   8.729  0.8234  2.1525 -0.1448
 3893SOL    HW223139   1.536   4.201   8.817  1.0012 -1.1066  2.1406
 3894SOL     OW23140   2.495   0.870  14.741 -0.4294 -0.3264  0.5387
 3894SOL    HW123141   2.527   0.781  14.727  0.7710  0.1368  0.3334
 3894SOL    HW223142   2.568   0.926  14.717  0.3091 -0.9952  1.2296
 3895SOL     OW23143   0.285   3.907   5.985 -0.4130 -0.4662 -0.0179
 3895SOL    HW123144   0.242   3.990   6.005 -1.1189 -0.8373 -0.0199
 3895SOL    HW223145   0.205   3.858   5.968  0.3605 -1.1719 -1.6961
 3896SOL     OW23146   2.474   1.577  10.490  0.0715  0.3262  0.0223
 3896SOL    HW123147   2.450   1.614  10.575 -1.2841 -0.8260  0.1375
 3896SOL    HW223148   2.563   1.545  10.505  0.5653  1.5410 -0.3136
 3897SOL     OW23149   2.230   4.435   2.704 -0.0041 -0.3220  0.3700
 3897SOL    HW123150   2.163   4.502   2.696 -0.9856 -1.2906  0.4235
 3897SOL    HW223151   2.212   4.390   2.787  0.6754 -1.0006  0.1497
 3898SOL     OW23152   4.041   3.411   6.354  0.2912  0.6415  0.3565
 3898SOL    HW123153   4.072   3.422   6.444  0.4295  0.1860  0.3665
 3898SOL    HW223154   4.095   3.477   6.311 -1.7066  0.9226 -1.7239
 3899SOL     OW23155   3.054   3.942   3.423 -0.3763  0.2135  0.0806
 3899SOL    HW123156   3.040   3.897   3.340  1.9672 -2.7756  1.2913
 3899SOL    HW223157   2.973   3.927   3.471  1.0839 -0.9894  2.1646
 3900SOL     OW23158   3.906   2.369   7.836 -0.1504 -0.5356 -0.3854
 3900SOL    HW123159   3.928   2.311   7.763  1.5156 -1.9660  1.2728
 3900SOL    HW223160   3.928   2.453   7.796 -1.9004  0.4085  0.6029
 3901SOL     OW23161   1.987   3.570   3.234  0.4772  0.0659  0.2561
 3901SOL    HW123162   2.007   3.477   3.245 -3.0898 -0.8451 -1.0145
 3901SOL    HW223163   1.895   3.590   3.250  0.4731 -0.2587  0.6343
 3902SOL     OW23164   1.177   1.239   2.491  0.0869  0.0796  0.2113
 3902SOL    HW123165   1.180   1.308   2.425  0.7755  1.3264  1.5220
 3902SOL    HW223166   1.094   1.196   2.477 -1.0906  2.1755  0.7221
 3903SOL     OW23167   1.502   2.035   9.048  0.4184 -0.2132 -0.5372
 3903SOL    HW123168   1.565   2.106   9.059 -0.3520  0.3778  0.1172
 3903SOL    HW223169   1.479   2.033   9.142 -3.5635 -2.7490 -1.5429
 3904SOL     OW23170   1.449   3.232  14.516 -0.2625  0.4815  0.1269
 3904SOL    HW123171   1.390   3.225  14.591 -0.3517 -2.1087 -0.1800
 3904SOL    HW223172   1.441   3.139  14.494 -1.7773  0.3992  1.0141
 3905SOL     OW23173   0.515   1.668   7.449  0.0033  0.1399 -0.1338
 3905SOL    HW123174   0.489   1.577   7.438  0.6899 -0.2355  1.2774
 3905SOL    HW223175   0.596   1.648   7.497  0.5018 -0.7980 -1.3508
 3906SOL     OW23176   2.153   3.427   4.284 -0.6389  0.2810 -0.3880
 3906SOL    HW123177   2.147   3.415   4.379 -0.6595  0.0025 -0.4255
 3906SOL    HW223178   2.238   3.385   4.270  0.1934  1.5857  0.6886
 3907SOL     OW23179   0.946   1.600   6.529  0.5440  0.5034 -0.2262
 3907SOL    HW123180   0.985   1.684   6.553  2.4674 -0.4463 -0.0649
 3907SOL    HW223181   0.863   1.604   6.576  0.4058 -0.4821 -0.3917
 3908SOL     OW23182   4.059   4.463   5.221 -0.1585 -0.5643  0.2934
 3908SOL    HW123183   3.979   4.411   5.213 -2.5543  3.2505 -0.4569
 3908SOL    HW223184   4.045   4.511   5.140 -0.6540  4.3130  3.2414
 3909SOL     OW23185   0.177   3.153  11.064 -0.3612  0.2792 -0.4260
 3909SOL    HW123186   0.156   3.216  11.133 -0.4002 -0.1011 -0.0891
 3909SOL    HW223187   0.101   3.095  11.070  0.9426 -1.4106 -0.0473
 3910SOL     OW23188   4.682   1.653   2.405  0.1949  0.7417  0.4798
 3910SOL    HW123189   4.673   1.557   2.406  0.6889  0.7051  1.2232
 3910SOL    HW223190   4.592   1.679   2.423  0.2867  0.2054  1.7160
 3911SOL     OW23191   0.676   0.840   5.172  0.5605 -0.0757 -0.0076
 3911SOL    HW123192   0.613   0.779   5.134  0.7114 -0.7666  0.8731
 3911SOL    HW223193   0.637   0.925   5.148  0.6857  0.4125  1.4859
 3912SOL     OW23194   3.944   2.735  14.987 -0.2026 -0.2784 -0.5869
 3912SOL    HW123195   3.889   2.716  14.911 -1.5570  1.1995  0.0202
 3912SOL    HW223196   4.032   2.707  14.961 -0.6528 -1.3661 -0.9708
 3913SOL     OW23197   4.427   0.475   4.947  0.4261  0.0322  0.1862
 3913SOL    HW123198   4.409   0.569   4.951 -1.1368 -0.3199  1.4576
 3913SOL    HW223199   4.406   0.441   5.034  0.2403  0.1161  0.1745
 3914SOL     OW23200   0.140   2.041   4.400  0.6222  0.2559 -0.0042
 3914SOL    HW123201   0.112   1.949   4.408 -4.1920  1.6526 -0.3835
 3914SOL    HW223202   0.054   2.079   4.380  0.0903 -0.3159  1.1957
 3915SOL     OW23203   3.843   3.171  16.167  0.8298  0.2264 -0.0786
 3915SOL    HW123204   3.906   3.196  16.234  2.9780 -1.9332 -1.3188
 3915SOL    HW223205   3.776   3.239  16.174 -0.2826 -0.4113 -4.2831
 3916SOL     OW23206   1.375   3.985   6.462 -0.1923  1.4537  0.0534
 3916SOL    HW123207   1.295   4.007   6.510  0.4252  3.5078  0.1485
 3916SOL    HW223208   1.404   4.074   6.441  1.6645  0.7606 -0.3764
 3917SOL     OW23209   2.146   3.004   2.024 -0.5045  0.0834 -0.1508
 3917SOL    HW123210   2.130   2.943   2.096 -1.6447 -0.8858 -1.2149
 3917SOL    HW223211   2.236   2.984   1.998 -0.4474 -0.3730  0.3937
 3918SOL     OW23212   3.905   0.407  16.237  0.3326  0.2611  0.3355
 3918SOL    HW123213   3.998   0.425  16.238  0.1746  0.8860  3.4921
 3918SOL    HW223214   3.901   0.352  16.158 -0.2322  0.4113  0.2580
 3919SOL     OW23215   1.700   2.061   2.204 -0.1020 -0.2886 -0.0008
 3919SOL    HW123216   1.608   2.076   2.223  0.2893  1.6177  0.4113
 3919SOL    HW223217   1.723   1.974   2.236  1.7236  0.0181 -0.4608
 3920SOL     OW23218   0.595   2.655   2.180  0.3498 -0.4180 -0.0503
 3920SOL    HW123219   0.576   2.680   2.271 -1.0826 -3.1669  0.4108
 3920SOL    HW223220   0.583   2.744   2.148 -0.3260 -0.9644 -1.3103
 3921SOL     OW23221   0.486   1.937   5.969  0.6247  0.6020 -0.0164
 3921SOL    HW123222   0.459   2.027   5.983  1.5619  0.9312 -0.3186
 3921SOL    HW223223   0.456   1.900   6.052  0.6127  1.5714  0.4119
 3922SOL     OW23224   3.767   3.163  13.129  0.0723  0.6116  0.3813
 3922SOL    HW123225   3.862   3.156  13.131  0.2140  1.8979 -1.8700
 3922SOL    HW223226   3.741   3.086  13.180 -1.2869 -0.2960 -1.6941
 3923SOL     OW23227   2.029   1.931  13.600  0.0338  0.6691  0.1596
 3923SOL    HW123228   2.109   1.954  13.647  0.4340 -0.8920  0.2247
 3923SOL    HW223229   1.963   1.962  13.663 -0.4993  1.6819 -0.8882
 3924SOL     OW23230   2.517   2.073   5.997  0.5884 -0.5279 -0.3271
 3924SOL    HW123231   2.567   2.064   6.078 -1.2960 -1.2482  0.7284
 3924SOL    HW223232   2.448   2.135   6.021 -1.1077 -2.0546 -1.2781
 3925SOL     OW23233   4.499   1.089   5.955  0.2696  0.3636 -0.1538
 3925SOL    HW123234   4.461   1.039   6.027 -0.9608  1.2500 -0.1754
 3925SOL    HW223235   4.420   1.133   5.922  0.4441  1.4479  0.8614
 3926SOL     OW23236   1.669   0.245   5.366 -0.6678 -0.1145 -0.1949
 3926SOL    HW123237   1.750   0.196   5.352 -0.8388 -1.4271  3.2626
 3926SOL    HW223238   1.711   0.319   5.410 -0.8057 -1.3482  2.0365
 3927SOL     OW23239   4.479   2.654   4.492  0.0475  0.0327 -0.1596
 3927SOL    HW123240   4.444   2.617   4.573 -0.3922 -0.0560 -0.3859
 3927SOL    HW223241   4.402   2.657   4.435 -0.1948  0.8825  0.2212
 3928SOL     OW23242   2.562   0.628   6.311 -0.5901  0.0192 -0.0423
 3928SOL    HW123243   2.546   0.684   6.236  0.6378 -0.6500 -0.8030
 3928SOL    HW223244   2.510   0.550   6.291 -2.3988  0.8622  1.3908
 3929SOL     OW23245   0.840   1.149   1.346  0.5705 -0.0344  0.6195
 3929SOL    HW123246   0.768   1.205   1.374 -0.5961 -0.6709 -1.1049
 3929SOL    HW223247   0.909   1.211   1.324  0.8897 -0.0889  1.4446
 3930SOL     OW23248   0.506   3.910   4.373  0.0783 -0.2870  0.1641
 3930SOL    HW123249   0.450   3.952   4.439  2.3773  1.3711  1.0732
 3930SOL    HW223250   0.590   3.935   4.413  0.4288 -2.8310  1.0296
 3931SOL     OW23251   1.645   2.861   4.496 -0.0589 -0.1465  0.1684
 3931SOL    HW123252   1.707   2.921   4.456  2.5732 -1.0710  2.8474
 3931SOL    HW223253   1.610   2.813   4.422 -0.0003 -0.7849  0.5489
 3932SOL     OW23254   0.208   4.597   6.262 -0.9074 -0.5714  0.2510
 3932SOL    HW123255   0.258   4.552   6.194 -1.2837  0.4982 -0.7312
 3932SOL    HW223256   0.240   4.558   6.343  0.8401 -2.8121 -1.5353
 3933SOL     OW23257   3.123   4.255   3.303  0.0688 -0.1873  0.4128
 3933SOL    HW123258   3.191   4.315   3.273 -0.4470  0.2832  0.1729
 3933SOL    HW223259   3.158   4.218   3.384 -2.7624 -2.2669  0.6615
 3934SOL     OW23260   4.592   2.781   5.430 -0.1165 -0.2128  0.3752
 3934SOL    HW123261   4.615   2.711   5.491 -0.5428 -0.9853 -0.3434
 3934SOL    HW223262   4.568   2.848   5.494 -0.4796  0.4240 -0.4246
 3935SOL     OW23263   0.181   1.581   4.959  0.4999 -0.6278  0.1277
 3935SOL    HW123264   0.137   1.635   5.025 -0.1247 -0.8364 -0.1136
 3935SOL    HW223265   0.141   1.494   4.973 -0.1207  0.0393  2.5847
 3936SOL     OW23266   2.574   1.912  10.753  0.2589 -0.2956  0.0759
 3936SOL    HW123267   2.628   1.895  10.676  1.0262  1.3470  0.2512
 3936SOL    HW223268   2.569   1.828  10.797 -1.3781  0.5939  1.5554
 3937SOL     OW23269   3.750   3.747   0.703  0.3004  0.3665 -0.0155
 3937SOL    HW123270   3.758   3.656   0.675 -0.0407 -0.1196  1.4768
 3937SOL    HW223271   3.760   3.793   0.619  0.1867 -1.4804 -1.0376
 3938SOL     OW23272   2.291   4.250  15.139 -0.0260 -0.5117  0.2664
 3938SOL    HW123273   2.246   4.273  15.058  4.5805  1.7776 -1.6018
 3938SOL    HW223274   2.261   4.161  15.157  0.4237 -0.9586 -1.2091
 3939SOL     OW23275   1.479   0.846   1.831  0.7359 -0.0301 -0.5608
 3939SOL    HW123276   1.448   0.757   1.813 -0.4540  0.4810 -1.0809
 3939SOL    HW223277   1.560   0.845   1.781 -0.8994  2.1267 -3.2432
 3940SOL     OW23278   3.724   0.888   8.660 -0.0180  0.4450 -0.0023
 3940SOL    HW123279   3.734   0.841   8.743  0.1830  0.2065 -0.1599
 3940SOL    HW223280   3.640   0.932   8.669 -0.1043 -0.1226  2.0431
 3941SOL     OW23281   0.537   2.899   4.545 -0.5440  0.1013 -0.4012
 3941SOL    HW123282   0.492   2.911   4.462 -1.4657 -0.0885  0.0705
 3941SOL    HW223283   0.538   2.994   4.563  2.3325 -0.0708  0.4373
 3942SOL     OW23284   0.462   1.894   8.893  0.3301  0.0213 -0.1870
 3942SOL    HW123285   0.516   1.875   8.816 -0.7433 -0.6504 -0.7769
 3942SOL    HW223286   0.526   1.901   8.964  0.7658  0.7313 -0.6516
 3943SOL     OW23287   2.887   2.492  11.955  0.0437  0.1838  0.0620
 3943SOL    HW123288   2.943   2.559  11.915 -1.5928  0.6578 -1.4469
 3943SOL    HW223289   2.860   2.534  12.037 -4.8971 -0.9891 -0.9898
 3944SOL     OW23290   0.094   3.611   4.232 -0.2989  0.2487  0.2948
 3944SOL    HW123291   0.181   3.596   4.271 -1.4676  0.7540  3.1379
 3944SOL    HW223292   0.108   3.676   4.164 -0.0781 -0.9356 -0.8070
 3945SOL     OW23293   3.388   0.315   6.444  0.5780 -0.1928  0.0347
 3945SOL    HW123294   3.345   0.284   6.364  1.0002 -2.8806  0.8668
 3945SOL    HW223295   3.379   0.408   6.424 -1.2570 -0.5250 -0.6711
 3946SOL     OW23296   3.291   2.277   6.731  0.1951 -0.4924 -0.0065
 3946SOL    HW123297   3.216   2.323   6.768  2.0646  1.2545  1.5843
 3946SOL    HW223298   3.349   2.351   6.714 -0.1195 -0.7873 -2.3636
 3947SOL     OW23299   2.365   1.386   4.206  0.1105  0.5355  0.7266
 3947SOL    HW123300   2.306   1.368   4.279  0.5078 -1.1627  0.6317
 3947SOL    HW223301   2.452   1.413   4.233  0.5341 -0.6300  0.5522
 3948SOL     OW23302   2.241   0.155   7.258  0.2038 -0.0547 -0.4379
 3948SOL    HW123303   2.266   0.082   7.314 -0.6013 -2.0688 -2.7224
 3948SOL    HW223304   2.322   0.202   7.240 -0.9582  1.8697 -0.7209
 3949SOL     OW23305   3.947   0.024   8.970 -0.2558  0.9201  0.0688
 3949SOL    HW123306   3.904   0.004   8.887 -0.8519 -0.6513  0.7674
 3949SOL    HW223307   4.023   4.690   8.960  0.2782  1.2134  2.3604
 3950SOL     OW23308   2.085   0.911   5.686  1.2039 -0.0294 -0.0017
 3950SOL    HW123309   2.004   0.873   5.720  1.2683 -0.2053 -0.0401
 3950SOL    HW223310   2.071   0.918   5.592  3.3122 -3.6734 -0.6130
 3951SOL     OW23311   1.817   4.337   4.507 -0.4328  0.0939 -0.1079
 3951SOL    HW123312   1.801   4.255   4.460  1.4979 -0.7655  0.7670
 3951SOL    HW223313   1.779   4.306   4.589 -0.2501 -3.0364 -1.2091
 3952SOL     OW23314   1.832   3.101  15.688 -0.1625 -0.0927  0.0674
 3952SOL    HW123315   1.902   3.086  15.625  0.8057  1.0803  0.8752
 3952SOL    HW223316   1.767   3.163  15.654 -2.8664 -1.6319  2.3786
 3953SOL     OW23317   2.701   1.580   5.389 -0.4226 -0.1873  0.3333
 3953SOL    HW123318   2.630   1.618   5.439 -0.0551  1.2491 -0.2360
 3953SOL    HW223319   2.652   1.546   5.314 -0.5327  1.2859 -0.2696
 3954SOL     OW23320   0.713   3.752   7.478  0.2168  0.8144  0.3907
 3954SOL    HW123321   0.660   3.812   7.530  2.0425  0.0865  3.0878
 3954SOL    HW223322   0.797   3.748   7.524 -0.6349 -0.1555  1.8166
 3955SOL     OW23323   0.980   4.649  11.533 -0.1621  0.2417  0.3019
 3955SOL    HW123324   0.951   4.652  11.442  0.4641  0.7800  0.1191
 3955SOL    HW223325   1.041   4.723  11.544  0.6495 -0.1162 -1.7546
 3956SOL     OW23326   0.095   2.242   6.294 -0.6296  0.2427 -0.3069
 3956SOL    HW123327   0.184   2.267   6.317 -0.1481 -3.0437  1.4438
 3956SOL    HW223328   0.058   2.216   6.378 -0.8514 -1.2291 -0.8565
 3957SOL     OW23329   2.392   4.309   8.124 -0.1930 -0.1906  0.0093
 3957SOL    HW123330   2.393   4.366   8.201 -1.3413 -0.7869  0.4631
 3957SOL    HW223331   2.336   4.361   8.066 -0.8574  0.8027  1.5527
 3958SOL     OW23332   0.229   3.061   4.537  0.3163 -0.6616  0.0049
 3958SOL    HW123333   0.205   3.151   4.512  0.1029 -0.2362  1.7395
 3958SOL    HW223334   0.273   3.028   4.459 -0.1992  0.1078 -0.6189
 3959SOL     OW23335   0.959   3.752   7.573  0.4664 -0.1829  0.4113
 3959SOL    HW123336   1.013   3.758   7.652 -0.7051 -1.2572  1.2983
 3959SOL    HW223337   1.011   3.701   7.512  0.8280  1.1031 -0.3539
 3960SOL     OW23338   3.780   0.452   9.161  0.0942  0.1970  0.6192
 3960SOL    HW123339   3.718   0.441   9.233  0.4036 -2.5416  0.4714
 3960SOL    HW223340   3.840   0.521   9.189 -0.1327  0.3437  0.7371
 3961SOL     OW23341   4.027   4.492   3.637  0.7343 -0.4110 -0.6891
 3961SOL    HW123342   4.087   4.425   3.604  0.9639 -1.3475  1.5870
 3961SOL    HW223343   4.044   4.556   3.568 -3.4918  0.2431 -1.1124
 3962SOL     OW23344   0.644   2.339   5.757  0.6066 -0.1506  0.1152
 3962SOL    HW123345   0.630   2.284   5.680 -0.4323  1.2306 -0.6877
 3962SOL    HW223346   0.668   2.421   5.714 -0.7111  1.0322  1.6274
 3963SOL     OW23347   0.658   2.705  12.138  0.5661 -0.0604  0.1529
 3963SOL    HW123348   0.634   2.694  12.230 -1.3585 -0.2450 -0.3652
 3963SOL    HW223349   0.727   2.772  12.141 -1.3803  2.0827 -2.2073
 3964SOL     OW23350   4.454   4.153  13.636 -0.4583 -0.1419  0.0198
 3964SOL    HW123351   4.392   4.225  13.652 -0.4057 -0.6879  2.7130
 3964SOL    HW223352   4.386   4.092  13.610  0.2507 -0.6503 -0.6563
 3965SOL     OW23353   0.470   1.999   3.315  0.2779  0.0770  0.0825
 3965SOL    HW123354   0.560   2.027   3.301 -1.2242  4.3293 -1.1480
 3965SOL    HW223355   0.471   1.944   3.394 -1.7347  1.4497  1.0985
 3966SOL     OW23356   4.534   3.914   3.230 -0.1296 -0.0843  0.1346
 3966SOL    HW123357   4.477   3.844   3.196 -0.4625 -0.0362  0.5899
 3966SOL    HW223358   4.532   3.976   3.157 -0.7117 -0.8749 -0.5296
 3967SOL     OW23359   1.508   0.046  16.720  0.1743  0.9762  0.0341
 3967SOL    HW123360   1.452   0.005  16.654  1.1629 -0.2373 -0.0488
 3967SOL    HW223361   1.583   4.710  16.722 -1.3398 -0.8640  1.2233
 3968SOL     OW23362   2.845   4.107   2.747 -0.2082 -0.0131 -0.2802
 3968SOL    HW123363   2.773   4.156   2.708  1.2030  0.9986 -1.6275
 3968SOL    HW223364   2.913   4.175   2.750 -0.8557  0.7055 -2.2123
 3969SOL     OW23365   3.169   4.093  15.858  0.2467 -0.3842  0.8776
 3969SOL    HW123366   3.106   4.118  15.926  1.1971 -0.0673  1.6278
 3969SOL    HW223367   3.239   4.050  15.907  1.2847 -0.5771 -0.7769
 3970SOL     OW23368   1.688   2.282   4.627  0.2604  0.3437  0.5577
 3970SOL    HW123369   1.712   2.217   4.693  0.1948 -1.0569 -0.7956
 3970SOL    HW223370   1.775   2.285   4.588  0.1504  0.9726  0.3697
 3971SOL     OW23371   2.325   1.297   3.501 -0.0844 -0.1615 -0.0339
 3971SOL    HW123372   2.232   1.276   3.503 -0.4385  1.5335  0.6011
 3971SOL    HW223373   2.343   1.258   3.415 -1.4234  1.7815 -1.1942
 3972SOL     OW23374   3.096   4.154   5.376 -0.1987 -0.2715  0.2672
 3972SOL    HW123375   3.051   4.069   5.375  2.7289 -1.8194  1.1560
 3972SOL    HW223376   3.018   4.210   5.373 -0.7238 -0.9222  1.7866
 3973SOL     OW23377   3.553   2.455   7.116 -0.1163 -0.6924 -0.1754
 3973SOL    HW123378   3.576   2.390   7.049 -0.5116 -0.1711 -0.8104
 3973SOL    HW223379   3.588   2.534   7.076 -0.3145  0.1335  1.2993
 3974SOL     OW23380   3.872   1.422   7.591 -0.1613 -0.4362  0.0542
 3974SOL    HW123381   3.883   1.456   7.502 -0.1681  1.1953  0.6792
 3974SOL    HW223382   3.934   1.350   7.602  0.6084  0.3668  0.9874
 3975SOL     OW23383   4.712   0.254   9.481  0.1712  0.0716  0.1139
 3975SOL    HW123384   0.022   0.312   9.412  1.4294 -1.3815 -0.5155
 3975SOL    HW223385   4.717   0.312   9.557 -0.4527 -1.1782  1.1087
 3976SOL     OW23386   0.323   3.478   8.439 -0.1314 -0.4372 -0.8095
 3976SOL    HW123387   0.413   3.470   8.407  0.3188 -1.4391  0.6820
 3976SOL    HW223388   0.290   3.405   8.386  1.8286 -3.1492  1.6782
 3977SOL     OW23389   4.479   3.395   7.084  0.0110  0.3743  0.0641
 3977SOL    HW123390   4.523   3.461   7.138 -0.2791  0.0436  0.6896
 3977SOL    HW223391   4.553   3.372   7.026 -0.6386 -0.3497 -0.4814
 3978SOL     OW23392   0.552   0.672  16.602  0.1473 -0.4326  0.3261
 3978SOL    HW123393   0.467   0.717  16.596  0.1614 -0.7061 -1.8230
 3978SOL    HW223394   0.580   0.693  16.513 -3.9278 -1.1340 -1.1552
 3979SOL     OW23395   2.618   4.065   2.342  0.7218 -0.0624 -0.2926
 3979SOL    HW123396   2.548   4.127   2.360  1.7388  1.5168 -1.7352
 3979SOL    HW223397   2.609   4.069   2.247 -0.9289 -0.6127 -0.1551
 3980SOL     OW23398   0.479   3.249  14.082 -0.2888  0.0276 -0.0771
 3980SOL    HW123399   0.469   3.311  14.010 -2.1343  0.4292  0.5151
 3980SOL    HW223400   0.454   3.294  14.163 -0.9911  0.0666 -0.3084
 3981SOL     OW23401   0.436   2.408   8.568 -0.2157 -0.6448 -0.4031
 3981SOL    HW123402   0.465   2.452   8.647  2.0607  0.3091 -1.7700
 3981SOL    HW223403   0.511   2.361   8.533 -0.2960 -3.3582  3.0763
 3982SOL     OW23404   0.419   4.116   8.517  0.4174  0.4162 -0.6469
 3982SOL    HW123405   0.476   4.039   8.511 -0.4414 -0.2184 -0.5716
 3982SOL    HW223406   0.335   4.078   8.490  0.7938  0.5191 -1.9435
 3983SOL     OW23407   1.765   3.129   1.632  0.4687 -0.0721 -0.3910
 3983SOL    HW123408   1.672   3.117   1.613  0.1297 -0.0182  1.2791
 3983SOL    HW223409   1.763   3.168   1.719 -0.0455 -0.0560 -0.4065
 3984SOL     OW23410   3.472   0.225   1.523 -0.4567 -0.1327  0.0427
 3984SOL    HW123411   3.479   0.273   1.441 -0.3551  0.3174  0.3175
 3984SOL    HW223412   3.494   0.139   1.486  1.3724  0.2601  0.2317
 3985SOL     OW23413   0.928   3.306   4.073  0.7912  0.2139  0.0965
 3985SOL    HW123414   0.885   3.363   4.136 -2.4323  0.7889 -2.6551
 3985SOL    HW223415   0.977   3.375   4.029  0.2565  0.1948 -0.5287
 3986SOL     OW23416   2.834   0.546  14.006 -0.3214 -0.1417  0.4054
 3986SOL    HW123417   2.758   0.598  13.981  1.5223  0.7740 -3.3754
 3986SOL    HW223418   2.822   0.557  14.100 -0.9568  1.3616  0.1517
 3987SOL     OW23419   4.065   3.877  10.346  0.5808 -0.0621 -0.3215
 3987SOL    HW123420   4.025   3.940  10.286 -4.1765 -0.1878  2.7621
 3987SOL    HW223421   4.116   3.932  10.405 -0.9098 -1.7376  2.5161
 3988SOL     OW23422   3.138   2.328   7.847 -0.1188 -0.9960  0.2531
 3988SOL    HW123423   3.123   2.238   7.878  1.1495 -2.1162 -2.3875
 3988SOL    HW223424   3.220   2.332   7.895  0.6864  1.1753 -1.3298
 3989SOL     OW23425   1.265   3.759   8.339 -0.0227 -0.2330 -0.0578
 3989SOL    HW123426   1.341   3.768   8.397  1.6551 -0.7165 -2.1702
 3989SOL    HW223427   1.191   3.768   8.400 -0.1165  3.0305 -0.6386
 3990SOL     OW23428   0.494   0.872   3.758  0.6395  0.4792  0.6350
 3990SOL    HW123429   0.538   0.839   3.680  1.8645 -0.9759  1.9261
 3990SOL    HW223430   0.501   0.796   3.816 -2.6193  1.0653  1.7835
 3991SOL     OW23431   2.251   1.947   6.305  0.3370 -0.3093  0.3226
 3991SOL    HW123432   2.340   1.910   6.304  0.8781  1.0070  0.3794
 3991SOL    HW223433   2.202   1.866   6.319  0.3269 -0.3051  0.3114
 3992SOL     OW23434   1.015   3.858   9.004  0.3350  0.0873 -0.3345
 3992SOL    HW123435   1.048   3.933   9.054 -0.8843 -0.2023  0.9048
 3992SOL    HW223436   0.925   3.842   9.032  0.8483 -1.5021  0.3817
 3993SOL     OW23437   2.906   1.277   4.786  0.3259 -0.1842  0.1303
 3993SOL    HW123438   2.983   1.223   4.769  0.6121  0.3559 -0.2894
 3993SOL    HW223439   2.906   1.285   4.882  0.9246  0.6779  0.0630
 3994SOL     OW23440   0.787   0.033   6.688  0.2414  0.1261  0.1828
 3994SOL    HW123441   0.834   0.010   6.768  0.5881  0.3834  0.0499
 3994SOL    HW223442   0.794   0.128   6.682 -1.8545  0.1535 -1.8384
 3995SOL     OW23443   4.279   4.418   6.922  0.6174  0.4294  0.0207
 3995SOL    HW123444   4.344   4.389   6.986 -1.7681 -0.8670  1.8647
 3995SOL    HW223445   4.213   4.352   6.945  1.5661 -0.0131  1.4747
 3996SOL     OW23446   3.978   1.982   5.632  0.2010  0.0665 -0.3444
 3996SOL    HW123447   4.007   2.065   5.596 -0.5863  0.7611  0.6206
 3996SOL    HW223448   3.903   2.007   5.686  1.8154  1.0391  1.4617
 3997SOL     OW23449   4.113   2.503  11.632 -0.4765  0.1468  0.0413
 3997SOL    HW123450   4.200   2.517  11.594 -1.2599 -0.4777 -1.9517
 3997SOL    HW223451   4.075   2.437  11.574 -1.8467  1.0278 -0.0530
 3998SOL     OW23452   3.130   3.407  14.811  0.2494  0.4229 -0.4109
 3998SOL    HW123453   3.148   3.498  14.787  0.8005  0.6710  0.9954
 3998SOL    HW223454   3.083   3.389  14.729 -2.2617 -0.1980  1.1706
 3999SOL     OW23455   2.386   1.284  12.597  0.3176 -0.0768 -0.7407
 3999SOL    HW123456   2.370   1.206  12.545  0.5522 -0.8196  0.3214
 3999SOL    HW223457   2.347   1.353  12.544 -0.9461 -1.1182 -1.1431
 4000SOL     OW23458   1.896   3.476   9.092  0.1384  0.4036  0.5942
 4000SOL    HW123459   1.858   3.564   9.085 -0.6427  0.2597  3.0749
 4000SOL    HW223460   1.848   3.443   9.167 -1.9562 -0.4423 -1.1270
 4001SOL     OW23461   2.656   0.370  11.506  0.6057  0.1287 -0.0495
 4001SOL    HW123462   2.737   0.321  11.492  0.2072 -0.5388 -0.0074
 4001SOL    HW223463   2.643   0.406  11.418 -1.1390  0.4238  0.3174
 4002SOL     OW23464   0.455   1.683   3.512 -0.5214 -0.3126 -0.2755
 4002SOL    HW123465   0.438   1.753   3.574  1.7941  0.2213 -0.2453
 4002SOL    HW223466   0.551   1.690   3.515 -0.5419 -0.6202  1.5235
 4003SOL     OW23467   4.095   0.322  15.671 -0.1028 -0.6020  0.6938
 4003SOL    HW123468   4.080   0.387  15.740 -0.3379 -2.2507  2.1987
 4003SOL    HW223469   4.176   0.351  15.630 -0.9643  0.7886 -0.0195
 4004SOL     OW23470   1.778   4.712   0.020 -0.1545  0.2522 -0.0240
 4004SOL    HW123471   1.808   4.706   0.111  1.1370 -2.2336 -0.6126
 4004SOL    HW223472   1.855   4.679  17.669  0.8817 -0.0029  1.8797
 4005SOL     OW23473   0.136   1.774  10.774  0.0107  0.1087 -0.0753
 4005SOL    HW123474   0.067   1.748  10.835  1.0810 -0.6055  0.8229
 4005SOL    HW223475   0.088   1.782  10.692 -1.8585 -1.4927  0.8507
 4006SOL     OW23476   2.758   1.010   0.814  0.5173  0.0038  0.2706
 4006SOL    HW123477   2.823   1.041   0.877 -1.4699  1.5487  1.5728
 4006SOL    HW223478   2.733   0.924   0.848  1.7400  0.0409  1.2388
 4007SOL     OW23479   0.769   1.466   5.032 -0.1606 -0.3764  0.3741
 4007SOL    HW123480   0.764   1.381   4.989 -0.7040 -0.4068  0.4947
 4007SOL    HW223481   0.806   1.443   5.118 -0.7175  0.9313  0.9703
 4008SOL     OW23482   4.478   3.730  15.628 -0.4190 -0.6080  0.0198
 4008SOL    HW123483   4.518   3.709  15.712 -1.8429  0.8229  1.0812
 4008SOL    HW223484   4.417   3.656  15.623  1.9668 -2.4517 -1.8312
 4009SOL     OW23485   4.195   2.113   7.865  0.0894  0.2242 -0.8893
 4009SOL    HW123486   4.192   2.076   7.953  2.2815 -4.2593 -2.6504
 4009SOL    HW223487   4.239   2.040   7.821  1.0898  0.0720  0.3756
 4010SOL     OW23488   1.003   0.658   2.868  0.4438  0.7489  0.1341
 4010SOL    HW123489   1.067   0.722   2.898  1.2391 -0.8103  1.7227
 4010SOL    HW223490   1.060   0.583   2.855  1.2415  1.6063 -1.3396
 4011SOL     OW23491   1.094   4.255   5.707  0.0363  0.0933 -0.5831
 4011SOL    HW123492   1.115   4.184   5.768  1.6263  0.2704 -0.9355
 4011SOL    HW223493   1.182   4.292   5.708 -0.2066  0.6665 -0.6271
 4012SOL     OW23494   0.699   0.347  17.096 -0.3485  0.5166  0.7119
 4012SOL    HW123495   0.706   0.426  17.150 -0.3059 -0.0748  1.5828
 4012SOL    HW223496   0.750   0.371  17.019 -0.1409 -0.0072  0.6890
 4013SOL     OW23497   1.628   4.018   5.804 -0.4317  0.2323  0.4366
 4013SOL    HW123498   1.614   4.027   5.898 -0.3742 -3.2244  0.7923
 4013SOL    HW223499   1.608   4.108   5.778  0.7034  0.2640 -0.3430
 4014SOL     OW23500   1.599   1.399   4.444 -0.0437  0.1974 -0.3148
 4014SOL    HW123501   1.589   1.482   4.398  1.2654 -0.6243 -2.0548
 4014SOL    HW223502   1.673   1.355   4.403 -1.5900 -2.4851 -0.2841
 4015SOL     OW23503   3.866   3.948   6.803 -0.6415  0.2128  0.1999
 4015SOL    HW123504   3.770   3.954   6.806 -0.7045  1.3303 -4.7627
 4015SOL    HW223505   3.891   4.037   6.779  1.3149 -0.1178  1.0507
 4016SOL     OW23506   4.244   3.829   6.332 -0.1181  0.3813  0.0669
 4016SOL    HW123507   4.242   3.739   6.298 -0.7070  0.5313 -0.2881
 4016SOL    HW223508   4.155   3.863   6.325  0.0247  1.1439  1.9889
 4017SOL     OW23509   2.177   2.781   4.285  0.2365  0.0544  0.0337
 4017SOL    HW123510   2.257   2.824   4.315  0.5188 -1.6353  1.7236
 4017SOL    HW223511   2.196   2.694   4.320 -2.1479 -1.4269 -2.3846
 4018SOL     OW23512   3.134   3.521  16.700 -0.8495  0.0596 -0.3772
 4018SOL    HW123513   3.085   3.449  16.660 -2.1170  0.5428  0.3064
 4018SOL    HW223514   3.157   3.496  16.789 -0.4162  0.8019 -0.2821
 4019SOL     OW23515   0.058   4.683   9.349 -0.2652  0.6005 -0.0027
 4019SOL    HW123516   0.117   0.024   9.310  1.0545 -0.9527 -0.6166
 4019SOL    HW223517   0.074   4.711   9.439 -1.6279  0.1882  0.3636
 4020SOL     OW23518   2.367   0.647   4.508 -0.2435  0.3362  0.3276
 4020SOL    HW123519   2.385   0.555   4.526  0.4667  0.6256  1.0796
 4020SOL    HW223520   2.436   0.668   4.445  1.2067  0.5914  1.9938
 4021SOL     OW23521   3.328   1.032   8.940  0.5318  0.3396 -0.0202
 4021SOL    HW123522   3.255   1.032   8.877 -0.2935 -0.4189  0.9316
 4021SOL    HW223523   3.283   1.002   9.018  1.6236  0.8546  0.8076
 4022SOL     OW23524   3.162   3.621  13.320 -0.1820  0.0210 -0.8185
 4022SOL    HW123525   3.167   3.603  13.226  0.5942 -0.6452 -0.6508
 4022SOL    HW223526   3.243   3.574  13.342 -1.5423 -2.0869 -0.3612
 4023SOL     OW23527   0.150   2.535   2.781 -0.0263 -0.1180  0.3929
 4023SOL    HW123528   0.231   2.532   2.830 -0.2644  0.0731  0.7926
 4023SOL    HW223529   0.189   2.482   2.711 -1.6418 -0.9369  0.1010
 4024SOL     OW23530   4.230   3.161   3.128 -0.6805  0.0799 -0.0184
 4024SOL    HW123531   4.136   3.177   3.137 -1.4142 -4.1874 -0.1232
 4024SOL    HW223532   4.235   3.066   3.141 -0.7197  0.3765  2.2697
 4025SOL     OW23533   2.021   2.921   4.440 -0.1246  0.4122  0.1657
 4025SOL    HW123534   2.091   2.986   4.439  0.4088 -0.1316  2.0761
 4025SOL    HW223535   2.049   2.860   4.373 -0.6184  0.8370 -0.4234
 4026SOL     OW23536   3.985   0.242   4.342  0.1690 -0.3047  0.0131
 4026SOL    HW123537   4.027   0.178   4.399 -0.9210  0.0005  1.1442
 4026SOL    HW223538   3.953   0.181   4.275 -0.5224 -0.0959  0.1557
 4027SOL     OW23539   1.692   3.956   3.584  0.3557 -0.9012  0.1694
 4027SOL    HW123540   1.776   3.928   3.622  0.1882  0.0809  1.2662
 4027SOL    HW223541   1.703   3.941   3.491 -0.0862 -1.8502  0.2673
 4028SOL     OW23542   1.397   1.138   1.692  0.1772  0.2884 -0.1300
 4028SOL    HW123543   1.397   1.192   1.771  1.0095  2.5321 -1.6519
 4028SOL    HW223544   1.454   1.065   1.714 -0.4427  0.0278  0.6108
 4029SOL     OW23545   0.829   3.514   8.454 -0.5283 -0.2618 -0.1738
 4029SOL    HW123546   0.911   3.522   8.405 -0.3844 -1.9867 -0.2012
 4029SOL    HW223547   0.869   3.525   8.540 -0.6893 -1.8902  0.0992
 4030SOL     OW23548   4.145   2.773  11.129  0.3745 -0.3212  0.2388
 4030SOL    HW123549   4.083   2.725  11.185 -0.2690  2.5016  1.9522
 4030SOL    HW223550   4.120   2.861  11.156 -0.4570 -0.9842  1.6464
 4031SOL     OW23551   4.288   3.908   7.775  0.1083 -0.8470  1.0306
 4031SOL    HW123552   4.286   3.980   7.712 -3.5140  1.3305  3.6506
 4031SOL    HW223553   4.296   3.945   7.863 -0.0224  1.5845  0.0065
 4032SOL     OW23554   1.434   1.345   3.706 -0.4475 -0.0894 -0.0263
 4032SOL    HW123555   1.452   1.268   3.653  0.2548  0.5698 -0.7598
 4032SOL    HW223556   1.518   1.390   3.720 -0.7251 -0.2983  2.3097
 4033SOL     OW23557   1.715   2.630   6.064  0.5511 -0.4534  0.0882
 4033SOL    HW123558   1.777   2.642   6.136  3.2106 -1.0305 -2.1121
 4033SOL    HW223559   1.693   2.538   6.077  1.4606 -0.2279  3.3422
 4034SOL     OW23560   4.201   0.918  12.919  0.4248 -0.2062 -0.2200
 4034SOL    HW123561   4.116   0.930  12.877  0.9007 -0.7010 -1.3085
 4034SOL    HW223562   4.221   1.010  12.938 -2.0069  0.6304 -1.6901
 4035SOL     OW23563   2.733   0.461   8.123  1.0869 -0.3148 -0.4023
 4035SOL    HW123564   2.722   0.538   8.179  1.9935  0.5472 -1.4052
 4035SOL    HW223565   2.766   0.396   8.185 -0.0289 -0.2905  0.2136
 4036SOL     OW23566   2.304   0.871   0.058  0.4166 -0.1744  0.2146
 4036SOL    HW123567   2.314   0.867  17.659 -0.1806  1.4001  0.0728
 4036SOL    HW223568   2.223   0.820   0.067 -0.4018  1.2926  1.2882
 4037SOL     OW23569   2.098   4.170  16.855 -0.3430 -0.2515  0.3912
 4037SOL    HW123570   2.138   4.231  16.916 -0.6961  0.1214  0.2474
 4037SOL    HW223571   2.095   4.090  16.908  0.6112  0.2529  1.1980
 4038SOL     OW23572   4.512   0.778   2.736 -0.0412 -0.1813  0.3685
 4038SOL    HW123573   4.462   0.763   2.656  0.7207 -1.9171  0.2219
 4038SOL    HW223574   4.573   0.844   2.703 -0.5103 -0.6582 -1.4212
 4039SOL     OW23575   3.520   0.074  11.968  0.0882  0.8319 -0.1438
 4039SOL    HW123576   3.533   0.040  11.879 -1.7869 -1.5542  0.4993
 4039SOL    HW223577   3.598   0.040  12.012  0.5266  0.4608 -1.1892
 4040SOL     OW23578   0.929   3.352   8.694 -0.2477 -0.0328 -0.1934
 4040SOL    HW123579   1.008   3.406   8.688  0.3394 -1.0618 -1.7148
 4040SOL    HW223580   0.876   3.405   8.754  0.6311  0.6794 -0.0494
 4041SOL     OW23581   4.137   3.669   5.539 -0.1233  0.1797 -0.4728
 4041SOL    HW123582   4.103   3.758   5.532 -0.8755  0.1159  2.4328
 4041SOL    HW223583   4.226   3.683   5.505 -0.0381 -1.0486 -0.7506
 4042SOL     OW23584   2.408   1.383  17.602  0.7834 -0.2250 -0.1052
 4042SOL    HW123585   2.378   1.473  17.609 -0.1523 -0.6507  1.5339
 4042SOL    HW223586   2.503   1.393  17.602  0.8541 -0.8623  0.4485
 4043SOL     OW23587   1.924   4.718   0.230  0.4552  0.4715 -0.6087
 4043SOL    HW123588   1.895   4.717   0.321 -2.4510 -1.8067 -1.5707
 4043SOL    HW223589   1.957   0.084   0.227 -0.9096  1.0264  1.3562
 4044SOL     OW23590   4.386   0.376   9.562  0.1700  0.4992  0.1534
 4044SOL    HW123591   4.386   0.472   9.555  1.1217  0.6591  2.0980
 4044SOL    HW223592   4.427   0.364   9.648 -1.6661 -0.0340  0.9441
 4045SOL     OW23593   4.690   1.769   9.351  0.5462  0.3046  0.1499
 4045SOL    HW123594   4.635   1.831   9.400 -1.3069 -0.2489 -1.2511
 4045SOL    HW223595   0.040   1.751   9.410 -0.3200  1.6275  1.6389
 4046SOL     OW23596   0.063   0.413   2.953  0.1650  0.0482 -0.0410
 4046SOL    HW123597   0.059   0.457   2.868  1.1357 -0.6394 -0.4304
 4046SOL    HW223598   4.715   0.469   2.984  2.2991  1.1665  2.8842
 4047SOL     OW23599   0.507   3.610   2.150 -0.5387  0.6137 -0.1570
 4047SOL    HW123600   0.583   3.667   2.137 -0.7889  0.4270 -2.4174
 4047SOL    HW223601   0.493   3.575   2.062 -1.2849  0.7987 -0.1131
 4048SOL     OW23602   2.391   4.002   3.792  0.1524  0.1903 -0.3783
 4048SOL    HW123603   2.367   4.077   3.845 -1.0945  0.7651 -1.7595
 4048SOL    HW223604   2.471   4.037   3.752  0.5332 -0.2611 -0.0118
 4049SOL     OW23605   4.712   1.262  13.696  0.1894 -0.7268 -0.3631
 4049SOL    HW123606   4.682   1.260  13.787  1.5046 -0.3233  0.0878
 4049SOL    HW223607   0.081   1.239  13.701 -0.0265 -1.2014  1.4054
 4050SOL     OW23608   3.330   0.944   5.572  0.4839  0.0313 -0.2802
 4050SOL    HW123609   3.343   1.032   5.538 -0.5398 -0.2046 -1.2695
 4050SOL    HW223610   3.424   0.926   5.575  0.8030  1.5685 -0.9019
 4051SOL     OW23611   3.450   0.606   4.668 -0.0649 -0.4325  0.2392
 4051SOL    HW123612   3.483   0.549   4.598 -3.3054  0.9153 -2.4046
 4051SOL    HW223613   3.371   0.558   4.694  0.0633  1.3268  3.7694
 4052SOL     OW23614   1.573   4.354   7.807 -0.4280  0.0152 -0.0923
 4052SOL    HW123615   1.500   4.379   7.749  0.5496 -0.4113 -1.5115
 4052SOL    HW223616   1.578   4.425   7.871 -0.7562 -0.2748  0.2550
 4053SOL     OW23617   4.114   1.437   6.537 -0.1698  0.4231 -0.0567
 4053SOL    HW123618   4.089   1.496   6.608  1.7771  0.5757  0.5261
 4053SOL    HW223619   4.052   1.365   6.538 -0.1840  0.4796  2.4892
 4054SOL     OW23620   3.176   3.783   3.751  0.7417  0.1671 -0.4533
 4054SOL    HW123621   3.244   3.811   3.690 -0.5359  0.2947 -1.7916
 4054SOL    HW223622   3.238   3.766   3.823  0.0430  0.5782  0.2438
 4055SOL     OW23623   0.520   4.256   8.213 -0.1318 -0.2571 -0.2264
 4055SOL    HW123624   0.540   4.166   8.237 -2.0434 -0.2216  1.4939
 4055SOL    HW223625   0.478   4.237   8.130 -0.8697  0.3757 -0.0005
 4056SOL     OW23626   2.907   1.949   9.599 -0.0337  0.2466  0.2167
 4056SOL    HW123627   2.851   2.026   9.612  0.5853  0.8246 -0.5404
 4056SOL    HW223628   2.933   1.926   9.688  0.5965  1.4604  0.3447
 4057SOL     OW23629   0.352   1.614   5.974  0.8089  0.1607 -0.2862
 4057SOL    HW123630   0.286   1.662   6.024 -0.7699 -0.7615 -1.4931
 4057SOL    HW223631   0.299   1.565   5.911 -1.6048  1.4933  0.7123
 4058SOL     OW23632   3.235   3.168   2.892 -0.2555 -0.0034 -0.6032
 4058SOL    HW123633   3.153   3.201   2.929  1.3987 -0.4542  3.4807
 4058SOL    HW223634   3.277   3.132   2.970 -1.2949  1.9797  0.8607
 4059SOL     OW23635   0.711   1.192   2.408 -0.1555 -0.3547  0.6953
 4059SOL    HW123636   0.748   1.227   2.327  0.0726 -1.1336  0.4621
 4059SOL    HW223637   0.766   1.237   2.472 -0.0557 -0.4191  0.6556
 4060SOL     OW23638   3.328   3.642   0.128 -0.0060  0.0705 -0.1637
 4060SOL    HW123639   3.389   3.699   0.174  2.0842 -2.0966 -0.2837
 4060SOL    HW223640   3.288   3.687   0.053 -1.8265 -2.4048 -0.6724
 4061SOL     OW23641   3.510   0.412   2.022  0.5883 -0.0513 -0.0636
 4061SOL    HW123642   3.571   0.352   1.978 -0.5105 -1.2270  0.0135
 4061SOL    HW223643   3.517   0.491   1.969  0.7254 -1.1665 -1.7258
 4062SOL     OW23644   1.026   3.151   3.853  0.2054 -0.0940  0.3163
 4062SOL    HW123645   1.052   3.237   3.886  1.3171 -0.8021  1.2948
 4062SOL    HW223646   1.008   3.105   3.935  0.9324  0.1898  0.6401
 4063SOL     OW23647   1.521   0.156  14.058  0.2723 -0.1773  0.0621
 4063SOL    HW123648   1.609   0.141  14.024  0.6198 -0.2876  1.0066
 4063SOL    HW223649   1.516   0.249  14.037 -1.2301 -0.3332 -0.2288
 4064SOL     OW23650   0.976   0.487   4.151 -0.0576  0.1979 -0.4622
 4064SOL    HW123651   0.895   0.524   4.186 -0.3959  0.8970 -1.9857
 4064SOL    HW223652   0.960   0.443   4.067 -3.2019 -1.7588  1.1832
 4065SOL     OW23653   4.609   2.200   7.863  0.0680 -0.3540 -0.4297
 4065SOL    HW123654   4.705   2.203   7.868 -0.0178 -2.6724  2.3600
 4065SOL    HW223655   4.601   2.115   7.819  3.5615 -1.5685  1.2077
 4066SOL     OW23656   1.611   3.677   9.597  0.4456 -0.1889 -0.3769
 4066SOL    HW123657   1.594   3.585   9.614  0.9957 -0.4710 -1.3990
 4066SOL    HW223658   1.699   3.669   9.561  1.7304  1.9334  2.3256
 4067SOL     OW23659   1.408   1.022   2.910  0.1135 -0.7971  0.1485
 4067SOL    HW123660   1.477   0.961   2.937 -0.3563 -2.5034 -2.5623
 4067SOL    HW223661   1.359   0.965   2.851 -1.1808 -0.3330  0.7551
 4068SOL     OW23662   2.486   3.026  15.435 -0.6414  0.0875  0.5163
 4068SOL    HW123663   2.475   2.987  15.522  2.3348 -2.3530 -0.1742
 4068SOL    HW223664   2.428   2.985  15.371  0.1096  0.4973 -0.4316
 4069SOL     OW23665   4.619   0.372   7.281 -0.1971  0.2330  0.6461
 4069SOL    HW123666   4.631   0.453   7.330 -1.6012  0.0050  1.3646
 4069SOL    HW223667   4.527   0.347   7.292 -0.7415  1.3983 -1.3132
 4070SOL     OW23668   2.836   1.340   4.160 -0.4762  0.0268  0.6420
 4070SOL    HW123669   2.821   1.407   4.093  1.5043 -1.9311 -1.7827
 4070SOL    HW223670   2.931   1.345   4.144 -0.8820  0.6547 -1.5880
 4071SOL     OW23671   0.392   4.653   8.620 -0.6317  0.6212 -0.1309
 4071SOL    HW123672   0.451   0.004   8.613 -0.6675  0.6239 -0.4101
 4071SOL    HW223673   0.442   4.596   8.678 -0.8206 -1.4546 -2.0079
 4072SOL     OW23674   3.525   1.607   3.031 -0.1160 -0.1745  0.5910
 4072SOL    HW123675   3.479   1.569   3.106 -3.1571  0.5726 -0.8968
 4072SOL    HW223676   3.604   1.553   3.035 -0.9744 -1.5156 -0.4955
 4073SOL     OW23677   1.311   2.320   6.145 -0.3986  0.0618  0.0895
 4073SOL    HW123678   1.256   2.380   6.094  1.0999 -0.0973 -1.7240
 4073SOL    HW223679   1.248   2.248   6.151 -1.2332  0.7729 -0.0730
 4074SOL     OW23680   0.040   2.116   4.910  0.1736  0.6065 -0.3004
 4074SOL    HW123681   0.032   2.066   4.991  2.4926 -1.3012 -1.2623
 4074SOL    HW223682   4.681   2.166   4.910 -0.9325 -1.2074 -2.2235
 4075SOL     OW23683   1.922   3.522  12.804 -0.0289  0.0637 -0.2979
 4075SOL    HW123684   1.875   3.508  12.886 -0.3713  2.0963 -0.1383
 4075SOL    HW223685   1.979   3.597  12.823  1.5170 -1.2262  0.1950
 4076SOL     OW23686   0.946   1.644  11.960  0.1778  0.4222  0.6831
 4076SOL    HW123687   0.901   1.622  12.042  1.3341 -1.0188  0.9408
 4076SOL    HW223688   0.880   1.691  11.910  1.2966  0.9369 -0.2941
 4077SOL     OW23689   4.539   4.363   3.917 -0.0949  0.7091  0.0123
 4077SOL    HW123690   4.628   4.331   3.930  0.6647  1.0623 -4.1642
 4077SOL    HW223691   4.545   4.419   3.839  1.7873  1.0650  0.4183
 4078SOL     OW23692   2.438   2.381   7.021 -0.0825 -0.1276  0.6187
 4078SOL    HW123693   2.343   2.390   7.017  0.0263  0.0011 -1.2821
 4078SOL    HW223694   2.453   2.349   6.932  2.3094  1.9561  0.2757
 4079SOL     OW23695   2.751   2.944  16.058  0.0314  0.1429 -0.1003
 4079SOL    HW123696   2.657   2.954  16.041 -0.1185 -1.9469 -0.4561
 4079SOL    HW223697   2.770   2.872  15.998  2.5931  3.0034 -2.7110
 4080SOL     OW23698   4.251   1.565   6.316  0.2687  0.1811  0.0150
 4080SOL    HW123699   4.189   1.548   6.388 -0.0480 -1.6924 -0.7067
 4080SOL    HW223700   4.323   1.613   6.357  0.1941 -0.0580  0.4224
 4081SOL     OW23701   1.628   1.724   3.474 -0.4840 -0.5511 -0.2689
 4081SOL    HW123702   1.641   1.697   3.565 -0.7382  2.4732  0.6768
 4081SOL    HW223703   1.533   1.736   3.472 -0.1891  2.1664  1.4207
 4082SOL     OW23704   1.272   0.591   0.874 -0.1455 -0.2037 -0.0766
 4082SOL    HW123705   1.221   0.551   0.804  1.4443 -2.8206  0.2669
 4082SOL    HW223706   1.363   0.571   0.850 -0.2813 -0.5017 -0.3336
 4083SOL     OW23707   0.249   2.946   0.257 -0.1513  0.1379 -0.3253
 4083SOL    HW123708   0.319   2.899   0.303 -2.7299 -2.7956  0.5920
 4083SOL    HW223709   0.164   2.925   0.297 -0.4303 -1.0096 -1.5375
 4084SOL     OW23710   0.759   4.090   4.646 -0.3365 -0.2195  0.1269
 4084SOL    HW123711   0.698   4.162   4.657  0.1887  0.0646  1.2122
 4084SOL    HW223712   0.841   4.135   4.666  0.5340 -1.1799 -1.2234
 4085SOL     OW23713   3.121   4.279   2.313 -0.1288  0.4032 -0.5319
 4085SOL    HW123714   3.179   4.355   2.318  1.5800 -1.1002  2.6448
 4085SOL    HW223715   3.127   4.261   2.219 -2.3607 -0.1579 -0.5698
 4086SOL     OW23716   4.541   3.449  15.150 -0.1800 -0.1088  0.2043
 4086SOL    HW123717   4.532   3.508  15.075  1.7359  0.7527  0.6378
 4086SOL    HW223718   4.607   3.488  15.208  0.8775  0.4786 -1.3782
 4087SOL     OW23719   2.698   1.478   1.899 -0.3238  0.0168  0.0624
 4087SOL    HW123720   2.657   1.565   1.899  0.8393  0.5568  0.9691
 4087SOL    HW223721   2.792   1.496   1.902 -0.2369 -0.2253 -1.4585
 4088SOL     OW23722   1.874   3.841  14.512  0.0048 -0.3895 -0.0010
 4088SOL    HW123723   1.800   3.795  14.474 -0.4362  0.1013  0.2613
 4088SOL    HW223724   1.936   3.825  14.441  1.0008  2.0616  0.2986
 4089SOL     OW23725   1.806   1.635   4.344  0.3659  0.1901  0.1892
 4089SOL    HW123726   1.852   1.715   4.316  0.1352  0.7474  1.3921
 4089SOL    HW223727   1.713   1.642   4.323  0.2252 -1.6209  0.2500
 4090SOL     OW23728   1.568   2.403   2.695 -0.2130  0.1422  0.1898
 4090SOL    HW123729   1.486   2.428   2.652  0.0646  1.2064  0.2764
 4090SOL    HW223730   1.585   2.313   2.666 -1.1696 -0.9526  3.0252
 4091SOL     OW23731   0.217   0.154   6.506  0.3178 -0.3067  0.6939
 4091SOL    HW123732   0.305   0.190   6.490  0.9259 -2.4027 -0.6611
 4091SOL    HW223733   0.193   0.214   6.577  1.2829  3.9148 -2.6049
 4092SOL     OW23734   3.339   2.746  16.272 -0.1702  0.4339  0.0314
 4092SOL    HW123735   3.257   2.792  16.251 -0.6898 -1.4625 -2.0718
 4092SOL    HW223736   3.411   2.803  16.245  0.1763  1.0752  2.3385
 4093SOL     OW23737   4.460   1.623   8.474 -0.5511 -0.5057  0.1337
 4093SOL    HW123738   4.522   1.660   8.536  1.7173 -0.2888 -2.2815
 4093SOL    HW223739   4.383   1.676   8.496  1.6002  1.3753  3.0717
 4094SOL     OW23740   0.563   0.601   7.997  0.0001 -0.2087 -0.6627
 4094SOL    HW123741   0.618   0.524   7.984 -1.9378 -1.4245 -1.7225
 4094SOL    HW223742   0.556   0.603   8.093 -0.8158 -0.7126 -0.7121
 4095SOL     OW23743   4.126   1.254   5.700  0.2171 -0.9452  0.1198
 4095SOL    HW123744   4.036   1.256   5.732  0.5784 -0.2254  1.0775
 4095SOL    HW223745   4.165   1.339   5.717 -1.9959 -0.3391  2.1845
 4096SOL     OW23746   0.440   0.317   8.632 -0.6168 -0.0535  0.3557
 4096SOL    HW123747   0.468   0.359   8.713  0.6331 -3.0103  1.4584
 4096SOL    HW223748   0.347   0.339   8.626 -0.8443 -0.7173  1.5463
 4097SOL     OW23749   2.765   4.526   7.356  0.0745  0.2384 -0.4281
 4097SOL    HW123750   2.720   4.444   7.374 -0.3948  0.9521  1.6597
 4097SOL    HW223751   2.796   4.524   7.266 -0.2153  2.3365 -0.5810
 4098SOL     OW23752   4.066   3.169   1.950 -0.2999 -0.1823  0.2991
 4098SOL    HW123753   4.131   3.158   2.019  0.2758  1.4216  0.0279
 4098SOL    HW223754   4.121   3.186   1.873 -1.1785  0.5720 -0.1700
 4099SOL     OW23755   1.581   1.223   7.409 -0.5319  0.4916 -0.1305
 4099SOL    HW123756   1.619   1.301   7.370  0.3277  0.0366 -0.2118
 4099SOL    HW223757   1.487   1.243   7.410 -0.8605 -1.0651  0.2306
 4100SOL     OW23758   4.686   0.941  11.328 -0.1099 -0.0043  0.0707
 4100SOL    HW123759   0.038   0.893  11.291 -0.3302 -0.4368  0.1824
 4100SOL    HW223760   4.665   0.883  11.401  1.0857 -2.3958 -1.4892
 4101SOL     OW23761   2.746   4.718   2.478 -0.3967  0.1713  0.5800
 4101SOL    HW123762   2.659   4.681   2.493  0.3666 -0.8980  2.2621
 4101SOL    HW223763   2.743   0.081   2.520  1.0678 -1.5160  4.1369
 4102SOL     OW23764   3.334   4.619   4.969 -0.2993 -0.4751  0.1476
 4102SOL    HW123765   3.378   4.572   4.898  1.3218  1.5807 -0.2205
 4102SOL    HW223766   3.408   4.661   5.011  0.4901 -1.7130 -0.0183
 4103SOL     OW23767   1.002   4.473   8.742 -0.3796 -0.3638 -0.2271
 4103SOL    HW123768   1.025   4.383   8.718 -0.5994 -1.0697  2.2146
 4103SOL    HW223769   1.007   4.479   8.837 -3.6309  0.5336 -0.1154
 4104SOL     OW23770   2.816   3.211  15.986  0.5599  0.3113 -0.0660
 4104SOL    HW123771   2.801   3.122  16.016  0.8742 -0.2289 -1.4926
 4104SOL    HW223772   2.831   3.261  16.066 -1.0160  2.2677 -0.9676
 4105SOL     OW23773   1.114   0.613  11.545 -0.4815  0.4674  1.0365
 4105SOL    HW123774   1.022   0.604  11.518 -0.3291  1.2919  0.2391
 4105SOL    HW223775   1.113   0.706  11.568  2.3253  0.4739  1.0973
 4106SOL     OW23776   0.579   0.696   8.879 -0.1696 -0.1312 -0.1373
 4106SOL    HW123777   0.492   0.731   8.894 -0.3992 -0.6677 -0.2306
 4106SOL    HW223778   0.622   0.693   8.965  1.3455  2.0617 -0.7901
 4107SOL     OW23779   0.748   3.842   9.110  0.5654  0.2363  0.0110
 4107SOL    HW123780   0.709   3.755   9.122 -0.6300  0.7431 -0.2015
 4107SOL    HW223781   0.680   3.901   9.142 -0.5479 -0.3159 -1.3626
 4108SOL     OW23782   3.371   4.658   8.725  0.2354 -0.2131  0.0903
 4108SOL    HW123783   3.432   0.006   8.744  3.3725 -2.6665 -0.7081
 4108SOL    HW223784   3.352   4.615   8.809  0.1277  2.4364  1.4225
 4109SOL     OW23785   3.786   3.814   5.373 -0.3650 -0.7184 -0.1886
 4109SOL    HW123786   3.768   3.906   5.388  1.2563 -0.1412 -1.7803
 4109SOL    HW223787   3.777   3.774   5.460  1.8067  1.2151  0.9021
 4110SOL     OW23788   1.421   1.542   7.286 -0.2837 -0.1980  0.1263
 4110SOL    HW123789   1.358   1.486   7.331 -1.0873  1.4147  1.0143
 4110SOL    HW223790   1.494   1.515   7.343  1.1824  3.0455 -0.2047
 4111SOL     OW23791   3.219   3.844   5.669 -0.0729 -0.4771  0.6279
 4111SOL    HW123792   3.213   3.913   5.735 -1.7818  0.5425 -0.5822
 4111SOL    HW223793   3.128   3.842   5.638 -0.3769  3.0494  1.2713
 4112SOL     OW23794   1.729   2.225   6.453 -0.7952 -0.6673 -0.4178
 4112SOL    HW123795   1.789   2.159   6.419  0.1931 -0.3663  0.7239
 4112SOL    HW223796   1.649   2.182   6.424 -1.8065  1.5939 -0.9948
 4113SOL     OW23797   3.235   2.327   1.901  0.3562 -0.3096  0.2061
 4113SOL    HW123798   3.196   2.406   1.940  1.3378  0.9734 -1.3892
 4113SOL    HW223799   3.158   2.304   1.850  0.4234  1.7408 -0.8179
 4114SOL     OW23800   2.640   1.616   2.523 -0.6717 -0.0626  0.1038
 4114SOL    HW123801   2.650   1.562   2.601 -0.1990  0.4345  0.3881
 4114SOL    HW223802   2.566   1.669   2.551 -2.6818 -2.2597 -1.1084
 4115SOL     OW23803   3.540   3.364  14.810 -0.1519 -0.5623  0.0304
 4115SOL    HW123804   3.504   3.453  14.813 -0.8935 -0.8421 -0.6349
 4115SOL    HW223805   3.583   3.370  14.724  1.3021  1.7483  0.9268
 4116SOL     OW23806   2.767   0.985   7.061  0.3844 -0.2956 -0.0547
 4116SOL    HW123807   2.846   1.019   7.021  0.9152 -2.5408 -0.9183
 4116SOL    HW223808   2.804   0.944   7.139  1.8672  1.4537  0.1403
 4117SOL     OW23809   1.928   3.622   6.066 -0.1730  0.0483  0.0596
 4117SOL    HW123810   1.913   3.564   6.140 -0.3291 -0.4280 -0.3493
 4117SOL    HW223811   1.890   3.582   5.988 -0.4466 -1.8249  1.1552
 4118SOL     OW23812   3.262   1.313  10.056  0.3154  0.0041  0.2721
 4118SOL    HW123813   3.355   1.300  10.039 -0.0378  0.6684 -2.0870
 4118SOL    HW223814   3.252   1.392  10.003  1.2745 -0.0395  0.0261
 4119SOL     OW23815   3.221   0.251   8.994 -0.6792  0.1391  0.2468
 4119SOL    HW123816   3.166   0.318   9.036 -0.7063  0.1621  0.1755
 4119SOL    HW223817   3.155   0.195   8.953  0.3608 -0.5028 -0.5586
 4120SOL     OW23818   1.082   4.114   5.075 -0.1929  0.3193 -0.5329
 4120SOL    HW123819   1.029   4.109   5.154 -0.3128  3.2753 -0.4358
 4120SOL    HW223820   1.089   4.209   5.084 -0.4723  0.2991 -0.0886
 4121SOL     OW23821   1.768   1.665   8.676  0.6621 -0.4578  0.6557
 4121SOL    HW123822   1.786   1.577   8.642 -0.4000 -0.3124 -0.2720
 4121SOL    HW223823   1.748   1.651   8.768  0.0994  0.4579  0.6673
 4122SOL     OW23824   1.641   2.783   2.561 -0.0850  0.1882 -0.0661
 4122SOL    HW123825   1.714   2.833   2.525 -1.4032  2.2213  0.0632
 4122SOL    HW223826   1.573   2.785   2.493 -0.5341 -0.4807  0.3654
 4123SOL     OW23827   3.369   2.339   9.993  0.3206 -0.2585  0.4350
 4123SOL    HW123828   3.457   2.303  10.007  0.2531 -0.2707  0.8401
 4123SOL    HW223829   3.371   2.411  10.056  1.0418 -0.5639  0.7610
 4124SOL     OW23830   0.260   4.423  17.084  0.4797  0.3420  0.4020
 4124SOL    HW123831   0.229   4.347  17.133  0.6772  1.5088  2.3617
 4124SOL    HW223832   0.181   4.476  17.087  0.1743 -0.1412  0.8434
 4125SOL     OW23833   2.783   1.470   8.058 -0.4518 -0.2918  0.1021
 4125SOL    HW123834   2.732   1.529   8.114 -2.1549 -1.4827 -0.1888
 4125SOL    HW223835   2.846   1.525   8.012  0.9625 -0.2244  2.1034
 4126SOL     OW23836   0.023   3.760   2.289  0.2863 -0.4239 -0.2069
 4126SOL    HW123837   0.086   3.748   2.218  1.0300  0.3986  0.3352
 4126SOL    HW223838   4.675   3.714   2.243  0.5221 -0.5909 -0.4054
 4127SOL     OW23839   2.508   4.434   5.219 -0.6142 -0.1486  0.3203
 4127SOL    HW123840   2.428   4.483   5.202 -0.6221 -1.0732 -2.1871
 4127SOL    HW223841   2.533   4.471   5.304  1.8238  1.3712 -1.0461
 4128SOL     OW23842   2.373   0.397   2.771  0.4003  0.7072 -0.1437
 4128SOL    HW123843   2.411   0.402   2.683  1.7882 -0.1990  0.4115
 4128SOL    HW223844   2.395   0.310   2.805 -0.3483 -0.8741 -3.7017
 4129SOL     OW23845   0.164   1.861   2.785  0.1000  0.1698 -0.0871
 4129SOL    HW123846   0.250   1.889   2.755  0.5699  0.2480  1.3602
 4129SOL    HW223847   0.105   1.900   2.721 -0.7256 -0.6197  0.1915
 4130SOL     OW23848   1.307   2.118   1.615 -0.6218  0.2114  0.4530
 4130SOL    HW123849   1.353   2.110   1.531 -1.0094  0.5691  0.2059
 4130SOL    HW223850   1.288   2.210   1.602 -1.0443 -0.1674 -1.6221
 4131SOL     OW23851   1.837   0.806   7.737  0.4390 -0.1133  0.5638
 4131SOL    HW123852   1.743   0.802   7.751  0.2017 -0.4366 -1.1408
 4131SOL    HW223853   1.857   0.883   7.791 -0.3310  0.4755 -0.0012
 4132SOL     OW23854   1.318   0.353  13.866 -0.1436  0.2235  0.5835
 4132SOL    HW123855   1.400   0.384  13.903 -0.3594  2.2989 -0.6353
 4132SOL    HW223856   1.288   0.437  13.829 -1.4642  1.1042  3.6352
 4133SOL     OW23857   1.642   0.273  10.069 -0.5930 -0.2964  0.6464
 4133SOL    HW123858   1.685   0.298  10.152 -0.3746  1.5178 -0.0088
 4133SOL    HW223859   1.591   0.199  10.101 -0.6912 -0.1187  0.9049
 4134SOL     OW23860   1.621   1.350   2.434 -0.0739 -0.3993  0.1069
 4134SOL    HW123861   1.556   1.404   2.390 -2.0119 -1.5028  1.6269
 4134SOL    HW223862   1.562   1.300   2.490  1.7445 -1.8987  0.6970
 4135SOL     OW23863   2.082   3.101   9.985 -0.4367 -0.1471 -0.0486
 4135SOL    HW123864   2.106   3.177   9.932  0.0633 -0.4701 -0.2809
 4135SOL    HW223865   2.146   3.034   9.962  0.6993  0.5018  1.2254
 4136SOL     OW23866   3.375   1.327   9.045  0.6676  0.3695 -0.1280
 4136SOL    HW123867   3.430   1.250   9.030  1.4937  0.7640  0.8335
 4136SOL    HW223868   3.308   1.293   9.105 -0.3830  0.1796 -1.4108
 4137SOL     OW23869   0.650   0.666   4.838 -0.1648  0.4592 -0.5539
 4137SOL    HW123870   0.728   0.679   4.784  0.8686 -0.9172  0.5717
 4137SOL    HW223871   0.609   0.752   4.831 -2.1394 -0.5121 -0.8885
 4138SOL     OW23872   0.457   4.007  15.878 -0.5494 -0.7019  0.2547
 4138SOL    HW123873   0.516   4.055  15.936 -1.3384  1.5871 -0.8192
 4138SOL    HW223874   0.383   4.052  15.919  0.0737  1.2638 -0.8034
 4139SOL     OW23875   4.071   3.023   5.464  0.2875 -0.1267  0.5520
 4139SOL    HW123876   4.143   2.963   5.450 -0.5881 -1.1304  0.3704
 4139SOL    HW223877   4.106   3.105   5.428 -1.8119  0.1988 -0.7586
 4140SOL     OW23878   3.179   1.323  14.582 -0.0338 -0.0599  0.6289
 4140SOL    HW123879   3.240   1.270  14.634  2.2907  0.7514 -1.2485
 4140SOL    HW223880   3.233   1.370  14.518  0.3248 -0.6772  0.4770
 4141SOL     OW23881   3.719   2.692   6.972  0.2075 -0.3323 -0.2997
 4141SOL    HW123882   3.738   2.752   7.045  1.6595  0.6161 -1.4594
 4141SOL    HW223883   3.711   2.754   6.900  0.1509  1.5272  1.2859
 4142SOL     OW23884   4.704   1.420  17.123  0.7939 -0.1570 -0.1027
 4142SOL    HW123885   0.039   1.492  17.147 -0.8612  1.0097  0.4357
 4142SOL    HW223886   4.686   1.444  17.033 -1.1407  1.3233  0.6691
 4143SOL     OW23887   2.970   1.089  17.434  0.7145  0.1046 -0.1646
 4143SOL    HW123888   2.898   1.108  17.374 -0.8059 -3.5192  0.5127
 4143SOL    HW223889   2.969   1.167  17.489 -0.7651  0.3166 -0.4835
 4144SOL     OW23890   0.530   2.515   5.448 -0.1643  0.2855 -0.3488
 4144SOL    HW123891   0.486   2.568   5.381 -0.4444 -0.8327 -1.0571
 4144SOL    HW223892   0.525   2.576   5.521 -1.3187 -0.9130  0.5691
 4145SOL     OW23893   3.100   3.041   6.688 -0.4900  0.1276  0.6841
 4145SOL    HW123894   3.005   3.028   6.677 -0.7245  3.7261 -1.4483
 4145SOL    HW223895   3.125   3.017   6.599  0.9404 -0.6452  1.2906
 4146SOL     OW23896   1.298   0.858   3.726  0.8467  0.2699 -0.3674
 4146SOL    HW123897   1.227   0.911   3.762  0.8151  0.3235 -0.5078
 4146SOL    HW223898   1.276   0.774   3.766  0.1787 -0.9914 -3.3891
 4147SOL     OW23899   2.111   1.211   2.833  0.5860 -0.0448  0.3302
 4147SOL    HW123900   2.029   1.180   2.871  1.2187 -0.8697  1.0323
 4147SOL    HW223901   2.115   1.305   2.854  1.9344 -0.3077  1.2527
 4148SOL     OW23902   2.422   2.713   5.177  0.5319  0.6828 -0.7666
 4148SOL    HW123903   2.467   2.793   5.147 -2.9456  2.5122 -1.0460
 4148SOL    HW223904   2.349   2.757   5.221 -1.3213 -2.6107 -0.5887
 4149SOL     OW23905   0.009   2.977   5.271 -0.0120 -0.0933  0.4647
 4149SOL    HW123906   4.649   2.936   5.293 -0.9384  1.1955 -0.6123
 4149SOL    HW223907   0.047   2.967   5.358  0.4091  0.4473  0.3419
 4150SOL     OW23908   3.820   3.537   6.495 -0.4341 -0.5694 -0.1952
 4150SOL    HW123909   3.853   3.469   6.553  1.5317  0.8034  0.2831
 4150SOL    HW223910   3.818   3.507   6.404  2.1444  2.0698 -1.1295
 4151SOL     OW23911   2.172   2.145  10.434  0.0478 -0.1070 -0.1834
 4151SOL    HW123912   2.148   2.094  10.357  0.2499  0.9965 -0.9828
 4151SOL    HW223913   2.167   2.075  10.499  2.3328  1.7942  2.0570
 4152SOL     OW23914   0.841   4.152   7.356  0.3768 -0.6938  0.7824
 4152SOL    HW123915   0.796   4.123   7.276  0.1324 -1.4326  1.1920
 4152SOL    HW223916   0.771   4.209   7.387 -0.2062 -1.7958  1.4950
 4153SOL     OW23917   0.941   4.682  15.334 -0.4189  0.2835  0.0147
 4153SOL    HW123918   0.856   4.678  15.290 -1.1808 -1.6060  1.6497
 4153SOL    HW223919   0.972   4.591  15.338  1.9180  1.0531 -0.4393
 4154SOL     OW23920   1.945   4.034  13.221  0.4500  0.1571 -0.0223
 4154SOL    HW123921   1.975   3.943  13.222 -1.4091 -0.4389  1.5036
 4154SOL    HW223922   1.886   4.029  13.146  1.7162  1.0646 -1.0683
 4155SOL     OW23923   2.124   1.394   3.783 -0.1308 -0.6603 -0.3171
 4155SOL    HW123924   2.214   1.409   3.811 -0.0326 -2.7513  0.4514
 4155SOL    HW223925   2.112   1.459   3.713 -1.5347 -0.6474 -0.0651
 4156SOL     OW23926   0.773   1.613   7.564 -0.4009  0.0724  0.2045
 4156SOL    HW123927   0.822   1.530   7.562 -0.1133  0.2306  0.8745
 4156SOL    HW223928   0.791   1.638   7.654 -2.6258  1.0660  0.3782
 4157SOL     OW23929   4.286   1.111   6.880  0.1565  0.0242  0.2042
 4157SOL    HW123930   4.327   1.169   6.816  2.3430  0.6115  2.1330
 4157SOL    HW223931   4.193   1.125   6.864  0.4639 -0.2024 -1.7809
 4158SOL     OW23932   0.177   2.948   5.527 -0.3354 -0.3459 -0.2490
 4158SOL    HW123933   0.137   2.983   5.607  1.8659  1.7009 -0.0627
 4158SOL    HW223934   0.184   2.855   5.549  1.6227  0.0583  0.8716
 4159SOL     OW23935   2.745   4.705   8.844 -0.2921  0.6402 -0.0377
 4159SOL    HW123936   2.701   4.630   8.884  2.5199 -0.9573  0.0359
 4159SOL    HW223937   2.757   4.675   8.754 -2.8842  0.8728 -0.4744
 4160SOL     OW23938   1.923   2.507  17.558 -0.4601 -0.6434 -0.1419
 4160SOL    HW123939   1.863   2.581  17.562  1.2545  0.7624 -0.6610
 4160SOL    HW223940   1.986   2.526  17.488 -1.2164  1.1623 -0.3322
 4161SOL     OW23941   4.718   1.431  11.935  0.2732  0.7672  0.1314
 4161SOL    HW123942   0.070   1.442  11.993  1.5896 -0.1742 -1.3841
 4161SOL    HW223943   4.680   1.347  11.960  0.0033  1.1852  1.1017
 4162SOL     OW23944   2.014   4.003   4.030  0.2860  0.1926 -0.2735
 4162SOL    HW123945   1.935   4.044   3.998  0.3702  1.3860  1.0393
 4162SOL    HW223946   2.055   3.962   3.954  1.5480 -0.5218  0.7838
 4163SOL     OW23947   0.422   1.118   4.720  0.5049 -0.0241  0.3458
 4163SOL    HW123948   0.419   1.132   4.626 -0.5581 -0.6960  0.2809
 4163SOL    HW223949   0.358   1.184   4.745  0.4113  0.4957 -1.3349
 4164SOL     OW23950   2.819   0.116   1.217 -0.4379  0.0268 -0.2205
 4164SOL    HW123951   2.812   0.162   1.133 -0.1215 -0.4409 -0.5042
 4164SOL    HW223952   2.856   0.036   1.178 -0.6382 -0.9694  1.6601
 4165SOL     OW23953   0.053   3.900  16.081  0.1545  0.0955 -0.1804
 4165SOL    HW123954   0.148   3.914  16.083  0.3099 -0.4894 -3.6749
 4165SOL    HW223955   0.024   3.931  16.166  0.5710 -1.9413  0.7130
 4166SOL     OW23956   0.838   2.828   1.270 -0.5557  0.1574 -0.2922
 4166SOL    HW123957   0.755   2.871   1.290 -1.1009 -0.3114 -1.5332
 4166SOL    HW223958   0.903   2.892   1.298  1.3471 -2.1042  0.4491
 4167SOL     OW23959   3.760   4.168   6.451 -0.4084  0.0153 -0.3013
 4167SOL    HW123960   3.698   4.095   6.446 -0.8481  0.3393  0.4112
 4167SOL    HW223961   3.782   4.190   6.360  1.9945 -1.0924  0.0111
 4168SOL     OW23962   2.204   1.693  10.983 -0.0418  0.5033 -0.2857
 4168SOL    HW123963   2.279   1.699  11.043  0.7913 -0.0962 -1.2549
 4168SOL    HW223964   2.214   1.763  10.919 -0.6962  0.2139 -0.6954
 4169SOL     OW23965   4.149   2.295   5.328  0.2462  0.1530  0.4156
 4169SOL    HW123966   4.156   2.200   5.333 -0.5453 -0.0000 -1.2003
 4169SOL    HW223967   4.053   2.300   5.329  0.1940 -0.8192  0.7316
 4170SOL     OW23968   0.864   0.092   3.247 -0.3345  0.0425 -0.1749
 4170SOL    HW123969   0.939   0.082   3.306 -1.7193 -0.3564  1.5125
 4170SOL    HW223970   0.895   0.056   3.164 -2.3470 -1.6495 -0.1872
 4171SOL     OW23971   0.594   2.969  16.799 -0.0243 -0.1841  0.0153
 4171SOL    HW123972   0.581   2.907  16.727 -0.1283 -0.8300  0.5939
 4171SOL    HW223973   0.655   2.918  16.852  1.6798  0.7616 -1.0478
 4172SOL     OW23974   1.727   4.485   5.801 -0.1479  0.3499  0.7950
 4172SOL    HW123975   1.811   4.506   5.760  0.0471  0.0536  1.0466
 4172SOL    HW223976   1.698   4.573   5.827 -2.1545 -0.0730 -0.0098
 4173SOL     OW23977   3.238   0.599   7.915  0.5241  0.8000  0.0359
 4173SOL    HW123978   3.175   0.650   7.864 -2.0882 -1.4481  1.0157
 4173SOL    HW223979   3.287   0.671   7.953 -0.1636  0.3443  1.8053
 4174SOL     OW23980   2.054   1.905   5.646  0.1912 -0.4988 -0.2683
 4174SOL    HW123981   2.029   1.914   5.738 -1.3369 -0.8988 -0.6342
 4174SOL    HW223982   2.127   1.965   5.635 -0.6262  0.6042  0.3571
 4175SOL     OW23983   1.728   1.897   8.591 -0.0533 -0.2067  0.2828
 4175SOL    HW123984   1.740   1.806   8.619 -1.8460 -0.3267  0.6876
 4175SOL    HW223985   1.728   1.932   8.681  1.0084 -1.4032  0.7538
 4176SOL     OW23986   3.274   1.033   5.836 -0.6242  0.5456 -0.4235
 4176SOL    HW123987   3.213   1.068   5.771 -2.7579 -1.4176  0.5412
 4176SOL    HW223988   3.345   1.095   5.814 -0.4609  0.8261  0.9098
 4177SOL     OW23989   2.781   0.889  14.103  0.4549 -0.6442  0.1015
 4177SOL    HW123990   2.733   0.808  14.118  0.9369 -0.9956 -0.2508
 4177SOL    HW223991   2.771   0.892  14.007 -4.0270 -1.1470  0.5537
 4178SOL     OW23992   1.516   0.926   9.627 -0.2963  0.7019  0.5751
 4178SOL    HW123993   1.525   0.879   9.710  1.0659 -0.0350  0.0029
 4178SOL    HW223994   1.516   1.013   9.668 -2.3644  0.2290  1.5501
 4179SOL     OW23995   3.490   0.929  17.019  0.5435  0.0699 -0.6956
 4179SOL    HW123996   3.402   0.904  16.993  0.9821  1.1903 -3.2754
 4179SOL    HW223997   3.476   0.957  17.109  1.3220  2.6551 -1.3851
 4180SOL     OW23998   0.396   4.361   8.420  0.0658  0.3559  0.7883
 4180SOL    HW123999   0.425   4.283   8.467 -1.6210 -1.3952 -1.0805
 4180SOL    HW224000   0.448   4.349   8.341 -1.4011 -1.9597  0.1402
 4181SOL     OW24001   1.739   1.976   8.333  0.0205 -0.1285 -0.2560
 4181SOL    HW124002   1.747   1.931   8.417  1.7016 -2.4095 -1.6365
 4181SOL    HW224003   1.663   2.031   8.352 -0.5011 -1.3338  1.1411
 4182SOL     OW24004   0.209   2.967   6.324 -0.0150  0.2840  0.5440
 4182SOL    HW124005   0.117   2.976   6.349 -0.4699 -1.2887 -0.5739
 4182SOL    HW224006   0.253   3.011   6.398  2.2116  0.6242 -0.9788
 4183SOL     OW24007   2.646   0.596  10.500 -0.5310 -0.2197  0.1796
 4183SOL    HW124008   2.561   0.561  10.476 -0.8896  0.7303  0.0456
 4183SOL    HW224009   2.646   0.654  10.424  1.2267  0.4532  0.6918
 4184SOL     OW24010   1.478   1.591   8.942  0.1378  0.4101  0.6003
 4184SOL    HW124011   1.471   1.569   8.849 -0.7652  3.0456  0.0412
 4184SOL    HW224012   1.573   1.600   8.953  0.5002 -2.1602 -0.5462
 4185SOL     OW24013   1.584   2.510   8.070  0.5874  0.3333 -0.6764
 4185SOL    HW124014   1.523   2.483   8.138  0.2734  1.9425 -0.3217
 4185SOL    HW224015   1.655   2.455   8.104  0.1212  0.5199  0.5614
 4186SOL     OW24016   4.409   1.328  15.938  0.1252 -0.4616 -0.2103
 4186SOL    HW124017   4.339   1.390  15.956  0.4044  0.2529 -1.6378
 4186SOL    HW224018   4.462   1.340  16.017  0.4995 -1.8512 -0.2453
 4187SOL     OW24019   1.348   1.395   9.074  0.0693 -0.1582 -0.3132
 4187SOL    HW124020   1.261   1.378   9.037 -0.5823  0.5244  0.8918
 4187SOL    HW224021   1.378   1.459   9.010 -0.2695  1.6128  1.2818
 4188SOL     OW24022   3.200   2.470  13.517 -0.4391 -0.1122  0.0146
 4188SOL    HW124023   3.183   2.388  13.471  0.5964 -0.2803 -0.0839
 4188SOL    HW224024   3.163   2.442  13.601 -0.2381 -3.6053 -1.0621
 4189SOL     OW24025   4.646   2.081  15.387  0.3026  0.0296  0.1150
 4189SOL    HW124026   4.708   2.024  15.431  0.7910 -0.5036 -1.2792
 4189SOL    HW224027   4.660   2.169  15.423 -1.2422  0.5243 -0.4836
 4190SOL     OW24028   2.010   2.020   7.571 -0.2515  0.4586  0.2712
 4190SOL    HW124029   2.068   2.004   7.645 -0.0954  0.6280  0.1872
 4190SOL    HW224030   2.036   2.112   7.562 -0.4142  0.3777 -1.1178
 4191SOL     OW24031   2.263   1.586   9.192  0.1112  0.2212 -0.6645
 4191SOL    HW124032   2.241   1.524   9.262  0.8410 -1.7107 -2.1467
 4191SOL    HW224033   2.309   1.654   9.241 -2.1792  0.5835  1.0000
 4192SOL     OW24034   0.638   3.351  17.603  0.2986  0.6644  0.0827
 4192SOL    HW124035   0.732   3.355  17.620  0.3079  0.8752 -0.0154
 4192SOL    HW224036   0.646   3.371  17.510  2.4812 -3.2235 -0.5392
 4193SOL     OW24037   2.831   2.203   4.374  0.0046 -0.3173 -0.3593
 4193SOL    HW124038   2.863   2.138   4.436 -1.4811 -0.3815  0.3399
 4193SOL    HW224039   2.817   2.142   4.301 -1.5389  1.0038 -1.1836
 4194SOL     OW24040   4.544   2.451   7.903  0.3468  0.2391 -0.3007
 4194SOL    HW124041   4.576   2.365   7.878 -0.5808  0.2187 -1.4110
 4194SOL    HW224042   4.612   2.504   7.863 -0.6004  1.4773 -0.2891
 4195SOL     OW24043   4.304   4.661   2.176 -0.2883 -0.1152  0.0795
 4195SOL    HW124044   4.220   4.614   2.174 -1.8948  2.6876  1.5105
 4195SOL    HW224045   4.354   4.590   2.137  2.5308  1.9377  0.0254
 4196SOL     OW24046   2.343   3.009   1.396  0.1423 -0.1782 -0.2934
 4196SOL    HW124047   2.426   2.978   1.431  1.9005  2.4581 -2.0956
 4196SOL    HW224048   2.292   3.043   1.470 -0.6113 -0.6651 -0.5805
 4197SOL     OW24049   3.385   1.409  14.360  0.0263  0.6376 -0.1004
 4197SOL    HW124050   3.368   1.503  14.374  3.8156  1.6177 -2.0792
 4197SOL    HW224051   3.424   1.403  14.273 -2.2362 -0.9086 -0.9895
 4198SOL     OW24052   2.330   4.143   3.395  0.0310 -0.1778 -0.2453
 4198SOL    HW124053   2.418   4.122   3.424  0.8576  0.8863 -1.9749
 4198SOL    HW224054   2.306   4.211   3.458  2.6237 -1.4094  2.0283
 4199SOL     OW24055   2.773   0.875  17.412  0.0883 -0.3957  0.1220
 4199SOL    HW124056   2.868   0.891  17.415  0.0980 -0.3701 -0.4513
 4199SOL    HW224057   2.750   0.899  17.323  1.1443  1.2277  0.2701
 4200SOL     OW24058   3.414   3.527  13.299  0.1256 -0.4315 -0.0074
 4200SOL    HW124059   3.484   3.591  13.312  1.8306 -2.0245 -1.3054
 4200SOL    HW224060   3.452   3.470  13.232 -1.3904  1.0532 -2.1287
 4201SOL     OW24061   2.165   4.002   6.730  0.1885  0.5286  0.4846
 4201SOL    HW124062   2.233   3.991   6.796  0.6108 -0.0902 -0.0532
 4201SOL    HW224063   2.112   4.064   6.780 -0.3454 -0.6948  1.4234
 4202SOL     OW24064   4.635   2.441   3.067 -0.0297 -0.0390 -0.4265
 4202SOL    HW124065   4.635   2.367   3.127 -2.5382  0.0096 -0.3784
 4202SOL    HW224066   4.637   2.400   2.981 -1.8001 -1.9336  0.4323
 4203SOL     OW24067   2.606   0.069   0.256 -0.3893 -0.3798  0.1443
 4203SOL    HW124068   2.667   0.005   0.293 -0.3262 -0.6720 -0.4718
 4203SOL    HW224069   2.542   0.016   0.208  1.9163 -2.0091 -1.1057
 4204SOL     OW24070   3.208   0.886   3.262 -0.1328  0.0012 -0.3747
 4204SOL    HW124071   3.128   0.851   3.222  0.4071 -0.6584 -0.8607
 4204SOL    HW224072   3.220   0.974   3.228 -0.5006 -1.0200 -3.1015
 4205SOL     OW24073   0.283   3.941   4.653 -0.0749 -0.3828  0.0298
 4205SOL    HW124074   0.367   3.986   4.663 -0.7778  0.7031  0.9791
 4205SOL    HW224075   0.276   3.905   4.741 -1.8739 -0.3896 -0.1232
 4206SOL     OW24076   4.696   0.734  12.280  0.3662  0.3324 -0.1448
 4206SOL    HW124077   4.671   0.648  12.314  1.2537 -0.6139 -1.8269
 4206SOL    HW224078   0.067   0.718  12.270  0.1808 -0.2477 -1.0217
 4207SOL     OW24079   1.121   4.074   6.583 -0.8063  0.0977  0.4368
 4207SOL    HW124080   1.132   4.158   6.539  2.1647 -0.8617 -0.6347
 4207SOL    HW224081   1.029   4.047   6.581 -0.5419 -0.6738 -1.8205
 4208SOL     OW24082   4.574   2.176   8.937  0.6487 -0.1532  0.3789
 4208SOL    HW124083   4.560   2.143   9.026 -2.5127  1.6884  0.5681
 4208SOL    HW224084   4.529   2.105   8.892  1.1831 -0.7533  0.7981
 4209SOL     OW24085   2.704   2.465  10.596  0.3166 -0.2144  0.5183
 4209SOL    HW124086   2.752   2.437  10.674 -0.5602 -0.5260  0.9453
 4209SOL    HW224087   2.740   2.551  10.574  1.5331 -0.4865  1.4524
 4210SOL     OW24088   2.691   4.231  10.841  0.0395 -0.2531  0.3016
 4210SOL    HW124089   2.753   4.170  10.802 -0.3588  1.7171 -3.4760
 4210SOL    HW224090   2.689   4.181  10.922 -0.6565 -0.5824  0.0797
 4211SOL     OW24091   4.265   1.165   1.636  0.1706 -0.5500  0.0646
 4211SOL    HW124092   4.171   1.164   1.655  0.6725 -2.8292  2.4924
 4211SOL    HW224093   4.293   1.075   1.653 -0.6971 -1.1021 -1.3930
 4212SOL     OW24094   3.526   2.827   6.576 -0.9696 -0.1149  0.3685
 4212SOL    HW124095   3.485   2.906   6.539 -0.8669 -0.0223  0.4533
 4212SOL    HW224096   3.602   2.830   6.518 -0.9893 -2.1899  0.2624
 4213SOL     OW24097   2.003   2.675   1.527 -0.3774 -0.2792  0.4201
 4213SOL    HW124098   2.011   2.769   1.543  1.2162 -0.5237  1.1300
 4213SOL    HW224099   2.032   2.660   1.437  1.9382 -1.0846  1.2949
 4214SOL     OW24100   0.259   2.726   0.798 -0.0458  0.1731 -0.2105
 4214SOL    HW124101   0.188   2.768   0.846 -0.7442 -0.9995 -0.2058
 4214SOL    HW224102   0.222   2.638   0.792 -1.3499  0.6459  1.0122
 4215SOL     OW24103   0.716   1.739  17.507 -0.0645  0.4899 -0.5200
 4215SOL    HW124104   0.788   1.678  17.521  0.3262  1.3134  1.1102
 4215SOL    HW224105   0.699   1.771  17.596  2.7804 -0.0700  0.2171
 4216SOL     OW24106   3.113   0.106  11.783 -0.0506 -0.2275 -1.0283
 4216SOL    HW124107   3.025   0.144  11.786  0.0876  0.0814 -0.9610
 4216SOL    HW224108   3.138   0.140  11.698  0.5296  1.3553 -0.2094
 4217SOL     OW24109   3.799   4.624  12.044  0.2465  0.0048 -0.0751
 4217SOL    HW124110   3.866   4.634  11.976  0.6348  2.1308  0.6217
 4217SOL    HW224111   3.748   4.549  12.014 -0.8089 -1.0702  4.4002
 4218SOL     OW24112   4.370   0.955   4.378 -0.0895 -0.1238  0.5634
 4218SOL    HW124113   4.403   0.873   4.415  1.4750 -0.3898 -1.3847
 4218SOL    HW224114   4.367   0.997   4.464 -1.8676  1.6661 -0.3756
 4219SOL     OW24115   1.616   3.787   4.422  0.4898  0.7584 -0.3690
 4219SOL    HW124116   1.634   3.840   4.499 -0.1844  0.3880  0.0415
 4219SOL    HW224117   1.680   3.716   4.418 -1.1891 -0.7700 -0.5458
 4220SOL     OW24118   2.388   0.365   3.479  0.1361 -0.1469 -0.5006
 4220SOL    HW124119   2.301   0.329   3.466 -0.0809 -0.3360  1.4333
 4220SOL    HW224120   2.422   0.306   3.547 -0.4689 -0.0982 -0.1550
 4221SOL     OW24121   1.918   3.169   9.668  0.4427  0.3421 -0.1142
 4221SOL    HW124122   1.857   3.177   9.741  0.3828 -0.3288 -0.0891
 4221SOL    HW224123   1.857   3.146   9.597  0.3378  0.3387 -0.0218
 4222SOL     OW24124   4.516   4.524   4.798 -0.3262 -0.0034 -0.1811
 4222SOL    HW124125   4.464   4.555   4.724 -2.1017  0.2701  1.1772
 4222SOL    HW224126   4.473   4.586   4.857 -0.0621 -1.5891  1.6682
 4223SOL     OW24127   2.611   2.824   7.888 -0.6773 -0.3544 -0.2340
 4223SOL    HW124128   2.705   2.840   7.891 -0.9176  0.7545  1.4724
 4223SOL    HW224129   2.583   2.832   7.979  0.8173 -1.6281  0.3443
 4224SOL     OW24130   4.131   1.181  16.628 -0.3180 -0.0648  0.3457
 4224SOL    HW124131   4.155   1.267  16.663  1.4863 -0.0617 -0.9065
 4224SOL    HW224132   4.076   1.213  16.556  2.6309 -1.2013 -2.3898
 4225SOL     OW24133   0.940   2.647   7.421 -0.4193 -0.1346  0.0765
 4225SOL    HW124134   0.920   2.734   7.386  1.3727 -0.2895 -1.3383
 4225SOL    HW224135   0.930   2.592   7.343 -2.0713  1.2327 -0.6881
 4226SOL     OW24136   3.377   3.344   6.539 -0.7385 -0.0349 -0.3979
 4226SOL    HW124137   3.437   3.318   6.609  1.6170 -0.0835 -2.4612
 4226SOL    HW224138   3.420   3.425   6.513 -0.4942 -0.0714 -0.1036
 4227SOL     OW24139   3.332   3.882   3.269  0.9539  0.1931  0.6906
 4227SOL    HW124140   3.237   3.872   3.265  1.0376 -0.0371 -0.6373
 4227SOL    HW224141   3.365   3.854   3.184  2.2903  3.2087  0.2241
 4228SOL     OW24142   2.833   2.969  16.690  0.1785  0.6898  0.1488
 4228SOL    HW124143   2.868   2.979  16.601  0.1081  0.9653  0.1537
 4228SOL    HW224144   2.747   3.004  16.670 -0.3192  0.3001  1.6430
 4229SOL     OW24145   3.076   2.973   4.811 -0.2787 -0.9214  0.4084
 4229SOL    HW124146   2.989   3.012   4.805 -0.0874 -0.6208 -0.5677
 4229SOL    HW224147   3.125   3.034   4.754 -0.7955  0.3204  1.2887
 4230SOL     OW24148   2.076   1.235   8.767  0.2787 -0.2023 -0.3621
 4230SOL    HW124149   2.133   1.305   8.736 -0.9557  0.5385 -0.9051
 4230SOL    HW224150   2.126   1.164   8.727 -1.2603 -0.4309 -1.8276
 4231SOL     OW24151   2.627   1.483   3.448  0.2705  0.2309  0.1762
 4231SOL    HW124152   2.644   1.394   3.479  1.0768  0.2786 -0.1507
 4231SOL    HW224153   2.550   1.514   3.497 -0.6640 -0.3957 -0.8844
 4232SOL     OW24154   1.632   3.467   1.305  0.5135  0.1271  0.3977
 4232SOL    HW124155   1.683   3.471   1.224 -1.9103 -0.3598 -1.1409
 4232SOL    HW224156   1.677   3.387   1.332 -0.6074 -0.0691  1.6899
 4233SOL     OW24157   0.196   1.560   6.273  0.4846  0.3575  0.1472
 4233SOL    HW124158   0.121   1.502   6.287 -0.3644  1.0946 -1.3668
 4233SOL    HW224159   0.184   1.594   6.185 -0.5805 -1.3846 -0.3875
 4234SOL     OW24160   0.388   0.820   2.202 -0.0430 -0.4266 -0.2950
 4234SOL    HW124161   0.356   0.816   2.292  0.6303 -1.1435 -0.0911
 4234SOL    HW224162   0.480   0.803   2.222  0.3185 -1.3671 -2.7024
 4235SOL     OW24163   4.671   3.920  16.767  0.0867  0.3420 -0.2116
 4235SOL    HW124164   4.663   3.992  16.829 -0.9055 -1.5662  1.8745
 4235SOL    HW224165   4.674   3.966  16.683  0.5299  0.3311 -0.2017
 4236SOL     OW24166   1.832   4.298   3.581 -0.2574  0.4197 -0.1253
 4236SOL    HW124167   1.822   4.210   3.544  1.7970 -0.6606  1.9264
 4236SOL    HW224168   1.770   4.353   3.533 -1.6748  0.4756  1.7464
 4237SOL     OW24169   1.584   3.049   5.496 -0.3609  0.0497  0.2432
 4237SOL    HW124170   1.590   3.055   5.401 -1.7201 -0.6888  0.1048
 4237SOL    HW224171   1.489   3.054   5.506 -0.2943  1.1316  0.3028
 4238SOL     OW24172   4.034   4.376  12.930  0.1599 -0.3339 -0.4638
 4238SOL    HW124173   3.942   4.355  12.915 -0.0109  1.2985 -1.6942
 4238SOL    HW224174   4.079   4.302  12.889 -0.0071 -0.2955 -0.7180
 4239SOL     OW24175   1.943   1.294   9.478  0.1553 -0.1346 -0.3996
 4239SOL    HW124176   1.964   1.246   9.558 -1.7523  1.4048  1.0311
 4239SOL    HW224177   1.874   1.244   9.434 -2.7676  2.3116  1.3765
 4240SOL     OW24178   3.515   3.962  17.057 -0.0065  0.0496  0.3417
 4240SOL    HW124179   3.546   3.956  17.147 -1.0117 -1.0439  0.6147
 4240SOL    HW224180   3.571   4.027  17.014 -0.9947  0.6377 -0.0602
 4241SOL     OW24181   1.292   2.300   3.996 -0.8033 -0.3074  0.3671
 4241SOL    HW124182   1.330   2.300   3.909  1.3402 -2.5599  1.2954
 4241SOL    HW224183   1.326   2.220   4.036  2.1403  1.2987  1.1018
 4242SOL     OW24184   0.128   3.983   7.792 -0.5045 -0.0573  0.7949
 4242SOL    HW124185   0.165   4.068   7.816 -1.4231  0.3503  0.7634
 4242SOL    HW224186   0.064   3.960   7.859  1.2294 -2.5814  1.6089
 4243SOL     OW24187   3.399   0.823  13.726  0.0023 -0.0583 -0.1210
 4243SOL    HW124188   3.466   0.759  13.701 -0.5502  0.4076 -2.7721
 4243SOL    HW224189   3.360   0.827  13.639 -2.2186  0.6818  0.9266
 4244SOL     OW24190   2.541   1.044  16.361  0.4306 -0.0335  0.2023
 4244SOL    HW124191   2.613   1.063  16.301  0.2739 -0.1116 -0.0108
 4244SOL    HW224192   2.529   1.123  16.412 -2.5909 -0.4355  0.1354
 4245SOL     OW24193   4.198   2.503  16.226  0.1287 -0.1056 -0.2912
 4245SOL    HW124194   4.165   2.525  16.139 -2.6858  0.7351  0.9779
 4245SOL    HW224195   4.240   2.420  16.202  0.1306 -0.4203  0.8053
 4246SOL     OW24196   3.729   2.257   6.010 -0.1185 -0.2835  0.1368
 4246SOL    HW124197   3.756   2.342   5.977 -3.3887  0.3535 -0.9392
 4246SOL    HW224198   3.691   2.228   5.926  3.4878 -0.9823 -1.2456
 4247SOL     OW24199   1.949   0.524  13.551  0.0276  0.0895 -0.1874
 4247SOL    HW124200   2.026   0.471  13.571 -0.1518 -0.5814 -1.2942
 4247SOL    HW224201   1.910   0.547  13.636 -2.6421 -2.6099 -0.6698
 4248SOL     OW24202   2.359   0.375   2.223 -0.1968 -0.0892 -0.0526
 4248SOL    HW124203   2.281   0.386   2.168  0.8322 -0.0937 -1.5083
 4248SOL    HW224204   2.411   0.306   2.182  1.0265  0.6874  0.1837
 4249SOL     OW24205   2.323   1.056   1.225 -0.2355  0.7814 -0.0927
 4249SOL    HW124206   2.250   0.997   1.246 -1.3267  2.2796  0.3624
 4249SOL    HW224207   2.281   1.133   1.186 -1.6694 -1.3969 -2.8674
 4250SOL     OW24208   4.125   3.164   4.606  0.5076 -0.1379  0.2546
 4250SOL    HW124209   4.081   3.182   4.523 -3.1469  1.5366  2.5610
 4250SOL    HW224210   4.145   3.074   4.580 -0.9995  0.5221 -3.0729
 4251SOL     OW24211   4.010   1.648  17.103  0.0139 -0.1505 -0.1215
 4251SOL    HW124212   3.991   1.650  17.197  0.5790  1.6037 -0.0578
 4251SOL    HW224213   4.103   1.626  17.102 -0.2091 -1.1334  0.2320
 4252SOL     OW24214   3.751   0.627   0.327  0.2422  0.2472  0.3581
 4252SOL    HW124215   3.700   0.696   0.285  0.6084 -1.2304 -2.5028
 4252SOL    HW224216   3.690   0.594   0.393  0.9042  1.9596  1.8262
 4253SOL     OW24217   4.273   0.906  14.618  0.2424  0.1940 -0.2606
 4253SOL    HW124218   4.316   0.877  14.698  0.1918 -3.8397 -1.6856
 4253SOL    HW224219   4.311   0.993  14.608  0.8237 -0.2043 -1.5004
 4254SOL     OW24220   3.718   2.941  12.712 -0.6785  0.3759 -0.0182
 4254SOL    HW124221   3.663   2.959  12.789  0.9058  1.7823  0.7891
 4254SOL    HW224222   3.771   3.021  12.709  0.7644 -0.5434  1.1991
 4255SOL     OW24223   1.556   0.235   6.750  0.7567 -0.2468  0.0061
 4255SOL    HW124224   1.616   0.221   6.677 -0.8625 -0.3606 -1.3104
 4255SOL    HW224225   1.485   0.172   6.737  0.0503  0.3101  1.1536
 4256SOL     OW24226   3.897   0.972  17.238  0.7866 -0.1847 -0.0324
 4256SOL    HW124227   3.961   0.980  17.167 -2.1986  0.0497 -2.6652
 4256SOL    HW224228   3.846   0.900  17.202  0.5444  1.7952 -3.5983
 4257SOL     OW24229   2.383   3.402  15.876 -0.2390 -0.4485  0.2773
 4257SOL    HW124230   2.339   3.358  15.803  1.1422  0.4554 -1.0962
 4257SOL    HW224231   2.473   3.409  15.845  0.0195 -0.9527  0.9092
 4258SOL     OW24232   4.366   1.823   6.831  0.2076 -0.4173 -0.5404
 4258SOL    HW124233   4.458   1.810   6.856 -0.5553 -0.8939  2.0167
 4258SOL    HW224234   4.350   1.914   6.858  1.4190 -0.3926  0.1437
 4259SOL     OW24235   2.130   2.677   3.368  0.2934 -0.1686 -0.6738
 4259SOL    HW124236   2.189   2.603   3.382  1.0383  0.9583  2.1233
 4259SOL    HW224237   2.155   2.706   3.280 -0.7923 -1.0582 -1.2797
 4260SOL     OW24238   2.203   3.484  13.105 -0.2814  0.3984  0.0953
 4260SOL    HW124239   2.213   3.528  13.020  0.7313  1.0436  0.5510
 4260SOL    HW224240   2.267   3.537  13.152  1.4190  0.9292 -2.7744
 4261SOL     OW24241   4.720   3.953   7.547 -0.2510  0.1464 -0.2977
 4261SOL    HW124242   0.034   3.974   7.633 -0.1110 -0.3950 -0.2269
 4261SOL    HW224243   4.684   4.036   7.517  1.1284  1.1202  0.7504
 4262SOL     OW24244   0.074   3.873   3.339 -0.3102  0.1824 -0.2265
 4262SOL    HW124245   4.722   3.828   3.300 -0.0405 -0.7155  0.2738
 4262SOL    HW224246   0.051   3.854   3.430 -0.7168  1.3032 -0.1061
 4263SOL     OW24247   2.207   1.010   7.783 -0.1168  0.0197 -0.1433
 4263SOL    HW124248   2.201   0.924   7.825  0.0061 -1.3095 -2.8889
 4263SOL    HW224249   2.301   1.009   7.766 -0.0376 -0.1463  0.3121
 4264SOL     OW24250   0.016   1.823   4.144 -0.1403  0.2659  0.0242
 4264SOL    HW124251   4.694   1.831   4.229 -0.5007 -2.9022  0.1257
 4264SOL    HW224252   4.677   1.860   4.082 -1.7589 -0.9889  0.9056
 4265SOL     OW24253   0.640   3.282   8.896 -0.1539 -0.0963  0.1528
 4265SOL    HW124254   0.656   3.194   8.863 -0.8357 -0.5731  1.1259
 4265SOL    HW224255   0.594   3.316   8.819 -0.1504  0.8981  0.5869
 4266SOL     OW24256   0.317   4.642   7.566  0.1956 -0.7182  0.1329
 4266SOL    HW124257   0.395   4.674   7.611 -0.3535 -0.1436  0.6897
 4266SOL    HW224258   0.335   4.662   7.475 -0.1711 -0.0070  0.2152
 4267SOL     OW24259   2.646   4.370   0.526  0.0447  0.2860  0.0026
 4267SOL    HW124260   2.704   4.338   0.457 -0.4918 -0.4522 -0.1048
 4267SOL    HW224261   2.563   4.362   0.480 -1.3574 -1.8061  2.9376
 4268SOL     OW24262   0.936   2.843  14.405 -0.0626  0.3226 -0.4350
 4268SOL    HW124263   1.020   2.809  14.376  0.5748 -0.0314  1.8300
 4268SOL    HW224264   0.884   2.816  14.329 -0.5474 -0.8333  0.3232
 4269SOL     OW24265   2.286   3.950   5.356 -0.0441 -0.0520  0.5922
 4269SOL    HW124266   2.319   3.932   5.443  2.1498  2.8829  0.3620
 4269SOL    HW224267   2.237   4.031   5.370 -0.1317  0.0638 -0.3293
 4270SOL     OW24268   0.508   1.621   4.538 -0.0748  0.2130 -0.0082
 4270SOL    HW124269   0.452   1.642   4.612 -0.3465  0.9927 -0.4370
 4270SOL    HW224270   0.450   1.622   4.462  2.2069 -0.2177 -1.7683
 4271SOL     OW24271   4.214   2.434   4.877  0.8835  0.2657 -0.1694
 4271SOL    HW124272   4.127   2.398   4.894  2.0679 -1.8410  1.4829
 4271SOL    HW224273   4.222   2.467   4.966  2.4410  0.6890 -0.4674
 4272SOL     OW24274   3.919   0.825   2.899  0.2896  0.2721 -0.0035
 4272SOL    HW124275   3.972   0.844   2.822  0.0106 -0.8230 -0.4788
 4272SOL    HW224276   3.903   0.734   2.873 -2.2812  0.8505 -0.4544
 4273SOL     OW24277   4.025   4.656   7.068 -0.1239 -0.7937  0.3208
 4273SOL    HW124278   4.011   4.660   6.974  4.6915 -0.1085 -0.3395
 4273SOL    HW224279   4.037   4.562   7.076  0.9445 -0.4843  2.4607
 4274SOL     OW24280   3.606   2.343   0.628 -0.3154  0.1627  0.9616
 4274SOL    HW124281   3.614   2.354   0.722  0.8960  0.5982  0.8014
 4274SOL    HW224282   3.669   2.406   0.593 -1.0227 -0.9564 -2.3522
 4275SOL     OW24283   3.256   1.327  13.727  0.8394  0.8873 -0.3320
 4275SOL    HW124284   3.296   1.243  13.750 -2.1166 -0.8869 -1.6373
 4275SOL    HW224285   3.243   1.323  13.632 -0.2348  1.4023 -0.2054
 4276SOL     OW24286   0.106   0.348   0.192 -0.5908  0.2463  0.1351
 4276SOL    HW124287   0.033   0.340   0.254 -1.0850 -1.0606 -0.6159
 4276SOL    HW224288   0.108   0.262   0.150 -1.2174  0.0204  0.5761
 4277SOL     OW24289   3.368   3.023   1.473  0.4866  0.2220 -1.0087
 4277SOL    HW124290   3.349   3.044   1.565 -3.3239 -2.3750 -1.2068
 4277SOL    HW224291   3.299   2.959   1.452  0.0128  0.8530 -1.3567
 4278SOL     OW24292   1.473   0.763  17.332 -0.0786 -1.0377  0.2374
 4278SOL    HW124293   1.459   0.671  17.355  4.6368 -1.2681  2.1650
 4278SOL    HW224294   1.565   0.753  17.311 -0.4217 -0.4937 -1.5543
 4279SOL     OW24295   3.236   2.356  15.959 -0.2408  0.0920 -0.1156
 4279SOL    HW124296   3.140   2.363  15.961 -0.1893  0.5723  0.5506
 4279SOL    HW224297   3.259   2.399  16.041  0.2087  0.4185 -0.4125
 4280SOL     OW24298   0.339   4.300   5.298  0.0567  0.1511  0.1409
 4280SOL    HW124299   0.339   4.328   5.206  0.9159  2.1595  0.7320
 4280SOL    HW224300   0.432   4.295   5.321  0.2686 -1.9543 -1.1827
 4281SOL     OW24301   0.801   4.114   5.989  0.7173 -0.5287  0.1591
 4281SOL    HW124302   0.726   4.063   5.959  2.1709 -2.4982 -0.0698
 4281SOL    HW224303   0.867   4.071   5.935  1.0534  0.0262  0.1297
 4282SOL     OW24304   1.627   0.251   8.193 -0.4508 -0.4661  0.0032
 4282SOL    HW124305   1.557   0.286   8.138 -0.5343 -2.6201 -1.2610
 4282SOL    HW224306   1.687   0.326   8.201  0.0489 -1.0658  1.6890
 4283SOL     OW24307   3.649   0.065   9.424 -0.9863 -0.0640 -0.5890
 4283SOL    HW124308   3.681   0.134   9.482 -0.8967 -0.0317 -0.6761
 4283SOL    HW224309   3.715   0.071   9.355  0.5573  2.0249  1.0732
 4284SOL     OW24310   2.740   3.366   8.477  0.4365 -0.0652 -0.0485
 4284SOL    HW124311   2.708   3.456   8.482  2.2506  0.4784  2.0735
 4284SOL    HW224312   2.717   3.335   8.390 -0.7244 -0.8935  0.5612
 4285SOL     OW24313   2.102   1.317   4.997  0.4541 -0.1414 -0.4582
 4285SOL    HW124314   2.069   1.373   5.068 -0.4108 -0.8297 -0.3123
 4285SOL    HW224315   2.023   1.293   4.948  1.2483 -2.6114 -0.5295
 4286SOL     OW24316   1.404   0.073  17.243 -0.3857 -0.1311  0.3857
 4286SOL    HW124317   1.311   0.090  17.225 -1.1098 -1.0503  3.3785
 4286SOL    HW224318   1.438   0.095  17.156  0.3206 -1.2427  0.3812
 4287SOL     OW24319   4.200   1.391  13.937  0.4480 -0.3433 -0.0160
 4287SOL    HW124320   4.295   1.392  13.948  0.6123  1.9743 -1.7467
 4287SOL    HW224321   4.168   1.396  14.027  0.7428  2.4194 -0.0823
 4288SOL     OW24322   3.226   1.781   0.596 -0.2671 -0.2535 -0.1052
 4288SOL    HW124323   3.226   1.686   0.610  2.6690 -0.4251 -1.2811
 4288SOL    HW224324   3.317   1.780   0.565 -0.0018 -2.4393  0.7832
 4289SOL     OW24325   4.602   2.627   4.956 -0.0822 -0.3478  0.3987
 4289SOL    HW124326   4.689   2.601   4.927  0.3570  0.1336  1.2761
 4289SOL    HW224327   4.601   2.595   5.046 -2.2186  2.4573  1.3863
 4290SOL     OW24328   2.163   1.123   5.176 -0.0020 -0.2943 -0.0940
 4290SOL    HW124329   2.165   1.198   5.117 -1.5332 -0.1833 -0.0166
 4290SOL    HW224330   2.122   1.061   5.115  0.0607 -2.3171  1.9068
 4291SOL     OW24331   0.619   4.258  11.251 -0.0726  0.0352 -0.4509
 4291SOL    HW124332   0.566   4.318  11.304 -0.5437  0.4599 -1.4086
 4291SOL    HW224333   0.686   4.314  11.213 -0.5273  1.0735  0.2590
 4292SOL     OW24334   4.024   2.668   6.636 -0.4689 -0.0266 -0.3602
 4292SOL    HW124335   4.082   2.743   6.651  1.0290 -1.6352  2.0242
 4292SOL    HW224336   4.081   2.599   6.603 -2.1982 -1.6317  0.0295
 4293SOL     OW24337   3.126   2.275   7.143  0.2873  0.1996  0.3644
 4293SOL    HW124338   3.048   2.328   7.131  1.3610  1.5450 -0.7835
 4293SOL    HW224339   3.192   2.345   7.145  1.6875 -1.1473  1.5764
 4294SOL     OW24340   3.273   1.234  16.633  0.6338 -0.0500 -0.5028
 4294SOL    HW124341   3.207   1.278  16.580  1.5956  0.1856 -1.5053
 4294SOL    HW224342   3.229   1.150  16.646  2.0726 -0.8022 -0.4169
 4295SOL     OW24343   3.646   0.560  11.402  0.2273 -0.7707  0.3629
 4295SOL    HW124344   3.690   0.483  11.367 -0.8730 -0.7059 -1.1760
 4295SOL    HW224345   3.618   0.544  11.492  2.6604 -0.7098  1.1505
 4296SOL     OW24346   0.489   2.869  14.878  0.3968 -0.1393 -0.4641
 4296SOL    HW124347   0.544   2.932  14.832 -0.1251 -1.3836 -2.7639
 4296SOL    HW224348   0.441   2.834  14.803 -0.0747 -1.5150  0.4781
 4297SOL     OW24349   1.144   2.409   8.310  0.1345  0.3863 -0.4863
 4297SOL    HW124350   1.144   2.440   8.400  5.7369  2.6943 -1.2994
 4297SOL    HW224351   1.092   2.478   8.269  0.6382 -0.2507 -2.2493
 4298SOL     OW24352   0.846   0.946   1.511 -0.3288 -0.1535 -0.2516
 4298SOL    HW124353   0.870   1.026   1.465 -2.3285 -0.0964 -1.1749
 4298SOL    HW224354   0.777   0.916   1.452 -2.0809  2.1411  0.6260
 4299SOL     OW24355   1.012   0.008   2.571 -0.3566 -0.2231 -0.6543
 4299SOL    HW124356   1.106   0.003   2.556 -0.1553  1.9158 -0.1355
 4299SOL    HW224357   1.006   4.666   2.641 -0.5491  1.2246  0.6756
 4300SOL     OW24358   3.089   2.618  10.856 -0.7310  0.1192  0.2163
 4300SOL    HW124359   3.140   2.600  10.935 -1.4590  3.5350  1.4624
 4300SOL    HW224360   3.004   2.639  10.895 -1.1683 -0.0962 -0.6172
 4301SOL     OW24361   2.350   1.005   4.347  0.1287  0.5264 -0.1326
 4301SOL    HW124362   2.347   1.075   4.412 -1.0053 -0.3005  0.7211
 4301SOL    HW224363   2.421   0.949   4.379  0.3780  1.2205  0.5140
 4302SOL     OW24364   0.332   3.968   3.760 -0.4394  0.6312 -0.0545
 4302SOL    HW124365   0.302   4.049   3.717 -1.1084 -0.0084 -0.7988
 4302SOL    HW224366   0.416   3.951   3.718  0.4014 -0.4050  2.0989
 4303SOL     OW24367   3.051   1.829   1.245 -0.2419  0.2274  0.6450
 4303SOL    HW124368   3.069   1.879   1.165 -0.8167 -1.7613 -0.7309
 4303SOL    HW224369   3.130   1.836   1.299 -1.0449  2.5904  1.5180
 4304SOL     OW24370   0.821   3.746  11.128  0.0884 -0.3351 -0.0490
 4304SOL    HW124371   0.877   3.801  11.073  0.6304 -0.0498  0.7763
 4304SOL    HW224372   0.847   3.769  11.217  0.2323 -2.2077  0.3982
 4305SOL     OW24373   4.198   3.477   7.849  0.5258  0.1910  0.0850
 4305SOL    HW124374   4.264   3.533   7.809  1.1446 -0.1264  0.6759
 4305SOL    HW224375   4.117   3.528   7.846  0.9700  0.6927 -3.1471
 4306SOL     OW24376   3.369   0.342   7.648 -0.7917  0.1466  0.0385
 4306SOL    HW124377   3.400   0.341   7.738  1.3697 -0.1250 -0.7093
 4306SOL    HW224378   3.295   0.282   7.656 -0.7209 -0.0732 -0.9236
 4307SOL     OW24379   3.798   3.515   6.209 -0.0880 -0.3852  0.5254
 4307SOL    HW124380   3.785   3.432   6.163 -0.7002  0.6678 -1.1970
 4307SOL    HW224381   3.888   3.533   6.184 -0.2862  2.3261  1.8359
 4308SOL     OW24382   4.028   1.765   3.481 -0.4445 -0.1585 -0.4307
 4308SOL    HW124383   3.941   1.795   3.506  0.3530  1.3159  0.5352
 4308SOL    HW224384   4.054   1.716   3.560 -3.0871 -3.3546 -1.5184
 4309SOL     OW24385   2.828   1.570   5.900 -0.2480 -0.4217  0.1622
 4309SOL    HW124386   2.749   1.524   5.871 -0.8338  0.6298  0.0500
 4309SOL    HW224387   2.806   1.577   5.993  1.5600 -0.2496  0.5603
 4310SOL     OW24388   1.064   1.468  16.459  0.3861  0.2953  0.5015
 4310SOL    HW124389   1.082   1.375  16.445 -0.5203 -0.0594  1.6610
 4310SOL    HW224390   1.022   1.499  16.379 -3.0038 -1.2665  1.6864
 4311SOL     OW24391   3.747   3.749  16.919  0.8582 -0.2438 -0.0086
 4311SOL    HW124392   3.788   3.691  16.983  2.7496  1.3845  0.2582
 4311SOL    HW224393   3.686   3.802  16.970 -0.2192 -0.6220 -0.8949
 4312SOL     OW24394   3.804   3.161   2.767  0.3712  0.2042 -0.1263
 4312SOL    HW124395   3.726   3.107   2.769 -0.0342  0.7492 -0.8542
 4312SOL    HW224396   3.819   3.165   2.672 -1.2718  1.1821 -0.3449
 4313SOL     OW24397   0.531   1.656   1.361  0.1165  0.7169  0.5724
 4313SOL    HW124398   0.529   1.745   1.395  0.4755  0.3860  1.4806
 4313SOL    HW224399   0.449   1.632   1.405  1.2851 -1.3699  1.6183
 4314SOL     OW24400   1.383   1.739   0.277  0.3960 -0.2638  0.1415
 4314SOL    HW124401   1.451   1.673   0.276  1.0843  0.4184  1.7463
 4314SOL    HW224402   1.374   1.740   0.182  0.6224 -1.3904  0.1174
 4315SOL     OW24403   0.905   2.601  16.555  0.1134  0.0434 -0.1872
 4315SOL    HW124404   0.942   2.652  16.482  0.1878 -0.0503 -0.2132
 4315SOL    HW224405   0.833   2.551  16.515 -0.0094 -0.4177  0.6156
 4316SOL     OW24406   2.350   2.582  17.413  0.4305  0.1330 -0.3175
 4316SOL    HW124407   2.439   2.558  17.439  0.8285  1.4565 -0.4641
 4316SOL    HW224408   2.293   2.529  17.468 -0.3874 -0.9039 -2.1667
 4317SOL     OW24409   4.386   0.206   6.404 -0.3647 -0.1514  0.0449
 4317SOL    HW124410   4.480   0.217   6.393  0.0189 -3.4999  0.0957
 4317SOL    HW224411   4.355   0.294   6.382 -0.5345  0.1332  1.4519
 4318SOL     OW24412   3.850   2.281   3.692 -0.2908 -0.0366  0.3105
 4318SOL    HW124413   3.794   2.343   3.643  0.4641  0.5161  0.1400
 4318SOL    HW224414   3.839   2.203   3.638 -1.9509  0.3021  0.1565
 4319SOL     OW24415   2.775   1.338   3.099  0.0948 -0.6936 -0.2756
 4319SOL    HW124416   2.734   1.258   3.067  0.5049 -0.9255 -0.2181
 4319SOL    HW224417   2.808   1.307   3.183  0.8145  3.6334  1.0200
 4320SOL     OW24418   2.306   0.921  17.501 -0.0320  0.1660  0.0360
 4320SOL    HW124419   2.258   0.892  17.423 -0.9511 -1.1986  1.1086
 4320SOL    HW224420   2.316   1.015  17.481  1.2071 -0.1781 -0.9510
 4321SOL     OW24421   2.376   2.717  15.958  0.4253 -0.1655  0.2898
 4321SOL    HW124422   2.385   2.624  15.979  1.2086  0.0699  1.0308
 4321SOL    HW224423   2.368   2.757  16.045 -0.9355 -0.6963  0.3988
 4322SOL     OW24424   3.184   0.819   9.779 -0.3185  0.3186  0.1397
 4322SOL    HW124425   3.213   0.730   9.801 -2.6642 -0.7687 -1.0657
 4322SOL    HW224426   3.250   0.869   9.826 -0.0011 -0.3770  0.4429
 4323SOL     OW24427   0.339   1.305   4.020 -0.6023  0.3160 -0.4088
 4323SOL    HW124428   0.346   1.396   3.993 -0.5321  0.2210 -0.7050
 4323SOL    HW224429   0.243   1.299   4.016 -0.7502 -0.0560  3.5106
 4324SOL     OW24430   0.247   0.636   8.223 -0.4523 -0.0486 -0.3349
 4324SOL    HW124431   0.340   0.619   8.240  0.3015  2.2127 -2.2523
 4324SOL    HW224432   0.244   0.721   8.267 -1.6266  0.6504 -1.7848
 4325SOL     OW24433   3.994   1.148   0.326 -0.7937 -0.0828 -0.0246
 4325SOL    HW124434   4.053   1.081   0.361 -0.6385  1.1571  2.0760
 4325SOL    HW224435   3.958   1.195   0.401  1.2435  0.8311  0.3651
 4326SOL     OW24436   1.963   3.258   7.279  0.0497 -0.3370  0.7067
 4326SOL    HW124437   1.924   3.171   7.278 -0.0289 -0.3109  1.6555
 4326SOL    HW224438   1.932   3.298   7.360 -2.2643  1.0860 -0.8995
 4327SOL     OW24439   2.083   1.160   7.576  0.3762  0.5642  0.2277
 4327SOL    HW124440   2.141   1.115   7.638  0.0828  0.2928  0.3014
 4327SOL    HW224441   2.003   1.178   7.626  1.5133  0.3113  2.1551
 4328SOL     OW24442   2.446   1.175  15.241 -0.2913  0.1322 -0.3428
 4328SOL    HW124443   2.352   1.175  15.260 -0.7334 -0.7084 -2.5141
 4328SOL    HW224444   2.461   1.083  15.263 -1.4969 -0.0851 -0.4400
 4329SOL     OW24445   4.227   2.051   4.182  0.3039  0.3723 -0.4561
 4329SOL    HW124446   4.259   2.140   4.199 -0.7783  1.1573 -2.6359
 4329SOL    HW224447   4.170   2.074   4.109  2.0040  1.6373 -1.3835
 4330SOL     OW24448   2.468   0.407   7.988 -0.0182 -0.0995 -0.0541
 4330SOL    HW124449   2.513   0.358   7.920 -1.3102 -1.2148 -0.1100
 4330SOL    HW224450   2.540   0.420   8.051 -0.1491 -1.8807  0.4828
 4331SOL     OW24451   2.112   3.896   1.283  0.5949 -0.5970 -0.0540
 4331SOL    HW124452   2.169   3.947   1.225  3.0021 -0.5662  2.3326
 4331SOL    HW224453   2.117   3.934   1.370  3.5931 -0.4006 -0.3206
 4332SOL     OW24454   2.112   4.595  12.324 -0.3811 -0.2121  0.1316
 4332SOL    HW124455   2.182   4.534  12.303  0.8830  1.0650  0.5984
 4332SOL    HW224456   2.049   4.555  12.265  0.6534 -1.5132 -0.0865
 4333SOL     OW24457   3.470   3.777  15.679 -0.2299  0.4471 -0.0052
 4333SOL    HW124458   3.529   3.702  15.683 -0.9446 -0.1486 -0.8243
 4333SOL    HW224459   3.417   3.776  15.758  0.5321  1.9994  0.5350
 4334SOL     OW24460   3.069   3.776   2.501 -0.1343  0.0516 -0.2753
 4334SOL    HW124461   3.085   3.870   2.511 -0.5056  0.1849 -0.9741
 4334SOL    HW224462   3.157   3.749   2.474  1.0699  3.3923  0.3420
 4335SOL     OW24463   4.714   1.013   4.839  0.1149 -0.3426 -1.1351
 4335SOL    HW124464   0.039   1.006   4.922 -1.2286  0.8009 -0.2540
 4335SOL    HW224465   0.007   1.106   4.824 -0.1646 -0.1154 -0.0069
 4336SOL     OW24466   1.236   0.600  14.062 -0.3451 -0.0554 -0.2566
 4336SOL    HW124467   1.257   0.547  14.139 -0.5235 -0.1310 -0.2595
 4336SOL    HW224468   1.149   0.629  14.090  0.6393  1.5401  1.0891
 4337SOL     OW24469   4.107   1.968   5.961 -0.3239  0.2130 -0.6579
 4337SOL    HW124470   4.067   2.044   6.003  2.4410  1.0582  0.4702
 4337SOL    HW224471   4.198   1.994   5.974 -0.2897 -1.1220  1.8908
 4338SOL     OW24472   0.563   0.381   6.902 -0.0903  0.6876 -0.4293
 4338SOL    HW124473   0.492   0.401   6.963  0.4093  0.6942  0.1468
 4338SOL    HW224474   0.627   0.339   6.959  0.7462  1.1278 -1.0425
 4339SOL     OW24475   1.345   1.196  12.797 -0.0460  0.0654  0.6928
 4339SOL    HW124476   1.388   1.217  12.714 -2.6585  0.3615 -0.5596
 4339SOL    HW224477   1.420   1.154  12.840 -0.0193 -2.1693 -1.5066
 4340SOL     OW24478   2.250   4.035   8.668  0.5834  0.0077  0.0308
 4340SOL    HW124479   2.280   4.105   8.610  1.2180 -0.0514  0.2870
 4340SOL    HW224480   2.333   4.035   8.715 -0.3303 -1.0372  1.6707
 4341SOL     OW24481   0.205   3.546  13.881  0.0489  0.7707 -0.3231
 4341SOL    HW124482   0.176   3.472  13.829 -1.1178  1.1845 -0.2733
 4341SOL    HW224483   0.299   3.536  13.867  0.5800  2.5047  1.8264
 4342SOL     OW24484   4.272   3.676  12.406  0.7666 -0.1234  0.6022
 4342SOL    HW124485   4.237   3.762  12.430 -2.0165 -1.1370  0.1998
 4342SOL    HW224486   4.358   3.700  12.440  1.1594  0.0353 -0.5171
 4343SOL     OW24487   1.527   4.356   8.205 -0.0865  0.9388 -1.1095
 4343SOL    HW124488   1.545   4.315   8.290 -0.3145 -2.0208 -2.4803
 4343SOL    HW224489   1.524   4.277   8.152 -1.7864  0.8706 -0.9045
 4344SOL     OW24490   3.107   2.883   2.303  0.2707 -0.4969  0.0963
 4344SOL    HW124491   3.039   2.828   2.341  0.2021 -1.1680 -1.0005
 4344SOL    HW224492   3.153   2.828   2.240  0.7120 -0.0062 -0.0068
 4345SOL     OW24493   3.124   4.275   8.865  0.0746 -1.0482  0.5070
 4345SOL    HW124494   3.085   4.187   8.866 -2.8319  0.2075 -0.6634
 4345SOL    HW224495   3.188   4.263   8.795 -0.1257 -1.9177  0.4655
 4346SOL     OW24496   3.363   4.356   4.521 -0.5184 -0.0931 -0.2096
 4346SOL    HW124497   3.319   4.412   4.457  1.7769  1.4667 -0.4232
 4346SOL    HW224498   3.313   4.380   4.599  0.6724  0.9454  0.2283
 4347SOL     OW24499   3.005   1.279   8.044 -0.5866  0.8577  0.5623
 4347SOL    HW124500   2.998   1.372   8.025 -0.6107  0.9765  1.1657
 4347SOL    HW224501   2.928   1.279   8.101 -1.7665 -3.2998 -1.0101
 4348SOL     OW24502   4.262   1.459   5.113  0.6600  0.0491  0.1640
 4348SOL    HW124503   4.272   1.431   5.022  1.4209 -0.1101  0.2982
 4348SOL    HW224504   4.196   1.523   5.088  1.7691  0.6268 -1.2435
 4349SOL     OW24505   2.671   0.163  11.739 -0.0192 -0.0470  0.0425
 4349SOL    HW124506   2.744   0.160  11.677 -1.1854  0.7703 -1.3536
 4349SOL    HW224507   2.683   0.080  11.786  1.5565  0.3834  0.4180
 4350SOL     OW24508   1.277   1.851   2.675  0.1262 -0.4147 -0.3263
 4350SOL    HW124509   1.196   1.823   2.718 -0.8459  0.7648 -1.3608
 4350SOL    HW224510   1.233   1.834   2.591 -0.3106 -2.9182  0.4100
 4351SOL     OW24511   2.825   2.312   2.903 -0.3046  0.5542 -0.4858
 4351SOL    HW124512   2.874   2.394   2.914 -0.5328  0.8118 -1.4009
 4351SOL    HW224513   2.897   2.249   2.897 -1.0039 -0.1807 -1.1593
 4352SOL     OW24514   2.445   1.756  16.508 -0.0304  0.4768 -0.0523
 4352SOL    HW124515   2.441   1.708  16.425 -3.4077 -0.5847  0.7181
 4352SOL    HW224516   2.367   1.810  16.490 -0.7527 -0.7971 -0.7275
 4353SOL     OW24517   0.272   4.220   7.471  0.0678 -1.0211 -0.0934
 4353SOL    HW124518   0.215   4.275   7.417 -2.3148 -0.9117  2.4775
 4353SOL    HW224519   0.353   4.266   7.453  1.3173 -2.0039  3.0479
 4354SOL     OW24520   1.369   2.050   9.601  0.0722  0.2337  0.2082
 4354SOL    HW124521   1.276   2.035   9.623  0.3300 -0.1015  1.0914
 4354SOL    HW224522   1.408   2.033   9.687 -1.7009  0.0922  1.0087
 4355SOL     OW24523   1.736   3.714   0.772 -0.2868 -0.1261  1.0151
 4355SOL    HW124524   1.704   3.629   0.803  0.4696  0.0943  2.4139
 4355SOL    HW224525   1.655   3.762   0.753  1.5884  3.0961  1.2003
 4356SOL     OW24526   0.643   0.992  10.698 -0.0110 -0.4203  0.6943
 4356SOL    HW124527   0.651   0.918  10.758  0.2428  0.0819  1.2804
 4356SOL    HW224528   0.702   1.051  10.744 -1.4102  0.0954  1.8255
 4357SOL     OW24529   4.220   1.658   7.016  0.0107  0.8038 -0.1860
 4357SOL    HW124530   4.226   1.587   6.952  1.8589  0.0109  0.8682
 4357SOL    HW224531   4.264   1.725   6.964 -0.1420  0.2740 -0.9989
 4358SOL     OW24532   1.390   3.863   4.655 -0.3326 -0.2223  0.0587
 4358SOL    HW124533   1.310   3.866   4.602 -0.2626  2.1428  0.1255
 4358SOL    HW224534   1.439   3.934   4.614 -1.7608  1.0184  0.5371
 4359SOL     OW24535   1.567   4.578   7.991  0.3290  0.4139 -0.5102
 4359SOL    HW124536   1.640   4.618   7.945 -0.3008  1.5831 -0.4967
 4359SOL    HW224537   1.586   4.596   8.083 -1.2856 -0.2548 -0.0383
 4360SOL     OW24538   2.272   0.375   0.876 -0.1254 -0.4583  0.1045
 4360SOL    HW124539   2.296   0.457   0.919  0.1152 -0.8758  0.7660
 4360SOL    HW224540   2.253   0.322   0.953 -0.0337  0.1824  0.5655
 4361SOL     OW24541   3.795   1.602  10.812 -0.2177 -0.2851  0.3372
 4361SOL    HW124542   3.835   1.521  10.842  0.2466 -0.2966 -0.3076
 4361SOL    HW224543   3.851   1.671  10.848 -0.1336  0.2420 -0.8041
 4362SOL     OW24544   1.481   1.189   2.590  0.2542 -0.3772  0.8721
 4362SOL    HW124545   1.398   1.158   2.555  0.4202  0.1432  0.0174
 4362SOL    HW224546   1.459   1.200   2.683 -2.7768  0.7693  0.0063
 4363SOL     OW24547   0.529   4.267   2.786 -0.2912  0.0434 -0.4543
 4363SOL    HW124548   0.436   4.290   2.789 -0.1139  0.9061 -1.6710
 4363SOL    HW224549   0.547   4.242   2.695 -0.1528 -1.4121 -0.0287
 4364SOL     OW24550   2.876   0.714   0.438 -0.7801  0.3493 -0.6602
 4364SOL    HW124551   2.956   0.661   0.438  0.2370  1.8433 -2.8116
 4364SOL    HW224552   2.869   0.744   0.529 -1.5050 -0.1790 -0.5476
 4365SOL     OW24553   2.666   2.957   4.127  0.3573 -0.3343 -0.3515
 4365SOL    HW124554   2.583   2.909   4.124  0.0273  0.1857  0.5108
 4365SOL    HW224555   2.629   3.043   4.106  1.0017 -0.3150 -1.4511
 4366SOL     OW24556   1.434   1.914   8.587  0.4644 -0.4079  0.3007
 4366SOL    HW124557   1.383   1.949   8.660 -1.5758  0.6312 -1.6500
 4366SOL    HW224558   1.501   1.981   8.597 -0.7926  0.5878  2.0110
 4367SOL     OW24559   4.042   4.166   3.826 -0.8531  0.5013 -0.2775
 4367SOL    HW124560   4.030   4.117   3.908 -0.0089  0.6876 -0.0458
 4367SOL    HW224561   4.137   4.176   3.831 -0.9965  1.9268 -0.4916
 4368SOL     OW24562   3.545   3.686   4.909  0.2910 -0.0905  0.1150
 4368SOL    HW124563   3.466   3.633   4.917 -0.5717  0.8441 -2.0414
 4368SOL    HW224564   3.608   3.616   4.890 -0.2822 -0.4324 -0.5444
 4369SOL     OW24565   2.818   0.503  11.029  0.8552 -0.4741  0.1082
 4369SOL    HW124566   2.759   0.469  11.096 -2.5056  2.4099 -1.4023
 4369SOL    HW224567   2.787   0.452  10.954  1.5079 -3.0058  1.5767
 4370SOL     OW24568   3.361   4.503   2.606 -0.1748  0.0171  0.6242
 4370SOL    HW124569   3.266   4.516   2.610 -0.3160 -0.7499 -0.3928
 4370SOL    HW224570   3.383   4.533   2.518  0.2460 -0.8822  0.4257
 4371SOL     OW24571   3.738   1.513   1.585  1.0418 -0.2376 -0.2160
 4371SOL    HW124572   3.802   1.583   1.578 -0.3326  0.9588 -0.8967
 4371SOL    HW224573   3.664   1.558   1.627 -0.3729 -2.1521 -0.6614
 4372SOL     OW24574   2.369   0.365  11.149  0.8256  1.1074  0.2259
 4372SOL    HW124575   2.378   0.341  11.057 -0.8034 -0.5708  0.5018
 4372SOL    HW224576   2.274   0.363  11.157  0.8785 -1.6427  0.3363
 4373SOL     OW24577   1.318   0.610  13.355 -0.2132  0.2555  0.0693
 4373SOL    HW124578   1.369   0.566  13.423  0.7967  1.8219  0.3130
 4373SOL    HW224579   1.359   0.591  13.271  3.7115  0.7313  1.9035
 4374SOL     OW24580   1.248   1.323   8.465  0.2957  0.4510  0.0108
 4374SOL    HW124581   1.233   1.230   8.486 -0.6473  0.0452 -2.4159
 4374SOL    HW224582   1.339   1.339   8.490 -0.3644  0.7086  2.2113
 4375SOL     OW24583   3.912   4.165  15.710 -0.7761  0.5022 -0.4277
 4375SOL    HW124584   3.969   4.241  15.702 -1.3074  1.0081  0.6296
 4375SOL    HW224585   3.954   4.120  15.784 -2.2125 -1.0515 -0.5509
 4376SOL     OW24586   0.900   3.517  10.017 -0.1189  0.5731 -0.0882
 4376SOL    HW124587   0.804   3.521  10.019 -0.1885 -0.1077 -1.5214
 4376SOL    HW224588   0.909   3.422  10.008  0.7531  0.8138 -1.7977
 4377SOL     OW24589   2.539   1.730   0.472  0.3696 -0.0701 -0.0476
 4377SOL    HW124590   2.567   1.722   0.563  0.1963 -0.0667  0.0067
 4377SOL    HW224591   2.448   1.758   0.487  0.4455  0.0983  0.1038
 4378SOL     OW24592   1.745   3.604   7.042  0.1437  0.2209 -0.0220
 4378SOL    HW124593   1.659   3.615   7.082  0.0316  0.9195 -0.4564
 4378SOL    HW224594   1.744   3.661   6.965 -1.3967 -0.3335 -0.4163
 4379SOL     OW24595   4.209   2.538  16.490  0.2264  0.1390  0.2349
 4379SOL    HW124596   4.216   2.524  16.396  1.6076  1.8596  0.0722
 4379SOL    HW224597   4.225   2.447  16.515 -1.8186 -0.1804  0.4168
 4380SOL     OW24598   4.344   3.563  12.742  0.1761 -0.0123  0.4090
 4380SOL    HW124599   4.259   3.522  12.730  1.0478 -0.9168 -2.5099
 4380SOL    HW224600   4.362   3.546  12.835  0.2286 -1.3562  0.1436
 4381SOL     OW24601   0.696   1.713   6.128 -0.2627  0.5766  0.5994
 4381SOL    HW124602   0.644   1.666   6.063  0.1516 -0.2335  0.8566
 4381SOL    HW224603   0.626   1.769   6.162 -0.1591  0.4395  1.0357
 4382SOL     OW24604   0.715   2.730   5.213  0.4058  0.6849 -0.0532
 4382SOL    HW124605   0.678   2.774   5.136 -2.8666 -0.5685  0.8207
 4382SOL    HW224606   0.751   2.656   5.165  0.9158  0.1302  1.2021
 4383SOL     OW24607   0.562   1.928  14.459  0.6149 -0.5229  0.4516
 4383SOL    HW124608   0.568   1.979  14.540  0.7631 -0.1493  0.2065
 4383SOL    HW224609   0.505   1.859  14.492 -0.0544 -0.7277 -1.1768
 4384SOL     OW24610   1.313   2.880   7.049  0.0063  0.8774  0.9938
 4384SOL    HW124611   1.385   2.911   7.104 -0.1772  0.0376  1.7023
 4384SOL    HW224612   1.313   2.784   7.056 -2.1556  0.9978  2.4524
 4385SOL     OW24613   3.441   4.703   7.027  0.1820  0.1561 -0.2447
 4385SOL    HW124614   3.446   4.608   7.010  0.1128  0.0165  0.5239
 4385SOL    HW224615   3.467   0.010   6.940 -1.2469 -0.0538 -0.7548
 4386SOL     OW24616   1.649   1.527   1.140 -0.1650 -1.0922  0.0838
 4386SOL    HW124617   1.598   1.447   1.151 -0.9998 -0.6266 -0.3728
 4386SOL    HW224618   1.686   1.533   1.228 -0.2679 -1.3605  0.1445
 4387SOL     OW24619   4.705   4.664   2.639  0.0444  0.2985  0.6041
 4387SOL    HW124620   4.661   0.024   2.650  0.0701  0.6172 -1.6726
 4387SOL    HW224621   4.635   4.608   2.673 -1.3247  1.9985  0.5466
 4388SOL     OW24622   4.437   0.915   6.209  0.1983 -0.5668  0.0800
 4388SOL    HW124623   4.479   0.893   6.292  0.4933  1.4374  0.4530
 4388SOL    HW224624   4.349   0.936   6.240 -0.3004 -1.1739 -0.9006
 4389SOL     OW24625   4.392   1.893  11.347  0.1741 -0.1947 -0.3584
 4389SOL    HW124626   4.448   1.950  11.400 -0.6071  1.6896 -1.5863
 4389SOL    HW224627   4.430   1.808  11.372  1.7161  0.6700  0.2357
 4390SOL     OW24628   0.675   2.720  16.948 -0.0206  0.1079 -0.4554
 4390SOL    HW124629   0.599   2.748  16.999  1.1595 -0.4565  1.6615
 4390SOL    HW224630   0.746   2.723  17.013 -0.9833 -0.8923  0.6342
 4391SOL     OW24631   2.592   0.932   2.184 -0.0741 -0.1412  0.3183
 4391SOL    HW124632   2.561   0.936   2.275 -0.3611  0.9920  0.1778
 4391SOL    HW224633   2.508   0.947   2.141 -0.2879  0.4580  0.9436
 4392SOL     OW24634   3.310   1.024   2.895  0.0565  0.0363 -0.1811
 4392SOL    HW124635   3.300   0.944   2.946 -4.6482 -1.4237 -3.3322
 4392SOL    HW224636   3.225   1.056   2.865 -0.5351 -0.6402  0.7717
 4393SOL     OW24637   0.705   3.846   0.891  0.7260  0.0043  0.6648
 4393SOL    HW124638   0.612   3.868   0.884  0.3924 -1.2474  1.1014
 4393SOL    HW224639   0.739   3.917   0.945  3.0173 -0.9931  0.5171
 4394SOL     OW24640   1.241   2.535  12.366  0.0281  0.0124  0.4024
 4394SOL    HW124641   1.262   2.445  12.338  0.2183 -0.7644  3.0489
 4394SOL    HW224642   1.326   2.565  12.398  1.8356 -1.3582 -3.1122
 4395SOL     OW24643   1.307   3.741  11.925 -0.9391 -0.3377  0.2842
 4395SOL    HW124644   1.236   3.707  11.869 -0.8360 -0.9365  0.5125
 4395SOL    HW224645   1.389   3.728  11.876 -0.6062  1.3103  0.4202
 4396SOL     OW24646   4.362   3.540   4.263 -0.0083  0.1445  0.0378
 4396SOL    HW124647   4.287   3.564   4.209 -0.1179 -0.1540  0.0561
 4396SOL    HW224648   4.320   3.534   4.349 -2.7354  0.4338 -1.2857
 4397SOL     OW24649   3.048   2.419   4.165  0.3773 -0.2457  0.1337
 4397SOL    HW124650   3.075   2.424   4.256  0.0437  0.2352  0.2038
 4397SOL    HW224651   3.020   2.510   4.159 -1.2521 -0.6222  1.8209
 4398SOL     OW24652   3.165   1.144  11.014  0.0606 -0.0506 -0.0112
 4398SOL    HW124653   3.164   1.235  10.983 -0.9720 -0.1597 -0.3012
 4398SOL    HW224654   3.078   1.138  11.055  0.4653  1.0228  1.0073
 4399SOL     OW24655   1.535   0.534   0.883  0.2670 -0.3573 -0.0960
 4399SOL    HW124656   1.604   0.578   0.834  0.2033 -2.3324 -1.9357
 4399SOL    HW224657   1.548   0.560   0.974  1.9074  1.1638 -0.7685
 4400SOL     OW24658   3.959   1.930  11.234 -0.6409 -0.2333 -0.5940
 4400SOL    HW124659   4.048   1.949  11.204 -0.8554 -0.8083 -1.6259
 4400SOL    HW224660   3.984   1.853  11.284  3.1471  0.5917 -1.2089
 4401SOL     OW24661   3.746   3.091  13.821 -0.7051 -0.0093 -0.2896
 4401SOL    HW124662   3.829   3.124  13.855 -1.9176  3.3848 -0.6500
 4401SOL    HW224663   3.733   3.000  13.848 -0.3522  0.4901  1.6181
 4402SOL     OW24664   0.425   3.051  12.700 -0.4568  0.0270 -0.0192
 4402SOL    HW124665   0.496   3.007  12.747  1.0336  2.2027 -0.2391
 4402SOL    HW224666   0.459   3.043  12.611 -0.3395  1.3001 -0.0814
 4403SOL     OW24667   2.106   0.580  11.496 -0.1057 -0.1317  0.0296
 4403SOL    HW124668   2.196   0.601  11.475  0.2813 -0.3938  1.3914
 4403SOL    HW224669   2.056   0.589  11.415 -1.0100 -1.4869  0.4229
 4404SOL     OW24670   2.838   1.539   4.639  0.0560  0.8226  0.2739
 4404SOL    HW124671   2.815   1.629   4.617 -0.8681  1.0326  2.1363
 4404SOL    HW224672   2.901   1.517   4.570  2.0820  0.7374  2.1458
 4405SOL     OW24673   0.922   4.331   3.879 -0.3788  0.1354  0.1099
 4405SOL    HW124674   1.008   4.289   3.875 -0.9390 -0.8473 -1.6283
 4405SOL    HW224675   0.907   4.335   3.973  0.0985  1.2573  0.1395
 4406SOL     OW24676   0.176   3.008   3.672  0.4477  0.8589 -0.0218
 4406SOL    HW124677   0.231   3.038   3.599  0.8671 -0.2140 -0.1507
 4406SOL    HW224678   0.143   3.095   3.696 -0.7395  0.2415  0.5625
 4407SOL     OW24679   2.113   3.317  13.837  0.5324  0.0511 -0.4266
 4407SOL    HW124680   2.027   3.279  13.855  0.2007  0.0539 -1.9952
 4407SOL    HW224681   2.128   3.308  13.743  1.0092  0.4504 -0.3865
 4408SOL     OW24682   3.114   2.213   5.845 -0.0809 -0.2379 -0.0147
 4408SOL    HW124683   3.103   2.200   5.939 -0.3083 -2.7331 -0.3804
 4408SOL    HW224684   3.083   2.129   5.812  3.1306 -1.4624  0.1006
 4409SOL     OW24685   2.796   3.229   6.290  0.1797 -0.2134 -0.0542
 4409SOL    HW124686   2.814   3.191   6.204 -2.8857  0.9951 -1.2278
 4409SOL    HW224687   2.705   3.207   6.309  0.5446 -1.0538  0.7217
 4410SOL     OW24688   0.041   4.128   4.623  0.6260  0.2906 -0.5423
 4410SOL    HW124689   0.106   4.098   4.687 -0.2443  0.7420  0.5435
 4410SOL    HW224690   0.087   4.104   4.542  1.6485  2.8996 -0.7387
 4411SOL     OW24691   0.509   3.932   7.607 -0.2472 -0.5062  0.1657
 4411SOL    HW124692   0.434   3.895   7.653 -0.6557  1.7023  1.2517
 4411SOL    HW224693   0.556   3.980   7.674  1.7185 -2.5440  0.2476
 4412SOL     OW24694   3.516   0.645   1.905  0.1807  0.3046  0.1178
 4412SOL    HW124695   3.523   0.739   1.885 -2.6708  0.4469 -0.2276
 4412SOL    HW224696   3.531   0.603   1.820  1.0832  0.8934 -0.0158
 4413SOL     OW24697   1.594   3.623   1.849  0.1844 -0.1836  0.1400
 4413SOL    HW124698   1.582   3.633   1.754 -0.5397 -1.2936  0.1096
 4413SOL    HW224699   1.542   3.542   1.854 -0.3696  0.2121  0.8524
 4414SOL     OW24700   2.888   4.594  11.193 -0.7103 -0.0146 -0.6703
 4414SOL    HW124701   2.885   4.499  11.201 -0.5658  0.0884  0.6668
 4414SOL    HW224702   2.837   4.615  11.115 -1.9524 -0.0211  0.1392
 4415SOL     OW24703   1.962   0.627  11.236 -0.8260  0.2847  0.1792
 4415SOL    HW124704   1.889   0.679  11.270  0.3045  1.7051  0.4145
 4415SOL    HW224705   1.915   0.606  11.155 -0.1541 -0.9180  0.1083
 4416SOL     OW24706   3.101   4.126   1.670  0.2318  0.2929 -0.2915
 4416SOL    HW124707   3.103   4.125   1.574 -0.3831  0.8194 -0.3124
 4416SOL    HW224708   3.008   4.131   1.688  0.3235  0.4043  0.1394
 4417SOL     OW24709   2.775   0.812  14.418  0.6471  0.5751  0.4006
 4417SOL    HW124710   2.837   0.878  14.449 -0.2270  1.0703  1.0884
 4417SOL    HW224711   2.714   0.872  14.377 -1.0711 -1.4018  0.1042
 4418SOL     OW24712   2.445   4.003  10.160 -0.1789 -0.4376  0.2470
 4418SOL    HW124713   2.416   3.912  10.156 -0.0796 -0.5877  2.6403
 4418SOL    HW224714   2.434   4.044  10.074 -0.7732 -2.9367 -0.8619
 4419SOL     OW24715   2.579   1.358   4.850 -0.0966  0.2929  0.1079
 4419SOL    HW124716   2.548   1.445   4.877 -2.8639 -0.5340 -0.4070
 4419SOL    HW224717   2.552   1.310   4.928 -0.5764  3.1938  1.7334
 4420SOL     OW24718   4.415   1.640  16.894 -0.3808  0.2489 -0.5321
 4420SOL    HW124719   4.450   1.667  16.809 -0.7190  2.2965 -0.0195
 4420SOL    HW224720   4.483   1.677  16.950  0.1580  0.3915 -1.2775
 4421SOL     OW24721   3.154   1.070   2.594 -0.3376  0.6248  0.5500
 4421SOL    HW124722   3.161   1.159   2.630  0.6708  1.3593 -1.4655
 4421SOL    HW224723   3.061   1.049   2.606 -0.5224  0.1697 -1.5485
 4422SOL     OW24724   2.446   0.475   5.407 -0.3382  0.3070 -0.0273
 4422SOL    HW124725   2.516   0.452   5.468  0.2383  1.7529 -0.1270
 4422SOL    HW224726   2.499   0.450   5.332 -0.2233 -0.1153  0.1929
 4423SOL     OW24727   3.756   1.010   5.946  0.7934 -0.5190 -0.1343
 4423SOL    HW124728   3.822   0.993   6.013  0.5067 -0.2437  0.2159
 4423SOL    HW224729   3.780   0.937   5.889 -0.4619 -0.9325 -0.1228
 4424SOL     OW24730   1.780   1.675   3.941 -0.0393 -0.0550  0.1195
 4424SOL    HW124731   1.803   1.648   3.852 -0.6842  0.4614 -0.1990
 4424SOL    HW224732   1.868   1.692   3.976 -0.6576 -0.0203  1.6474
 4425SOL     OW24733   2.268   3.385   6.330  0.1521 -0.4741  0.0500
 4425SOL    HW124734   2.315   3.303   6.314 -2.0889 -1.5925 -0.8212
 4425SOL    HW224735   2.265   3.397   6.425 -0.7179  0.8922 -0.1555
 4426SOL     OW24736   1.686   0.204   6.355  0.1769  0.4729  0.0330
 4426SOL    HW124737   1.666   0.215   6.448  1.6926 -0.7685  0.5092
 4426SOL    HW224738   1.600   0.232   6.324  0.0477 -1.5937 -1.4912
 4427SOL     OW24739   2.036   0.735   0.904  0.2382  0.3461  0.2238
 4427SOL    HW124740   2.012   0.645   0.928  0.6243  0.2001  0.0632
 4427SOL    HW224741   2.048   0.728   0.809 -1.3896  2.4303 -0.1322
 4428SOL     OW24742   0.495   4.689  16.290  0.1206  0.1495 -0.1757
 4428SOL    HW124743   0.489   0.012  16.373 -1.4955  0.9299 -0.7284
 4428SOL    HW224744   0.550   0.020  16.233  1.6124 -3.0481 -1.8285
 4429SOL     OW24745   3.367   3.768   3.529 -0.2069 -0.2971  0.3207
 4429SOL    HW124746   3.339   3.823   3.455  0.3703  0.6007  0.7607
 4429SOL    HW224747   3.324   3.683   3.518 -2.2505  0.4768  2.3182
 4430SOL     OW24748   3.352   3.948   4.651  0.0311  0.7270 -0.3936
 4430SOL    HW124749   3.303   3.866   4.656 -1.0427  1.5084  1.7303
 4430SOL    HW224750   3.279   4.009   4.654  1.5995  2.7290 -2.4993
 4431SOL     OW24751   2.032   3.276   3.201 -0.2524 -0.2124  0.2069
 4431SOL    HW124752   1.945   3.303   3.170 -0.0058  0.3100 -0.0380
 4431SOL    HW224753   2.074   3.256   3.118  1.7928  0.5867  1.0322
 4432SOL     OW24754   4.040   2.317   7.460  0.2093 -0.2871 -0.2204
 4432SOL    HW124755   4.129   2.318   7.424 -0.0453 -1.3356 -0.8721
 4432SOL    HW224756   4.052   2.244   7.521  0.5423  0.1279  0.2072
 4433SOL     OW24757   1.967   1.848   6.160  0.1453  0.2187  0.2398
 4433SOL    HW124758   2.031   1.781   6.185 -2.3104 -1.3761  2.3238
 4433SOL    HW224759   1.999   1.864   6.072 -1.8263  0.1653 -0.4833
 4434SOL     OW24760   3.622   3.505   5.924 -0.5136 -0.5501  0.1623
 4434SOL    HW124761   3.600   3.593   5.954  1.5854  0.7004 -1.9659
 4434SOL    HW224762   3.537   3.467   5.904 -0.6627 -1.3642  2.3116
 4435SOL     OW24763   4.705   4.612   6.787 -0.3283 -0.0691 -0.6709
 4435SOL    HW124764   4.637   4.565   6.739 -2.3581 -0.3361  2.4758
 4435SOL    HW224765   4.719   4.695   6.741 -1.1502 -0.4398 -1.5723
 4436SOL     OW24766   1.587   1.319   2.100 -0.7246  0.0475 -0.0914
 4436SOL    HW124767   1.529   1.321   2.176 -1.3483 -1.4340 -0.5286
 4436SOL    HW224768   1.525   1.316   2.026 -1.1141 -2.4245  0.3459
 4437SOL     OW24769   1.086   3.674  11.758  0.5840  0.2299 -0.3353
 4437SOL    HW124770   1.072   3.614  11.685 -3.1601  1.2961 -0.4580
 4437SOL    HW224771   1.095   3.748  11.698 -0.5666 -0.2629 -1.1078
 4438SOL     OW24772   1.637   1.923   1.626  0.1414  0.0690  0.6939
 4438SOL    HW124773   1.689   1.961   1.697  0.2323  2.4330 -0.6188
 4438SOL    HW224774   1.556   1.974   1.632  0.0259 -0.0151 -0.1377
 4439SOL     OW24775   4.210   4.190   9.642 -0.0995  0.3055  0.0104
 4439SOL    HW124776   4.202   4.095   9.642  0.9375  0.2209 -1.1406
 4439SOL    HW224777   4.224   4.203   9.548  1.3665 -1.1577  0.0282
 4440SOL     OW24778   1.836   3.947   6.222 -0.5585  0.2253 -0.0825
 4440SOL    HW124779   1.896   3.880   6.255  0.0389  0.5485 -0.5273
 4440SOL    HW224780   1.801   3.987   6.302  1.3042 -2.3719  2.0122
 4441SOL     OW24781   4.265   0.318   7.583 -0.4852  0.5411  0.3070
 4441SOL    HW124782   4.260   0.232   7.542  0.2670 -0.0528  1.4623
 4441SOL    HW224783   4.281   0.303   7.676  0.9330  0.9065  0.1257
 4442SOL     OW24784   0.428   4.103   1.103  0.8439  0.5790 -0.5908
 4442SOL    HW124785   0.455   4.094   1.194 -0.5751 -0.4300 -0.2693
 4442SOL    HW224786   0.348   4.154   1.116  2.8875  2.7415  3.6542
 4443SOL     OW24787   1.230   0.044   5.034 -0.6317 -0.1228 -0.0021
 4443SOL    HW124788   1.291   0.077   5.100 -1.6641 -1.3070  1.5733
 4443SOL    HW224789   1.166   0.002   5.092 -2.2721  0.3378 -1.5061
 4444SOL     OW24790   2.481   1.804   6.236 -0.6427 -0.1362  1.3526
 4444SOL    HW124791   2.496   1.712   6.257 -2.1972 -0.1084  2.5799
 4444SOL    HW224792   2.429   1.786   6.157 -0.2252  0.2011  1.0030
 4445SOL     OW24793   1.094   0.583   5.555  0.2785  0.4652  0.3398
 4445SOL    HW124794   1.074   0.527   5.629  2.1341  0.6990  1.0223
 4445SOL    HW224795   1.152   0.650   5.591  1.9130 -0.4954 -0.5150
 4446SOL     OW24796   2.944   3.875   6.866 -0.2626 -0.3021  0.3488
 4446SOL    HW124797   2.966   3.908   6.779  0.6177 -2.2849 -0.1693
 4446SOL    HW224798   3.016   3.899   6.923  0.5313 -0.7035 -0.4975
 4447SOL     OW24799   1.531   0.622   9.215 -1.1092  0.2452  0.3324
 4447SOL    HW124800   1.625   0.641   9.221 -1.0781  0.2177 -0.0514
 4447SOL    HW224801   1.511   0.627   9.308 -1.5890  0.5453  0.2124
 4448SOL     OW24802   4.029   2.805   7.851  0.4829 -0.6297  0.7766
 4448SOL    HW124803   4.114   2.780   7.815  0.8603 -0.4353  1.5257
 4448SOL    HW224804   4.030   2.899   7.832  2.2473 -0.9927 -0.9289
 4449SOL     OW24805   3.609   1.627   8.415 -0.2248 -0.2566 -0.0411
 4449SOL    HW124806   3.695   1.614   8.456  0.7093  1.2653 -1.5328
 4449SOL    HW224807   3.566   1.546   8.444  0.9610 -0.6408  0.6974
 4450SOL     OW24808   1.189   2.450  12.770 -0.3793  0.6372 -0.3107
 4450SOL    HW124809   1.159   2.417  12.855 -1.4194  0.8066 -0.6060
 4450SOL    HW224810   1.201   2.542  12.792  0.7703  0.6224 -0.8680
 4451SOL     OW24811   0.997   4.507   2.761  0.0505  0.1681 -0.0443
 4451SOL    HW124812   1.074   4.473   2.806  0.7416 -0.2116 -1.5149
 4451SOL    HW224813   0.989   4.451   2.683 -0.8733  1.9834 -1.2494
 4452SOL     OW24814   2.305   0.815  16.402 -0.1028  0.5304  0.2327
 4452SOL    HW124815   2.370   0.880  16.427  0.1318 -0.3162  1.8249
 4452SOL    HW224816   2.365   0.740  16.397  0.0259  0.8190 -2.2813
 4453SOL     OW24817   3.600   3.172   2.520 -0.0907  0.2404  0.8617
 4453SOL    HW124818   3.533   3.191   2.586  1.3563  1.6833  1.8962
 4453SOL    HW224819   3.565   3.087   2.494  1.3369 -0.0298 -0.1594
 4454SOL     OW24820   2.331   1.583   0.765 -0.6814  0.1267  0.3486
 4454SOL    HW124821   2.337   1.515   0.832  2.5960 -0.3072 -0.3973
 4454SOL    HW224822   2.373   1.548   0.687 -2.3182  0.8984 -0.8875
 4455SOL     OW24823   1.004   0.576   6.196 -0.4053 -0.4755  0.1753
 4455SOL    HW124824   0.958   0.568   6.279  0.0608 -2.4867  0.2574
 4455SOL    HW224825   1.007   0.668   6.170 -1.3756 -0.4961  0.0066
 4456SOL     OW24826   2.233   0.571   5.815  0.1614 -0.0848  0.5088
 4456SOL    HW124827   2.177   0.618   5.877 -2.3160  0.2583 -2.0353
 4456SOL    HW224828   2.306   0.633   5.809 -0.9610  1.2028  0.1659
 4457SOL     OW24829   4.194   1.515  11.811 -0.4838  0.5172 -0.5707
 4457SOL    HW124830   4.197   1.587  11.874 -0.2657  1.0289 -1.1650
 4457SOL    HW224831   4.277   1.470  11.826  0.1386  1.3060 -1.6618
 4458SOL     OW24832   4.483   2.455   6.915  0.1973  0.1615 -0.2409
 4458SOL    HW124833   4.396   2.485   6.939 -0.3352 -0.6721 -1.1393
 4458SOL    HW224834   4.541   2.474   6.989 -0.9508  0.4005  0.5978
 4459SOL     OW24835   3.902   3.514   8.040  0.4618  0.4495  0.1471
 4459SOL    HW124836   3.916   3.590   8.097  0.2370 -1.2149  2.4261
 4459SOL    HW224837   3.939   3.448   8.099  2.4319  0.7585 -0.7286
 4460SOL     OW24838   0.608   4.446   3.009  0.5014 -0.3548 -0.7924
 4460SOL    HW124839   0.688   4.428   3.059  0.1046  0.6809  0.2222
 4460SOL    HW224840   0.600   4.359   2.968 -1.6618 -0.2975 -0.5206
 4461SOL     OW24841   1.844   0.439   0.495  0.4896  0.1049 -0.2570
 4461SOL    HW124842   1.900   0.403   0.564  0.1253  2.9258  1.5115
 4461SOL    HW224843   1.839   0.367   0.432 -0.0483  0.4308 -0.5813
 4462SOL     OW24844   2.203   0.459  10.216 -0.0381 -0.2885  0.4895
 4462SOL    HW124845   2.255   0.469  10.136  1.7020  1.3825  1.8465
 4462SOL    HW224846   2.127   0.404  10.196 -1.2582  1.3508  0.6979
 4463SOL     OW24847   1.413   1.286   2.836 -0.4340  0.0350 -0.1609
 4463SOL    HW124848   1.421   1.220   2.905  1.5118 -0.6472 -1.0535
 4463SOL    HW224849   1.473   1.355   2.864 -2.9324  2.3086 -0.3853
 4464SOL     OW24850   2.857   1.551  17.037  0.3892  0.0579  0.3506
 4464SOL    HW124851   2.893   1.463  17.050 -0.4853 -0.6620 -2.1588
 4464SOL    HW224852   2.938   1.600  17.053  1.0423 -0.3450 -1.6455
 4465SOL     OW24853   3.602   4.258   4.424  0.8593  0.6125  0.3604
 4465SOL    HW124854   3.612   4.164   4.438  1.4565  0.5321 -0.6039
 4465SOL    HW224855   3.514   4.275   4.458  0.1374 -4.6303  1.1148
 4466SOL     OW24856   4.014   3.328   9.953  0.5784 -0.4052  0.0594
 4466SOL    HW124857   4.050   3.301  10.038 -2.8733 -2.3313  0.9329
 4466SOL    HW224858   3.983   3.243   9.919  1.8641 -0.3595 -1.2134
 4467SOL     OW24859   3.174   1.616   6.814  0.1180 -0.0284 -0.2259
 4467SOL    HW124860   3.128   1.608   6.730 -0.9658 -0.8336  0.4539
 4467SOL    HW224861   3.233   1.542   6.798  0.1489  0.5553 -2.9332
 4468SOL     OW24862   0.823   2.354  17.472  0.8508  0.3744 -0.4118
 4468SOL    HW124863   0.890   2.286  17.466  0.4290 -0.2353  1.9289
 4468SOL    HW224864   0.769   2.351  17.394  0.6448 -1.2933 -0.1908
 4469SOL     OW24865   1.244   4.323  16.293  0.2100 -0.5280 -0.5691
 4469SOL    HW124866   1.180   4.321  16.364  0.4247  0.5344 -0.3382
 4469SOL    HW224867   1.260   4.417  16.309  1.2662 -0.7740 -0.1447
 4470SOL     OW24868   3.102   0.199   4.868 -0.4034 -0.1172 -0.3958
 4470SOL    HW124869   3.091   0.115   4.911 -0.7760  0.4482  0.6274
 4470SOL    HW224870   3.011   0.205   4.842 -0.7265 -0.7748  0.5834
 4471SOL     OW24871   1.429   3.335  10.898 -0.0398  0.1837  0.1435
 4471SOL    HW124872   1.391   3.301  10.817 -0.4337  0.2233  0.3137
 4471SOL    HW224873   1.366   3.406  10.908 -1.3116 -0.8068 -0.7792
 4472SOL     OW24874   4.203   1.680   0.169 -0.2784  0.2817  0.0096
 4472SOL    HW124875   4.112   1.707   0.166  0.2035  1.9156 -0.0098
 4472SOL    HW224876   4.201   1.585   0.184  0.1514  0.2660 -0.0143
 4473SOL     OW24877   2.309   3.745  10.189  0.1336  0.3811  0.0596
 4473SOL    HW124878   2.261   3.669  10.157 -0.6555  0.4770  0.9789
 4473SOL    HW224879   2.241   3.795  10.236  1.8933  2.2512  0.6203
 4474SOL     OW24880   1.802   1.058  11.138 -0.2662 -0.7275  0.8658
 4474SOL    HW124881   1.808   1.123  11.068 -0.8706  0.0559  1.5441
 4474SOL    HW224882   1.771   0.979  11.093 -3.2020  0.9492 -0.0271
 4475SOL     OW24883   2.722   4.317   0.007 -0.7726 -0.2218 -0.1729
 4475SOL    HW124884   2.782   4.251   0.039 -1.3892 -0.4622  0.4919
 4475SOL    HW224885   2.636   4.279   0.025 -1.0103  0.0202 -0.7709
 4476SOL     OW24886   1.427   2.960   4.046 -0.9727  0.1966 -0.0126
 4476SOL    HW124887   1.399   2.925   4.130 -0.4154 -0.9885 -0.3312
 4476SOL    HW224888   1.482   2.890   4.012 -1.3704  0.7703 -1.8602
 4477SOL     OW24889   4.240   4.169   5.008 -0.6944  0.2063 -0.5096
 4477SOL    HW124890   4.164   4.119   4.980 -0.7705 -1.1437  2.0837
 4477SOL    HW224891   4.285   4.181   4.925 -0.1717 -0.9369 -0.3873
 4478SOL     OW24892   2.686   1.142  14.269 -0.6873  0.0897 -0.0436
 4478SOL    HW124893   2.709   1.088  14.193  3.0250  0.6421  0.6669
 4478SOL    HW224894   2.766   1.158  14.320 -0.2107 -0.2209 -0.6983
 4479SOL     OW24895   2.935   0.126   5.795  0.0553 -0.3233  0.5374
 4479SOL    HW124896   2.904   0.160   5.711 -0.3625 -0.5566  0.5983
 4479SOL    HW224897   2.859   0.078   5.827 -0.6797  0.0406 -0.6799
 4480SOL     OW24898   2.854   3.867  11.158  0.4860  0.4645 -0.1049
 4480SOL    HW124899   2.806   3.797  11.203 -0.3523  1.7737  1.0305
 4480SOL    HW224900   2.929   3.818  11.123 -1.0220 -0.9344 -1.3931
 4481SOL     OW24901   2.206   3.999  15.179 -0.4879  0.3209 -0.1325
 4481SOL    HW124902   2.161   3.983  15.262  0.5431  0.4676  0.4610
 4481SOL    HW224903   2.261   3.920  15.174 -0.0955  0.4579  1.7085
 4482SOL     OW24904   4.028   2.250  16.436  0.6831 -0.8724  0.3169
 4482SOL    HW124905   3.961   2.188  16.465  0.2610 -1.2035 -1.3903
 4482SOL    HW224906   4.020   2.318  16.503  1.5253  1.0667 -1.5481
 4483SOL     OW24907   3.053   4.012   5.821  0.1215 -0.2125  0.5884
 4483SOL    HW124908   2.986   4.080   5.824  0.0712 -0.2342 -0.1296
 4483SOL    HW224909   3.099   4.029   5.904  3.0229  0.5373 -1.1788
 4484SOL     OW24910   2.391   1.996   4.758  0.1251  0.0986 -0.0814
 4484SOL    HW124911   2.442   1.933   4.707  0.7723  0.3277  0.2803
 4484SOL    HW224912   2.423   2.077   4.718 -0.7515 -1.5017 -4.0152
 4485SOL     OW24913   3.385   0.174   2.179  0.1957  0.0550 -0.0120
 4485SOL    HW124914   3.317   0.238   2.204  0.5785 -0.1474  1.5510
 4485SOL    HW224915   3.464   0.226   2.166  0.1947  0.3388  1.0856
 4486SOL     OW24916   0.586   2.056   4.463 -0.2722  0.2344 -0.2380
 4486SOL    HW124917   0.642   2.055   4.541  0.4290  2.7129 -0.7429
 4486SOL    HW224918   0.524   1.990   4.494 -0.7423 -0.0246 -1.7756
 4487SOL     OW24919   0.289   3.321   4.253 -0.1661 -0.3486  0.1389
 4487SOL    HW124920   0.346   3.268   4.197 -1.1611 -4.1857  2.7991
 4487SOL    HW224921   0.330   3.407   4.240 -0.0215 -0.1714  1.7241
 4488SOL     OW24922   2.863   4.182   5.864 -0.0463  0.1790  0.2722
 4488SOL    HW124923   2.770   4.167   5.848  0.0059  1.5834 -1.3060
 4488SOL    HW224924   2.870   4.168   5.959  0.2912  0.2683  0.2621
 4489SOL     OW24925   0.607   1.041   2.208 -0.3924  0.3870  0.2881
 4489SOL    HW124926   0.656   0.973   2.161 -0.7191  0.4767 -0.1776
 4489SOL    HW224927   0.660   1.063   2.285  0.3300  1.0911 -0.4137
 4490SOL     OW24928   1.829   2.950   3.320  0.1359 -0.0052 -0.5577
 4490SOL    HW124929   1.734   2.958   3.327  0.2548  2.6561 -1.8369
 4490SOL    HW224930   1.827   2.923   3.228  1.2680 -1.3606 -0.1866
 4491SOL     OW24931   3.492   1.330   4.789  0.0188  0.3560 -0.0473
 4491SOL    HW124932   3.488   1.286   4.704  0.9233  0.2107 -0.0137
 4491SOL    HW224933   3.493   1.250   4.841 -0.9392 -0.5256 -1.4015
 4492SOL     OW24934   4.264   3.190   3.685 -0.2468  0.1846  0.5193
 4492SOL    HW124935   4.243   3.226   3.771  1.9667 -1.6443  1.8356
 4492SOL    HW224936   4.202   3.238   3.630 -0.9453 -2.2215 -0.7877
 4493SOL     OW24937   0.634   3.259   7.514  0.3099 -0.3942  0.0078
 4493SOL    HW124938   0.714   3.290   7.471  0.3797  0.4683  0.7406
 4493SOL    HW224939   0.669   3.232   7.600  2.3963  2.5823  0.1105
 4494SOL     OW24940   3.669   3.227   6.389 -0.0826 -0.4104 -0.3486
 4494SOL    HW124941   3.610   3.164   6.432 -1.7261 -0.0959 -2.1536
 4494SOL    HW224942   3.713   3.251   6.471 -0.6391  0.5107 -0.3225
 4495SOL     OW24943   0.377   4.710   2.096  0.4801 -0.1136 -0.5200
 4495SOL    HW124944   0.455   4.655   2.094  1.3215  1.0959 -0.8859
 4495SOL    HW224945   0.307   4.650   2.119  0.2594 -0.3545 -1.8460
 4496SOL     OW24946   0.408   2.957  10.699  0.3030  0.2420 -0.3720
 4496SOL    HW124947   0.350   3.026  10.667  0.7556 -0.2215 -2.2009
 4496SOL    HW224948   0.373   2.873  10.671  0.0300  0.8196 -1.7565
 4497SOL     OW24949   0.059   2.601   6.773  0.7259  0.1035 -0.0816
 4497SOL    HW124950   0.102   2.677   6.733 -0.0407  0.7623  0.3369
 4497SOL    HW224951   0.132   2.540   6.781  1.5092  0.6309 -2.8866
 4498SOL     OW24952   0.882   4.495  13.298 -0.0578  0.7076 -0.0234
 4498SOL    HW124953   0.837   4.518  13.217  0.0375 -3.3994 -1.2302
 4498SOL    HW224954   0.940   4.422  13.274  0.1308  1.0819 -0.6927
 4499SOL     OW24955   1.581   4.157   7.550 -0.2220  0.0907 -0.4537
 4499SOL    HW124956   1.573   4.130   7.459 -0.9762  0.7244 -0.5827
 4499SOL    HW224957   1.620   4.244   7.544 -0.4969  0.2530  0.1382
 4500SOL     OW24958   1.165   3.856   5.274 -0.0085  0.2118  0.6041
 4500SOL    HW124959   1.155   3.923   5.342 -0.0258  1.3164 -0.4906
 4500SOL    HW224960   1.240   3.891   5.226  0.4699 -3.7691 -1.5543
 4501SOL     OW24961   3.867   4.150   7.403  0.6006  0.2031 -0.1227
 4501SOL    HW124962   3.892   4.089   7.473 -0.6209 -0.7084 -0.4923
 4501SOL    HW224963   3.917   4.230   7.421  0.4707  0.3486 -0.4072
 4502SOL     OW24964   4.418   3.086  14.425 -0.0457  0.7004 -0.6642
 4502SOL    HW124965   4.457   3.075  14.338 -0.7678  0.1669 -0.9253
 4502SOL    HW224966   4.473   3.156  14.461 -1.1142  1.2244 -0.0565
 4503SOL     OW24967   3.245   0.443  11.226 -0.7590  0.7469  0.3277
 4503SOL    HW124968   3.295   0.410  11.301  0.5513  0.4525 -0.6736
 4503SOL    HW224969   3.169   0.386  11.212  1.7193 -2.4738 -0.1117
 4504SOL     OW24970   2.291   0.890   0.529  0.0280  0.0829 -0.4014
 4504SOL    HW124971   2.314   0.810   0.577  1.4406  0.8220  0.1641
 4504SOL    HW224972   2.375   0.920   0.494 -0.1529  0.8246 -0.2076
 4505SOL     OW24973   2.061   3.239   6.078 -0.1604 -0.3887 -0.3899
 4505SOL    HW124974   2.138   3.236   6.135  1.0998  0.0003 -2.0981
 4505SOL    HW224975   2.088   3.311   6.022  1.9360 -0.2515  0.8135
 4506SOL     OW24976   0.051   1.037   3.042  0.1189 -0.3527  0.5109
 4506SOL    HW124977   0.003   1.051   2.960 -0.8146 -0.6568  0.9954
 4506SOL    HW224978   0.136   1.064   3.009  1.0647 -2.4730  1.2707
 4507SOL     OW24979   1.263   2.902  13.669  0.2108 -0.3702  0.6014
 4507SOL    HW124980   1.211   2.857  13.736 -1.0162  1.1153  0.6528
 4507SOL    HW224981   1.344   2.914  13.719  0.5890  2.4372 -0.7142
 4508SOL     OW24982   2.952   0.718  10.976 -0.6582  0.4744  0.5708
 4508SOL    HW124983   2.899   0.792  11.006 -1.5142 -0.5990  1.7367
 4508SOL    HW224984   2.898   0.649  11.015 -0.2609 -0.1575  0.0075
 4509SOL     OW24985   0.703   1.038  15.937 -0.1206 -0.7444  0.1821
 4509SOL    HW124986   0.673   1.123  15.907  3.5372 -0.0128 -1.4357
 4509SOL    HW224987   0.626   0.984  15.921 -1.0602  0.9686 -1.0225
 4510SOL     OW24988   1.950   3.064   8.717  0.4755 -0.0821 -0.0081
 4510SOL    HW124989   1.885   3.006   8.678 -0.2782 -0.2311  1.4632
 4510SOL    HW224990   2.003   3.001   8.766  0.1916 -1.3994 -1.4043
 4511SOL     OW24991   1.887   1.198   7.788  0.0588 -0.2928  0.1379
 4511SOL    HW124992   1.794   1.197   7.769  0.2260  0.1122 -0.7091
 4511SOL    HW224993   1.913   1.109   7.814 -1.2316 -0.8928 -0.6206
 4512SOL     OW24994   0.490   0.249  13.391  0.0675 -0.0000 -0.5824
 4512SOL    HW124995   0.453   0.319  13.335  0.6208 -0.1480 -1.1329
 4512SOL    HW224996   0.420   0.184  13.389 -1.5005  1.6520 -0.2362
 4513SOL     OW24997   3.016   3.088   5.226 -0.3414 -0.1567 -0.0594
 4513SOL    HW124998   3.087   3.054   5.172  0.2072  0.8834  0.0031
 4513SOL    HW224999   3.000   3.172   5.184  0.4953  0.2649  0.4826
 4514SOL     OW25000   0.491   3.652   3.495  0.1006  0.6377  0.0041
 4514SOL    HW125001   0.454   3.649   3.583  0.4994  2.3465  0.2173
 4514SOL    HW225002   0.440   3.711   3.440 -0.9583  0.1166  0.4275
 4515SOL     OW25003   2.519   3.834   2.522  0.0277 -0.1818  0.2073
 4515SOL    HW125004   2.554   3.774   2.457  0.7944  1.6558 -1.0555
 4515SOL    HW225005   2.533   3.910   2.465 -1.4968 -0.0946 -0.0550
 4516SOL     OW25006   0.961   0.824   8.626 -0.0916 -0.2893 -0.1428
 4516SOL    HW125007   0.975   0.857   8.538 -0.8538  2.2252  0.6956
 4516SOL    HW225008   0.967   0.729   8.609  0.6875 -0.0402 -1.2845
 4517SOL     OW25009   0.838   4.353  11.469 -0.5941  0.2004 -0.3666
 4517SOL    HW125010   0.798   4.439  11.481  2.3228  1.5986 -0.6324
 4517SOL    HW225011   0.873   4.359  11.380  2.3259  0.2937  0.8005
 4518SOL     OW25012   1.548   1.533   5.237 -0.6419  0.6062  0.7733
 4518SOL    HW125013   1.456   1.526   5.214 -1.2159  1.2940  2.8463
 4518SOL    HW225014   1.533   1.505   5.327  2.5808 -2.1291  0.4659
 4519SOL     OW25015   1.982   1.156  12.527 -0.2927 -0.1324 -0.6072
 4519SOL    HW125016   2.007   1.182  12.616 -1.2976  0.1023 -0.3987
 4519SOL    HW225017   1.939   1.073  12.546 -1.3074  0.8886  1.5871
 4520SOL     OW25018   2.722   0.441   4.641 -0.2507  0.3377 -0.2970
 4520SOL    HW125019   2.784   0.371   4.623  2.3205  1.8967  2.5132
 4520SOL    HW225020   2.753   0.473   4.726  1.7747  1.1951 -1.3629
 4521SOL     OW25021   0.213   1.646   2.569 -0.5411  0.4675 -0.1577
 4521SOL    HW125022   0.118   1.633   2.566 -0.3772 -0.9010  0.6822
 4521SOL    HW225023   0.222   1.725   2.517 -1.3551  0.8646  0.3013
 4522SOL     OW25024   4.286   4.284   1.201 -0.1175 -0.1315 -0.5730
 4522SOL    HW125025   4.208   4.336   1.181  0.2179  0.4113 -0.4473
 4522SOL    HW225026   4.335   4.304   1.122 -2.1507  0.8463 -1.5980
 4523SOL     OW25027   3.895   1.220   2.601 -0.3387 -0.0772 -0.4905
 4523SOL    HW125028   3.906   1.287   2.668  2.8290  0.7166 -1.8133
 4523SOL    HW225029   3.858   1.275   2.533 -2.0050  2.0589  2.1550
 4524SOL     OW25030   3.020   1.522   0.309 -0.2793 -0.0945  0.5951
 4524SOL    HW125031   2.961   1.556   0.241  1.3657  1.4882 -0.0370
 4524SOL    HW225032   2.977   1.442   0.338  0.9198 -1.6924 -2.0802
 4525SOL     OW25033   3.965   3.474   3.315  0.0849  0.2560 -0.0493
 4525SOL    HW125034   3.928   3.539   3.255  1.3773  0.4108 -0.6746
 4525SOL    HW225035   3.914   3.400   3.284  0.7912 -0.8405  1.3889
 4526SOL     OW25036   1.652   1.138   4.219 -0.0704  0.5354  0.5972
 4526SOL    HW125037   1.692   1.097   4.142  1.2973  1.0574  1.0173
 4526SOL    HW225038   1.564   1.157   4.188 -0.2665 -0.4089  0.5777
 4527SOL     OW25039   3.758   3.349  15.860  0.2708  0.3773 -0.3624
 4527SOL    HW125040   3.704   3.332  15.937 -0.6749 -1.0941 -1.3500
 4527SOL    HW225041   3.811   3.270  15.853 -0.4407 -0.0302 -1.2547
 4528SOL     OW25042   4.697   0.548   2.734 -0.0666  0.1051 -0.0788
 4528SOL    HW125043   4.609   0.524   2.765  1.0816 -3.7524  0.1795
 4528SOL    HW225044   4.672   0.635   2.706  0.5833  0.0294 -0.8805
 4529SOL     OW25045   1.507   3.713  15.259 -0.4401 -0.5216  1.0068
 4529SOL    HW125046   1.437   3.774  15.283  2.2552  2.8023  0.4831
 4529SOL    HW225047   1.570   3.751  15.320  0.6176 -1.4095  0.4870
 4530SOL     OW25048   1.085   3.564   4.138 -0.1297 -0.5461  0.3592
 4530SOL    HW125049   1.108   3.481   4.179 -0.4394 -0.2711  1.0951
 4530SOL    HW225050   0.993   3.566   4.167 -1.0138 -1.9498 -2.4091
 4531SOL     OW25051   0.361   3.054  16.243  0.6320  0.5148 -0.2091
 4531SOL    HW125052   0.341   3.033  16.152 -2.0855 -1.8581  0.9311
 4531SOL    HW225053   0.277   3.031  16.283  0.9348 -0.2329  0.0058
 4532SOL     OW25054   1.038   4.270  10.929 -0.4527 -0.1416  0.5229
 4532SOL    HW125055   1.066   4.355  10.963  1.6563 -0.9686  0.8383
 4532SOL    HW225056   0.972   4.246  10.995 -1.8348 -2.7412 -1.8239
 4533SOL     OW25057   4.427   3.297   2.463 -0.0970  0.4653  0.2954
 4533SOL    HW125058   4.383   3.243   2.529 -1.0667 -1.0646 -1.5783
 4533SOL    HW225059   4.395   3.261   2.380 -0.5370  1.5662 -0.0014
 4534SOL     OW25060   2.692   3.397   7.721 -0.3116  0.2655  0.0441
 4534SOL    HW125061   2.685   3.309   7.756  0.8568  0.5542  0.9635
 4534SOL    HW225062   2.768   3.382   7.666  0.0398  2.9650 -0.1959
 4535SOL     OW25063   3.599   0.868   1.574 -0.2279  0.1707  0.1726
 4535SOL    HW125064   3.635   0.956   1.570  0.1995 -0.0456 -0.8403
 4535SOL    HW225065   3.682   0.820   1.587 -0.4910  0.1985  2.0342
 4536SOL     OW25066   2.128   3.700  12.865 -0.2541  0.2523 -0.0776
 4536SOL    HW125067   2.125   3.737  12.777 -2.8631 -0.0653 -0.1327
 4536SOL    HW225068   2.208   3.648  12.857 -0.2053  0.3076  0.0573
 4537SOL     OW25069   0.737   0.329  13.766 -0.2114 -0.1993  0.5523
 4537SOL    HW125070   0.719   0.236  13.783  0.4669 -0.2119  1.1990
 4537SOL    HW225071   0.748   0.351  13.859  0.5478 -0.2513  0.4722
 4538SOL     OW25072   1.768   3.331  11.235 -0.2258 -0.1076  0.1873
 4538SOL    HW125073   1.783   3.408  11.181  1.7944 -1.2265 -0.8340
 4538SOL    HW225074   1.742   3.272  11.164  0.2298  3.0418 -2.5895
 4539SOL     OW25075   2.569   1.225   6.046 -0.0306  0.1616 -0.2550
 4539SOL    HW125076   2.475   1.207   6.053 -0.0070 -0.1550 -0.7747
 4539SOL    HW225077   2.601   1.185   6.127  0.3354  0.5067 -0.2342
 4540SOL     OW25078   4.620   0.671  10.315 -0.3028 -0.1639  0.0786
 4540SOL    HW125079   4.679   0.617  10.263 -2.9759 -1.4316 -1.6444
 4540SOL    HW225080   4.671   0.751  10.327 -1.3725  0.6940 -1.1697
 4541SOL     OW25081   0.297   0.067  13.151  0.0971 -0.3372  0.2799
 4541SOL    HW125082   0.216   0.077  13.201  1.8751 -1.5924  3.4467
 4541SOL    HW225083   0.263   0.099  13.068  2.5136 -0.1072 -0.6274
 4542SOL     OW25084   1.240   4.696   8.409 -0.1330 -0.1996 -0.5383
 4542SOL    HW125085   1.263   0.039   8.344 -1.9577 -0.9090 -1.9038
 4542SOL    HW225086   1.234   0.026   8.488 -0.2573  2.7992 -2.5704
 4543SOL     OW25087   1.238   3.447   6.827 -0.1083  0.7880  0.4045
 4543SOL    HW125088   1.325   3.423   6.797 -0.1623  1.0017  0.0693
 4543SOL    HW225089   1.190   3.439   6.744 -0.3980 -2.0768  0.8683
 4544SOL     OW25090   3.219   4.628  11.513 -0.5669 -0.2275  0.4464
 4544SOL    HW125091   3.249   4.592  11.597 -2.4296 -0.4814  0.9845
 4544SOL    HW225092   3.156   4.560  11.489 -0.6264 -0.0856  0.2006
 4545SOL     OW25093   2.637   1.398   5.848 -0.5527 -0.2921 -0.7494
 4545SOL    HW125094   2.699   1.347   5.795  0.4529  1.1934 -1.0075
 4545SOL    HW225095   2.618   1.337   5.920 -2.2645  1.9738  0.6966
 4546SOL     OW25096   1.930   1.751   0.455 -0.2955 -0.1650 -0.1800
 4546SOL    HW125097   1.889   1.765   0.540  1.6914 -1.9323  1.0735
 4546SOL    HW225098   1.941   1.838   0.416 -0.7980  0.1737  0.4431
 4547SOL     OW25099   2.844   1.811   7.910 -0.0900 -0.4456 -0.0039
 4547SOL    HW125100   2.819   1.825   7.818  0.4620  2.8752  0.3568
 4547SOL    HW225101   2.894   1.730   7.915  1.4726  0.4527 -0.9448
 4548SOL     OW25102   3.254   4.015   1.855  0.1923 -0.0834  0.0927
 4548SOL    HW125103   3.186   3.950   1.872  0.1634  0.8187  3.4970
 4548SOL    HW225104   3.211   4.055   1.780  2.0719  1.9471  0.0942
 4549SOL     OW25105   0.639   3.279   2.685 -0.0811  0.0702 -0.0487
 4549SOL    HW125106   0.553   3.285   2.644  0.5525  1.6140 -1.1443
 4549SOL    HW225107   0.688   3.249   2.608  0.0195  1.3123 -0.4666
 4550SOL     OW25108   2.586   3.751  10.289  0.7303  0.2799  0.3078
 4550SOL    HW125109   2.647   3.813  10.249  0.8185  0.9775  1.5220
 4550SOL    HW225110   2.502   3.797  10.283  1.3640  1.7280  2.7345
 4551SOL     OW25111   0.415   3.458  12.567  0.1869 -0.2365 -0.1448
 4551SOL    HW125112   0.338   3.497  12.608 -0.0494  1.9498 -2.6414
 4551SOL    HW225113   0.443   3.532  12.513  0.3730 -0.7111 -0.6946
 4552SOL     OW25114   3.764   3.115   1.067  0.3363  0.3098  0.5750
 4552SOL    HW125115   3.670   3.128   1.072  0.1604 -0.7665  0.1210
 4552SOL    HW225116   3.797   3.097   0.978 -0.0628 -2.1745  0.9209
 4553SOL     OW25117   1.010   3.222   5.640 -0.1242  0.3113  0.2659
 4553SOL    HW125118   0.980   3.172   5.716 -0.6037  0.6630  0.3105
 4553SOL    HW225119   1.084   3.269   5.678  0.2860 -0.8563  0.9159
 4554SOL     OW25120   0.237   4.261   4.791  0.2689  0.0714 -0.3729
 4554SOL    HW125121   0.174   4.333   4.783  1.4218  1.0933 -0.3067
 4554SOL    HW225122   0.178   4.215   4.850 -0.6733 -1.1324 -2.2484
 4555SOL     OW25123   0.460   2.134   2.684 -0.5137  0.0488 -0.0670
 4555SOL    HW125124   0.524   2.205   2.677 -1.9537  1.4319  0.6179
 4555SOL    HW225125   0.513   2.075   2.737  1.0784 -1.4556 -3.3529
 4556SOL     OW25126   4.565   0.828   8.224 -0.0744 -0.2808  0.4582
 4556SOL    HW125127   4.497   0.888   8.191  1.9671  1.8041  0.0247
 4556SOL    HW225128   4.509   0.760   8.260 -0.4758  0.0207  0.4022
 4557SOL     OW25129   4.254   4.311   2.515 -0.0011  0.5914  0.3955
 4557SOL    HW125130   4.264   4.236   2.456 -2.1228 -0.2686  1.1295
 4557SOL    HW225131   4.280   4.389   2.467  0.8096  0.8962  1.3143
 4558SOL     OW25132   3.385   2.835   3.417  0.7294  0.2226  0.8254
 4558SOL    HW125133   3.480   2.828   3.404  0.7537  3.6924 -0.9532
 4558SOL    HW225134   3.361   2.744   3.433 -0.9986  0.1795 -2.0414
 4559SOL     OW25135   3.081   1.129   5.415  0.4403  0.2927  0.0395
 4559SOL    HW125136   3.113   1.178   5.492  3.2627 -0.1768 -0.8473
 4559SOL    HW225137   3.107   1.193   5.348  0.0225  1.6072  1.1210
 4560SOL     OW25138   4.383   3.991   3.441 -0.0315 -0.0086  0.1198
 4560SOL    HW125139   4.326   4.044   3.385  0.6649 -0.2805 -0.8480
 4560SOL    HW225140   4.457   3.960   3.389  0.0104 -2.5921  1.7063
 4561SOL     OW25141   2.901   1.594   1.262 -0.2141 -0.5375  0.2392
 4561SOL    HW125142   2.921   1.552   1.179 -0.3255  0.8672 -0.5043
 4561SOL    HW225143   2.923   1.684   1.237 -1.5697 -0.2458  0.0421
 4562SOL     OW25144   1.675   0.169  17.545  0.5591 -0.4151 -0.3499
 4562SOL    HW125145   1.694   0.129  17.630  1.1448 -0.8038 -0.6581
 4562SOL    HW225146   1.581   0.181  17.536  0.5195 -1.1020 -0.9076
 4563SOL     OW25147   0.465   4.608   9.159  0.4343 -0.4701  0.0476
 4563SOL    HW125148   0.554   4.577   9.141  2.1058  2.3396  3.3886
 4563SOL    HW225149   0.473   4.686   9.214 -4.4370  0.8394 -1.0818
 4564SOL     OW25150   1.144   2.729   3.482  0.2583  0.4809 -0.2091
 4564SOL    HW125151   1.088   2.758   3.411  0.2002  1.2880  0.1726
 4564SOL    HW225152   1.106   2.772   3.558 -1.5057 -0.4437 -0.5726
 4565SOL     OW25153   1.038   3.138   8.863  0.1863  0.1405 -0.1553
 4565SOL    HW125154   0.976   3.189   8.810 -0.9128  2.9791  3.8804
 4565SOL    HW225155   1.004   3.159   8.950  2.7758  0.5757  0.7366
 4566SOL     OW25156   3.617   3.372   3.158  0.2825 -0.1635  0.1033
 4566SOL    HW125157   3.648   3.371   3.068 -1.4650  1.3683 -0.5142
 4566SOL    HW225158   3.696   3.344   3.205 -0.2951  0.5289  1.4897
 4567SOL     OW25159   0.987   1.014   1.770 -0.3388 -0.1239 -0.5922
 4567SOL    HW125160   0.906   0.966   1.752 -0.2973 -0.4146  0.0060
 4567SOL    HW225161   0.946   1.086   1.817 -0.8316  0.2921 -1.6679
 4568SOL     OW25162   1.266   2.553  11.640 -0.0997 -0.2899  0.4410
 4568SOL    HW125163   1.294   2.472  11.682 -0.2861 -0.2035  0.7316
 4568SOL    HW225164   1.202   2.585  11.704  0.4870  4.3493 -1.2978
 4569SOL     OW25165   1.692   1.446   3.621  0.1178  0.0579 -0.1440
 4569SOL    HW125166   1.713   1.409   3.536  0.6044  0.2446 -0.1095
 4569SOL    HW225167   1.774   1.493   3.635  0.6978 -0.6169 -1.3095
 4570SOL     OW25168   2.465   3.741   1.622  0.1823 -0.2718 -0.3824
 4570SOL    HW125169   2.382   3.696   1.606  0.8144 -1.7063  0.3531
 4570SOL    HW225170   2.518   3.662   1.609  1.3663  0.3016  0.8668
 4571SOL     OW25171   2.561   3.713   9.792  0.7490 -0.2316 -0.3792
 4571SOL    HW125172   2.624   3.759   9.847 -0.4477  4.3128 -2.7837
 4571SOL    HW225173   2.501   3.779   9.757  0.6016 -0.6891 -1.0013
 4572SOL     OW25174   3.374   3.325   5.858 -0.0894 -0.2780 -0.3978
 4572SOL    HW125175   3.347   3.379   5.932 -0.9296  1.0954 -1.6968
 4572SOL    HW225176   3.323   3.355   5.783 -0.3886  1.2375  0.4126
 4573SOL     OW25177   4.532   1.582   6.616  0.0667  0.6838 -0.1331
 4573SOL    HW125178   4.488   1.526   6.680  1.1708 -1.0148 -0.8517
 4573SOL    HW225179   4.614   1.612   6.656  1.5699 -2.2938 -0.9595
 4574SOL     OW25180   4.165   0.125  12.186 -0.3942  0.1387 -0.1779
 4574SOL    HW125181   4.253   0.161  12.185  0.3883 -1.8110 -1.5021
 4574SOL    HW225182   4.131   0.134  12.097  1.7289 -0.1249 -0.9934
 4575SOL     OW25183   0.889   0.443   5.425 -0.1460  0.6535  0.1599
 4575SOL    HW125184   0.941   0.507   5.472  0.3749 -0.4839  1.1352
 4575SOL    HW225185   0.961   0.390   5.391 -0.3197  1.1629 -1.0216
 4576SOL     OW25186   0.038   3.419  14.655  0.2996 -0.3842 -0.6122
 4576SOL    HW125187   0.043   3.497  14.599 -0.1842  0.3223  0.3427
 4576SOL    HW225188   0.060   3.458  14.740 -2.2594  1.3719 -0.7571
 4577SOL     OW25189   2.562   2.559   5.531  0.6261 -0.3292  0.1925
 4577SOL    HW125190   2.491   2.502   5.504  2.2397 -1.0351 -2.4546
 4577SOL    HW225191   2.555   2.563   5.627  2.0284 -0.0175  0.2897
 4578SOL     OW25192   3.306   2.668   6.962  0.8657  0.1717  0.4870
 4578SOL    HW125193   3.320   2.763   6.966  2.2655  0.0033 -0.4283
 4578SOL    HW225194   3.358   2.641   6.887  1.1574 -0.3336  0.8751
 4579SOL     OW25195   3.607   0.633   9.545 -0.3009  0.0383 -0.5438
 4579SOL    HW125196   3.609   0.598   9.635 -0.0531  2.3896  0.3652
 4579SOL    HW225197   3.516   0.629   9.518 -0.6327 -0.1795  0.6123
 4580SOL     OW25198   3.226   2.071  13.581 -0.1069  0.6035 -0.4083
 4580SOL    HW125199   3.231   2.044  13.673 -2.1510  0.7087 -0.2683
 4580SOL    HW225200   3.168   1.999  13.560  0.6460  0.3061 -1.4412
 4581SOL     OW25201   4.662   2.372  10.340 -0.5200 -0.0912 -0.2162
 4581SOL    HW125202   4.692   2.367  10.431  0.4090 -3.2172 -0.6808
 4581SOL    HW225203   4.626   2.460  10.346 -0.1161  0.0123  0.6682
 4582SOL     OW25204   0.650   3.330  12.561  0.0000 -0.0148  0.8057
 4582SOL    HW125205   0.639   3.297  12.472  0.6614 -1.9567  1.4499
 4582SOL    HW225206   0.562   3.365  12.571 -0.4050 -0.3582 -1.5899
 4583SOL     OW25207   2.165   0.193   2.355 -0.0199  0.3925 -0.0082
 4583SOL    HW125208   2.208   0.114   2.321  1.1128  0.4737  1.2638
 4583SOL    HW225209   2.234   0.257   2.338  0.3048  0.0323 -0.0543
 4584SOL     OW25210   2.677   1.411  17.649  0.6925 -0.6747 -0.1450
 4584SOL    HW125211   2.766   1.385  17.626 -1.0554 -4.9164 -2.1092
 4584SOL    HW225212   2.688   1.498  17.689  0.4985 -0.8951  0.3905
 4585SOL     OW25213   2.116   0.014  16.831 -0.7767  0.1194  0.3946
 4585SOL    HW125214   2.113   4.654  16.877 -1.3658 -1.3096 -2.1951
 4585SOL    HW225215   2.077   4.720  16.745 -1.0881 -0.9637  0.7525
 4586SOL     OW25216   2.128   3.214   1.003  0.5939  0.5219  0.6567
 4586SOL    HW125217   2.105   3.269   0.928  1.4510  0.3377  0.2469
 4586SOL    HW225218   2.123   3.279   1.072 -0.7133  1.0537  0.0540
 4587SOL     OW25219   3.304   1.945   2.504  0.6340  0.4145  0.2677
 4587SOL    HW125220   3.221   1.987   2.481  1.3016  1.6731  0.1498
 4587SOL    HW225221   3.349   2.023   2.538  0.9438  1.0479 -1.5411
 4588SOL     OW25222   4.313   3.895   1.971 -0.1669  0.2592 -0.8329
 4588SOL    HW125223   4.284   3.985   1.958  0.6432  0.6327 -0.0847
 4588SOL    HW225224   4.405   3.905   1.996  0.5329 -0.2380 -3.2554
 4589SOL     OW25225   4.260   1.794   8.487 -0.5662 -0.1088 -0.7385
 4589SOL    HW125226   4.182   1.830   8.446 -2.0502 -0.5132  1.7584
 4589SOL    HW225227   4.308   1.876   8.500 -1.0364  0.1712 -0.7927
 4590SOL     OW25228   3.719   0.818   0.829  0.2157  0.7068 -0.6588
 4590SOL    HW125229   3.760   0.894   0.789  1.0497  1.3374  1.4029
 4590SOL    HW225230   3.796   0.762   0.824  0.2571  0.8584 -1.7357
 4591SOL     OW25231   2.733   3.367   4.745 -0.8163 -0.1645  0.0785
 4591SOL    HW125232   2.668   3.416   4.797 -1.3973  0.2664 -1.0563
 4591SOL    HW225233   2.721   3.397   4.655 -0.0288 -0.3320 -0.0758
 4592SOL     OW25234   3.477   1.090  16.532  0.0944  0.7735  0.4275
 4592SOL    HW125235   3.410   1.156  16.551 -0.1857  0.5827  0.1057
 4592SOL    HW225236   3.561   1.121  16.566  1.0042 -1.2826  0.0393
 4593SOL     OW25237   2.567   0.034   5.640 -0.1641 -0.0053 -0.1672
 4593SOL    HW125238   2.498   0.067   5.698  1.3823 -0.9971  2.2515
 4593SOL    HW225239   2.634   0.043   5.708 -1.8408 -1.0773  1.6085
 4594SOL     OW25240   0.266   2.437   6.824  0.4745 -0.0822  0.4815
 4594SOL    HW125241   0.332   2.397   6.768 -0.5628 -0.9562 -0.1370
 4594SOL    HW225242   0.223   2.370   6.877  0.5571  0.1275  0.8166
 4595SOL     OW25243   3.718   1.112  16.977  0.2748 -0.1829 -0.3590
 4595SOL    HW125244   3.627   1.083  16.974  0.1504  0.1892 -0.0638
 4595SOL    HW225245   3.745   1.107  17.069  0.2362 -2.2134 -0.4588
 4596SOL     OW25246   2.280   0.527   9.938 -0.9979 -0.1854 -0.2052
 4596SOL    HW125247   2.329   0.447   9.919 -0.0677  0.3801 -0.2172
 4596SOL    HW225248   2.344   0.595   9.915 -0.9744 -0.0734  0.1767
 4597SOL     OW25249   1.834   3.282   8.582  0.2675  0.7221 -0.0229
 4597SOL    HW125250   1.916   3.297   8.535 -0.6666  2.3458 -1.1571
 4597SOL    HW225251   1.848   3.195   8.618 -1.6967  0.0946 -0.7847
 4598SOL     OW25252   1.527   3.864   5.452  0.2696  0.5713  0.2416
 4598SOL    HW125253   1.504   3.924   5.381 -1.2658  0.4269  0.6094
 4598SOL    HW225254   1.607   3.898   5.491 -0.3559  0.3971  1.6900
 4599SOL     OW25255   0.403   2.434   2.912 -0.0128 -0.3341 -0.6889
 4599SOL    HW125256   0.408   2.509   2.972 -1.2662 -0.4154 -0.4740
 4599SOL    HW225257   0.480   2.438   2.856  0.7224 -1.1287  0.2480
 4600SOL     OW25258   1.190   2.772   1.936  0.0802  0.0374 -0.3117
 4600SOL    HW125259   1.253   2.813   1.995 -2.9767  3.5865  0.4892
 4600SOL    HW225260   1.224   2.778   1.847  1.2697 -1.8236  0.0124
 4601SOL     OW25261   0.117   4.281   3.168 -0.3210 -0.4339 -0.0297
 4601SOL    HW125262   0.059   4.214   3.130  1.7233 -1.9985 -0.3528
 4601SOL    HW225263   0.074   4.361   3.137 -2.0118 -0.2753  2.7201
 4602SOL     OW25264   2.818   2.987   1.935  0.0715  0.3861 -0.5260
 4602SOL    HW125265   2.797   2.912   1.990 -0.2135  0.5595 -0.3990
 4602SOL    HW225266   2.851   2.951   1.852  0.9213  0.6777 -0.3099
 4603SOL     OW25267   0.440   1.794   5.753 -0.1179 -0.0473  0.7830
 4603SOL    HW125268   0.468   1.879   5.788 -1.9555  0.3008  1.4207
 4603SOL    HW225269   0.394   1.768   5.832  1.8954 -1.2751  1.5567
 4604SOL     OW25270   4.031   4.444   3.954 -0.2724 -0.2377 -0.3763
 4604SOL    HW125271   4.054   4.384   3.883 -1.1912  1.2118 -1.9121
 4604SOL    HW225272   4.080   4.525   3.940 -0.6035 -0.0852 -0.6584
 4605SOL     OW25273   3.608   2.574   8.362 -0.1450 -0.1155  0.4371
 4605SOL    HW125274   3.698   2.582   8.329 -0.3530  1.9844  0.4242
 4605SOL    HW225275   3.593   2.482   8.340  2.4686 -0.8108  1.5824
 4606SOL     OW25276   0.267   0.959   8.721 -0.2314 -0.2694  0.2872
 4606SOL    HW125277   0.316   1.005   8.653 -0.1700 -2.2576 -1.0040
 4606SOL    HW225278   0.288   0.866   8.717  1.7278  0.2202 -0.8415
 4607SOL     OW25279   4.212   3.592   4.495 -0.2710 -0.3415 -0.1943
 4607SOL    HW125280   4.152   3.530   4.536 -0.1168  0.1520  0.7796
 4607SOL    HW225281   4.251   3.651   4.560  0.3399  0.6141 -1.4342
 4608SOL     OW25282   2.446   3.529   4.253  0.1576  0.1126 -1.1955
 4608SOL    HW125283   2.497   3.549   4.174  3.6016 -3.1563  0.2015
 4608SOL    HW225284   2.457   3.611   4.302 -0.3996 -0.5923  0.0924
 4609SOL     OW25285   3.409   0.379   7.893  0.5758 -0.0351  0.1724
 4609SOL    HW125286   3.469   0.422   7.953  0.8889  1.5330 -1.2827
 4609SOL    HW225287   3.342   0.446   7.883  0.7457  0.4070  1.9250
 4610SOL     OW25288   3.989   3.080   7.839 -0.2517  0.5583  0.4902
 4610SOL    HW125289   4.068   3.133   7.829 -1.8207  2.2833 -2.8195
 4610SOL    HW225290   3.928   3.120   7.776 -0.1914  0.2512  0.2360
 4611SOL     OW25291   0.378   1.892   5.158 -0.3660 -0.1867  0.0963
 4611SOL    HW125292   0.390   1.979   5.197 -2.8968 -0.6181  1.8849
 4611SOL    HW225293   0.397   1.834   5.232  0.6586 -0.0243 -0.0414
 4612SOL     OW25294   1.278   1.620   2.077 -0.2496 -0.2897  0.9354
 4612SOL    HW125295   1.330   1.676   2.135 -1.5022  0.9159  0.9010
 4612SOL    HW225296   1.334   1.615   2.000 -0.0712  2.4531  0.8695
 4613SOL     OW25297   2.515   0.496  12.550  0.0735  0.5248 -0.2201
 4613SOL    HW125298   2.599   0.533  12.575 -0.0296  1.0504 -0.6290
 4613SOL    HW225299   2.510   0.420  12.608 -2.6347  0.5088 -0.4598
 4614SOL     OW25300   4.676   0.715   5.707 -0.2620 -0.4695 -0.0467
 4614SOL    HW125301   4.601   0.681   5.657 -0.8108 -0.3410  0.6988
 4614SOL    HW225302   4.707   0.636   5.752  0.5793 -0.1048  0.0237
 4615SOL     OW25303   0.731   2.812   4.942 -0.4954 -0.2392  0.1213
 4615SOL    HW125304   0.806   2.757   4.965 -0.3578 -0.6997 -1.4274
 4615SOL    HW225305   0.704   2.787   4.854  1.6213  0.2474 -0.6765
 4616SOL     OW25306   2.762   2.722  15.915 -0.1383  0.2496 -0.2675
 4616SOL    HW125307   2.720   2.636  15.923  0.3889  0.0240  0.1005
 4616SOL    HW225308   2.754   2.728  15.820 -0.9507 -2.1847 -0.3473
 4617SOL     OW25309   0.066   0.949  17.134 -0.3099 -0.7146  0.3179
 4617SOL    HW125310   0.159   0.939  17.111 -0.2285 -2.8687  1.5702
 4617SOL    HW225311   0.044   1.019  17.073  1.0586  0.5093  1.2207
 4618SOL     OW25312   1.236   1.283   9.826 -0.0375 -0.0381 -0.1769
 4618SOL    HW125313   1.222   1.306   9.735  0.6587 -2.4156 -0.8741
 4618SOL    HW225314   1.189   1.201   9.842 -1.7784  0.7022 -1.5204
 4619SOL     OW25315   1.358   0.785   8.134 -0.2044 -0.5954 -0.6616
 4619SOL    HW125316   1.437   0.742   8.102 -1.2881 -2.4335 -0.8735
 4619SOL    HW225317   1.292   0.722   8.163 -2.3294  1.7414 -0.4048
 4620SOL     OW25318   2.780   1.605   0.137  0.5328  0.3417 -0.2184
 4620SOL    HW125319   2.730   1.574   0.212 -1.6692  1.2473 -1.3072
 4620SOL    HW225320   2.790   1.699   0.154  0.6227  0.4102 -0.6296
 4621SOL     OW25321   4.410   0.221   4.332  0.6749  0.4629 -0.1032
 4621SOL    HW125322   4.455   0.305   4.340 -0.3002  0.8541  1.1358
 4621SOL    HW225323   4.476   0.162   4.370 -0.1812  0.4914  1.4175
 4622SOL     OW25324   0.834   0.680  11.463 -0.8202  0.5246  0.2214
 4622SOL    HW125325   0.802   0.770  11.450  0.6447  1.0170  0.0106
 4622SOL    HW225326   0.836   0.649  11.372  0.5698 -0.8094  0.7181
 4623SOL     OW25327   2.867   0.995   6.639 -0.2820  0.2948  0.5188
 4623SOL    HW125328   2.846   0.937   6.713 -1.4219 -0.8458 -0.7068
 4623SOL    HW225329   2.935   0.946   6.592 -1.4861 -2.7641  1.9112
 4624SOL     OW25330   3.666   2.551  10.293  0.3263 -0.6198  0.4906
 4624SOL    HW125331   3.572   2.562  10.277  0.3394 -0.2193  0.6927
 4624SOL    HW225332   3.683   2.643  10.314 -1.0421 -0.4762  1.0127
 4625SOL     OW25333   4.472   4.542   3.705  0.1937  0.0601 -0.2302
 4625SOL    HW125334   4.530   4.616   3.719  4.0040 -3.4402  2.5149
 4625SOL    HW225335   4.404   4.596   3.665 -0.4384 -0.8863 -0.4527
 4626SOL     OW25336   1.118   3.447   6.546 -0.4242 -0.0300  0.3804
 4626SOL    HW125337   1.141   3.407   6.462 -0.8947  2.0147 -0.7394
 4626SOL    HW225338   1.035   3.405   6.568  0.0261 -0.0322  2.0244
 4627SOL     OW25339   3.102   1.042  14.151 -0.1427 -0.3352 -0.3586
 4627SOL    HW125340   3.116   1.133  14.179  1.3300 -1.0599  1.2786
 4627SOL    HW225341   3.009   1.034  14.130 -0.4114 -0.2734  0.7769
 4628SOL     OW25342   3.964   1.956   7.304 -0.2101  0.6513  0.2291
 4628SOL    HW125343   3.986   1.975   7.213 -0.2919  1.5313  0.3882
 4628SOL    HW225344   3.898   2.023   7.319  1.0274  1.4261  2.2348
 4629SOL     OW25345   0.471   3.859   6.533 -0.3060  0.1231 -0.0639
 4629SOL    HW125346   0.521   3.781   6.560  0.1827  1.0016  1.5305
 4629SOL    HW225347   0.499   3.931   6.588  0.4314 -0.7776  0.7523
 4630SOL     OW25348   4.601   3.918   7.875  0.5674 -0.3045 -0.5246
 4630SOL    HW125349   4.644   3.855   7.817 -0.0062 -1.9200  0.7718
 4630SOL    HW225350   4.526   3.863   7.899  1.7427 -1.6015  0.1888
 4631SOL     OW25351   1.340   1.564   6.594  0.3422 -0.0680 -0.0440
 4631SOL    HW125352   1.402   1.588   6.525  1.8063  0.7715  1.5838
 4631SOL    HW225353   1.401   1.514   6.647  2.0769  1.4233 -0.6392
 4632SOL     OW25354   0.365   4.478   4.303  0.4455  0.8586  0.1817
 4632SOL    HW125355   0.307   4.517   4.237  0.7758  0.5766 -0.2697
 4632SOL    HW225356   0.434   4.543   4.312  0.9020  0.0935  2.1509
 4633SOL     OW25357   4.454   2.005   3.295  0.6056  0.0985 -0.0850
 4633SOL    HW125358   4.525   1.956   3.336  0.6901  1.6672  1.6813
 4633SOL    HW225359   4.372   1.998   3.345  1.0463 -2.2816  0.2855
 4634SOL     OW25360   0.309   0.341   0.020  0.0885  0.3812  0.0172
 4634SOL    HW125361   0.239   0.367   0.079 -0.4202 -0.9264 -0.0016
 4634SOL    HW225362   0.278   0.253  17.693  0.4688  0.0023  0.9605
 4635SOL     OW25363   1.164   1.085  15.953 -0.5750  0.0506  0.2729
 4635SOL    HW125364   1.230   1.082  15.884 -1.2582 -1.2785 -0.3164
 4635SOL    HW225365   1.128   1.171  15.931 -0.2125 -0.0550 -0.7220
 4636SOL     OW25366   3.559   4.026  14.963  0.0317 -0.4620  0.3097
 4636SOL    HW125367   3.525   4.001  15.049  1.7375 -0.3798  1.0135
 4636SOL    HW225368   3.603   3.947  14.932 -1.4642 -1.4408  0.6697
 4637SOL     OW25369   4.138   3.190  14.286 -0.5828  0.4282 -0.8764
 4637SOL    HW125370   4.177   3.193  14.199 -3.2022 -0.5674 -2.0756
 4637SOL    HW225371   4.186   3.249  14.345  0.5917  2.5309 -3.9356
 4638SOL     OW25372   1.187   2.421  13.235  0.4274  0.3360 -0.0495
 4638SOL    HW125373   1.143   2.447  13.154  1.6341  0.0142 -0.8209
 4638SOL    HW225374   1.214   2.330  13.222  0.7053 -0.1126  3.6150
 4639SOL     OW25375   1.140   1.273   3.220  0.3100  0.3376  0.0684
 4639SOL    HW125376   1.112   1.350   3.170  0.2995  0.8783  0.9067
 4639SOL    HW225377   1.184   1.234   3.145 -0.2406  2.9127 -1.6245
 4640SOL     OW25378   1.019   3.342  16.891 -0.4484 -0.6957 -0.3058
 4640SOL    HW125379   1.069   3.260  16.885  0.6650 -0.1169  1.2387
 4640SOL    HW225380   0.948   3.330  16.828  1.3139  0.7558 -2.5738
 4641SOL     OW25381   2.937   2.895   3.851 -0.4258 -0.4280  0.8528
 4641SOL    HW125382   2.961   2.950   3.776 -2.4872 -0.2785  0.2989
 4641SOL    HW225383   2.972   2.811   3.821 -0.7302 -0.6456  1.1194
 4642SOL     OW25384   1.776   0.280   9.718  0.5827 -0.2999 -0.3715
 4642SOL    HW125385   1.724   0.212   9.675  1.3363 -0.4471 -1.0585
 4642SOL    HW225386   1.784   0.348   9.651  1.1237  0.1901  0.1888
 4643SOL     OW25387   0.429   2.046   7.974  0.1743  0.2158  0.6044
 4643SOL    HW125388   0.417   2.126   7.924  1.7021 -0.4310 -0.8007
 4643SOL    HW225389   0.462   1.991   7.903  2.3857  1.4564  0.6560
 4644SOL     OW25390   3.100   2.975   1.871  0.3061 -0.2632 -0.3372
 4644SOL    HW125391   3.156   3.000   1.944  0.8981  1.1763 -1.2622
 4644SOL    HW225392   3.096   2.883   1.895  3.3925 -0.5337 -0.8378
 4645SOL     OW25393   0.506   3.984   8.237 -0.0652 -0.1157  0.1451
 4645SOL    HW125394   0.453   3.921   8.189 -0.2322  2.6231 -3.3253
 4645SOL    HW225395   0.574   3.932   8.280  0.0133 -0.9622 -0.9929
 4646SOL     OW25396   0.460   0.197   2.681 -0.3245 -0.1856  0.0328
 4646SOL    HW125397   0.395   0.251   2.727  1.1779  0.6045  1.2580
 4646SOL    HW225398   0.522   0.172   2.750 -1.5772 -3.1930  0.0468
 4647SOL     OW25399   2.566   1.233  10.455 -0.1104 -0.0390  0.8844
 4647SOL    HW125400   2.651   1.223  10.499  0.9788  1.1298 -0.9248
 4647SOL    HW225401   2.504   1.240  10.527 -0.6036 -0.7640  0.5335
 4648SOL     OW25402   2.275   3.623   8.536 -0.2144 -0.0189  0.2118
 4648SOL    HW125403   2.291   3.613   8.630  0.9830 -2.2971 -0.2510
 4648SOL    HW225404   2.324   3.704   8.520 -1.0322  0.2522 -0.8985
 4649SOL     OW25405   3.700   1.123   1.616  0.1914 -0.4113 -0.1031
 4649SOL    HW125406   3.746   1.166   1.687 -0.5533  0.6115 -0.2389
 4649SOL    HW225407   3.778   1.088   1.574  0.3154  1.0504 -1.0738
 4650SOL     OW25408   1.031   0.760   5.857 -0.1688 -0.0925 -0.0672
 4650SOL    HW125409   1.055   0.763   5.950  0.9361 -0.1685 -0.3580
 4650SOL    HW225410   0.941   0.729   5.867 -0.4743  0.4098 -1.3224
 4651SOL     OW25411   4.679   4.075   0.010  0.1715  0.2463  0.0854
 4651SOL    HW125412   4.682   4.164   0.045  0.3380  0.1197  0.3904
 4651SOL    HW225413   4.585   4.072   0.027  0.1250 -0.8877 -0.3691
 4652SOL     OW25414   0.475   0.563   7.541  0.1560  0.1654  0.0406
 4652SOL    HW125415   0.393   0.523   7.512  0.5546 -1.3279  1.0109
 4652SOL    HW225416   0.445   0.625   7.608  4.3592  1.0841  1.0441
 4653SOL     OW25417   2.611   3.386  16.390  0.0708  0.3109 -0.2740
 4653SOL    HW125418   2.520   3.415  16.396  0.0597 -0.5605  3.6250
 4653SOL    HW225419   2.604   3.348  16.303  0.0652  0.2360 -0.2404
 4654SOL     OW25420   0.548   1.972   2.242 -0.3330  0.2222 -0.3323
 4654SOL    HW125421   0.471   1.928   2.206 -1.7165 -0.8715  3.9367
 4654SOL    HW225422   0.541   1.949   2.335 -1.2778  0.0483 -0.4453
 4655SOL     OW25423   0.325   2.694   8.683  0.5105  0.0578  0.5089
 4655SOL    HW125424   0.376   2.773   8.667  1.1452 -1.0993 -3.2512
 4655SOL    HW225425   0.299   2.665   8.595  0.0641 -0.4803  0.8157
 4656SOL     OW25426   1.442   0.339   3.913  0.2716 -0.0225  0.0864
 4656SOL    HW125427   1.525   0.295   3.894  0.0713 -0.0091 -0.8447
 4656SOL    HW225428   1.378   0.282   3.869 -1.1416  0.0482  2.0400
 4657SOL     OW25429   2.370   0.648  11.219  0.0937 -0.5945  0.3239
 4657SOL    HW125430   2.364   0.641  11.314  1.2453 -2.6617  0.2356
 4657SOL    HW225431   2.423   0.572  11.195 -1.5645 -1.7167  0.2083
 4658SOL     OW25432   4.527   1.653  11.446  0.0111  0.0259  0.2529
 4658SOL    HW125433   4.596   1.643  11.512 -0.1781  3.1773  0.9571
 4658SOL    HW225434   4.492   1.567  11.425 -0.0588 -0.1182  0.9828
 4659SOL     OW25435   1.085   1.356   8.988  0.6104 -0.0246 -0.1093
 4659SOL    HW125436   1.073   1.316   9.073 -0.9364 -2.7932 -1.6377
 4659SOL    HW225437   1.006   1.408   8.974  0.0143 -0.8303  0.3338
 4660SOL     OW25438   3.705   4.034   2.154 -0.3623 -0.1659 -0.9248
 4660SOL    HW125439   3.655   4.005   2.077 -1.3301 -0.1964 -0.2754
 4660SOL    HW225440   3.730   3.947   2.184 -2.8192 -0.3185  0.6334
 4661SOL     OW25441   2.822   4.088   3.035  0.3624 -0.5078  1.0250
 4661SOL    HW125442   2.794   4.076   2.944 -1.3376 -0.9143  1.6078
 4661SOL    HW225443   2.916   4.085   3.018  0.1271  0.3816 -0.4408
 4662SOL     OW25444   3.385   1.937   3.658  0.3034  0.3873  0.4876
 4662SOL    HW125445   3.467   1.983   3.676  0.2089  0.1880  1.4339
 4662SOL    HW225446   3.342   1.988   3.589 -0.0016 -0.2446  0.2169
 4663SOL     OW25447   0.056   0.076   4.019  0.1865  0.1751  0.3897
 4663SOL    HW125448   0.077   0.166   3.992 -0.8528 -0.3228 -2.0341
 4663SOL    HW225449   0.012   0.045   3.940 -0.1366 -0.0132  0.6442
 4664SOL     OW25450   4.381   2.698   8.010  0.1800  0.1572  0.3870
 4664SOL    HW125451   4.391   2.723   8.101 -2.4168 -2.8574  1.5316
 4664SOL    HW225452   4.392   2.602   8.012  0.8060  0.1989 -0.9934
 4665SOL     OW25453   3.797   3.210   3.720  0.4564 -0.2175 -0.0573
 4665SOL    HW125454   3.738   3.284   3.709  0.7912  0.2670  1.3503
 4665SOL    HW225455   3.866   3.252   3.772 -0.8706  1.6146  0.2303
 4666SOL     OW25456   3.600   4.326   1.648  0.0086  0.3707 -0.2684
 4666SOL    HW125457   3.564   4.408   1.683 -0.3145 -0.4332  1.3029
 4666SOL    HW225458   3.539   4.272   1.698 -1.8633  0.6921 -2.2021
 4667SOL     OW25459   0.587   1.161   8.353 -0.3635  0.1809 -0.1578
 4667SOL    HW125460   0.627   1.162   8.266 -1.5935  0.5537 -0.7345
 4667SOL    HW225461   0.632   1.227   8.405  1.1779  0.6350 -2.0596
 4668SOL     OW25462   1.888   1.263   3.210  0.0515 -1.1740 -0.1085
 4668SOL    HW125463   1.918   1.172   3.208  0.2276 -1.1337  0.7664
 4668SOL    HW225464   1.877   1.279   3.116 -3.3357  3.0441  0.9657
 4669SOL     OW25465   4.539   0.880   8.518  0.1264 -0.0838 -0.1276
 4669SOL    HW125466   4.599   0.820   8.563 -1.5089 -0.2957  1.7791
 4669SOL    HW225467   4.559   0.850   8.429 -1.3536 -1.1151 -0.1261
 4670SOL     OW25468   3.883   1.033  16.771 -0.4265 -0.1648  0.0848
 4670SOL    HW125469   3.837   1.076  16.843  0.7286  0.0543  0.6949
 4670SOL    HW225470   3.971   1.064  16.794 -0.2778 -0.6612  0.1811
 4671SOL     OW25471   0.881   0.785   3.179  0.5017  0.1444 -0.0898
 4671SOL    HW125472   0.909   0.804   3.268  1.3105 -0.7360 -0.1477
 4671SOL    HW225473   0.796   0.825   3.197  0.0883 -1.1936  0.9411
 4672SOL     OW25474   3.337   1.424   6.140 -0.4164 -0.5509  0.2051
 4672SOL    HW125475   3.416   1.410   6.193 -0.2933  0.1647  0.2056
 4672SOL    HW225476   3.314   1.335   6.113  1.4179 -0.7016 -0.8911
 4673SOL     OW25477   0.880   1.750   8.080  0.3204  0.1457  0.2455
 4673SOL    HW125478   0.818   1.779   8.014  1.7999 -0.8539 -1.5862
 4673SOL    HW225479   0.921   1.684   8.023 -0.9191 -0.4675  0.0645
 4674SOL     OW25480   4.379   3.584  14.121  0.1532 -0.0204  0.0171
 4674SOL    HW125481   4.438   3.618  14.188 -0.2387 -1.1554  0.9320
 4674SOL    HW225482   4.367   3.492  14.144 -1.4891 -0.3786 -2.2627
 4675SOL     OW25483   1.751   2.975   4.265  0.2498 -0.0186 -0.4927
 4675SOL    HW125484   1.838   2.947   4.239  0.5238  1.3428 -1.0326
 4675SOL    HW225485   1.728   3.039   4.197  1.3369  0.4314 -0.4427
 4676SOL     OW25486   1.054   2.231   5.410 -0.1221  0.5440 -0.8442
 4676SOL    HW125487   1.041   2.198   5.499  2.1135 -0.9338 -1.0480
 4676SOL    HW225488   0.963   2.219   5.384  0.6814 -1.5142 -2.6847
 4677SOL     OW25489   1.124   3.520   2.065 -0.1474  0.1068  0.5413
 4677SOL    HW125490   1.193   3.586   2.059  1.1663 -1.0832  2.7050
 4677SOL    HW225491   1.093   3.510   1.975  0.9263 -0.1362  0.2001
 4678SOL     OW25492   3.859   0.042   4.831 -0.5367  0.4747  0.4722
 4678SOL    HW125493   3.904   0.109   4.883 -0.7553  1.4246 -0.5601
 4678SOL    HW225494   3.920   0.036   4.757  1.5588  0.9167  2.1337
 4679SOL     OW25495   3.161   2.001   1.653 -0.1073 -0.2348 -0.4478
 4679SOL    HW125496   3.100   1.948   1.602 -0.0495  0.3437 -1.1124
 4679SOL    HW225497   3.166   2.076   1.594  0.7422 -0.0627 -0.1501
 4680SOL     OW25498   3.426   1.982   4.526  0.8297  0.5990  0.0548
 4680SOL    HW125499   3.333   2.001   4.512  1.9673  2.6153 -4.7861
 4680SOL    HW225500   3.417   1.894   4.564  0.4584  0.4339 -0.4143
 4681SOL     OW25501   0.594   0.082   2.885 -0.3795 -0.4416 -0.1042
 4681SOL    HW125502   0.603   0.116   2.974  0.5425 -0.4388 -0.2006
 4681SOL    HW225503   0.547   4.723   2.900 -2.8686  0.8727 -0.6680
 4682SOL     OW25504   0.828   0.537  11.229  0.6023  0.3653  0.0954
 4682SOL    HW125505   0.914   0.503  11.205  0.3332 -1.8954  2.2656
 4682SOL    HW225506   0.797   0.553  11.140  0.2938 -0.0137  0.1322
 4683SOL     OW25507   4.060   0.644   7.510 -0.1281 -0.6325  0.5332
 4683SOL    HW125508   3.991   0.598   7.557 -0.6624 -1.6875 -1.3008
 4683SOL    HW225509   4.021   0.641   7.423 -0.8172 -2.8321  0.9158
 4684SOL     OW25510   2.884   1.741   6.432 -0.1960  0.0116 -0.0229
 4684SOL    HW125511   2.917   1.831   6.437 -0.2555  0.0154  0.3321
 4684SOL    HW225512   2.792   1.753   6.456 -0.0558  1.5971 -0.2729
 4685SOL     OW25513   3.535   2.496   7.448 -0.5062 -0.2589  0.0695
 4685SOL    HW125514   3.457   2.502   7.393  0.2163  0.2717 -0.9073
 4685SOL    HW225515   3.599   2.471   7.380  0.1910  0.1144  0.5908
 4686SOL     OW25516   3.418   0.800   3.104 -0.4197 -0.5360 -0.4412
 4686SOL    HW125517   3.360   0.829   3.174 -0.9665 -2.4355 -0.1093
 4686SOL    HW225518   3.493   0.858   3.096  1.0804 -2.4239 -0.0907
 4687SOL     OW25519   0.082   4.285   8.998  0.7032  0.6174  0.0098
 4687SOL    HW125520   0.107   4.200   9.034 -2.4835 -0.7608 -1.0405
 4687SOL    HW225521   0.005   4.308   9.050 -0.7075 -0.9517 -1.3636
 4688SOL     OW25522   0.866   3.412   7.816  0.3013 -0.3872 -0.4534
 4688SOL    HW125523   0.827   3.456   7.741  0.2768  1.2798  0.5380
 4688SOL    HW225524   0.783   3.377   7.848  0.8786 -0.2588  1.2094
 4689SOL     OW25525   3.871   3.425  13.857 -0.9272 -0.2182  1.1603
 4689SOL    HW125526   3.911   3.341  13.883 -1.2022 -1.2306 -1.6451
 4689SOL    HW225527   3.781   3.410  13.886 -1.6281  1.8990  0.0741
 4690SOL     OW25528   1.847   3.893  15.626  0.4827  0.2450 -0.5724
 4690SOL    HW125529   1.884   3.833  15.691  1.4753  0.8395 -0.5787
 4690SOL    HW225530   1.766   3.907  15.675  0.3483 -1.5678 -0.2873
 4691SOL     OW25531   3.621   2.420   5.217 -0.6796  0.1809 -0.0756
 4691SOL    HW125532   3.542   2.447   5.170  1.5654  0.8511 -3.4321
 4691SOL    HW225533   3.574   2.397   5.298  0.3167  0.1401  0.4862
 4692SOL     OW25534   1.519   4.070   4.530  0.1193  0.3235  0.2538
 4692SOL    HW125535   1.476   4.155   4.522  1.8723  1.2657  0.6190
 4692SOL    HW225536   1.605   4.092   4.493  0.4072  1.0500  1.3432
 4693SOL     OW25537   2.577   3.811   3.888  0.3392 -0.0107  0.3025
 4693SOL    HW125538   2.652   3.870   3.894 -1.2672  2.1612 -0.9044
 4693SOL    HW225539   2.511   3.863   3.841 -0.2756 -0.7390  0.3466
 4694SOL     OW25540   1.793   0.146  12.574  0.0428 -0.0356 -0.3024
 4694SOL    HW125541   1.794   0.214  12.507 -0.1990 -0.2316 -0.5061
 4694SOL    HW225542   1.883   0.147  12.606 -0.0870  1.8160 -0.0004
 4695SOL     OW25543   2.287   0.646  12.515 -0.3434 -0.3718 -0.4685
 4695SOL    HW125544   2.315   0.555  12.530 -0.8315 -0.4570 -0.0640
 4695SOL    HW225545   2.342   0.685  12.583 -0.6162  2.7088 -2.0433
 4696SOL     OW25546   4.641   1.408   4.412  0.0552  0.2049 -0.1557
 4696SOL    HW125547   4.617   1.337   4.352 -1.4453  0.8089 -0.2646
 4696SOL    HW225548   4.610   1.480   4.358 -1.2455 -1.8193 -2.1200
 4697SOL     OW25549   0.741   3.945   3.451 -0.1956 -0.4750 -0.2987
 4697SOL    HW125550   0.787   3.970   3.371 -1.7569 -1.3076 -1.4678
 4697SOL    HW225551   0.817   3.907   3.495  0.7103  0.0189 -1.4289
 4698SOL     OW25552   3.247   1.315   2.699  0.5550  0.1572  0.2507
 4698SOL    HW125553   3.210   1.326   2.787  2.6052 -0.9386  1.2630
 4698SOL    HW225554   3.242   1.397   2.650  2.4747 -0.0076 -0.2062
 4699SOL     OW25555   1.379   3.261   4.930 -0.3241 -1.4030 -0.1124
 4699SOL    HW125556   1.460   3.214   4.950 -0.1241 -0.8820  0.3028
 4699SOL    HW225557   1.346   3.215   4.853  0.1844  1.1143 -1.8594
 4700SOL     OW25558   3.219   4.684   8.511 -0.3001 -0.0040 -0.6977
 4700SOL    HW125559   3.240   4.699   8.603 -0.1249 -2.2751 -0.3680
 4700SOL    HW225560   3.308   4.666   8.480  0.9450  1.2956  2.1055
 4701SOL     OW25561   1.509   1.235   4.620  0.5077  0.1456 -0.0174
 4701SOL    HW125562   1.559   1.302   4.667  1.2284 -0.0621 -0.4843
 4701SOL    HW225563   1.513   1.280   4.535  2.4852 -1.2267 -0.6624
 4702SOL     OW25564   1.049   2.436   4.435  0.3932 -0.6254  0.2580
 4702SOL    HW125565   1.140   2.407   4.421  0.3947  1.2124 -3.4204
 4702SOL    HW225566   1.056   2.514   4.380 -1.0418 -1.3008 -0.8676
 4703SOL     OW25567   0.115   2.367   0.004 -0.0054 -0.1980 -0.6665
 4703SOL    HW125568   0.104   2.455  17.664 -2.2893 -0.6929 -1.1648
 4703SOL    HW225569   0.210   2.364   0.016 -0.3714 -0.9531  2.1816
 4704SOL     OW25570   0.060   0.083  13.320  0.0211 -0.1233  0.2312
 4704SOL    HW125571   4.698   0.044  13.302 -0.1966  0.4321  0.0600
 4704SOL    HW225572   0.032   0.171  13.346 -2.0964 -1.1615  1.4454
 4705SOL     OW25573   1.291   2.995   7.558 -0.3598 -0.0647  0.1931
 4705SOL    HW125574   1.385   3.004   7.576 -0.2781  0.0929 -0.2971
 4705SOL    HW225575   1.275   3.046   7.478  1.7450  0.2793 -0.0387
 4706SOL     OW25576   1.357   3.123  13.878  0.4630  0.4880  0.3400
 4706SOL    HW125577   1.391   3.058  13.940  2.2817  0.4075 -0.7489
 4706SOL    HW225578   1.267   3.133  13.911  0.7730  0.1568  1.3016
 4707SOL     OW25579   3.321   2.032   6.906 -0.2063 -0.3430  0.6586
 4707SOL    HW125580   3.332   2.119   6.943 -0.1437  0.0912 -0.3925
 4707SOL    HW225581   3.350   2.053   6.817  2.8211 -2.5725  1.1042
 4708SOL     OW25582   2.405   3.164   7.714 -0.2792  0.6745  0.5212
 4708SOL    HW125583   2.419   3.223   7.640 -1.1083  1.1307  0.7276
 4708SOL    HW225584   2.489   3.118   7.715 -0.7203 -0.1969 -2.1433
 4709SOL     OW25585   3.457   1.978   2.099  0.0664  0.5098 -0.1007
 4709SOL    HW125586   3.552   1.988   2.099  0.4827 -3.5687 -0.0666
 4709SOL    HW225587   3.449   1.913   2.168  0.4752  0.3402 -0.2139
 4710SOL     OW25588   0.173   0.064   9.597  0.3663  0.7044  0.2184
 4710SOL    HW125589   0.112   0.137   9.590 -0.6866 -0.4075 -2.3663
 4710SOL    HW225590   0.171   0.052   9.692 -2.9421  0.2201  0.0954
 4711SOL     OW25591   0.343   0.680   5.743 -1.0618  0.0936 -0.3811
 4711SOL    HW125592   0.287   0.693   5.820  0.9669  3.2984  0.5824
 4711SOL    HW225593   0.309   0.753   5.691 -0.5463  0.2188 -0.5366
 4712SOL     OW25594   0.435   4.677  11.297  0.8246  0.4153 -0.3421
 4712SOL    HW125595   0.391   0.027  11.254 -0.1602 -0.6257 -1.0986
 4712SOL    HW225596   0.525   4.694  11.268  1.2414 -2.0737 -0.5193
 4713SOL     OW25597   1.004   4.460  13.742  0.7072 -0.0320  0.3594
 4713SOL    HW125598   1.064   4.404  13.693  0.4880 -0.0520  0.1131
 4713SOL    HW225599   1.017   4.424  13.830  3.1811  0.3791  0.1544
 4714SOL     OW25600   2.432   4.160  15.988 -0.1222  0.5286  0.2625
 4714SOL    HW125601   2.440   4.246  15.945 -0.2447 -1.0956 -2.9743
 4714SOL    HW225602   2.518   4.120  15.978 -0.3314  0.5012 -1.4782
 4715SOL     OW25603   2.402   4.346   1.405 -0.9078  0.3736 -0.4438
 4715SOL    HW125604   2.404   4.334   1.500  3.0416 -0.4916 -0.6603
 4715SOL    HW225605   2.318   4.301   1.394 -0.5796 -1.1449  3.4134
 4716SOL     OW25606   2.169   1.047   2.560  0.2784  0.0394  0.2099
 4716SOL    HW125607   2.248   1.051   2.615  0.7288  0.7717 -0.4850
 4716SOL    HW225608   2.163   1.136   2.524  4.0831 -0.2648 -1.1965
 4717SOL     OW25609   1.465   3.375   6.698  0.8604  0.2097 -0.4203
 4717SOL    HW125610   1.458   3.348   6.607 -0.9688  3.1966 -1.1584
 4717SOL    HW225611   1.551   3.416   6.693  1.8017 -1.4780  1.9568
 4718SOL     OW25612   1.505   1.311   7.773 -0.3876  0.1571 -0.2571
 4718SOL    HW125613   1.417   1.303   7.737  0.1331 -0.0758 -1.4893
 4718SOL    HW225614   1.549   1.234   7.736  1.2342 -0.1760  2.3745
 4719SOL     OW25615   3.565   4.066  11.736 -0.4465  0.2636 -0.6162
 4719SOL    HW125616   3.480   4.063  11.780  0.7626 -0.7127  1.6522
 4719SOL    HW225617   3.540   4.012  11.661  1.9107 -1.4444 -0.1808
 4720SOL     OW25618   4.717   1.038   8.150 -0.0652 -0.0844 -0.3517
 4720SOL    HW125619   4.694   0.956   8.193  1.7073 -0.7530 -0.6893
 4720SOL    HW225620   4.694   1.102   8.217 -1.7529  1.0242 -1.9851
 4721SOL     OW25621   0.452   2.940  12.098  0.1742 -0.1845 -0.1936
 4721SOL    HW125622   0.378   2.879  12.091  0.8083 -0.7436 -2.1247
 4721SOL    HW225623   0.525   2.885  12.126  1.2884  0.4369 -1.8636
 4722SOL     OW25624   2.146   2.427  10.409  0.2148 -0.7442  0.0015
 4722SOL    HW125625   2.136   2.424  10.504  2.3792 -0.9293  0.2160
 4722SOL    HW225626   2.173   2.335  10.406  1.4340 -0.3948  0.3296
 4723SOL     OW25627   0.436   2.680  10.337  0.1731  0.6008  0.6404
 4723SOL    HW125628   0.401   2.645  10.419 -0.0833  1.6351  0.9819
 4723SOL    HW225629   0.400   2.614  10.277 -1.4678  4.7001 -2.8934
 4724SOL     OW25630   3.313   0.166  11.019 -0.8645  0.2423 -0.4195
 4724SOL    HW125631   3.258   0.196  10.947 -2.5199  2.2548  1.6754
 4724SOL    HW225632   3.241   0.131  11.071 -2.4451  1.9000 -1.5007
 4725SOL     OW25633   0.417   3.419   7.502 -0.2657  0.2814 -0.5609
 4725SOL    HW125634   0.466   3.484   7.451  1.7468 -0.3541  0.5518
 4725SOL    HW225635   0.482   3.349   7.509 -1.9043 -1.0235  1.8363
 4726SOL     OW25636   1.811   3.310   2.129  0.1685  0.0152 -0.1303
 4726SOL    HW125637   1.748   3.349   2.190 -1.8363 -3.2045 -0.0767
 4726SOL    HW225638   1.815   3.219   2.159  0.5598 -0.4230 -1.4910
 4727SOL     OW25639   3.913   1.411   5.493 -0.0432  0.0080  0.1985
 4727SOL    HW125640   3.914   1.507   5.496 -0.2794  0.0141  0.0897
 4727SOL    HW225641   3.999   1.391   5.455  0.8315  1.8351  1.1553
 4728SOL     OW25642   0.642   3.344   3.424  0.1765 -0.2236 -0.4049
 4728SOL    HW125643   0.675   3.428   3.393  1.1010  0.1693  1.6276
 4728SOL    HW225644   0.627   3.373   3.515 -1.2562  0.7544 -0.9446
 4729SOL     OW25645   2.788   1.264  13.695  0.2198 -0.1710  0.2991
 4729SOL    HW125646   2.827   1.329  13.637 -0.8073  0.1833  0.0225
 4729SOL    HW225647   2.719   1.319  13.730  0.5668 -0.0898  0.8549
 4730SOL     OW25648   2.330   3.756  13.595  0.0761  0.0128 -0.5068
 4730SOL    HW125649   2.380   3.837  13.585 -0.6809  0.3903 -1.2591
 4730SOL    HW225650   2.252   3.785  13.642  0.1410  2.1893 -1.7568
 4731SOL     OW25651   2.381   1.692   6.591 -0.1046 -0.1218 -0.2863
 4731SOL    HW125652   2.289   1.719   6.603  0.0908 -0.1541  1.3085
 4731SOL    HW225653   2.373   1.599   6.572  1.6575  0.0195 -1.7365
 4732SOL     OW25654   3.661   1.485  14.476  0.2255  0.0769 -0.4684
 4732SOL    HW125655   3.592   1.521  14.533 -0.0394 -0.3449 -0.5190
 4732SOL    HW225656   3.618   1.401  14.456  0.1493 -0.1178  0.5194
 4733SOL     OW25657   0.561   1.640   8.397  0.1904 -0.5410  0.0952
 4733SOL    HW125658   0.540   1.704   8.330  1.4972 -0.6572 -0.4153
 4733SOL    HW225659   0.656   1.630   8.390  0.1164  0.8694 -2.9661
 4734SOL     OW25660   0.816   2.216   2.654 -0.1278 -0.3563 -0.1898
 4734SOL    HW125661   0.762   2.267   2.594 -0.7737 -1.9179 -0.9129
 4734SOL    HW225662   0.909   2.232   2.640 -0.7068  1.1992 -2.3324
 4735SOL     OW25663   0.804   2.032   4.947 -0.1149  0.6669 -0.2438
 4735SOL    HW125664   0.799   2.042   4.852  2.7672 -1.8268 -0.6624
 4735SOL    HW225665   0.728   1.975   4.958 -0.4352  0.9351 -1.0966
 4736SOL     OW25666   3.774   1.384   8.120 -0.4234 -0.1218 -0.0405
 4736SOL    HW125667   3.794   1.478   8.121  4.1143 -1.0970 -1.4515
 4736SOL    HW225668   3.781   1.366   8.026 -0.5457 -3.0229  0.4981
 4737SOL     OW25669   4.043   3.984  17.388  0.4429 -0.1681 -0.1151
 4737SOL    HW125670   3.962   3.934  17.379 -1.5343  3.0505 -0.2752
 4737SOL    HW225671   4.097   3.910  17.417 -0.8772 -1.1634 -0.2026
 4738SOL     OW25672   2.943   4.450   4.576  0.5336  0.5649  0.3229
 4738SOL    HW125673   3.020   4.417   4.623  1.0781 -0.6742 -1.4324
 4738SOL    HW225674   2.915   4.370   4.530  0.8660  1.6161 -1.7184
 4739SOL     OW25675   1.163   2.531   4.684  0.2613 -0.2945  0.0465
 4739SOL    HW125676   1.219   2.607   4.667  0.6271 -0.6762 -0.4531
 4739SOL    HW225677   1.119   2.516   4.600  1.7869  2.1772 -1.1891
 4740SOL     OW25678   1.998   3.871   5.960 -0.1111 -0.0011 -0.4647
 4740SOL    HW125679   1.931   3.883   5.893  0.8980  0.4303 -1.3939
 4740SOL    HW225680   1.967   3.796   6.011  0.1666 -0.0792 -0.4093
 4741SOL     OW25681   2.333   2.048   6.900 -0.2817 -0.1957 -0.1708
 4741SOL    HW125682   2.394   2.114   6.866 -1.8098  2.7711  2.7821
 4741SOL    HW225683   2.390   1.982   6.939 -0.3695  0.5673  1.2448
 4742SOL     OW25684   0.362   1.904   4.286 -0.3628  0.2603  0.0125
 4742SOL    HW125685   0.299   1.958   4.333  2.6469  2.4370  1.5371
 4742SOL    HW225686   0.348   1.815   4.319  0.0646  0.9911  2.1900
 4743SOL     OW25687   2.436   0.358   7.445  0.7709 -0.1958 -0.1978
 4743SOL    HW125688   2.423   0.392   7.357 -0.0771 -0.5748 -0.2202
 4743SOL    HW225689   2.392   0.423   7.500 -0.3238  0.0960 -1.4154
 4744SOL     OW25690   3.440   2.431   0.383  0.0203  0.5315  0.0040
 4744SOL    HW125691   3.396   2.443   0.298  1.4266 -0.3587 -0.8624
 4744SOL    HW225692   3.497   2.357   0.358 -0.5389  0.2245 -0.3829
 4745SOL     OW25693   2.757   1.561   5.123 -0.4640 -0.2120  0.0500
 4745SOL    HW125694   2.779   1.627   5.188  1.3164 -0.7290 -0.0176
 4745SOL    HW225695   2.746   1.612   5.042  2.2646 -0.1878 -0.3313
 4746SOL     OW25696   4.592   3.501  12.572 -0.0808 -0.0834  0.2727
 4746SOL    HW125697   4.645   3.423  12.590  2.4235  1.9694  1.6614
 4746SOL    HW225698   4.611   3.550  12.651  0.6306 -0.9460  0.6357
 4747SOL     OW25699   0.303   1.693   7.635 -0.1012 -0.2334 -0.2609
 4747SOL    HW125700   0.252   1.774   7.638 -0.1283 -0.1811 -1.8246
 4747SOL    HW225701   0.332   1.691   7.544 -2.3652  3.5731 -1.0552
 4748SOL     OW25702   1.489   3.334   6.432 -0.1345  0.4290  0.3857
 4748SOL    HW125703   1.553   3.265   6.418 -0.4268  0.9242 -3.4765
 4748SOL    HW225704   1.433   3.326   6.355 -0.4057 -1.8578  0.8329
 4749SOL     OW25705   1.891   0.441   7.083 -0.2904 -0.0174  0.3911
 4749SOL    HW125706   1.835   0.483   7.018 -2.2592 -2.7609  0.3152
 4749SOL    HW225707   1.859   0.478   7.166 -2.0029 -1.0148  0.1673
 4750SOL     OW25708   1.216   0.570   7.630 -0.2516 -0.2010 -0.1033
 4750SOL    HW125709   1.203   0.635   7.561  0.5963 -0.3621 -0.4011
 4750SOL    HW225710   1.228   0.626   7.707  0.7771 -1.3218  0.5481
 4751SOL     OW25711   2.178   1.516   1.644  0.2589  0.2665  0.2492
 4751SOL    HW125712   2.177   1.505   1.549 -0.3123 -1.5872  0.4791
 4751SOL    HW225713   2.260   1.470   1.660 -0.1803 -0.2674  0.9467
 4752SOL     OW25714   3.505   4.641  17.559 -0.0915  0.2003 -0.6057
 4752SOL    HW125715   3.597   4.618  17.548  0.4228  0.9795  2.0955
 4752SOL    HW225716   3.513   4.653  17.654 -0.5639 -0.9695 -0.4186
 4753SOL     OW25717   3.722   0.464  11.969 -0.6935 -0.1443 -0.0111
 4753SOL    HW125718   3.674   0.500  12.043  0.1687  1.3653 -0.1789
 4753SOL    HW225719   3.785   0.416  12.023 -1.2652 -2.3388 -1.3276
 4754SOL     OW25720   4.632   2.872   7.853 -0.3779 -0.2832 -0.3438
 4754SOL    HW125721   4.697   2.818   7.808 -0.9601 -0.8814 -0.4727
 4754SOL    HW225722   4.627   2.837   7.942 -2.6488  1.9876  0.4124
 4755SOL     OW25723   0.796   1.378   9.234 -0.1694 -0.0412  0.2674
 4755SOL    HW125724   0.756   1.299   9.270  0.1905 -1.7212 -3.0329
 4755SOL    HW225725   0.761   1.444   9.295  0.9318  2.0136 -1.3400
 4756SOL     OW25726   0.002   0.863   6.240  0.0631  0.2918 -0.3444
 4756SOL    HW125727   4.697   0.908   6.160  1.1110 -1.1911 -1.5637
 4756SOL    HW225728   4.695   0.775   6.217 -2.3777  1.0396  0.0205
 4757SOL     OW25729   3.506   4.672   9.640 -0.0146 -0.7696 -0.5208
 4757SOL    HW125730   3.551   4.700   9.560  2.0330 -0.2381  0.8397
 4757SOL    HW225731   3.464   4.588   9.620  0.1686 -1.3751  1.7001
 4758SOL     OW25732   4.353   2.242   3.443  0.7329 -0.3441 -0.4215
 4758SOL    HW125733   4.337   2.149   3.453 -0.7707  0.1629  1.8940
 4758SOL    HW225734   4.271   2.269   3.484  0.6411 -2.6604  0.9007
 4759SOL     OW25735   1.620   2.738  12.890  0.0998 -0.3409  0.4362
 4759SOL    HW125736   1.670   2.799  12.836  0.5479 -1.0774  0.0240
 4759SOL    HW225737   1.680   2.667  12.913  0.2185 -1.0682 -2.0958
 4760SOL     OW25738   3.328   4.141   8.319 -0.4834  0.1633 -0.0160
 4760SOL    HW125739   3.420   4.123   8.336 -0.2670  3.0846  1.9768
 4760SOL    HW225740   3.321   4.121   8.225 -1.5080 -1.6218  0.4432
 4761SOL     OW25741   3.976   0.578   7.253  0.1987  0.1345 -0.4044
 4761SOL    HW125742   3.887   0.613   7.260  0.0429 -0.0297 -1.6902
 4761SOL    HW225743   3.983   0.564   7.159  1.0273 -2.6228  0.0509
 4762SOL     OW25744   3.792   4.207  10.280  0.0374 -0.0443 -0.0397
 4762SOL    HW125745   3.841   4.289  10.268 -1.0068  0.5558 -0.2534
 4762SOL    HW225746   3.769   4.199  10.187 -3.2522 -1.4140  0.9103
 4763SOL     OW25747   0.546   0.503   3.033  0.4614  0.2924  0.3834
 4763SOL    HW125748   0.615   0.558   2.997 -1.1512  0.4871 -2.3996
 4763SOL    HW225749   0.480   0.564   3.065 -0.2199  0.3466 -1.1171
 4764SOL     OW25750   0.270   1.678   8.798  0.2077 -0.0537  0.2888
 4764SOL    HW125751   0.262   1.698   8.705 -1.3565 -0.4426  0.3443
 4764SOL    HW225752   0.343   1.731   8.828  1.4056 -1.7702  0.4403
 4765SOL     OW25753   3.306   2.541   4.852 -0.5143  0.5542  0.3988
 4765SOL    HW125754   3.225   2.575   4.813  1.9469  2.3112 -3.1159
 4765SOL    HW225755   3.359   2.620   4.859  1.2036 -0.4276 -1.5884
 4766SOL     OW25756   0.835   0.195   2.789  0.5583 -0.5874 -1.0431
 4766SOL    HW125757   0.757   0.160   2.831  0.3308 -2.0538 -2.7364
 4766SOL    HW225758   0.806   0.261   2.726  2.1981  1.3606  0.1970
 4767SOL     OW25759   0.307   2.822   5.817 -0.6984 -0.7090  0.4527
 4767SOL    HW125760   0.320   2.802   5.909  2.1869 -0.7144  0.0220
 4767SOL    HW225761   0.218   2.857   5.825  0.1190  1.0945  1.4831
 4768SOL     OW25762   3.488   2.002  15.838 -0.1953 -0.2822  0.2058
 4768SOL    HW125763   3.486   2.047  15.923  0.7258  0.4439 -0.1608
 4768SOL    HW225764   3.566   1.947  15.843 -1.7190 -2.4532  0.5130
 4769SOL     OW25765   0.497   2.701   2.445  0.4689 -0.0734  0.3316
 4769SOL    HW125766   0.446   2.774   2.479  0.2619 -0.5745  1.1019
 4769SOL    HW225767   0.435   2.629   2.458 -0.1826  0.2456 -1.0172
 4770SOL     OW25768   3.856   0.251  12.679 -0.2738 -0.0553 -0.1489
 4770SOL    HW125769   3.853   0.338  12.640  0.9108 -0.3169 -0.8338
 4770SOL    HW225770   3.904   0.264  12.761 -1.1781 -1.3149  0.5821
 4771SOL     OW25771   0.517   3.949   5.180 -0.4825  0.2932  0.3695
 4771SOL    HW125772   0.546   3.898   5.105 -4.4326 -0.3278 -0.7518
 4771SOL    HW225773   0.553   4.034   5.159  1.2192 -0.6949 -0.7118
 4772SOL     OW25774   3.363   1.610   5.221  0.3838  0.3486  0.0528
 4772SOL    HW125775   3.373   1.563   5.138  1.3632 -1.0940  0.9816
 4772SOL    HW225776   3.406   1.692   5.200 -1.3848  1.3490  0.3547
 4773SOL     OW25777   1.120   3.619   8.015  0.5263  0.0024  0.3238
 4773SOL    HW125778   1.211   3.622   8.044  1.6115 -0.8700 -2.9922
 4773SOL    HW225779   1.133   3.552   7.948  2.6221 -1.8245  2.5396
 4774SOL     OW25780   0.139   3.331   3.712  0.6253  0.4732  0.7161
 4774SOL    HW125781   0.218   3.345   3.660 -0.6174  2.3143 -0.6523
 4774SOL    HW225782   0.174   3.315   3.800  0.8737  1.5906  0.8160
 4775SOL     OW25783   2.120   1.815   3.185  0.3182 -0.2652 -0.2830
 4775SOL    HW125784   2.088   1.859   3.106 -2.3393  2.2578  2.2408
 4775SOL    HW225785   2.070   1.870   3.245  1.5236  0.3019  0.1936
 4776SOL     OW25786   3.761   4.520  10.264 -0.1277 -0.4198 -0.3297
 4776SOL    HW125787   3.708   4.574  10.206  1.5220  0.7603 -0.7733
 4776SOL    HW225788   3.848   4.555  10.245  0.3978 -0.8483  1.2736
 4777SOL     OW25789   3.509   4.546   1.765 -0.2475  0.5348 -0.4825
 4777SOL    HW125790   3.492   4.619   1.705  0.0502 -1.1408 -2.6161
 4777SOL    HW225791   3.507   4.592   1.849  1.5831 -1.1686  0.4974
 4778SOL     OW25792   1.215   2.596   2.375  0.6692 -0.0757  0.2225
 4778SOL    HW125793   1.131   2.640   2.389  0.6096 -0.4155  0.9331
 4778SOL    HW225794   1.226   2.586   2.281 -0.1973 -0.9564  0.2107
 4779SOL     OW25795   3.980   0.463  12.275 -0.2631 -0.0690  0.2079
 4779SOL    HW125796   4.059   0.487  12.226  1.0935  2.1209  3.5217
 4779SOL    HW225797   3.937   0.405  12.212  2.2293 -1.1519 -0.4805
 4780SOL     OW25798   0.954   1.157  14.942 -0.1546  0.4984 -0.0965
 4780SOL    HW125799   0.956   1.232  14.883  2.5639 -2.6171 -3.9486
 4780SOL    HW225800   1.049   1.144  14.937 -0.0237  1.3736  0.2507
 4781SOL     OW25801   0.896   4.249   5.513  0.1187 -0.3346  0.2400
 4781SOL    HW125802   0.964   4.241   5.580  0.3550 -1.8671 -0.1760
 4781SOL    HW225803   0.921   4.340   5.495 -0.2728 -0.1163  0.8041
 4782SOL     OW25804   1.150   3.332   3.359 -0.0798  0.1550 -0.2627
 4782SOL    HW125805   1.124   3.318   3.450  0.7566  0.6888  0.0609
 4782SOL    HW225806   1.069   3.320   3.308  0.2692 -0.7876 -0.5969
 4783SOL     OW25807   2.121   0.347  15.376 -0.3605 -0.0047 -0.4707
 4783SOL    HW125808   2.093   0.397  15.452  1.3798  1.0894 -0.5273
 4783SOL    HW225809   2.208   0.387  15.365  0.3694 -1.5243 -0.2012
 4784SOL     OW25810   1.844   3.574  14.719 -0.1544 -0.4885 -0.2084
 4784SOL    HW125811   1.756   3.584  14.756 -0.0712  0.5870 -0.2906
 4784SOL    HW225812   1.903   3.541  14.787 -0.6603 -0.1537  0.3915
 4785SOL     OW25813   3.768   3.285   5.817  0.2479  0.0116  0.2297
 4785SOL    HW125814   3.727   3.270   5.902  0.4065  1.7899  0.6214
 4785SOL    HW225815   3.778   3.380   5.814 -0.8246  0.1834  2.2804
 4786SOL     OW25816   3.040   4.616   8.169  0.0654 -0.4425  0.2084
 4786SOL    HW125817   2.977   4.687   8.159  0.7502  0.2434  0.7061
 4786SOL    HW225818   3.043   4.610   8.264  2.8777 -4.0531 -0.0940
 4787SOL     OW25819   2.053   3.737  15.021 -0.5561  0.6513 -0.2497
 4787SOL    HW125820   1.996   3.798  15.067 -0.6622  0.8354 -0.6234
 4787SOL    HW225821   2.117   3.796  14.983  0.0686  0.0934 -0.0671
 4788SOL     OW25822   4.238   1.423  16.796 -0.3264 -0.7297  0.1053
 4788SOL    HW125823   4.254   1.513  16.824  2.2792 -1.1315 -0.1053
 4788SOL    HW225824   4.327   1.390  16.804  0.3147  0.7626 -0.8383
 4789SOL     OW25825   4.541   0.411  14.845  0.3268 -0.1191 -0.4375
 4789SOL    HW125826   4.509   0.448  14.927 -0.8590  3.4583 -2.5195
 4789SOL    HW225827   4.560   0.491  14.795 -1.2469 -1.2140 -2.8043
 4790SOL     OW25828   3.414   0.588   2.414  0.2474  0.1813 -0.2572
 4790SOL    HW125829   3.460   0.662   2.453 -0.1744 -0.7048  1.9170
 4790SOL    HW225830   3.428   0.525   2.485 -2.6573  2.7951  2.6383
 4791SOL     OW25831   1.607   2.866   0.851 -0.2211  0.4215  0.6391
 4791SOL    HW125832   1.568   2.781   0.829  0.0284  0.3504  0.4719
 4791SOL    HW225833   1.664   2.873   0.775 -2.9364  2.8542 -1.1781
 4792SOL     OW25834   2.562   1.714   1.899  0.0083 -0.0431 -0.5644
 4792SOL    HW125835   2.609   1.782   1.947 -1.1626  0.8609 -0.6979
 4792SOL    HW225836   2.512   1.768   1.838 -2.9733 -0.7778  1.2444
 4793SOL     OW25837   1.121   4.722   7.634  0.2122  0.2502  0.1280
 4793SOL    HW125838   1.126   0.093   7.620 -1.3744  0.5943  1.8829
 4793SOL    HW225839   1.110   4.721   7.729 -0.7010 -0.4449  0.0119
 4794SOL     OW25840   0.027   2.391   4.575 -0.2319 -0.3022  0.3627
 4794SOL    HW125841   0.030   2.486   4.562  1.8780 -0.2793  1.1198
 4794SOL    HW225842   0.023   2.355   4.487 -2.0564 -0.6997  0.5955
 4795SOL     OW25843   3.349   3.836   7.535 -0.3065  0.1962  0.1256
 4795SOL    HW125844   3.410   3.781   7.486 -0.9830 -1.7785  1.4725
 4795SOL    HW225845   3.379   3.924   7.515 -2.3579  0.6694 -0.8166
 4796SOL     OW25846   0.079   2.985   0.639  0.0074  0.5924 -0.0016
 4796SOL    HW125847   0.021   2.990   0.715  0.7227  0.7052  0.5426
 4796SOL    HW225848   0.139   3.055   0.664 -0.3082  1.4240 -1.5773
 4797SOL     OW25849   4.152   2.282   3.618 -0.4383  0.4404 -0.3604
 4797SOL    HW125850   4.057   2.279   3.631 -0.6937 -0.0056 -2.3329
 4797SOL    HW225851   4.184   2.215   3.678 -2.1614 -0.4391 -0.4323
 4798SOL     OW25852   2.437   3.379   7.460 -0.2031 -0.2167  0.3073
 4798SOL    HW125853   2.371   3.340   7.403 -1.4545 -0.8338  2.2146
 4798SOL    HW225854   2.516   3.335   7.428 -1.2584 -0.6390 -1.7558
 4799SOL     OW25855   4.086   4.405  11.713  0.0524 -0.2366  0.2091
 4799SOL    HW125856   4.055   4.326  11.759 -3.4563 -0.2620 -2.2083
 4799SOL    HW225857   4.181   4.400  11.713  0.1010  0.6667 -0.1308
 4800SOL     OW25858   4.610   3.222  10.483  0.1006 -0.0067 -0.1862
 4800SOL    HW125859   4.559   3.168  10.543 -0.6529 -0.3783 -1.1515
 4800SOL    HW225860   4.582   3.175  10.405 -3.2628 -2.3518  2.4413
 4801SOL     OW25861   2.492   3.469   9.880  0.7878  0.0912  0.2996
 4801SOL    HW125862   2.543   3.469   9.961 -0.3154  0.0437  0.9942
 4801SOL    HW225863   2.517   3.556   9.850  2.2665 -0.7793 -1.0001
 4802SOL     OW25864   3.269   1.216   3.627 -0.1279  0.0285  0.3139
 4802SOL    HW125865   3.314   1.132   3.634  0.6181  0.4062  0.0662
 4802SOL    HW225866   3.177   1.191   3.613 -0.3827  0.7251  0.7590
 4803SOL     OW25867   0.630   0.908   7.026  0.0025  0.3169 -0.1631
 4803SOL    HW125868   0.692   0.845   6.989 -0.8726 -1.6580  1.7225
 4803SOL    HW225869   0.643   0.986   6.973 -0.0521  0.9289  0.7312
 4804SOL     OW25870   3.634   3.297   2.160 -0.1364 -0.6889 -0.3219
 4804SOL    HW125871   3.675   3.213   2.180  1.7284  0.4952  0.8377
 4804SOL    HW225872   3.694   3.324   2.091  1.2461 -0.5174  0.9396
 4805SOL     OW25873   0.611   3.212  11.983  0.2030  0.7828 -0.5122
 4805SOL    HW125874   0.541   3.268  12.016 -0.8061  1.2096 -3.3885
 4805SOL    HW225875   0.559   3.132  11.981 -1.5877  1.9539 -1.4175
 4806SOL     OW25876   3.290   4.210   8.660 -0.2881 -0.0553 -0.0754
 4806SOL    HW125877   3.259   4.270   8.592 -0.3855 -1.7402 -1.5204
 4806SOL    HW225878   3.381   4.188   8.642 -0.2572  1.2218 -1.4521
 4807SOL     OW25879   2.226   2.278   0.549 -0.4262 -0.3705  0.0878
 4807SOL    HW125880   2.320   2.269   0.536 -0.5372  0.3730 -1.1197
 4807SOL    HW225881   2.194   2.191   0.576  2.3402 -0.4770  3.1188
 4808SOL     OW25882   3.838   2.820   8.155  0.1301  0.6632  0.1732
 4808SOL    HW125883   3.856   2.792   8.066  0.1163 -0.1897  0.4337
 4808SOL    HW225884   3.748   2.846   8.135 -0.2925 -0.3250  0.7646
 4809SOL     OW25885   0.793   2.700   5.466  1.1365 -0.6037 -0.1478
 4809SOL    HW125886   0.710   2.711   5.513  2.8289  0.4705  2.5923
 4809SOL    HW225887   0.764   2.709   5.375 -2.5625 -0.6085  1.0111
 4810SOL     OW25888   1.219   2.022  11.097 -0.2919 -0.3048  0.1773
 4810SOL    HW125889   1.260   1.982  11.174 -2.3942 -1.1251  0.8898
 4810SOL    HW225890   1.217   2.115  11.118  1.6980 -0.6369  1.8558
 4811SOL     OW25891   0.811   2.072   5.404 -0.5949 -0.3272 -0.0146
 4811SOL    HW125892   0.812   2.021   5.485  0.7937 -0.1199  0.0925
 4811SOL    HW225893   0.761   2.150   5.427  2.0672  0.5170  2.9097
 4812SOL     OW25894   1.964   0.715   1.205  0.0338  0.0971 -0.1908
 4812SOL    HW125895   1.898   0.703   1.136 -0.4134 -1.6343  0.5253
 4812SOL    HW225896   1.936   0.652   1.272  0.5260 -0.5060 -0.5506
 4813SOL     OW25897   2.370   1.561   5.129  0.1959  0.0834 -0.8159
 4813SOL    HW125898   2.394   1.589   5.218 -0.2768  3.7205 -1.8313
 4813SOL    HW225899   2.277   1.582   5.126  0.0144 -0.9014 -2.0365
 4814SOL     OW25900   0.035   2.829   0.404 -0.7480  0.7399 -0.3686
 4814SOL    HW125901   0.073   2.881   0.475 -1.8724  1.6212 -0.4182
 4814SOL    HW225902   4.677   2.801   0.446 -0.0146 -0.2047  0.4187
 4815SOL     OW25903   2.712   2.445  15.889  0.1423 -0.9468 -0.7962
 4815SOL    HW125904   2.633   2.420  15.841 -1.0629  1.5214 -0.0867
 4815SOL    HW225905   2.760   2.362  15.888  1.5347 -0.1579  0.8085
 4816SOL     OW25906   1.045   2.355  15.818 -0.3463 -0.2936  0.4750
 4816SOL    HW125907   1.030   2.327  15.728  0.9971  1.7406 -0.3887
 4816SOL    HW225908   1.104   2.293  15.862  1.8024  1.1128 -0.4446
 4817SOL     OW25909   2.357   3.563  12.872 -0.5351  0.1328  0.4426
 4817SOL    HW125910   2.450   3.582  12.880 -0.2210 -1.0817 -0.3108
 4817SOL    HW225911   2.354   3.476  12.831 -0.1697 -0.7598  2.2890
 4818SOL     OW25912   1.706   1.978   8.878  0.9210  0.4271  0.2540
 4818SOL    HW125913   1.630   1.981   8.937  0.2856 -4.0690 -0.3380
 4818SOL    HW225914   1.772   1.938   8.934 -1.2150  1.1466  3.3135
 4819SOL     OW25915   2.606   2.090  15.903  0.2514  0.2560 -0.0962
 4819SOL    HW125916   2.688   2.101  15.855  0.4521  0.6051  0.3322
 4819SOL    HW225917   2.554   2.165  15.872  0.8978  0.7655  0.0550
 4820SOL     OW25918   2.579   2.351   3.392 -0.8990  0.1162  0.3492
 4820SOL    HW125919   2.549   2.266   3.360  1.4062 -1.1713  1.5924
 4820SOL    HW225920   2.668   2.358   3.359 -0.6905 -0.3045  0.8237
 4821SOL     OW25921   0.826   1.788   6.908  0.1342 -0.0531 -0.2749
 4821SOL    HW125922   0.897   1.810   6.967 -1.4189  2.1023  0.8070
 4821SOL    HW225923   0.808   1.699   6.937 -0.5827 -0.0256 -0.6281
 4822SOL     OW25924   0.549   2.902   2.066  0.0625  0.0477 -0.2134
 4822SOL    HW125925   0.607   2.938   2.000  0.2641 -0.3666 -0.2595
 4822SOL    HW225926   0.585   2.946   2.143  1.6825 -0.1739 -0.8600
 4823SOL     OW25927   2.740   0.713  13.709  0.5087 -0.2830 -0.1184
 4823SOL    HW125928   2.720   0.628  13.749  0.7936 -0.8996 -1.2676
 4823SOL    HW225929   2.710   0.705  13.619 -1.1328  1.2595  0.3072
 4824SOL     OW25930   1.963   1.047  11.891 -0.5255 -0.2140  0.0901
 4824SOL    HW125931   1.949   1.122  11.949 -1.2140  2.2436 -3.2865
 4824SOL    HW225932   1.936   0.976  11.950 -1.2765  0.0822  0.1013
 4825SOL     OW25933   0.077   4.021   8.140 -0.3331  0.4847  0.1835
 4825SOL    HW125934   0.115   4.053   8.222 -2.4018 -1.3788  1.8775
 4825SOL    HW225935   0.137   3.951   8.115  2.5187  2.4978  1.4286
 4826SOL     OW25936   3.954   1.274  16.448 -0.9992  0.0045  0.1597
 4826SOL    HW125937   3.938   1.223  16.369 -0.1085 -1.6747  1.0525
 4826SOL    HW225938   3.919   1.360  16.427  0.0766  0.0592 -1.3748
 4827SOL     OW25939   1.473   2.377   1.192  0.9633  0.4083 -0.6429
 4827SOL    HW125940   1.456   2.409   1.104  2.2978 -0.9036 -1.3979
 4827SOL    HW225941   1.525   2.445   1.234  0.3558  0.0532  0.6883
 4828SOL     OW25942   3.330   3.398  14.574 -0.1708 -0.3908 -0.0545
 4828SOL    HW125943   3.320   3.394  14.670 -0.1997 -0.2527 -0.0515
 4828SOL    HW225944   3.424   3.407  14.557 -0.2588 -2.3240 -1.4594
 4829SOL     OW25945   1.756   4.116   4.005  0.6170  0.6159  0.4457
 4829SOL    HW125946   1.761   4.042   4.065  1.7613 -0.8944 -1.4900
 4829SOL    HW225947   1.700   4.094   3.930  1.0064 -0.1506  0.3807
 4830SOL     OW25948   3.872   3.866  10.534  0.2709 -0.1770  0.9944
 4830SOL    HW125949   3.825   3.783  10.524 -0.1544  0.1777  0.0643
 4830SOL    HW225950   3.957   3.859  10.490 -0.2466 -1.8634  0.2895
 4831SOL     OW25951   3.905   0.778   0.522  0.5009 -0.1298  0.1531
 4831SOL    HW125952   3.871   0.802   0.436  0.9546 -2.0501 -0.5510
 4831SOL    HW225953   3.909   0.683   0.515 -2.1088  0.0077 -3.3293
 4832SOL     OW25954   1.600   0.162   7.001  0.2985 -0.4769 -0.0405
 4832SOL    HW125955   1.513   0.187   7.034 -0.6851 -1.2841 -2.0089
 4832SOL    HW225956   1.607   0.222   6.927 -2.3520  0.4415  0.4140
 4833SOL     OW25957   0.531   2.603   7.399  0.3985  0.0051  0.4551
 4833SOL    HW125958   0.470   2.531   7.382  1.8446 -0.6647 -1.9102
 4833SOL    HW225959   0.560   2.613   7.308 -0.0057  1.2625  0.4664
 4834SOL     OW25960   2.913   3.760   5.622  0.0701 -0.6295  0.2373
 4834SOL    HW125961   2.849   3.692   5.603 -0.2144 -1.0386  2.6749
 4834SOL    HW225962   2.879   3.793   5.705  0.9122 -1.0982  0.7676
 4835SOL     OW25963   1.261   0.176   6.782  0.0193 -0.1613 -0.3499
 4835SOL    HW125964   1.236   0.102   6.726 -0.3924  1.0196 -1.7343
 4835SOL    HW225965   1.192   0.243   6.784 -0.5044 -0.6989 -0.3113
 4836SOL     OW25966   4.584   1.499   8.271  0.0612 -0.3465 -0.5230
 4836SOL    HW125967   4.563   1.533   8.358 -1.6924 -0.3822 -0.9349
 4836SOL    HW225968   4.637   1.568   8.230  0.6600  0.1177  1.0641
 4837SOL     OW25969   3.689   1.690   2.191  0.3241 -0.0204 -0.2021
 4837SOL    HW125970   3.621   1.719   2.253 -0.0725 -0.8042 -0.2673
 4837SOL    HW225971   3.647   1.607   2.167  0.9362 -0.2398 -0.5122
 4838SOL     OW25972   3.234   0.301   5.916 -0.1917  0.3892 -0.1126
 4838SOL    HW125973   3.303   0.352   5.958 -1.1811 -0.5111  2.6453
 4838SOL    HW225974   3.230   0.339   5.829  0.1107  1.6322  0.4151
 4839SOL     OW25975   4.075   4.659   5.413  0.9389  0.2220  0.1506
 4839SOL    HW125976   4.146   4.611   5.455  0.4920 -0.4133  0.1796
 4839SOL    HW225977   4.048   4.588   5.355  1.2452  0.3998 -0.2188
 4840SOL     OW25978   3.809   2.874   4.639  0.1401  0.4327 -0.0405
 4840SOL    HW125979   3.832   2.853   4.548  1.2448  0.8743  0.1396
 4840SOL    HW225980   3.879   2.838   4.693 -1.3552 -0.8198  1.0441
 4841SOL     OW25981   3.470   3.015  10.372  0.3931  0.1660  0.0927
 4841SOL    HW125982   3.435   2.936  10.413  0.3140  0.8963  1.4295
 4841SOL    HW225983   3.396   3.035  10.314 -0.9625 -1.0066  1.4102
 4842SOL     OW25984   2.939   3.655   2.964 -0.1204 -0.7281 -0.1583
 4842SOL    HW125985   2.855   3.610   2.970 -0.6847  0.1820 -1.0944
 4842SOL    HW225986   2.922   3.723   2.898 -1.0603  0.8653  1.7377
 4843SOL     OW25987   3.902   1.107   4.095  0.4378  0.5648  0.0474
 4843SOL    HW125988   3.849   1.036   4.132  1.6022 -0.0630  0.5050
 4843SOL    HW225989   3.943   1.132   4.178 -1.4489 -0.3584  1.2687
 4844SOL     OW25990   1.964   1.996  12.944 -0.0125  0.0387 -0.4500
 4844SOL    HW125991   2.042   1.993  13.000 -1.0588 -2.2066  0.8636
 4844SOL    HW225992   1.921   1.913  12.963  0.2976 -0.2295 -0.9404
 4845SOL     OW25993   0.102   2.122   3.869  0.0437  0.6398  0.0197
 4845SOL    HW125994   0.056   2.200   3.899 -0.5179 -0.1235  1.1551
 4845SOL    HW225995   0.073   2.114   3.779 -0.8729  0.1096  0.3551
 4846SOL     OW25996   2.486   0.306   1.637  0.1116  0.3119  1.0102
 4846SOL    HW125997   2.564   0.356   1.660  1.1136 -0.0335 -1.6017
 4846SOL    HW225998   2.485   0.247   1.712  0.6071  1.0559  1.6104
 4847SOL     OW25999   1.888   1.376   8.940 -0.5259 -0.4920 -0.0833
 4847SOL    HW126000   1.884   1.307   9.007  1.4167 -0.9062 -0.3954
 4847SOL    HW226001   1.962   1.345   8.888 -0.4919  0.9982 -0.9058
 4848SOL     OW26002   2.603   1.017  13.768  0.0249  0.6851  0.1092
 4848SOL    HW126003   2.651   1.078  13.713 -0.7558  2.6248  1.5851
 4848SOL    HW226004   2.631   0.934  13.729  2.4689  0.4831  2.2793
 4849SOL     OW26005   4.042   1.198   8.095  0.7766  0.5768  0.4399
 4849SOL    HW126006   4.046   1.261   8.167 -1.8388  0.1434  0.9603
 4849SOL    HW226007   4.040   1.254   8.017  3.6270  0.5019  0.3070
 4850SOL     OW26008   0.808   4.339  12.869  0.4798  0.1552  0.4003
 4850SOL    HW126009   0.765   4.407  12.921 -0.6257 -0.8182  0.7657
 4850SOL    HW226010   0.880   4.382  12.824 -0.2221  1.2372  0.3214
 4851SOL     OW26011   3.109   2.795   0.762  0.7976  0.3209 -0.2749
 4851SOL    HW126012   3.152   2.814   0.679  1.6693 -1.7486 -0.2927
 4851SOL    HW226013   3.114   2.700   0.773  0.6156 -0.1451 -4.2111
 4852SOL     OW26014   4.351   1.708   2.175  0.0952 -0.1438 -0.5804
 4852SOL    HW126015   4.379   1.665   2.256 -2.8651  2.1893  1.6665
 4852SOL    HW226016   4.409   1.784   2.182  0.7555 -0.6779 -0.1677
 4853SOL     OW26017   1.286   2.733   9.307  0.5087 -0.1721 -0.2905
 4853SOL    HW126018   1.299   2.793   9.380  3.6761 -0.4072 -0.6728
 4853SOL    HW226019   1.309   2.654   9.356  0.1423  0.6098  1.1260
 4854SOL     OW26020   3.915   4.589   2.966  0.4557 -0.3089  0.1944
 4854SOL    HW126021   3.840   4.594   2.907  0.4623 -2.8377 -0.0481
 4854SOL    HW226022   3.893   4.506   3.009 -2.0139 -1.0360 -2.4957
 4855SOL     OW26023   1.417   2.446  11.946 -0.7110  0.5073  0.1429
 4855SOL    HW126024   1.331   2.410  11.926 -0.5828 -0.5257  1.5140
 4855SOL    HW226025   1.468   2.419  11.869 -0.0210  1.5470  0.2253
 4856SOL     OW26026   3.968   0.479  12.569 -0.4442 -0.8567 -0.4334
 4856SOL    HW126027   3.972   0.536  12.493 -1.3350  3.2744  2.6417
 4856SOL    HW226028   3.988   0.542  12.638 -1.8680 -1.6539  0.7077
 4857SOL     OW26029   1.313   2.960   8.151 -0.0181 -0.2613 -0.0333
 4857SOL    HW126030   1.327   3.036   8.207 -0.5733 -1.5460  1.8355
 4857SOL    HW226031   1.297   2.889   8.214 -1.5836  0.4086  0.3297
 4858SOL     OW26032   1.688   1.542   7.851  0.1696  0.2077  0.1971
 4858SOL    HW126033   1.676   1.563   7.944 -1.0756  0.1620  0.0434
 4858SOL    HW226034   1.663   1.450   7.857  2.1344 -0.3003  0.4300
 4859SOL     OW26035   3.174   2.140   4.529  0.1190  0.6566  1.0107
 4859SOL    HW126036   3.088   2.098   4.529  0.5584 -0.2359  1.0344
 4859SOL    HW226037   3.165   2.197   4.606  2.4527  1.4008  0.7397
 4860SOL     OW26038   0.984   3.604   3.183  0.5087 -0.3694 -0.3287
 4860SOL    HW126039   0.919   3.638   3.245 -0.3146 -0.4898 -1.1135
 4860SOL    HW226040   0.958   3.512   3.185 -1.3499  0.1649  0.1656
 4861SOL     OW26041   3.092   3.493   5.471 -0.4612 -0.7307 -0.1608
 4861SOL    HW126042   2.997   3.484   5.470 -0.4865 -0.0190 -2.9549
 4861SOL    HW226043   3.107   3.558   5.402  2.6508 -1.4652 -0.1901
 4862SOL     OW26044   0.833   1.958   2.596  0.1145  0.5448 -0.2774
 4862SOL    HW126045   0.888   1.983   2.522  2.4967  0.0950  1.3664
 4862SOL    HW226046   0.827   2.042   2.640 -0.1419  1.0445 -1.2552
 4863SOL     OW26047   0.151   3.427   5.479  0.1871 -0.1867  0.0096
 4863SOL    HW126048   0.201   3.378   5.544  1.0267 -0.9634 -1.2185
 4863SOL    HW226049   0.083   3.362   5.464 -0.5648  0.1641  1.9493
 4864SOL     OW26050   0.354   3.434  14.227 -0.0503  0.5328 -0.2254
 4864SOL    HW126051   0.418   3.472  14.288  0.2181 -1.4014  0.7043
 4864SOL    HW226052   0.296   3.506  14.204  1.0159  2.4796  3.0391
 4865SOL     OW26053   1.995   1.995   5.896 -0.6263 -0.8638 -0.3069
 4865SOL    HW126054   2.059   2.048   5.943 -0.8576 -0.7343 -0.1354
 4865SOL    HW226055   1.927   2.062   5.887  0.1329  0.1354  1.4601
 4866SOL     OW26056   0.994   3.257   2.906 -0.4943 -0.3618  0.3750
 4866SOL    HW126057   0.941   3.178   2.904 -1.9473  0.5518  2.9627
 4866SOL    HW226058   1.081   3.220   2.896 -0.2324  0.9275 -2.1282
 4867SOL     OW26059   1.748   0.710   6.397  0.2016 -0.2915 -0.5234
 4867SOL    HW126060   1.798   0.689   6.318 -1.0678  1.2899 -1.7456
 4867SOL    HW226061   1.807   0.697   6.472  1.5511  0.8972 -1.3796
 4868SOL     OW26062   1.105   1.925   7.536  0.5776 -0.2900 -0.3327
 4868SOL    HW126063   1.105   1.835   7.568 -0.9261 -0.5585 -1.0923
 4868SOL    HW226064   1.109   1.909   7.442 -1.5124  0.3617 -0.5392
 4869SOL     OW26065   1.911   2.471   9.893  0.0537  0.3007 -0.4436
 4869SOL    HW126066   1.966   2.437   9.963 -1.9986 -1.4356  0.3216
 4869SOL    HW226067   1.866   2.396   9.852  1.1661  0.3124 -1.6949
 4870SOL     OW26068   4.546   1.007  15.118 -0.4579 -0.4015  0.5371
 4870SOL    HW126069   4.582   0.919  15.101 -1.3237 -0.4388 -1.1565
 4870SOL    HW226070   4.600   1.055  15.055  0.5867 -1.3974  0.6622
 4871SOL     OW26071   2.880   3.328  16.220  0.0148 -0.2756 -0.4327
 4871SOL    HW126072   2.847   3.409  16.258  0.0083  0.2588 -1.5686
 4871SOL    HW226073   2.973   3.327  16.245 -0.2704  0.9180  0.6633
 4872SOL     OW26074   0.618   2.885   8.140 -0.1394  0.6398  0.2284
 4872SOL    HW126075   0.626   2.800   8.183  0.8175 -0.4201 -2.0217
 4872SOL    HW226076   0.623   2.929   8.225  0.7541  1.4833 -0.2520
 4873SOL     OW26077   2.792   1.158   5.491  0.3211  0.0846  0.1196
 4873SOL    HW126078   2.801   1.237   5.544 -1.3675  0.4188 -0.1008
 4873SOL    HW226079   2.883   1.138   5.469 -0.5851 -1.2133 -2.4555
 4874SOL     OW26080   2.781   3.794   6.533 -0.2871  0.0217  0.3305
 4874SOL    HW126081   2.780   3.737   6.456  0.2803  0.2516  0.1490
 4874SOL    HW226082   2.854   3.851   6.510  1.5139 -3.1545 -1.9488
 4875SOL     OW26083   1.385   3.235   3.257 -0.1994 -0.6832  0.3089
 4875SOL    HW126084   1.310   3.288   3.283 -0.7092 -0.2285 -2.0841
 4875SOL    HW226085   1.439   3.300   3.212  0.9734 -0.9902  1.2928
 4876SOL     OW26086   1.306   4.594   7.961 -0.1284  0.2483 -0.0282
 4876SOL    HW126087   1.397   4.570   7.981 -0.4872 -0.4890  0.7370
 4876SOL    HW226088   1.328   4.666   7.903  2.4585 -0.4377  0.0795
 4877SOL     OW26089   0.812   1.337   2.189  0.0276  0.3196 -0.4600
 4877SOL    HW126090   0.824   1.427   2.220  0.0663 -0.3758  1.5773
 4877SOL    HW226091   0.753   1.358   2.117 -1.1289  0.1444  0.4323
 4878SOL     OW26092   0.588   0.481  12.576  0.1886  0.2857  0.5679
 4878SOL    HW126093   0.538   0.417  12.526  1.1287  0.8692 -1.0990
 4878SOL    HW226094   0.647   0.512  12.507  0.9291  0.1646  1.1548
 4879SOL     OW26095   4.303   0.728  14.371 -0.0732 -0.5298  0.3610
 4879SOL    HW126096   4.259   0.799  14.418  2.2018  0.9006  0.3652
 4879SOL    HW226097   4.393   0.751  14.396 -0.1985  1.1874 -0.8126
 4880SOL     OW26098   2.487   2.698  14.715  0.0398  0.2140  0.2523
 4880SOL    HW126099   2.471   2.605  14.735 -0.4197  0.4512  0.9870
 4880SOL    HW226100   2.479   2.696  14.619  0.6087  1.0629  0.1963
 4881SOL     OW26101   1.131   1.087   3.441 -0.1877 -0.5012  0.0155
 4881SOL    HW126102   1.139   1.163   3.498  0.3058 -1.2554  0.9720
 4881SOL    HW226103   1.114   1.125   3.355 -0.7066  0.4644  0.5538
 4882SOL     OW26104   2.815   0.978  11.033  0.0984 -0.2806  0.0224
 4882SOL    HW126105   2.848   1.042  11.096  1.0716  0.3711 -1.1488
 4882SOL    HW226106   2.767   0.919  11.091 -1.5480 -0.8399 -1.8931
 4883SOL     OW26107   1.813   2.167  15.535 -0.4359  0.5234  0.2891
 4883SOL    HW126108   1.762   2.181  15.454  1.4781  0.2996 -0.9473
 4883SOL    HW226109   1.859   2.086  15.517 -1.4465 -0.3147  1.5667
 4884SOL     OW26110   0.485   4.527  13.851 -0.1500  0.0097  0.7067
 4884SOL    HW126111   0.449   4.561  13.769 -1.8798  0.5867  1.7028
 4884SOL    HW226112   0.511   4.614  13.880 -1.0741 -0.0737  1.8088
 4885SOL     OW26113   3.716   3.650   7.619 -0.3260 -0.3189  0.5786
 4885SOL    HW126114   3.723   3.683   7.709 -1.2953 -1.6865  1.1503
 4885SOL    HW226115   3.623   3.673   7.610 -0.1554 -0.8407 -2.6906
 4886SOL     OW26116   1.485   2.987   2.901 -0.5071 -0.0312  0.4566
 4886SOL    HW126117   1.546   2.918   2.876 -2.2524 -0.6333 -2.1193
 4886SOL    HW226118   1.550   3.057   2.886  1.0802 -1.6888 -0.3919
 4887SOL     OW26119   4.400   0.506   8.023 -0.0841 -0.0405 -0.7685
 4887SOL    HW126120   4.374   0.574   8.086  0.7548  0.6887 -1.1994
 4887SOL    HW226121   4.409   0.550   7.938 -2.2582 -2.0808 -2.0352
 4888SOL     OW26122   1.393   0.646  11.429 -0.5370  0.3744  0.3038
 4888SOL    HW126123   1.304   0.667  11.460 -0.4797 -0.9687  1.4193
 4888SOL    HW226124   1.439   0.637  11.513 -1.2843 -1.2714  0.5502
 4889SOL     OW26125   4.577   1.347   2.092  0.6856  0.0786  0.2347
 4889SOL    HW126126   4.483   1.341   2.076  0.9257 -1.5396 -0.5669
 4889SOL    HW226127   4.607   1.271   2.042 -2.1097 -0.8841  0.0241
 4890SOL     OW26128   3.871   1.810   4.125  0.1673 -0.1969  0.0714
 4890SOL    HW126129   3.902   1.901   4.117  1.0604 -0.5132 -0.0709
 4890SOL    HW226130   3.781   1.819   4.094  0.3525 -1.0264 -0.6811
 4891SOL     OW26131   3.191   3.245   1.930 -0.0070  0.0732 -0.2325
 4891SOL    HW126132   3.254   3.307   1.967  1.1241 -1.1776 -0.0537
 4891SOL    HW226133   3.152   3.198   2.003  0.1538 -1.1283 -0.9292
 4892SOL     OW26134   1.777   3.317   1.073 -0.0541  0.0080  0.2286
 4892SOL    HW126135   1.856   3.315   1.127  0.0217 -1.1310  0.0766
 4892SOL    HW226136   1.747   3.226   1.074 -0.8588  0.2632 -0.7494
 4893SOL     OW26137   1.751   4.328  10.008  0.0849  0.1833 -0.3011
 4893SOL    HW126138   1.772   4.386  10.081 -0.0770  0.4117 -0.4378
 4893SOL    HW226139   1.822   4.352   9.948  1.0445 -2.9256 -0.4086
 4894SOL     OW26140   2.593   1.110  16.918 -0.2834  0.2906  0.1754
 4894SOL    HW126141   2.517   1.164  16.895 -1.7030 -1.0457  1.8157
 4894SOL    HW226142   2.663   1.140  16.860 -1.8429  0.6358 -1.5324
 4895SOL     OW26143   2.641   1.904   4.316 -0.3708 -0.3431  0.7124
 4895SOL    HW126144   2.550   1.880   4.333 -0.1800 -1.2969  0.3994
 4895SOL    HW226145   2.649   1.921   4.222  1.4537 -1.1370  0.7152
 4896SOL     OW26146   2.352   1.835   0.224  0.5852  0.4152 -0.1360
 4896SOL    HW126147   2.375   1.770   0.290  3.8425  0.1256 -1.5344
 4896SOL    HW226148   2.366   1.909   0.283  1.4513 -0.3166  0.5761
 4897SOL     OW26149   2.433   2.308   1.941 -0.4426  0.7514 -0.3742
 4897SOL    HW126150   2.341   2.313   1.914 -0.5780  0.9443  0.1358
 4897SOL    HW226151   2.480   2.337   1.863 -1.9560 -0.6398 -1.8262
 4898SOL     OW26152   0.691   3.957   2.894 -1.1451 -0.1451 -0.1118
 4898SOL    HW126153   0.646   3.911   2.823 -0.8285  0.3007 -0.6060
 4898SOL    HW226154   0.727   3.883   2.943 -2.0011 -1.0980 -0.9169
 4899SOL     OW26155   0.745   4.635   5.408  0.1567 -0.2259 -0.0066
 4899SOL    HW126156   0.707   4.718   5.437 -0.8349 -1.0291  1.0116
 4899SOL    HW226157   0.681   4.614   5.340  0.8384 -0.4088 -0.5923
 4900SOL     OW26158   4.518   2.967   7.493 -0.3495  0.2982 -0.2674
 4900SOL    HW126159   4.533   3.047   7.544 -1.7781  0.5398 -0.2215
 4900SOL    HW226160   4.444   2.991   7.437 -0.5635  1.1885  0.3891
 4901SOL     OW26161   4.650   4.674   5.998 -0.3290 -0.4804  0.3369
 4901SOL    HW126162   4.716   4.697   6.064 -1.1975  0.5279  0.8423
 4901SOL    HW226163   4.687   4.593   5.962 -1.4993 -1.0179  0.3337
 4902SOL     OW26164   0.440   1.064  14.821 -0.0250 -0.3825 -0.5810
 4902SOL    HW126165   0.535   1.062  14.821 -0.0387 -1.3079  1.3292
 4902SOL    HW226166   0.413   1.111  14.742 -2.6532 -0.4749  0.2544
 4903SOL     OW26167   3.308   0.865   2.484 -0.1503  0.4381 -0.0487
 4903SOL    HW126168   3.352   0.946   2.459  0.0226  0.1030 -0.8267
 4903SOL    HW226169   3.250   0.902   2.551  1.6896  0.9236  1.2711
 4904SOL     OW26170   3.411   1.457   7.391 -0.1854  0.0257 -0.2364
 4904SOL    HW126171   3.359   1.528   7.351 -0.9954  0.7106  2.0314
 4904SOL    HW226172   3.497   1.495   7.409  0.1396 -0.3610 -0.9696
 4905SOL     OW26173   2.609   1.229   3.577  0.4069 -0.5105  0.5939
 4905SOL    HW126174   2.677   1.162   3.574  0.6619 -0.2302  0.1784
 4905SOL    HW226175   2.525   1.191   3.548  0.4466 -1.3512  1.5654
 4906SOL     OW26176   1.409   3.895  13.071  0.3766  0.0235  0.3786
 4906SOL    HW126177   1.445   3.815  13.035 -0.7688 -0.2416 -0.1896
 4906SOL    HW226178   1.328   3.905  13.020 -0.2984  1.0105  1.6401
 4907SOL     OW26179   3.433   2.058   6.454 -1.0447 -0.0856 -0.2390
 4907SOL    HW126180   3.474   1.972   6.450  0.2848  0.4955  0.8637
 4907SOL    HW226181   3.475   2.102   6.379 -0.1714 -1.3953 -0.5174
 4908SOL     OW26182   3.696   4.402   7.880 -0.3245  0.3097 -0.2352
 4908SOL    HW126183   3.686   4.410   7.786 -2.6790  1.0630  0.0805
 4908SOL    HW226184   3.791   4.410   7.881 -0.2831 -0.2140  0.6521
 4909SOL     OW26185   3.700   0.179   2.530 -0.1428  0.4162 -0.0415
 4909SOL    HW126186   3.690   0.202   2.438  0.6330 -1.3598 -0.5763
 4909SOL    HW226187   3.630   0.236   2.562 -0.1100 -0.4967  1.6620
 4910SOL     OW26188   1.060   2.424   1.218  0.5255 -0.2062 -0.7711
 4910SOL    HW126189   1.038   2.502   1.168 -0.4169 -1.0869 -1.7468
 4910SOL    HW226190   1.028   2.445   1.306  1.0227  1.0327 -0.8924
 4911SOL     OW26191   1.842   1.477   6.935 -1.3401 -0.6485 -0.3977
 4911SOL    HW126192   1.874   1.472   7.025  1.0832 -0.2742 -1.2393
 4911SOL    HW226193   1.913   1.524   6.892 -1.2501  0.1983  0.6753
 4912SOL     OW26194   1.821   1.614   1.949 -0.3017  0.6056  0.2089
 4912SOL    HW126195   1.901   1.563   1.936 -1.6442 -1.3694 -0.3748
 4912SOL    HW226196   1.844   1.695   1.905 -2.8300  1.5984  0.7159
 4913SOL     OW26197   2.756   3.212   4.473  0.6550 -0.3157 -0.3538
 4913SOL    HW126198   2.845   3.242   4.494  0.1338 -0.5831  2.3064
 4913SOL    HW226199   2.777   3.128   4.434 -0.9382 -0.9814  0.2296
 4914SOL     OW26200   2.280   1.114  14.879 -0.2351  0.4051 -0.2029
 4914SOL    HW126201   2.275   1.058  14.957  1.1659 -0.7927 -0.9722
 4914SOL    HW226202   2.337   1.185  14.907 -0.3937  0.4850 -0.0834
 4915SOL     OW26203   1.070   3.671   4.567 -0.2843 -0.5713  0.0121
 4915SOL    HW126204   1.005   3.607   4.539  0.5363 -0.8436 -1.3002
 4915SOL    HW226205   1.043   3.677   4.658  0.7214  0.5704  0.2479
 4916SOL     OW26206   0.730   3.002   1.885 -0.3334  0.1734 -0.1432
 4916SOL    HW126207   0.782   3.082   1.873  0.5279 -0.1216  1.5842
 4916SOL    HW226208   0.800   2.939   1.899 -0.5685  0.1007  0.7178
 4917SOL     OW26209   3.798   3.963  16.718  0.2686  0.0140  0.1490
 4917SOL    HW126210   3.890   3.986  16.711  0.1642  1.3422  3.2407
 4917SOL    HW226211   3.818   3.885  16.770  1.4837 -0.7112 -1.4387
 4918SOL     OW26212   3.924   3.137  17.289 -0.7478  0.1291  0.0542
 4918SOL    HW126213   3.995   3.199  17.305 -1.1726  1.4025 -3.0941
 4918SOL    HW226214   3.948   3.115  17.199 -1.0660 -2.0270  0.5050
 4919SOL     OW26215   3.813   1.327   6.249  0.0096  0.6500  0.1062
 4919SOL    HW126216   3.886   1.332   6.187 -0.5173 -0.3647 -0.6026
 4919SOL    HW226217   3.755   1.267   6.203  0.0281 -0.5620  1.6575
 4920SOL     OW26218   0.742   3.963   4.075 -0.2379 -0.0034  0.6649
 4920SOL    HW126219   0.833   3.955   4.046 -0.7446  1.2010 -1.2471
 4920SOL    HW226220   0.705   4.034   4.022 -2.9313 -0.2929  2.1697
 4921SOL     OW26221   3.728   3.343   8.390 -0.3184  0.1035 -0.1724
 4921SOL    HW126222   3.692   3.432   8.392  3.7719  1.7840 -1.2742
 4921SOL    HW226223   3.758   3.324   8.478  0.2745 -0.7608 -0.5598
 4922SOL     OW26224   2.631   3.196   7.456 -0.1936  0.4059  0.1127
 4922SOL    HW126225   2.696   3.176   7.389 -0.6396  0.6138 -0.3861
 4922SOL    HW226226   2.633   3.120   7.514 -0.1733 -0.2658 -0.7600
 4923SOL     OW26227   3.606   1.435   5.914  0.3325  1.0065 -0.2367
 4923SOL    HW126228   3.590   1.451   6.007 -1.3798  1.3054 -0.5907
 4923SOL    HW226229   3.688   1.484   5.907 -0.3027  2.5565  3.0452
 4924SOL     OW26230   0.842   4.477   3.194  0.1432  0.0567 -0.0088
 4924SOL    HW126231   0.924   4.466   3.146 -0.3391 -3.7411  0.0668
 4924SOL    HW226232   0.876   4.516   3.275 -0.4753  0.7577 -0.0843
 4925SOL     OW26233   3.931   2.358   8.241  0.2008  0.0241  0.1967
 4925SOL    HW126234   3.960   2.449   8.239 -3.9463  1.3350  0.3154
 4925SOL    HW226235   4.015   2.314   8.228 -0.1338 -0.8026  0.8568
 4926SOL     OW26236   2.618   0.202  13.624  0.0290 -0.8498 -0.0784
 4926SOL    HW126237   2.667   0.261  13.566 -0.5078 -1.2411 -0.9398
 4926SOL    HW226238   2.680   0.129  13.629  0.7702 -0.3452 -1.7418
 4927SOL     OW26239   1.734   3.524   2.601  0.1039  0.1848 -0.1919
 4927SOL    HW126240   1.784   3.600   2.630 -1.2565  1.5760 -1.5101
 4927SOL    HW226241   1.646   3.539   2.634  0.0107  4.5966 -2.4935
 4928SOL     OW26242   0.518   3.013  16.444  0.4248  0.7480 -0.1356
 4928SOL    HW126243   0.469   3.017  16.362 -0.9490 -0.4566  0.6249
 4928SOL    HW226244   0.593   2.964  16.411  0.8685  1.5560 -0.3290
 4929SOL     OW26245   2.712   3.499   2.656 -0.0773 -0.3184  0.4773
 4929SOL    HW126246   2.747   3.514   2.568  0.3078  1.9585  1.0199
 4929SOL    HW226247   2.755   3.568   2.706 -0.4609  0.8422 -0.8195
 4930SOL     OW26248   4.442   3.608   5.415  0.1281 -0.1710 -0.0940
 4930SOL    HW126249   4.417   3.576   5.328 -1.1168 -3.0560  1.3344
 4930SOL    HW226250   4.449   3.526   5.464 -1.8867 -0.7842 -0.8428
 4931SOL     OW26251   1.640   4.447  17.106  0.3764  0.2814  0.2083
 4931SOL    HW126252   1.680   4.533  17.115 -1.7525  1.2344  0.5657
 4931SOL    HW226253   1.715   4.391  17.127  0.4087 -0.9418 -3.1915
 4932SOL     OW26254   2.682   1.642  11.356 -0.5810 -0.3032 -0.8736
 4932SOL    HW126255   2.676   1.733  11.384  0.0281 -0.8675  1.0662
 4932SOL    HW226256   2.671   1.648  11.261 -0.6371  1.5269 -0.7604
 4933SOL     OW26257   3.844   3.952   8.671 -0.3991 -0.3742  0.4404
 4933SOL    HW126258   3.751   3.957   8.693 -1.5827  0.3173 -4.7117
 4933SOL    HW226259   3.884   4.002   8.743  1.5531  0.1335 -1.0087
 4934SOL     OW26260   1.725   3.570  14.477  0.2199  0.4165  0.2445
 4934SOL    HW126261   1.644   3.572  14.528 -0.0030 -0.4105 -0.0850
 4934SOL    HW226262   1.792   3.558  14.545 -1.4381 -1.8137  1.4681
 4935SOL     OW26263   0.267   3.586   8.695 -0.1983  0.1656 -0.7985
 4935SOL    HW126264   0.282   3.535   8.615 -1.8265  0.7851 -1.5058
 4935SOL    HW226265   0.192   3.540   8.732  0.0335  0.7415  0.3984
 4936SOL     OW26266   2.045   4.447   2.267 -0.3948 -0.2352  0.5592
 4936SOL    HW126267   2.031   4.357   2.239  1.9689 -1.0617  2.0358
 4936SOL    HW226268   1.953   4.470   2.278  0.0148  0.7690  1.9295
 4937SOL     OW26269   1.515   3.389   9.641 -0.0160  0.2533 -0.1997
 4937SOL    HW126270   1.530   3.390   9.735  0.0366  0.3249 -0.2091
 4937SOL    HW226271   1.519   3.297   9.614 -0.4023 -0.1887  1.2669
 4938SOL     OW26272   0.210   1.858   3.281 -0.3618 -0.0814  0.7695
 4938SOL    HW126273   0.289   1.901   3.314 -0.1655  0.1262  0.0286
 4938SOL    HW226274   0.217   1.864   3.186 -1.5451  0.8469  0.7575
 4939SOL     OW26275   1.123   3.074  16.369  0.1254  0.7404  0.4195
 4939SOL    HW126276   1.189   3.076  16.300  0.9452 -1.6877  1.1417
 4939SOL    HW226277   1.080   3.157  16.343 -1.0630 -0.1572 -0.5167
 4940SOL     OW26278   2.768   0.717  16.730 -0.4968  0.0289  0.8767
 4940SOL    HW126279   2.717   0.638  16.751 -0.5188  0.1627  1.3372
 4940SOL    HW226280   2.741   0.771  16.804 -0.5780  0.2044  0.7168
 4941SOL     OW26281   3.832   2.458   1.889 -0.2223 -0.4313 -0.2585
 4941SOL    HW126282   3.892   2.464   1.963 -1.0933  0.6715  0.3556
 4941SOL    HW226283   3.847   2.545   1.854  0.6594 -0.6240 -0.3537
 4942SOL     OW26284   1.513   2.150   4.290  0.9267  0.0271  0.4048
 4942SOL    HW126285   1.580   2.215   4.312  1.3456 -0.4003  0.4026
 4942SOL    HW226286   1.515   2.105   4.375 -0.1907  1.8365  1.3779
 4943SOL     OW26287   2.712   0.025   6.839 -0.0999  0.2722  0.0942
 4943SOL    HW126288   2.622   0.008   6.812  0.2401 -2.5603  0.7111
 4943SOL    HW226289   2.763   0.026   6.758 -0.7492  1.8957 -0.2893
 4944SOL     OW26290   2.293   4.103  17.157  0.3126  0.2378 -0.1719
 4944SOL    HW126291   2.230   4.033  17.176  1.1619 -0.8820 -1.4864
 4944SOL    HW226292   2.241   4.182  17.143 -1.2649 -1.1037 -1.9891
 4945SOL     OW26293   1.131   0.926   4.709  0.2851 -0.6214 -0.3620
 4945SOL    HW126294   1.109   0.941   4.618 -1.4262 -2.4099 -0.2199
 4945SOL    HW226295   1.183   1.005   4.728 -0.2721 -0.5783  1.0190
 4946SOL     OW26296   3.431   4.334   6.330  0.0139  0.5329 -0.6595
 4946SOL    HW126297   3.390   4.402   6.276 -1.8188  0.1332  0.2319
 4946SOL    HW226298   3.502   4.308   6.272 -0.4155 -1.9547 -0.0852
 4947SOL     OW26299   0.668   0.528  17.292  0.0353 -0.1395 -0.4403
 4947SOL    HW126300   0.752   0.540  17.335 -0.8796  0.8854  1.0466
 4947SOL    HW226301   0.624   0.600  17.337  0.0332 -0.0399 -0.6030
 4948SOL     OW26302   0.223   4.010   2.647  0.2685 -0.1706  0.5035
 4948SOL    HW126303   0.301   3.988   2.596  0.2789  1.7664 -0.3391
 4948SOL    HW226304   0.173   3.930   2.633  1.2644 -0.2736 -2.4199
 4949SOL     OW26305   0.987   4.026   7.879 -0.4384 -0.1345  0.5007
 4949SOL    HW126306   1.053   4.090   7.853  0.6214 -1.3926  0.0857
 4949SOL    HW226307   0.917   4.045   7.817 -1.7004 -1.0291  1.6641
 4950SOL     OW26308   3.525   4.052   7.528 -0.4578 -0.1810 -0.0637
 4950SOL    HW126309   3.586   4.087   7.593 -1.7970 -0.5961  1.4072
 4950SOL    HW226310   3.445   4.101   7.546 -1.3484 -0.3643 -3.4958
 4951SOL     OW26311   0.798   0.049   3.533  0.0443  0.2500 -0.5391
 4951SOL    HW126312   0.812   4.681   3.508 -0.0705 -0.4691  1.9706
 4951SOL    HW226313   0.765   0.091   3.454 -1.4511  1.0509  0.5098
 4952SOL     OW26314   4.563   0.431   6.780  0.2704  0.4498  0.2532
 4952SOL    HW126315   4.539   0.504   6.721 -0.7316 -2.1475 -2.5721
 4952SOL    HW226316   4.589   0.469   6.864 -2.2528 -0.0353  1.2409
 4953SOL     OW26317   1.535   2.366  11.711  0.2861 -0.0600  0.3591
 4953SOL    HW126318   1.602   2.298  11.699 -1.6708 -2.0639  0.6919
 4953SOL    HW226319   1.588   2.434  11.668  0.0850  0.2729  0.6451
 4954SOL     OW26320   4.148   4.577   2.409  0.1961 -0.1149 -0.3356
 4954SOL    HW126321   4.213   4.635   2.368  0.3450  0.0120  0.0729
 4954SOL    HW226322   4.103   4.571   2.325 -2.6579  0.5526  1.1370
 4955SOL     OW26323   1.368   4.131  14.238  0.1258  0.1730 -0.0588
 4955SOL    HW126324   1.390   4.224  14.233  1.5027 -0.2260 -1.5712
 4955SOL    HW226325   1.287   4.135  14.187 -0.3379  0.1534  0.6833
 4956SOL     OW26326   0.684   1.113   5.411 -0.7548  0.3713 -0.6038
 4956SOL    HW126327   0.678   1.040   5.473 -0.0977  0.4966 -0.3972
 4956SOL    HW226328   0.630   1.178   5.457 -0.9963  0.6146 -1.2379
 4957SOL     OW26329   3.265   0.574  12.421  0.3102 -0.4694 -0.2272
 4957SOL    HW126330   3.271   0.637  12.349 -0.8840  1.7974  1.6570
 4957SOL    HW226331   3.267   0.489  12.379  1.9894  0.1867 -1.4939
 4958SOL     OW26332   1.579   2.465   2.334  0.1569 -0.1819 -0.2226
 4958SOL    HW126333   1.528   2.546   2.331  0.4568  0.0177  0.0640
 4958SOL    HW226334   1.527   2.407   2.279  0.2254 -1.2484  0.8436
 4959SOL     OW26335   2.390   3.486  10.389 -0.0037  0.2578  0.0137
 4959SOL    HW126336   2.337   3.463  10.313  3.4945  0.8603 -2.6253
 4959SOL    HW226337   2.393   3.403  10.437 -1.2273  0.5537  0.6051
 4960SOL     OW26338   0.457   2.201  12.034 -0.0935 -0.5815 -0.1850
 4960SOL    HW126339   0.470   2.107  12.024  0.5895 -0.5478  0.3491
 4960SOL    HW226340   0.521   2.226  11.967 -0.5573 -1.0874 -0.8130
 4961SOL     OW26341   2.499   1.866  16.898 -0.4737 -0.1064  0.9693
 4961SOL    HW126342   2.579   1.817  16.879 -0.3969  1.3093 -2.3432
 4961SOL    HW226343   2.434   1.799  16.921  0.4020 -1.6982 -1.2105
 4962SOL     OW26344   4.216   1.986   2.797  0.0210  0.0123  0.2528
 4962SOL    HW126345   4.219   1.976   2.892  0.0838  0.4694  0.2965
 4962SOL    HW226346   4.308   2.005   2.777  0.2153 -0.4668  0.6817
 4963SOL     OW26347   2.181   2.782   1.288 -0.0905  0.3949 -0.5761
 4963SOL    HW126348   2.181   2.856   1.349  1.1754  1.1838 -1.5340
 4963SOL    HW226349   2.268   2.778   1.248  0.2598  0.2414  0.1979
 4964SOL     OW26350   4.286   2.686   5.224  0.1192 -0.2074 -0.2220
 4964SOL    HW126351   4.256   2.597   5.207 -0.9452 -0.2840  2.0692
 4964SOL    HW226352   4.378   2.671   5.202 -0.0146 -0.9155 -0.2788
 4965SOL     OW26353   1.899   2.993  15.127 -0.2118  0.1491 -0.6888
 4965SOL    HW126354   1.949   2.936  15.186 -0.3210 -1.7230 -2.4158
 4965SOL    HW226355   1.966   2.988  15.060 -0.2934 -1.1194 -0.6775
 4966SOL     OW26356   4.273   1.150  14.295 -0.0061  0.2781  0.0037
 4966SOL    HW126357   4.191   1.111  14.327  0.1380  0.7592  0.9505
 4966SOL    HW226358   4.332   1.075  14.296 -0.9072 -0.4874 -3.1187
 4967SOL     OW26359   0.343   2.540   7.866  0.0682  0.2642  0.0102
 4967SOL    HW126360   0.411   2.590   7.912  1.9626 -3.1576  0.9904
 4967SOL    HW226361   0.389   2.456   7.873 -4.5265 -2.3240 -1.1116
 4968SOL     OW26362   0.177   3.790  13.106 -0.4588 -0.2420  0.1598
 4968SOL    HW126363   0.175   3.886  13.113  0.8046 -0.4631  3.5975
 4968SOL    HW226364   0.242   3.766  13.039  0.2002 -0.0730  0.7385
 4969SOL     OW26365   0.202   4.524  16.755  0.1429 -0.0931 -0.0666
 4969SOL    HW126366   0.188   4.582  16.829 -1.1671 -2.8051  1.8221
 4969SOL    HW226367   0.141   4.540  16.682  1.1662  0.1428 -0.8677
 4970SOL     OW26368   0.394   4.370   5.766 -0.6028 -0.8106 -0.1181
 4970SOL    HW126369   0.385   4.318   5.686  0.3878  0.1313 -0.8503
 4970SOL    HW226370   0.434   4.449   5.730  0.9265 -1.7962 -0.5805
 4971SOL     OW26371   1.864   3.392   6.205  0.3692  0.2817 -0.2931
 4971SOL    HW126372   1.926   3.319   6.207 -2.6684 -2.2047  2.2404
 4971SOL    HW226373   1.807   3.359   6.136  2.2217 -2.4139 -0.5071
 4972SOL     OW26374   0.995   0.297  14.302 -0.0213  0.0782  0.0914
 4972SOL    HW126375   0.984   0.378  14.351 -3.2268 -1.6780  2.2831
 4972SOL    HW226376   1.010   0.235  14.374  0.0873  2.3040  1.9777
 4973SOL     OW26377   0.231   2.826   6.769 -0.1349 -0.1740  0.3284
 4973SOL    HW126378   0.197   2.912   6.794 -2.2088 -1.0606  0.5877
 4973SOL    HW226379   0.239   2.823   6.674  0.2770  1.2623  0.3203
 4974SOL     OW26380   1.613   4.701   5.720  0.2521  0.9835 -0.2910
 4974SOL    HW126381   1.552   4.722   5.790  0.8343 -0.6084  0.6961
 4974SOL    HW226382   1.569   0.025   5.650 -0.5151  1.5155  0.5492
 4975SOL     OW26383   1.209   0.654   4.744 -0.1945  0.1325  0.8150
 4975SOL    HW126384   1.147   0.714   4.702 -0.2794 -1.3232 -1.0952
 4975SOL    HW226385   1.283   0.715   4.746  0.1807 -0.2458 -1.9296
 4976SOL     OW26386   0.666   0.876   1.312 -0.3842 -0.1141 -0.5040
 4976SOL    HW126387   0.584   0.905   1.271 -0.4384 -0.1104 -0.3920
 4976SOL    HW226388   0.660   0.781   1.299  0.2057 -0.4783  1.9530
 4977SOL     OW26389   4.435   2.516   4.742  0.0282 -0.1668 -0.0365
 4977SOL    HW126390   4.350   2.500   4.783  0.2662 -0.5398  0.3241
 4977SOL    HW226391   4.480   2.559   4.814 -0.8485  2.1585 -0.8937
 4978SOL     OW26392   3.330   2.571   3.432 -0.0592  0.0854 -0.4982
 4978SOL    HW126393   3.262   2.561   3.365 -0.9864  0.6080  0.3731
 4978SOL    HW226394   3.305   2.501   3.493  1.5459 -1.3674 -1.5085
 4979SOL     OW26395   3.984   4.100   4.883 -0.4455 -0.0256  0.6348
 4979SOL    HW126396   4.001   4.150   4.803 -2.7859 -1.6094 -0.8450
 4979SOL    HW226397   3.951   4.154   4.956 -0.5770  0.8357 -0.0640
 4980SOL     OW26398   3.773   3.988   6.223  0.4350  0.2910  0.2144
 4980SOL    HW126399   3.713   3.983   6.297 -1.5938 -1.7786 -1.5938
 4980SOL    HW226400   3.718   3.958   6.151 -0.0260  1.0789  0.2390
 4981SOL     OW26401   2.828   0.822   1.343 -0.2032  0.0042  0.5696
 4981SOL    HW126402   2.736   0.846   1.342  0.1908  1.5502  0.8529
 4981SOL    HW226403   2.872   0.906   1.328  0.8288 -0.9409 -1.6832
 4982SOL     OW26404   1.492   0.389   3.504 -0.3526 -0.0656 -0.2154
 4982SOL    HW126405   1.507   0.453   3.574 -0.5409 -0.3806  0.1134
 4982SOL    HW226406   1.400   0.369   3.518 -0.3423 -0.5659 -0.8553
 4983SOL     OW26407   4.628   0.303   6.370 -0.3426  0.5898 -0.0333
 4983SOL    HW126408   4.655   0.315   6.278  2.5192  1.1705  0.8808
 4983SOL    HW226409   4.710   0.319   6.417 -0.0982 -2.4479  0.5367
 4984SOL     OW26410   1.094   2.171   6.636 -0.2346  0.0544  0.3019
 4984SOL    HW126411   1.059   2.221   6.709  0.1683  1.9061 -0.7814
 4984SOL    HW226412   1.159   2.115   6.678 -0.4580 -2.3980 -2.6567
 4985SOL     OW26413   0.117   0.596   7.000  0.3619 -0.6191 -0.0405
 4985SOL    HW126414   0.028   0.564   7.012 -1.3371  3.1731 -2.5814
 4985SOL    HW226415   0.101   0.682   7.039  1.3738 -0.8907  0.9968
 4986SOL     OW26416   1.889   4.052   9.482 -0.7520  0.7179 -0.5720
 4986SOL    HW126417   1.834   4.041   9.404  0.7844  1.9664 -1.8367
 4986SOL    HW226418   1.824   4.071   9.550  0.3498 -0.7200  0.8786
 4987SOL     OW26419   2.093   3.341  11.633  0.2265 -0.3383 -0.2208
 4987SOL    HW126420   2.160   3.355  11.565  0.1887 -0.3305 -0.2567
 4987SOL    HW226421   2.032   3.280  11.593  1.3992 -0.6037 -1.6143
 4988SOL     OW26422   4.557   3.033   7.187  0.6945 -0.7265 -0.4021
 4988SOL    HW126423   4.623   3.022   7.119  2.6360 -0.7579  1.4815
 4988SOL    HW226424   4.603   3.098   7.240  0.6489 -1.3206  0.3755
 4989SOL     OW26425   0.136   3.316   4.474 -0.5730  0.1898 -0.7458
 4989SOL    HW126426   0.190   3.331   4.397 -0.5480  2.4499 -0.3012
 4989SOL    HW226427   0.050   3.346   4.445 -0.4557  1.9167  0.6317
 4990SOL     OW26428   3.056   3.136   2.126 -0.3560  0.2983  0.3406
 4990SOL    HW126429   2.976   3.106   2.084 -0.3687 -1.3677  1.5464
 4990SOL    HW226430   3.066   3.070   2.195  1.0415  0.8309  0.6639
 4991SOL     OW26431   2.427   0.930  10.210 -0.1313 -0.0902 -0.3956
 4991SOL    HW126432   2.436   1.025  10.202 -2.9458  0.0595 -1.8624
 4991SOL    HW226433   2.334   0.922  10.229  0.1099 -0.5523  0.5543
 4992SOL     OW26434   3.898   4.059  13.768 -0.8519  0.0217 -0.2083
 4992SOL    HW126435   3.954   4.073  13.691  0.0084 -4.9095 -0.5072
 4992SOL    HW226436   3.818   4.092  13.727 -1.2879  0.5543  1.0874
 4993SOL     OW26437   3.437   2.407   6.237  0.3960 -0.1806  0.2907
 4993SOL    HW126438   3.494   2.335   6.264  1.1308  0.2317 -0.1881
 4993SOL    HW226439   3.388   2.356   6.171  1.3361 -0.6266 -0.0651
 4994SOL     OW26440   0.278   3.686   4.843 -0.4257 -0.1359  0.0749
 4994SOL    HW126441   0.336   3.639   4.903  2.2370  0.1529 -2.2983
 4994SOL    HW226442   0.274   3.621   4.773  1.7143 -2.4628  2.1244
 4995SOL     OW26443   3.381   0.481   5.205 -0.4044 -0.7355 -0.1592
 4995SOL    HW126444   3.387   0.544   5.133 -0.4356 -3.1450 -2.2642
 4995SOL    HW226445   3.289   0.503   5.221 -0.1797  0.8373 -0.9931
 4996SOL     OW26446   3.068   4.672   4.996 -0.1292  0.0588 -0.1018
 4996SOL    HW126447   3.034   4.652   5.083 -1.1404  0.2342 -0.4584
 4996SOL    HW226448   3.159   4.648   5.013  0.1978  1.2755 -0.0694
 4997SOL     OW26449   0.977   1.196  11.957 -0.2179 -0.2785  0.4474
 4997SOL    HW126450   1.013   1.156  11.877 -1.4970  1.8987 -1.2235
 4997SOL    HW226451   1.047   1.259  11.975 -1.3900  1.0503  0.2890
 4998SOL     OW26452   4.193   1.127  13.800  0.1803  0.0374 -0.7150
 4998SOL    HW126453   4.244   1.173  13.733  0.0604  1.7846  0.3720
 4998SOL    HW226454   4.198   1.185  13.876 -0.2829 -0.7853 -0.0519
 4999SOL     OW26455   4.522   4.477   3.346  0.7670  0.5148  0.4563
 4999SOL    HW126456   4.537   4.420   3.422  0.5850 -1.8924 -1.3247
 4999SOL    HW226457   4.580   4.551   3.360 -0.6319  1.7974 -0.5747
 5000SOL     OW26458   0.538   0.229   6.566  0.1820 -0.2748  0.5094
 5000SOL    HW126459   0.513   0.226   6.473 -0.5170 -0.5361  0.7110
 5000SOL    HW226460   0.549   0.137   6.591  0.2549 -0.0924  1.1464
 5001SOL     OW26461   1.156   3.962  12.949  0.0808  0.1051 -0.7779
 5001SOL    HW126462   1.152   3.958  12.854 -1.4102  0.8992 -0.7538
 5001SOL    HW226463   1.074   3.999  12.981  0.6884 -1.5293  2.7455
 5002SOL     OW26464   1.718   3.058   1.049  0.0426 -0.2123  0.4139
 5002SOL    HW126465   1.765   3.026   1.126  0.0406 -2.9106 -0.7144
 5002SOL    HW226466   1.672   2.979   1.019  0.6386 -0.2862 -0.3049
 5003SOL     OW26467   0.830   2.086   7.482 -0.4558 -0.2804 -0.1080
 5003SOL    HW126468   0.917   2.057   7.509 -0.1898 -0.0232 -0.6930
 5003SOL    HW226469   0.801   2.162   7.533  0.0331  1.5654 -2.5563
 5004SOL     OW26470   1.218   3.117   4.175  0.2032  0.8488  0.7385
 5004SOL    HW126471   1.140   3.074   4.140  0.8582 -1.0388  1.5855
 5004SOL    HW226472   1.277   3.047   4.147 -0.5268  1.0145 -1.2418
 5005SOL     OW26473   3.934   4.523   0.678  0.2696 -0.0073 -0.1111
 5005SOL    HW126474   3.889   4.475   0.609 -0.3081  2.8241 -1.6740
 5005SOL    HW226475   4.004   4.462   0.703 -2.0677 -1.1791  3.7614
 5006SOL     OW26476   3.159   3.917   6.438 -0.1460  0.0976  0.3377
 5006SOL    HW126477   3.085   3.951   6.488 -0.8053  0.8303 -1.1599
 5006SOL    HW226478   3.190   3.999   6.399 -0.3109  0.0807  0.1736
 5007SOL     OW26479   4.450   2.304   4.505 -0.2372  0.0682  0.0713
 5007SOL    HW126480   4.440   2.253   4.586  1.1742 -0.3373 -0.0046
 5007SOL    HW226481   4.492   2.380   4.546  0.1541  0.0853 -0.3723
 5008SOL     OW26482   1.978   1.235  13.811 -0.8126  0.8541 -0.3442
 5008SOL    HW126483   1.985   1.214  13.718 -0.7124  0.8923 -0.3453
 5008SOL    HW226484   1.907   1.300  13.804 -1.2100  0.6890  2.0576
 5009SOL     OW26485   4.204   3.554   8.348  0.2306  0.1355  0.2854
 5009SOL    HW126486   4.214   3.506   8.266 -0.1525  0.4101  0.0762
 5009SOL    HW226487   4.154   3.633   8.328 -2.0404 -1.1872  0.7791
 5010SOL     OW26488   3.795   2.361   3.277  0.1107 -0.1818  0.3700
 5010SOL    HW126489   3.743   2.356   3.196  0.3905 -0.2633  0.1954
 5010SOL    HW226490   3.860   2.427   3.252 -0.0084 -0.5690 -0.9665
 5011SOL     OW26491   2.725   0.908  16.555 -0.4645 -0.0240  0.1230
 5011SOL    HW126492   2.723   0.832  16.613 -0.4331  0.3372  0.6012
 5011SOL    HW226493   2.738   0.867  16.470  2.6525 -1.1789  1.1814
 5012SOL     OW26494   1.685   3.244   3.636  0.3611  0.5297 -0.3701
 5012SOL    HW126495   1.759   3.243   3.575  0.4099  1.2534 -0.3139
 5012SOL    HW226496   1.612   3.274   3.581  1.1810 -0.4938 -2.0060
 5013SOL     OW26497   0.010   3.186   2.779 -0.1004 -0.2222 -0.1583
 5013SOL    HW126498   0.067   3.218   2.849 -2.2330  0.8575  1.0523
 5013SOL    HW226499   4.652   3.194   2.828 -0.1307 -0.3458 -0.1875
 5014SOL     OW26500   0.110   1.242   5.944 -0.0990  0.2821  0.4604
 5014SOL    HW126501   0.170   1.276   5.878  1.0637 -1.4215  0.6505
 5014SOL    HW226502   0.044   1.312   5.949 -1.4702 -0.9377 -0.8288
 5015SOL     OW26503   1.701   2.333   9.740  0.3156  0.1636  0.4412
 5015SOL    HW126504   1.643   2.292   9.675 -0.2511  0.5496  0.7099
 5015SOL    HW226505   1.639   2.328   9.812  1.2716  0.2479  1.2672
 5016SOL     OW26506   3.707   2.549   4.018  0.4203 -0.4685  0.1812
 5016SOL    HW126507   3.647   2.600   3.963 -0.7887  0.0161  1.9586
 5016SOL    HW226508   3.666   2.558   4.104  0.2850 -2.2185  0.3022
 5017SOL     OW26509   2.118   1.805  12.184 -0.2251  0.0099 -0.1457
 5017SOL    HW126510   2.118   1.818  12.279 -1.9326 -0.7023 -0.0590
 5017SOL    HW226511   2.026   1.793  12.161  0.1022 -1.5357 -0.6303
 5018SOL     OW26512   3.505   3.117   0.930 -0.2701  0.2748 -0.3483
 5018SOL    HW126513   3.518   3.099   0.837 -1.5709 -0.4344 -0.3954
 5018SOL    HW226514   3.422   3.069   0.933 -1.2074  1.9064 -0.2251
 5019SOL     OW26515   0.941   2.821  15.561  0.1668  0.8012 -0.6943
 5019SOL    HW126516   1.010   2.828  15.495 -0.6427  1.2718 -1.4925
 5019SOL    HW226517   0.976   2.749  15.614 -0.9359  0.5360 -0.3163
 5020SOL     OW26518   1.886   1.493   4.102 -0.2417  0.2014  0.3166
 5020SOL    HW126519   1.827   1.550   4.052 -1.0691  1.6791  2.9884
 5020SOL    HW226520   1.904   1.551   4.176 -0.5502  0.5407  0.1251
 5021SOL     OW26521   3.194   2.730   4.680 -0.2503  0.4529 -0.0610
 5021SOL    HW126522   3.177   2.788   4.754  1.4827  1.5081 -0.4675
 5021SOL    HW226523   3.248   2.791   4.629 -0.6966  1.4668  0.6771
 5022SOL     OW26524   1.488   3.217   5.281 -0.4293  0.5654 -0.3028
 5022SOL    HW126525   1.564   3.265   5.250 -0.1464 -0.1631 -0.7486
 5022SOL    HW226526   1.476   3.156   5.208  1.1401  1.0127 -0.9337
 5023SOL     OW26527   3.343   4.471   8.921 -0.4579  0.3322 -0.0769
 5023SOL    HW126528   3.276   4.407   8.895 -0.8578  0.3403  0.9322
 5023SOL    HW226529   3.356   4.418   8.999 -0.2442 -1.4104 -1.2869
 5024SOL     OW26530   0.063   1.898  13.466  0.2433 -0.2905 -0.7561
 5024SOL    HW126531   0.086   1.982  13.506 -0.4963  0.9682 -2.9621
 5024SOL    HW226532   0.146   1.859  13.492 -0.7963 -1.3126  0.9720
 5025SOL     OW26533   3.701   2.096   7.604  0.3304 -0.1413  0.0303
 5025SOL    HW126534   3.689   2.189   7.624  0.5165  0.2974 -1.8859
 5025SOL    HW226535   3.791   2.072   7.626  1.1718  2.4170 -0.5368
 5026SOL     OW26536   1.730   4.253   4.757  0.1237  0.6873 -0.6442
 5026SOL    HW126537   1.778   4.234   4.837  1.0853 -0.4892 -1.4856
 5026SOL    HW226538   1.663   4.308   4.796 -0.0176 -0.0898  0.2185
 5027SOL     OW26539   4.140   0.434   3.457 -0.5004  0.0346 -0.3817
 5027SOL    HW126540   4.219   0.386   3.483 -0.0116  1.9469  1.7065
 5027SOL    HW226541   4.078   0.374   3.497  0.0104 -0.8800 -0.9612
 5028SOL     OW26542   3.712   0.806   6.258 -0.1166  0.1561  0.0623
 5028SOL    HW126543   3.804   0.830   6.268  0.0237  0.2843 -1.4667
 5028SOL    HW226544   3.711   0.720   6.216  0.0802 -0.8175  2.0520
 5029SOL     OW26545   0.079   1.048  15.327  0.7806  0.4927  0.0325
 5029SOL    HW126546   4.707   1.049  15.324  0.7867 -0.7040 -0.3246
 5029SOL    HW226547   0.097   1.033  15.420 -0.5353 -1.6918 -0.0557
 5030SOL     OW26548   3.636   1.178   6.966 -0.5196 -0.0636  0.1326
 5030SOL    HW126549   3.571   1.119   6.927  0.0696 -1.0598  0.6534
 5030SOL    HW226550   3.687   1.107   7.004  1.3455  1.3067  0.2142
 5031SOL     OW26551   2.456   0.767   6.872 -0.5971  0.0436 -0.1094
 5031SOL    HW126552   2.476   0.716   6.793  1.6015  0.4110  0.1888
 5031SOL    HW226553   2.368   0.740   6.895 -0.8793  1.5584  0.5923
 5032SOL     OW26554   0.471   1.608   0.621 -0.1088 -0.1725  0.0535
 5032SOL    HW126555   0.538   1.660   0.666  1.5127 -0.3018 -2.1648
 5032SOL    HW226556   0.469   1.524   0.668  1.5914 -0.5646 -0.5394
 5033SOL     OW26557   2.264   1.233  13.810  0.0008  0.1344 -0.2675
 5033SOL    HW126558   2.174   1.253  13.835  0.6931  2.6337  0.2086
 5033SOL    HW226559   2.301   1.308  13.763  2.8379  0.3680  2.3514
 5034SOL     OW26560   2.238   0.334   5.520  0.5558 -0.3230 -0.1583
 5034SOL    HW126561   2.177   0.407   5.520  2.7335  1.5043  0.2796
 5034SOL    HW226562   2.316   0.372   5.479  0.6898  0.6891  1.0302
 5035SOL     OW26563   2.929   0.282  16.141  0.0237 -0.1750  0.1670
 5035SOL    HW126564   2.939   0.189  16.158 -1.5818 -0.7468 -2.0353
 5035SOL    HW226565   2.982   0.294  16.062  3.2679 -0.3447  2.3118
 5036SOL     OW26566   4.108   3.497  13.949  0.3553  0.1134 -0.2718
 5036SOL    HW126567   4.032   3.481  13.894  0.1334  1.7988 -0.4647
 5036SOL    HW226568   4.141   3.411  13.974 -1.7372 -0.9057 -0.9925
 5037SOL     OW26569   2.293   3.002   7.073  0.1468 -0.4335 -0.0912
 5037SOL    HW126570   2.335   3.081   7.039 -1.4410  0.7750  0.7731
 5037SOL    HW226571   2.348   2.981   7.149  1.2539 -1.0083 -1.0522
 5038SOL     OW26572   2.386   4.260   7.164 -0.6714 -0.0864  0.0538
 5038SOL    HW126573   2.356   4.305   7.243  1.8980  4.3923 -1.5045
 5038SOL    HW226574   2.345   4.174   7.162 -0.1045 -0.3701  0.7524
 5039SOL     OW26575   0.355   2.944   4.308 -0.0517 -0.6819  0.4614
 5039SOL    HW126576   0.295   2.870   4.302 -1.7893  0.3863  4.0634
 5039SOL    HW226577   0.346   2.974   4.218 -0.3348 -1.7655  0.1368
 5040SOL     OW26578   1.327   4.561   4.882  0.5261 -0.3874 -0.1373
 5040SOL    HW126579   1.330   4.630   4.949  1.3587 -0.3590 -0.2081
 5040SOL    HW226580   1.341   4.617   4.806 -2.4027  1.9455  1.0093
 5041SOL     OW26581   0.858   0.376   0.143 -0.0206  0.0083 -0.2930
 5041SOL    HW126582   0.822   0.332   0.220  0.4936  0.3673  0.1498
 5041SOL    HW226583   0.833   0.315   0.072 -0.6761  1.7917 -1.6017
 5042SOL     OW26584   3.319   2.150  13.203  0.3900 -0.3777  0.3341
 5042SOL    HW126585   3.280   2.100  13.275 -0.4003  0.7473  0.6817
 5042SOL    HW226586   3.411   2.123  13.213  0.6637  0.2616 -0.4530
 5043SOL     OW26587   0.007   3.201   7.318  0.0674 -0.5784  0.5171
 5043SOL    HW126588   0.072   3.177   7.384  0.4964 -3.0514 -0.8199
 5043SOL    HW226589   4.699   3.289   7.339  0.9313 -0.3773  0.9371
 5044SOL     OW26590   2.429   0.767   4.782 -0.1689  0.4920 -0.2143
 5044SOL    HW126591   2.437   0.677   4.814 -1.0984  0.0437 -1.2361
 5044SOL    HW226592   2.447   0.807   4.867 -1.7530 -1.1936  0.9146
 5045SOL     OW26593   2.804   0.985   3.858  0.5366 -1.1618 -0.4334
 5045SOL    HW126594   2.865   1.049   3.895 -1.3846  0.3213  0.2102
 5045SOL    HW226595   2.746   0.974   3.933 -0.8937 -0.8334 -1.4906
 5046SOL     OW26596   0.493   2.193  13.043 -0.3754 -0.1690  0.4978
 5046SOL    HW126597   0.550   2.223  13.114  1.8319 -1.2768 -0.8303
 5046SOL    HW226598   0.411   2.219  13.085 -1.7993 -2.1418 -1.0692
 5047SOL     OW26599   4.183   0.493   3.031  1.0403 -0.2333  0.6207
 5047SOL    HW126600   4.244   0.554   3.072  0.9520 -1.1809  2.1647
 5047SOL    HW226601   4.232   0.411   3.021  0.0425 -0.6317 -0.9847
 5048SOL     OW26602   3.714   3.998   7.933 -0.4792  0.2041  0.7327
 5048SOL    HW126603   3.722   3.910   7.899  0.9956  1.1504 -1.3406
 5048SOL    HW226604   3.800   4.038   7.920 -0.1402 -0.5197  0.7720
 5049SOL     OW26605   3.078   3.030   0.586 -0.5231  0.2497 -0.0605
 5049SOL    HW126606   3.067   3.020   0.680  3.2082  1.8965  0.5402
 5049SOL    HW226607   3.145   2.969   0.557 -0.4425  0.3824 -0.1537
 5050SOL     OW26608   1.029   4.472   9.017  0.1159  0.0154 -0.5885
 5050SOL    HW126609   1.046   4.401   9.078 -1.5225  0.3889  0.3178
 5050SOL    HW226610   0.973   4.533   9.066 -1.7697 -1.6838 -0.6103
 5051SOL     OW26611   0.078   2.839   6.080 -0.1984  0.3004 -0.4132
 5051SOL    HW126612   0.131   2.879   6.149  1.2361 -2.1837 -0.0848
 5051SOL    HW226613   4.716   2.820   6.120  0.3749 -0.0426  0.6308
 5052SOL     OW26614   3.421   2.244  15.293 -0.0681 -0.3065  0.3478
 5052SOL    HW126615   3.463   2.207  15.216  1.9114  2.5618  0.0274
 5052SOL    HW226616   3.469   2.326  15.309 -0.9792  0.2648  0.1081
 5053SOL     OW26617   4.172   3.662  15.746  0.2728  0.3348  0.4664
 5053SOL    HW126618   4.181   3.645  15.652  0.8709 -1.1762  0.7969
 5053SOL    HW226619   4.252   3.628  15.785 -0.1696  0.4326  1.4541
 5054SOL     OW26620   3.259   2.360   5.113 -0.1733  0.4252  0.1180
 5054SOL    HW126621   3.292   2.422   5.048  2.1728  1.2461  2.1197
 5054SOL    HW226622   3.177   2.399   5.144 -0.6091  1.7808 -2.6846
 5055SOL     OW26623   2.402   1.369   9.732 -0.0760  0.4546  0.0261
 5055SOL    HW126624   2.355   1.447   9.704  0.8282  1.3006  0.8627
 5055SOL    HW226625   2.493   1.394   9.718 -0.7015  2.4520 -0.3701
 5056SOL     OW26626   4.174   3.273   0.034  0.5295  0.1907 -0.1852
 5056SOL    HW126627   4.265   3.251   0.014 -0.0034 -0.0513 -2.3498
 5056SOL    HW226628   4.135   3.185   0.035 -0.0074  0.4615  2.0734
 5057SOL     OW26629   2.387   3.949  16.874 -0.0064  0.0552 -0.5427
 5057SOL    HW126630   2.397   4.034  16.830 -0.0900 -0.7596 -2.1248
 5057SOL    HW226631   2.296   3.935  16.850  0.1867 -1.9156 -0.0970
 5058SOL     OW26632   3.540   0.534  12.166  0.0282 -0.0147  0.3458
 5058SOL    HW126633   3.509   0.574  12.247 -1.1329 -2.8043  1.2835
 5058SOL    HW226634   3.477   0.462  12.155  2.5069 -2.4604  2.3498
 5059SOL     OW26635   2.670   4.243   7.413  0.6307 -0.4713  0.6675
 5059SOL    HW126636   2.683   4.194   7.495  2.2239 -1.1485 -0.0070
 5059SOL    HW226637   2.606   4.188   7.367  0.6107 -1.7895  2.2428
 5060SOL     OW26638   2.468   4.631   4.868  0.0778 -0.3281  0.0525
 5060SOL    HW126639   2.427   4.668   4.946  1.1993 -3.9110  2.3755
 5060SOL    HW226640   2.421   4.547   4.867 -1.0822  0.3264  0.5927
 5061SOL     OW26641   3.702   3.687   3.892 -0.1550 -0.2060  0.0479
 5061SOL    HW126642   3.780   3.726   3.932  0.1900 -1.8169  0.9375
 5061SOL    HW226643   3.706   3.727   3.805  0.3147 -0.6891 -0.1492
 5062SOL     OW26644   1.568   0.643  11.662 -0.5036  0.0527 -0.0967
 5062SOL    HW126645   1.598   0.579  11.727  0.6728  0.6006 -0.1117
 5062SOL    HW226646   1.638   0.635  11.598 -0.3246 -0.7044  0.1839
 5063SOL     OW26647   3.495   0.184   4.232 -0.5156 -0.1312  0.3070
 5063SOL    HW126648   3.443   0.104   4.236  0.7890 -0.9193  1.3224
 5063SOL    HW226649   3.545   0.169   4.152 -1.8276  2.1952 -0.9510
 5064SOL     OW26650   0.557   1.421   6.970 -0.2519  0.3629  0.2744
 5064SOL    HW126651   0.508   1.407   7.051 -1.4200 -0.7917 -0.6376
 5064SOL    HW226652   0.510   1.495   6.931  2.3398  2.6818  1.5845
 5065SOL     OW26653   3.532   3.990   5.295 -0.0131  0.8135  0.3722
 5065SOL    HW126654   3.603   3.981   5.231 -2.3593 -1.0019 -1.9701
 5065SOL    HW226655   3.511   4.083   5.294 -1.5595  0.4693  1.8793
 5066SOL     OW26656   3.396   3.080   6.486 -0.5521 -0.5475 -0.0101
 5066SOL    HW126657   3.314   3.034   6.470 -0.8519  0.3376 -1.0124
 5066SOL    HW226658   3.375   3.164   6.527  0.5344 -0.1893 -0.2008
 5067SOL     OW26659   0.420   0.012   2.464  0.0211  0.2839 -0.2285
 5067SOL    HW126660   0.409   0.071   2.539 -0.6000 -0.4835  0.2761
 5067SOL    HW226661   0.508   4.697   2.470  0.5168  1.4318 -0.0354
 5068SOL     OW26662   1.686   1.710   3.088 -0.1276 -0.3652  0.2608
 5068SOL    HW126663   1.683   1.802   3.113 -0.4900  0.1067 -1.5252
 5068SOL    HW226664   1.748   1.716   3.015  2.1586  0.4872  2.2697
 5069SOL     OW26665   0.279   1.282   8.332 -0.5923 -0.5356 -0.1938
 5069SOL    HW126666   0.238   1.200   8.357 -2.5344  0.2378 -0.8590
 5069SOL    HW226667   0.371   1.261   8.317 -0.2797  1.0444 -0.4678
 5070SOL     OW26668   4.246   3.912   3.657 -0.7275  0.0846 -0.7201
 5070SOL    HW126669   4.306   3.932   3.586  0.4785 -2.0162 -0.2958
 5070SOL    HW226670   4.269   3.983   3.717 -0.9095 -0.0573 -0.4774
 5071SOL     OW26671   0.482   4.032   3.408  0.0013  0.2491  0.4106
 5071SOL    HW126672   0.477   4.113   3.358  0.3684 -1.1638 -1.9115
 5071SOL    HW226673   0.575   4.018   3.395  0.0154  0.4923  0.2563
 5072SOL     OW26674   0.378   3.619   0.011  0.5331  0.0855  0.0130
 5072SOL    HW126675   0.401   3.667   0.090 -0.6251  2.1197 -0.8626
 5072SOL    HW226676   0.397   3.687  17.642  3.0407  1.0500  1.7974
 5073SOL     OW26677   1.703   3.928   3.302 -0.2910  0.4697  0.6249
 5073SOL    HW126678   1.628   3.896   3.252  0.2998 -0.7935  0.5307
 5073SOL    HW226679   1.701   4.017   3.268  1.5663 -0.1057 -1.0452
 5074SOL     OW26680   1.910   0.247   6.219  0.2748 -0.6085 -0.1609
 5074SOL    HW126681   1.828   0.208   6.247 -0.5272  1.7010  0.7172
 5074SOL    HW226682   1.925   0.303   6.296  0.6856 -0.0979 -0.6068
 5075SOL     OW26683   2.049   0.229   0.479  0.3780  0.0559  0.4962
 5075SOL    HW126684   2.061   0.238   0.385 -0.5791  0.6725  0.4334
 5075SOL    HW226685   2.124   0.276   0.514 -0.9069  1.9513  0.6750
 5076SOL     OW26686   2.479   2.411   4.159  0.5555 -0.0750  0.6750
 5076SOL    HW126687   2.557   2.417   4.105  0.4133  1.6808  0.6808
 5076SOL    HW226688   2.503   2.336   4.213 -2.3786 -1.9504 -0.6225
 5077SOL     OW26689   1.087   1.849   5.014 -0.4541 -0.3539  0.0605
 5077SOL    HW126690   1.177   1.869   4.991 -0.6331 -1.1771 -1.3195
 5077SOL    HW226691   1.066   1.937   5.046 -2.1304 -0.9873  0.7484
 5078SOL     OW26692   3.683   3.337  11.910  0.1362 -0.0731  0.3575
 5078SOL    HW126693   3.602   3.383  11.885  0.6086 -0.3543 -1.7431
 5078SOL    HW226694   3.686   3.263  11.849 -1.7000  1.6814 -1.9225
 5079SOL     OW26695   0.023   4.362   0.443  0.0016 -0.1338  0.0255
 5079SOL    HW126696   0.056   4.433   0.389 -0.5058  0.5543  0.6208
 5079SOL    HW226697   4.693   4.314   0.379  0.3405  0.1693 -0.4845
 5080SOL     OW26698   1.912   4.181  16.649  0.6273  0.2736 -0.4674
 5080SOL    HW126699   1.865   4.244  16.704  2.6897 -0.5985  2.3042
 5080SOL    HW226700   1.981   4.149  16.708  0.1525 -1.1907 -0.7061
 5081SOL     OW26701   4.222   4.392   7.538 -0.4593  0.3565 -0.3448
 5081SOL    HW126702   4.269   4.445   7.474 -0.2032  0.2442 -0.2486
 5081SOL    HW226703   4.277   4.395   7.616 -1.6228  1.5915  0.4316
 5082SOL     OW26704   1.766   4.208   6.119  0.3431  0.7003 -0.3164
 5082SOL    HW126705   1.739   4.220   6.210 -1.0530 -2.1039 -0.3474
 5082SOL    HW226706   1.775   4.112   6.120 -0.3253  0.6383 -0.0415
 5083SOL     OW26707   3.070   3.647  14.685 -0.0811 -0.1160 -0.4068
 5083SOL    HW126708   3.150   3.693  14.659  0.5604 -0.6675  0.5818
 5083SOL    HW226709   3.026   3.614  14.607  0.7359 -0.1665 -0.8428
 5084SOL     OW26710   3.316   2.627   5.571  0.0198  0.2681 -0.4409
 5084SOL    HW126711   3.237   2.655   5.616  1.3075  0.1320  1.8942
 5084SOL    HW226712   3.348   2.565   5.636  1.2624 -1.0810 -2.3492
 5085SOL     OW26713   3.167   1.980   3.924  0.0531  0.2847 -0.2224
 5085SOL    HW126714   3.254   2.008   3.896  0.0239  0.0569 -0.5486
 5085SOL    HW226715   3.186   1.980   4.017  2.9708  1.3658 -0.8216
 5086SOL     OW26716   1.599   1.743  14.742 -0.2803  0.2867  0.7385
 5086SOL    HW126717   1.584   1.791  14.823 -2.2571 -0.9427  1.1028
 5086SOL    HW226718   1.693   1.723  14.737 -0.2750 -0.3669  3.3626
 5087SOL     OW26719   1.146   2.095   6.118  0.1238 -0.0015 -0.1335
 5087SOL    HW126720   1.127   2.056   6.204 -0.8643  1.1535  0.1771
 5087SOL    HW226721   1.166   2.010   6.080  0.3634 -0.2028  0.4380
 5088SOL     OW26722   2.148   2.572  11.174 -0.3481  0.1967 -0.5142
 5088SOL    HW126723   2.137   2.485  11.211 -0.9720  0.1970 -0.6963
 5088SOL    HW226724   2.228   2.551  11.126 -0.6099 -0.2716 -0.7443
 5089SOL     OW26725   1.767   0.611   0.728  0.4324 -0.1121  0.3318
 5089SOL    HW126726   1.818   0.578   0.801  0.2041 -0.6167  0.2615
 5089SOL    HW226727   1.804   0.573   0.649 -0.6530 -0.9354  0.2208
 5090SOL     OW26728   1.346   0.926   2.504 -0.5382  0.3654 -0.0223
 5090SOL    HW126729   1.318   0.917   2.595  3.0102 -0.3767  1.0034
 5090SOL    HW226730   1.417   0.862   2.493 -0.7704  0.3282 -1.3364
 5091SOL     OW26731   1.466   2.185   1.393 -0.0013  0.3241  0.2439
 5091SOL    HW126732   1.480   2.227   1.308  0.3847 -2.3638 -1.0258
 5091SOL    HW226733   1.550   2.140   1.405  0.8964  1.8523 -0.2799
 5092SOL     OW26734   2.182   0.220   6.104 -0.3829 -0.7080 -0.3331
 5092SOL    HW126735   2.111   0.225   6.168  0.8182  0.8439  0.8599
 5092SOL    HW226736   2.134   0.252   6.027  0.9144  1.0680 -0.4022
 5093SOL     OW26737   4.642   0.076   3.753  0.0338 -0.0526  0.2136
 5093SOL    HW126738   4.602   0.158   3.779  0.5973 -0.4015  2.1848
 5093SOL    HW226739   4.694   0.098   3.675 -1.4093  1.1043 -0.4058
 5094SOL     OW26740   2.142   0.574   5.564 -0.3841 -0.4156  1.2604
 5094SOL    HW126741   2.169   0.565   5.655  2.2157  1.5355  0.6967
 5094SOL    HW226742   2.197   0.648   5.535 -1.6304  0.3714  0.8968
 5095SOL     OW26743   0.068   1.270   4.806 -0.4749  0.1416  0.3280
 5095SOL    HW126744   0.149   1.304   4.768 -0.5195  0.2964  0.3712
 5095SOL    HW226745   0.004   1.339   4.786 -0.4292 -0.2081 -1.0635
 5096SOL     OW26746   1.072   0.300   5.301 -0.2864  0.1831 -0.4989
 5096SOL    HW126747   1.161   0.334   5.294  0.1567 -0.5858  1.3843
 5096SOL    HW226748   1.052   0.297   5.207 -0.6266  3.4902 -0.5451
 5097SOL     OW26749   1.991   4.373  13.816 -0.4347  0.0853 -0.3008
 5097SOL    HW126750   2.011   4.389  13.724  0.5869  0.3561 -0.0282
 5097SOL    HW226751   2.055   4.307  13.840 -2.4300 -1.5407  0.5774
 5098SOL     OW26752   4.488   2.869   1.794  0.0527  0.4100  0.9236
 5098SOL    HW126753   4.504   2.779   1.823 -0.6733 -0.6839 -2.1343
 5098SOL    HW226754   4.512   2.864   1.702  0.6690  3.7707  0.8737
 5099SOL     OW26755   2.450   1.780   9.299  0.5768  0.1275 -0.1514
 5099SOL    HW126756   2.427   1.856   9.353  0.4305  0.4691 -0.7031
 5099SOL    HW226757   2.543   1.777   9.320  0.6523 -2.3827 -0.8137
 5100SOL     OW26758   0.002   2.605   2.046 -0.7340  0.1214 -0.5626
 5100SOL    HW126759   4.659   2.562   1.991 -3.0731  0.7059  1.8587
 5100SOL    HW226760   0.073   2.606   1.981  0.0034  0.8824  0.2631
 5101SOL     OW26761   2.987   0.742   6.884  0.2613  0.2881  0.5663
 5101SOL    HW126762   2.976   0.653   6.852  1.6472  0.8421 -1.4850
 5101SOL    HW226763   2.904   0.774   6.850  1.2934  0.6813 -1.5490
 5102SOL     OW26764   1.302   2.947   1.519  0.5029  0.3645  0.8468
 5102SOL    HW126765   1.354   2.968   1.441  1.0557 -0.1207  1.0826
 5102SOL    HW226766   1.291   3.031   1.564  0.5547  1.3672 -0.9878
 5103SOL     OW26767   2.786   0.579   7.169  0.6695 -0.0551  0.7566
 5103SOL    HW126768   2.739   0.555   7.089 -1.3603  0.3975  1.7950
 5103SOL    HW226769   2.875   0.548   7.156  0.5374 -0.5211  0.9715
 5104SOL     OW26770   1.239   4.068   5.431 -0.0488 -0.6898  0.4056
 5104SOL    HW126771   1.228   4.157   5.396 -2.6680 -1.6774 -1.2683
 5104SOL    HW226772   1.233   4.069   5.526  2.7844 -0.9209  0.5714
 5105SOL     OW26773   3.319   1.752   7.026 -0.2081 -0.1520  0.3074
 5105SOL    HW126774   3.253   1.702   6.978 -0.5200 -1.5849  2.2154
 5105SOL    HW226775   3.342   1.825   6.968 -1.7322  1.0440  1.1890
 5106SOL     OW26776   1.873   3.987   6.520 -0.2163 -0.0901 -0.2641
 5106SOL    HW126777   1.818   4.054   6.562  0.4829  1.1345 -1.2891
 5106SOL    HW226778   1.807   3.921   6.500  0.7674 -0.5342 -2.0417
 5107SOL     OW26779   3.676   3.087  11.809  0.3749  0.1965  0.5798
 5107SOL    HW126780   3.582   3.082  11.822  0.2814  2.7268  1.0340
 5107SOL    HW226781   3.672   3.109  11.716  0.9409 -3.8072 -0.3677
 5108SOL     OW26782   4.337   1.906   7.716 -0.7896  0.0197 -0.0865
 5108SOL    HW126783   4.260   1.850   7.705 -0.1573 -0.6604 -0.9660
 5108SOL    HW226784   4.398   1.859   7.772  0.1977  1.2519 -0.1353
 5109SOL     OW26785   3.333   4.663  15.731 -0.5074 -0.6645 -0.2829
 5109SOL    HW126786   3.342   4.600  15.803 -1.8454  0.4570  0.8686
 5109SOL    HW226787   3.355   4.618  15.650  0.4604 -0.8333  0.0681
 5110SOL     OW26788   2.479   2.263   6.781 -0.2582  0.7667 -0.4452
 5110SOL    HW126789   2.460   2.327   6.713  2.6820  1.7797 -0.3176
 5110SOL    HW226790   2.544   2.213   6.731 -0.5190  0.5612 -0.5774
 5111SOL     OW26791   0.768   1.208   4.938  0.2284  0.3498  0.6760
 5111SOL    HW126792   0.811   1.155   4.871 -2.5693  0.7487 -1.4154
 5111SOL    HW226793   0.710   1.151   4.989  1.8120 -0.3664  1.6855
 5112SOL     OW26794   1.018   2.362   7.494  0.1120  0.4223  0.3959
 5112SOL    HW126795   1.051   2.401   7.575 -0.2293  0.5691  0.4625
 5112SOL    HW226796   1.024   2.435   7.433  0.8655  0.0849  0.0604
 5113SOL     OW26797   0.783   2.831   7.273  0.5073 -0.0403  0.4634
 5113SOL    HW126798   0.709   2.783   7.235 -0.0811 -0.2446  1.8495
 5113SOL    HW226799   0.803   2.899   7.210 -2.0933 -1.6491 -2.1180
 5114SOL     OW26800   4.187   3.844  16.790 -0.3504  0.3609  0.2097
 5114SOL    HW126801   4.154   3.843  16.700  0.8312  0.1649 -0.2141
 5114SOL    HW226802   4.281   3.828  16.781 -0.2999  0.9133 -0.2395
 5115SOL     OW26803   2.276   1.529   0.228 -0.0222 -0.5503  0.0904
 5115SOL    HW126804   2.183   1.516   0.209 -0.0874  0.4545 -0.3068
 5115SOL    HW226805   2.297   1.581   0.150 -2.5569  0.1749 -0.1319
 5116SOL     OW26806   3.512   1.710   3.601 -0.3472  0.6242 -0.4942
 5116SOL    HW126807   3.525   1.740   3.511 -1.5920 -1.7405 -1.4666
 5116SOL    HW226808   3.460   1.785   3.631  0.4430  0.6652  0.7701
 5117SOL     OW26809   0.486   2.067   9.987 -0.3412 -0.3779  0.2029
 5117SOL    HW126810   0.548   2.051  10.058 -1.0751  2.4765  1.5003
 5117SOL    HW226811   0.414   2.104  10.038  0.2302  1.7955 -0.6144
 5118SOL     OW26812   0.810   1.288   0.351  0.1976  1.3249 -0.2241
 5118SOL    HW126813   0.887   1.234   0.366 -0.8657 -0.5627 -1.5861
 5118SOL    HW226814   0.823   1.361   0.411  1.3158  0.6022  0.4169
 5119SOL     OW26815   4.217   2.539  13.303 -0.5301 -0.1799 -0.0590
 5119SOL    HW126816   4.204   2.444  13.302  1.0420 -0.3804 -0.5722
 5119SOL    HW226817   4.127   2.570  13.317  0.2992  1.1892  2.2030
 5120SOL     OW26818   3.001   3.584   6.943 -0.7188 -0.2746 -0.8018
 5120SOL    HW126819   3.085   3.623   6.919  1.0106 -2.2509  2.1115
 5120SOL    HW226820   2.936   3.649   6.914  2.0481  1.8952 -2.1321
 5121SOL     OW26821   0.086   4.499   4.452  0.6852 -0.0863  0.0225
 5121SOL    HW126822   0.140   4.495   4.373 -2.2413 -2.0722 -1.8789
 5121SOL    HW226823   0.014   4.440   4.432  1.7735 -1.0020 -1.2341
 5122SOL     OW26824   2.095   1.058  10.958  0.0895 -0.4829  0.3448
 5122SOL    HW126825   2.083   1.127  11.023  1.2989  0.4264 -0.4011
 5122SOL    HW226826   2.187   1.033  10.966  0.7243  1.6736 -0.1583
 5123SOL     OW26827   2.967   0.615   2.705  0.0101 -0.3119 -0.3042
 5123SOL    HW126828   2.945   0.676   2.635  1.1279  0.7105  0.2381
 5123SOL    HW226829   3.062   0.626   2.709 -0.4741  3.3598  0.5078
 5124SOL     OW26830   0.498   3.029   5.855 -0.1629 -0.0011  0.6278
 5124SOL    HW126831   0.430   2.961   5.845  0.3766 -0.4197 -0.2492
 5124SOL    HW226832   0.490   3.043   5.949 -0.8686  0.4495  0.5072
 5125SOL     OW26833   3.090   0.890   6.099  0.2617 -0.2367  0.9505
 5125SOL    HW126834   3.034   0.842   6.039  0.2759 -0.3533  1.0296
 5125SOL    HW226835   3.176   0.855   6.075  0.3392  0.0624  0.7949
 5126SOL     OW26836   4.134   4.171   6.942 -0.0663  0.2151  0.0902
 5126SOL    HW126837   4.056   4.149   6.993  1.4147 -1.0757  1.8021
 5126SOL    HW226838   4.091   4.167   6.857 -0.1678  0.1193  0.1461
 5127SOL     OW26839   3.877   1.841   9.600  0.0535 -0.5012 -0.0925
 5127SOL    HW126840   3.914   1.815   9.516 -0.9704  2.3207 -1.4144
 5127SOL    HW226841   3.885   1.936   9.592  0.0884 -0.6332 -1.6278
 5128SOL     OW26842   0.108   0.876  13.519  0.3058  0.0929  0.2830
 5128SOL    HW126843   0.188   0.913  13.556 -0.0483 -1.3926  2.5574
 5128SOL    HW226844   0.136   0.789  13.489  0.0010  0.1535 -0.1925
 5129SOL     OW26845   1.362   2.584   3.898  0.4682  0.0324 -0.1412
 5129SOL    HW126846   1.314   2.515   3.944  0.1417  0.6940  0.5110
 5129SOL    HW226847   1.435   2.598   3.959  1.1026 -2.0590 -0.4442
 5130SOL     OW26848   2.350   2.189   8.064 -0.5591 -0.6214 -0.0013
 5130SOL    HW126849   2.290   2.207   7.991  0.1524 -2.5630 -1.0734
 5130SOL    HW226850   2.416   2.258   8.066 -0.5425 -0.6548  0.4788
 5131SOL     OW26851   3.278   1.772   2.709 -0.0210  0.1748  0.3709
 5131SOL    HW126852   3.290   1.682   2.679 -1.3823 -0.4298  1.6307
 5131SOL    HW226853   3.311   1.825   2.637 -1.1663  0.0494 -0.2309
 5132SOL     OW26854   1.296   2.089   0.324 -0.2898  0.0488  0.0907
 5132SOL    HW126855   1.234   2.155   0.356 -0.7218 -0.1076 -0.4237
 5132SOL    HW226856   1.287   2.025   0.395  1.1209 -0.1063  0.1314
 5133SOL     OW26857   3.296   2.179   8.062  0.1069 -0.2368  0.0872
 5133SOL    HW126858   3.283   2.084   8.055  2.2867 -0.3591 -2.2077
 5133SOL    HW226859   3.391   2.174   8.058  0.0709 -0.9272 -0.0051
 5134SOL     OW26860   0.257   1.142   1.872 -0.2217 -0.2963  0.3364
 5134SOL    HW126861   0.251   1.234   1.900 -1.3423 -0.0841 -0.6108
 5134SOL    HW226862   0.297   1.106   1.951  1.3185  1.0172  0.1752
 5135SOL     OW26863   4.486   3.505   3.424 -0.0234 -0.4654 -0.2550
 5135SOL    HW126864   4.488   3.503   3.519  2.7376  0.1558 -0.3084
 5135SOL    HW226865   4.396   3.538   3.417  0.3762  0.8104  0.4856
 5136SOL     OW26866   2.601   4.129   6.268  0.5175  0.4074  0.2937
 5136SOL    HW126867   2.527   4.128   6.207 -1.5168 -2.7766  2.8417
 5136SOL    HW226868   2.657   4.057   6.237 -0.9355 -0.8336  0.5637
 5137SOL     OW26869   3.483   1.347   2.456  0.2550 -0.3926  0.2440
 5137SOL    HW126870   3.476   1.258   2.421  0.6720 -0.8324  1.3068
 5137SOL    HW226871   3.449   1.343   2.545 -1.5674 -2.9055 -0.5380
 5138SOL     OW26872   2.868   4.458   5.206  0.1462 -0.1869 -0.3156
 5138SOL    HW126873   2.809   4.532   5.190 -1.4864 -1.3421  0.4658
 5138SOL    HW226874   2.819   4.382   5.176 -1.7488  1.0580 -0.3848
 5139SOL     OW26875   4.296   1.175  17.002  0.4852  0.7697  0.1524
 5139SOL    HW126876   4.367   1.226  16.962  1.7187 -1.6419 -0.6890
 5139SOL    HW226877   4.308   1.098  16.946 -0.8914 -0.1249  1.1047
 5140SOL     OW26878   3.437   4.252   3.860  0.3149  0.1447  0.0362
 5140SOL    HW126879   3.381   4.175   3.856  0.7780 -0.2241  0.5189
 5140SOL    HW226880   3.518   4.203   3.878  0.1499 -0.4516 -0.8432
 5141SOL     OW26881   2.469   4.474  15.976 -0.7363  1.2161  0.3337
 5141SOL    HW126882   2.480   4.435  16.062 -1.2504  0.5855  0.1112
 5141SOL    HW226883   2.547   4.528  15.962 -1.9656  2.7859 -0.5235
 5142SOL     OW26884   1.135   4.546  17.067 -0.0040 -0.5765  0.1520
 5142SOL    HW126885   1.091   4.464  17.042 -0.3955 -0.3886  0.2147
 5142SOL    HW226886   1.070   4.573  17.132 -1.5240 -0.2711 -1.4806
 5143SOL     OW26887   0.816   0.711   6.942  0.2711  0.8364 -0.5961
 5143SOL    HW126888   0.828   0.641   6.877 -0.3874  0.6748 -0.5415
 5143SOL    HW226889   0.793   0.662   7.021 -0.8789  1.2800 -0.6615
 5144SOL     OW26890   4.549   2.123   1.976 -0.4670  0.7758  0.0865
 5144SOL    HW126891   4.495   2.146   1.901  0.3225  0.8833 -0.4385
 5144SOL    HW226892   4.485   2.115   2.047  1.7863 -0.3960  1.9721
 5145SOL     OW26893   2.371   2.850   3.461 -0.1306  0.2547 -0.3025
 5145SOL    HW126894   2.342   2.807   3.542 -1.1635  1.0343 -0.2621
 5145SOL    HW226895   2.441   2.793   3.429 -0.1045  0.6469 -0.9210
 5146SOL     OW26896   0.886   0.038  11.266 -0.3719 -0.1549 -0.2836
 5146SOL    HW126897   0.795   0.035  11.236 -0.0120 -0.2606 -1.3582
 5146SOL    HW226898   0.917   0.031  11.176  0.3214  0.6448 -0.1134
 5147SOL     OW26899   2.479   1.487   5.631 -0.3148  0.4474  0.5734
 5147SOL    HW126900   2.450   1.493   5.722  1.1712 -0.9295  1.1452
 5147SOL    HW226901   2.574   1.494   5.641 -0.5516  2.5517  1.3960
 5148SOL     OW26902   1.957   1.273  12.030  0.9687  0.3132 -0.4978
 5148SOL    HW126903   1.944   1.350  11.974 -0.3830  0.4771  0.0327
 5148SOL    HW226904   1.895   1.301  12.097  2.9421 -1.4004  2.0017
 5149SOL     OW26905   4.575   1.216   7.735 -0.3527 -0.1117  0.7339
 5149SOL    HW126906   4.620   1.150   7.788  0.2297 -1.2718 -1.1992
 5149SOL    HW226907   4.561   1.152   7.665  1.2297  0.6385 -0.2580
 5150SOL     OW26908   2.066   0.377   1.655 -0.0140  0.3024 -0.3248
 5150SOL    HW126909   1.974   0.349   1.655  0.7118 -2.0744  0.0918
 5150SOL    HW226910   2.103   0.334   1.732 -2.5235 -0.7467  0.2910
 5151SOL     OW26911   2.690   3.177   5.553  0.2082  0.4516  0.2991
 5151SOL    HW126912   2.645   3.255   5.583  0.8772  1.0680 -0.2796
 5151SOL    HW226913   2.652   3.112   5.612  0.8382 -1.1771 -1.0873
 5152SOL     OW26914   0.568   1.829   8.169  0.2444 -0.1061 -0.3814
 5152SOL    HW126915   0.535   1.883   8.097  0.3731  0.0139 -0.3486
 5152SOL    HW226916   0.661   1.849   8.166  0.2948 -0.4079 -0.9923
 5153SOL     OW26917   0.468   0.633  17.456 -0.0838 -0.2579  1.0627
 5153SOL    HW126918   0.489   0.715  17.502 -0.8102  0.7386 -0.4132
 5153SOL    HW226919   0.375   0.619  17.473 -0.5179  1.6021  0.1786
 5154SOL     OW26920   0.164   3.655  12.387  0.0477  0.3496  0.1116
 5154SOL    HW126921   0.083   3.700  12.361  0.0691  0.1609 -0.2847
 5154SOL    HW226922   0.151   3.616  12.473 -0.0701  0.6804  0.2450
 5155SOL     OW26923   1.523   1.956   3.155  0.0138  0.1981 -0.3038
 5155SOL    HW126924   1.477   2.029   3.195 -1.6690 -1.2785  0.4398
 5155SOL    HW226925   1.609   1.998   3.148 -0.2011  0.6567 -0.2069
 5156SOL     OW26926   2.387   1.680  12.222 -0.3669  0.1941 -0.1908
 5156SOL    HW126927   2.301   1.716  12.242 -0.8567  0.2480 -2.4214
 5156SOL    HW226928   2.353   1.590  12.223 -0.7485  0.3522  1.3206
 5157SOL     OW26929   3.238   0.584   4.335  0.4328 -0.3034 -0.0922
 5157SOL    HW126930   3.193   0.511   4.292 -0.0383 -0.9137  1.4223
 5157SOL    HW226931   3.248   0.549   4.424 -1.3381 -1.1034 -0.2030
 5158SOL     OW26932   3.281   3.380   7.796  0.1874 -0.2477  0.5492
 5158SOL    HW126933   3.252   3.396   7.886  1.3934  0.2006  0.8607
 5158SOL    HW226934   3.301   3.467   7.762  1.4998 -0.5474  0.5549
 5159SOL     OW26935   3.118   3.386   2.267  0.2337  0.6256 -0.3078
 5159SOL    HW126936   3.079   3.305   2.234  0.4098  0.9407 -1.3068
 5159SOL    HW226937   3.065   3.397   2.346 -0.1961 -0.5072 -0.4405
 5160SOL     OW26938   2.517   1.895   2.307 -0.1567  0.0800 -0.0922
 5160SOL    HW126939   2.463   1.863   2.379  0.7546 -1.4742 -0.0799
 5160SOL    HW226940   2.455   1.941   2.250  0.1723  1.0905  0.3709
 5161SOL     OW26941   4.094   4.545   8.831 -0.4022  1.1729 -0.2719
 5161SOL    HW126942   4.026   4.479   8.841 -1.5686  2.2290 -1.2482
 5161SOL    HW226943   4.171   4.489   8.824 -0.9435  0.3278  0.4216
 5162SOL     OW26944   4.564   4.148   7.414  0.3354 -0.3906 -0.0148
 5162SOL    HW126945   4.600   4.167   7.328  1.0184 -0.5245  0.2353
 5162SOL    HW226946   4.539   4.237   7.437 -0.5743 -0.9541  1.2324
 5163SOL     OW26947   3.994   1.604   3.258 -0.4197 -0.4660  0.3789
 5163SOL    HW126948   3.972   1.667   3.326 -1.4720 -1.5626  1.0570
 5163SOL    HW226949   3.979   1.519   3.299 -2.2967 -0.3878 -0.1743
 5164SOL     OW26950   3.517   1.183   2.786 -0.1609  0.4812 -0.2630
 5164SOL    HW126951   3.456   1.251   2.759 -2.5455 -0.3059  3.1113
 5164SOL    HW226952   3.477   1.136   2.859 -0.8552  1.2442 -0.1496
 5165SOL     OW26953   0.600   1.121   5.166  0.1148  0.0086  0.2350
 5165SOL    HW126954   0.567   1.206   5.194 -0.4247  0.3601 -1.4468
 5165SOL    HW226955   0.629   1.091   5.252  2.0701  0.9651 -0.1028
 5166SOL     OW26956   2.491   3.109   3.424  0.0056  0.1330  0.2989
 5166SOL    HW126957   2.439   3.030   3.443 -0.9284  0.3712 -1.3100
 5166SOL    HW226958   2.568   3.077   3.377  0.4489  2.1393 -0.3037
 5167SOL     OW26959   1.303   3.972   8.539 -0.4879 -0.1998 -0.0215
 5167SOL    HW126960   1.242   3.965   8.612 -3.0578 -0.2082 -2.1927
 5167SOL    HW226961   1.263   4.013   8.463  1.2120 -0.6615 -1.1741
 5168SOL     OW26962   1.810   2.857   8.584 -0.4549  0.2523  0.0150
 5168SOL    HW126963   1.782   2.844   8.493 -0.2287  1.0313 -0.1734
 5168SOL    HW226964   1.836   2.767   8.598  1.5015  0.8834  0.3978
 5169SOL     OW26965   4.055   4.520   5.794  0.1719  0.5714  0.2645
 5169SOL    HW126966   3.985   4.467   5.754  0.3266 -0.4598  1.3597
 5169SOL    HW226967   4.131   4.469   5.767 -0.1527 -0.0308  0.4772
 5170SOL     OW26968   0.714   0.221   7.117 -0.0531 -0.1784 -0.1063
 5170SOL    HW126969   0.793   0.171   7.139 -1.5420 -2.1916  0.6395
 5170SOL    HW226970   0.637   0.170   7.139 -0.5922  0.4408 -0.5570
 5171SOL     OW26971   1.099   1.949  15.480 -0.2227  0.2320  0.4688
 5171SOL    HW126972   1.014   1.992  15.467 -0.7951 -1.3288 -0.9151
 5171SOL    HW226973   1.102   1.934  15.574 -3.3480 -1.2986  0.3334
 5172SOL     OW26974   4.347   4.377   1.865  0.4749  0.3535  0.7719
 5172SOL    HW126975   4.427   4.416   1.900  0.6165  0.1838  0.6417
 5172SOL    HW226976   4.286   4.389   1.938 -0.5811  0.3704 -0.1177
 5173SOL     OW26977   3.912   3.434   7.336  0.1735 -0.2437 -0.0967
 5173SOL    HW126978   3.984   3.435   7.399 -1.5370  1.9890  1.8173
 5173SOL    HW226979   3.857   3.370   7.380  1.0888  0.5326  2.1714
 5174SOL     OW26980   2.678   3.383   6.613  0.9004  0.1509 -0.1363
 5174SOL    HW126981   2.698   3.425   6.530  1.4731  0.4006  0.1308
 5174SOL    HW226982   2.765   3.382   6.654  1.0747  1.4921 -0.4903
 5175SOL     OW26983   1.371   2.610   1.352 -0.2206  0.2075 -0.2737
 5175SOL    HW126984   1.444   2.631   1.410 -0.0444 -0.4409 -0.2644
 5175SOL    HW226985   1.368   2.514   1.353  2.3790  0.1778  4.8436
 5176SOL     OW26986   0.696   3.178  14.216  0.2261 -0.3475  0.3872
 5176SOL    HW126987   0.723   3.269  14.208 -1.9950  0.1939 -0.8879
 5176SOL    HW226988   0.618   3.173  14.161  1.4481  0.8317 -1.4511
 5177SOL     OW26989   4.460   2.188   6.815  0.3857  0.0640  0.5789
 5177SOL    HW126990   4.370   2.167   6.793  0.0281  3.3193 -1.0708
 5177SOL    HW226991   4.456   2.283   6.824 -0.2099  0.0429  0.5309
 5178SOL     OW26992   3.882   0.201   9.890  0.0595  0.2882  0.4874
 5178SOL    HW126993   3.814   0.177   9.953 -0.3288 -0.3779 -0.1758
 5178SOL    HW226994   3.936   0.123   9.899  1.1393  1.1967  1.7756
 5179SOL     OW26995   3.475   2.015   6.121  0.3464 -0.3504  0.1542
 5179SOL    HW126996   3.435   1.952   6.181 -2.6451 -0.9963 -2.4991
 5179SOL    HW226997   3.543   2.060   6.171  0.7319  0.3394 -0.9905
 5180SOL     OW26998   1.243   4.011   1.170 -0.7753 -0.4305  0.4547
 5180SOL    HW126999   1.169   3.957   1.143 -0.1725 -0.1669 -1.7606
 5180SOL    HW227000   1.283   3.963   1.242  1.1752 -1.3409 -1.2235
 5181SOL     OW27001   3.392   0.807   7.444  0.3790  0.5760 -0.3018
 5181SOL    HW127002   3.357   0.831   7.530 -0.2472 -3.3125  0.5048
 5181SOL    HW227003   3.472   0.760   7.468 -2.6871 -3.2300  2.5570
 5182SOL     OW27004   2.736   0.777   6.793 -0.3208  0.0100  0.1962
 5182SOL    HW127005   2.647   0.788   6.827 -0.5704 -0.3000 -0.3704
 5182SOL    HW227006   2.729   0.687   6.762 -1.0589 -0.3036  1.2862
 5183SOL     OW27007   0.651   3.015   1.273 -0.3219  0.8739  0.5227
 5183SOL    HW127008   0.658   3.016   1.177 -1.7417 -0.9894  0.3973
 5183SOL    HW227009   0.720   3.079   1.291 -1.6321  2.0366  1.3749
 5184SOL     OW27010   4.660   1.121   1.952  0.3527  0.5657  0.0847
 5184SOL    HW127011   4.682   1.032   1.980  0.1289 -0.1008 -1.8590
 5184SOL    HW227012   0.004   1.145   1.888  0.2257  0.4699 -0.0869
 5185SOL     OW27013   1.602   2.045   2.505  0.0468  0.4043  0.7721
 5185SOL    HW127014   1.649   2.126   2.526 -2.1163  2.5201 -2.6247
 5185SOL    HW227015   1.669   1.979   2.526 -0.4266 -0.4651 -0.4812
 5186SOL     OW27016   2.714   2.217   8.261  0.0502 -0.1832 -0.6450
 5186SOL    HW127017   2.797   2.172   8.245 -0.2071 -1.5474  1.8614
 5186SOL    HW227018   2.668   2.136   8.285 -1.8982  1.6194  1.6081
 5187SOL     OW27019   0.364   4.270   6.648 -0.2856 -0.0598 -0.1634
 5187SOL    HW127020   0.311   4.344   6.677  0.8248 -0.3284  2.4775
 5187SOL    HW227021   0.415   4.250   6.727 -1.9434  0.9218  1.1435
 5188SOL     OW27022   4.557   2.963   4.714  0.2757  0.1935  0.2634
 5188SOL    HW127023   4.574   3.058   4.714 -0.0820  0.2570  1.4521
 5188SOL    HW227024   4.645   2.934   4.739  0.1536 -2.1141 -1.9375
 5189SOL     OW27025   0.283   2.755  13.307 -0.1362 -0.2217  0.6446
 5189SOL    HW127026   0.211   2.695  13.284  0.1742  0.0052 -0.9254
 5189SOL    HW227027   0.260   2.833  13.257 -3.2479 -0.5870  1.4794
 5190SOL     OW27028   3.131   0.186   7.616 -0.0302 -0.4809  0.2716
 5190SOL    HW127029   3.138   0.092   7.602  1.0294 -0.2679 -0.6119
 5190SOL    HW227030   3.062   0.191   7.682 -2.2570  0.1380 -2.1286
 5191SOL     OW27031   4.076   2.406   5.786  0.0143 -0.5540 -0.2488
 5191SOL    HW127032   4.141   2.424   5.719  0.1869  1.2207  0.3988
 5191SOL    HW227033   3.995   2.392   5.737 -0.6204 -1.0701  0.9426
 5192SOL     OW27034   3.005   0.644  12.716  0.2440  0.0447 -0.3189
 5192SOL    HW127035   3.031   0.735  12.731  0.5767 -0.1327  0.1641
 5192SOL    HW227036   2.976   0.627  12.805  0.4808 -1.2614 -0.4930
 5193SOL     OW27037   1.142   1.239   2.791  0.2041  0.3943  0.2066
 5193SOL    HW127038   1.232   1.258   2.818  0.4057 -0.1288 -0.0905
 5193SOL    HW227039   1.157   1.181   2.716  0.0148  0.9737 -0.2792
 5194SOL     OW27040   1.801   3.065   2.256  0.2408  0.3574 -0.7792
 5194SOL    HW127041   1.822   3.041   2.346 -0.5554 -1.4075 -1.0536
 5194SOL    HW227042   1.768   2.982   2.223 -3.4368  0.4520  2.6636
 5195SOL     OW27043   0.749   2.195  13.187  0.4506  0.0607  0.5181
 5195SOL    HW127044   0.836   2.181  13.224  0.8595  0.5874 -0.2415
 5195SOL    HW227045   0.771   2.273  13.135 -2.5674 -0.0045 -0.8745
 5196SOL     OW27046   2.520   0.975   4.068  0.5827  0.2040  0.0109
 5196SOL    HW127047   2.448   1.037   4.058 -0.9233 -1.1346  2.5074
 5196SOL    HW227048   2.571   1.025   4.131 -0.0852  2.6136 -1.3491
 5197SOL     OW27049   0.867   1.487   6.006  0.0083 -0.1981  0.2465
 5197SOL    HW127050   0.779   1.515   5.981  0.5160  3.5611  2.7477
 5197SOL    HW227051   0.867   1.485   6.102 -3.8664  1.0853  0.2740
 5198SOL     OW27052   3.868   2.232   7.274  0.3828  0.2710  0.0592
 5198SOL    HW127053   3.924   2.246   7.350  1.0459 -0.7558 -0.2391
 5198SOL    HW227054   3.786   2.208   7.318  1.2847 -1.3406  0.8514
 5199SOL     OW27055   2.491   1.720   7.504 -0.5902 -0.0646 -0.2246
 5199SOL    HW127056   2.470   1.756   7.418 -2.5953 -0.0949  0.2475
 5199SOL    HW227057   2.462   1.792   7.560  3.2812  0.0410  1.6575
 5200SOL     OW27058   3.156   1.509   7.568  0.3271 -0.1368  0.1994
 5200SOL    HW127059   3.236   1.458   7.554 -0.0641 -1.2551  1.9679
 5200SOL    HW227060   3.152   1.507   7.664  1.4905  1.9528  0.3031
 5201SOL     OW27061   0.057   4.336   6.451  0.5666 -0.0501  0.1597
 5201SOL    HW127062   0.048   4.270   6.519 -0.0290 -0.1434 -0.0147
 5201SOL    HW227063   0.091   4.415   6.494  0.4286  0.0191  0.1433
 5202SOL     OW27064   1.462   3.205  12.085 -0.0437  0.6494 -0.2608
 5202SOL    HW127065   1.387   3.213  12.026 -0.8682  0.3313  0.7372
 5202SOL    HW227066   1.438   3.266  12.154 -2.1777 -1.2333  0.6688
 5203SOL     OW27067   2.563   2.346   0.641  0.6361 -0.1135 -0.2563
 5203SOL    HW127068   2.613   2.278   0.686  0.5762 -0.2558 -0.4022
 5203SOL    HW227069   2.637   2.405   0.627  1.6904 -1.6702 -1.3495
 5204SOL     OW27070   3.703   1.097   6.644 -0.5933 -0.4832  0.4270
 5204SOL    HW127071   3.622   1.046   6.649 -0.1703 -0.8755  3.0023
 5204SOL    HW227072   3.668   1.186   6.637  2.6180  0.7840  0.4544
 5205SOL     OW27073   2.407   1.318  15.005 -0.1249  0.2349  0.2854
 5205SOL    HW127074   2.367   1.389  15.056 -1.9978  0.6774 -1.7711
 5205SOL    HW227075   2.433   1.260  15.075  2.9648  0.9617 -0.2690
 5206SOL     OW27076   1.471   3.527   2.723 -0.3253 -0.3016 -0.5531
 5206SOL    HW127077   1.474   3.598   2.787 -0.8282  0.5423 -1.4596
 5206SOL    HW227078   1.432   3.459   2.777 -0.7876  1.1670  0.9716
 5207SOL     OW27079   0.581   3.337   3.993  0.1691 -0.3401 -0.2216
 5207SOL    HW127080   0.515   3.397   4.025 -0.6705  0.5282 -3.5723
 5207SOL    HW227081   0.532   3.259   3.966  0.0618 -0.7764  1.2093
 5208SOL     OW27082   0.731   4.200   6.357  0.4573  0.0079  0.0385
 5208SOL    HW127083   0.645   4.242   6.351  0.9322  0.6196 -2.3590
 5208SOL    HW227084   0.712   4.123   6.303  1.8562  0.0368 -0.4917
 5209SOL     OW27085   2.025   4.582   5.182 -0.9168 -0.1740 -0.2144
 5209SOL    HW127086   1.934   4.594   5.209 -0.9986  1.4084 -1.2148
 5209SOL    HW227087   2.021   4.560   5.089 -2.0258 -1.1730  0.0584
 5210SOL     OW27088   0.142   3.744  15.531 -0.3119  0.0901  0.3162
 5210SOL    HW127089   0.235   3.737  15.514 -0.4651  0.5950 -0.7150
 5210SOL    HW227090   0.147   3.747  15.626  0.7049  1.5096  0.2170
 5211SOL     OW27091   1.638   4.680   2.782  0.4075 -0.3257  0.2525
 5211SOL    HW127092   1.706   0.021   2.799  2.3072 -2.1733 -0.2729
 5211SOL    HW227093   1.559   4.718   2.819  0.4101  0.7032 -0.8115
 5212SOL     OW27094   2.681   4.642   7.689  0.0345  0.4269  0.4609
 5212SOL    HW127095   2.665   4.548   7.698  0.6254  0.4840  2.2186
 5212SOL    HW227096   2.594   4.674   7.712 -0.8258  0.3520 -2.6717
 5213SOL     OW27097   1.413   0.868   7.310  0.9039 -0.1607 -0.6309
 5213SOL    HW127098   1.490   0.918   7.287  1.8030 -1.1960  0.1351
 5213SOL    HW227099   1.359   0.862   7.231 -0.8805  3.0509  0.3383
 5214SOL     OW27100   0.457   2.279   4.412 -0.1936  0.3692  0.0852
 5214SOL    HW127101   0.497   2.198   4.444 -1.8657 -0.2137  0.6968
 5214SOL    HW227102   0.525   2.312   4.354 -1.5126 -1.4610 -2.4795
 5215SOL     OW27103   2.938   1.469  14.072 -0.3389  1.0207  0.0960
 5215SOL    HW127104   2.913   1.383  14.040 -0.5558  1.5215 -1.0598
 5215SOL    HW227105   3.014   1.474  14.014  0.1608 -1.0893  0.5614
 5216SOL     OW27106   2.179   1.463   5.701  0.0420  0.2779  0.6652
 5216SOL    HW127107   2.149   1.399   5.766 -0.8761  0.6621  0.6246
 5216SOL    HW227108   2.236   1.516   5.757 -1.2033  2.2109  0.0973
 5217SOL     OW27109   1.268   3.583   0.872  0.0882  0.2398 -0.3633
 5217SOL    HW127110   1.208   3.656   0.855 -1.7380 -1.0669  0.5258
 5217SOL    HW227111   1.330   3.615   0.806 -0.0115 -0.6328 -0.8809
 5218SOL     OW27112   2.684   2.402  12.916  0.5513 -0.4181 -0.4202
 5218SOL    HW127113   2.716   2.348  12.843 -2.4262  0.4928 -2.3993
 5218SOL    HW227114   2.735   2.368  12.990 -1.1524 -0.2926  0.7978
 5219SOL     OW27115   2.471   4.631   3.495  0.2450  0.4355 -0.1019
 5219SOL    HW127116   2.450   4.570   3.423 -0.9230  2.8404 -1.7843
 5219SOL    HW227117   2.521   4.576   3.556  0.8542  0.8967 -0.1873
 5220SOL     OW27118   0.580   0.047   1.701 -0.1038  0.6644  0.1906
 5220SOL    HW127119   0.506   0.087   1.745 -3.2523 -2.1348 -2.5835
 5220SOL    HW227120   0.657   0.066   1.755  1.2284  0.3469 -1.5655
 5221SOL     OW27121   1.363   1.400   7.050  0.4138  0.5512  0.1569
 5221SOL    HW127122   1.397   1.447   7.126 -0.4649 -0.7545  1.3708
 5221SOL    HW227123   1.398   1.312   7.064  0.7865  1.0012  2.0173
 5222SOL     OW27124   3.999   0.160  14.925 -0.3149 -0.3223 -0.1249
 5222SOL    HW127125   4.058   0.227  14.891 -1.2442  1.6457  2.2200
 5222SOL    HW227126   4.016   0.151  15.018 -0.5119 -1.0819 -0.1591
 5223SOL     OW27127   4.393   1.926   5.397 -0.1980 -0.1634  0.3705
 5223SOL    HW127128   4.459   1.861   5.375  1.7615  2.2401 -0.8190
 5223SOL    HW227129   4.394   1.933   5.493  1.1978 -0.2605  0.3643
 5224SOL     OW27130   2.690   0.328  10.850 -0.3405  0.2925  0.5182
 5224SOL    HW127131   2.605   0.348  10.811 -1.0960 -0.7348  1.6073
 5224SOL    HW227132   2.752   0.329  10.778  0.5816 -0.2777  1.2957
 5225SOL     OW27133   1.735   2.835   8.314 -0.2487  0.4014 -0.0411
 5225SOL    HW127134   1.815   2.882   8.290  0.2307 -1.1128 -1.3815
 5225SOL    HW227135   1.689   2.818   8.232 -1.3332  2.6503  0.0828
 5226SOL     OW27136   1.048   3.453  11.131 -0.1502  0.0767 -0.3249
 5226SOL    HW127137   1.110   3.481  11.064 -0.4292  1.5033  0.0038
 5226SOL    HW227138   0.974   3.417  11.082 -0.2081 -0.0773 -0.1236
 5227SOL     OW27139   2.404   0.575  11.496  0.0010 -0.2706  0.3197
 5227SOL    HW127140   2.411   0.636  11.569  2.0004 -0.5950  0.3883
 5227SOL    HW227141   2.422   0.491  11.539 -1.5738 -0.2314  1.0347
 5228SOL     OW27142   1.497   2.316  13.767 -0.0835  0.0505 -0.0015
 5228SOL    HW127143   1.569   2.354  13.717 -2.0126  1.7775 -1.4937
 5228SOL    HW227144   1.425   2.379  13.758 -0.8097 -0.9788 -1.5439
 5229SOL     OW27145   3.970   0.744  12.719 -0.9439  0.1158 -0.0693
 5229SOL    HW127146   3.974   0.837  12.694  0.0563  0.3779  1.0692
 5229SOL    HW227147   3.877   0.732  12.734 -1.2005 -0.1057 -1.7533
 5230SOL     OW27148   1.532   0.158   4.896  0.3642  0.1597  0.0627
 5230SOL    HW127149   1.613   0.208   4.911  1.2720 -1.0095 -0.9802
 5230SOL    HW227150   1.562   0.114   4.817  0.9924  0.5441  0.0867
 5231SOL     OW27151   2.205   3.309  14.094 -0.6444  0.0296  0.2493
 5231SOL    HW127152   2.298   3.326  14.078 -0.8367  0.5074 -0.3954
 5231SOL    HW227153   2.173   3.295  14.005  3.5275 -1.4082 -1.0354
 5232SOL     OW27154   0.950   4.715   3.024  0.1757 -0.0512  0.4680
 5232SOL    HW127155   0.938   4.685   2.934 -1.1706 -1.1105  0.9927
 5232SOL    HW227156   0.988   4.635   3.060  0.6864 -0.4367 -0.8943
 5233SOL     OW27157   0.037   4.530   7.582 -0.0473 -0.4746  0.5349
 5233SOL    HW127158   0.012   4.588   7.654  0.0649 -1.4965  1.4048
 5233SOL    HW227159   0.125   4.565   7.568 -0.4845  0.9043  1.1938
 5234SOL     OW27160   1.875   1.178   5.281 -0.3241 -0.5092 -0.6395
 5234SOL    HW127161   1.844   1.248   5.223  1.1641  1.2558  0.6675
 5234SOL    HW227162   1.969   1.196   5.276 -0.4149  0.0899 -0.2760
 5235SOL     OW27163   0.347   0.782   8.975  0.3020  0.2070  0.2317
 5235SOL    HW127164   0.319   0.692   8.994 -1.8820  0.6140 -1.0293
 5235SOL    HW227165   0.294   0.807   8.899 -0.5744 -0.4393  0.6231
 5236SOL     OW27166   3.676   2.906   7.534 -0.2829 -0.0970 -0.0191
 5236SOL    HW127167   3.759   2.953   7.526 -0.0135 -0.6089 -0.2777
 5236SOL    HW227168   3.623   2.984   7.550  0.7394  0.2981  1.4387
 5237SOL     OW27169   3.787   1.679  11.106 -0.0004  0.7993 -0.1245
 5237SOL    HW127170   3.698   1.712  11.098 -0.2210  0.3108  0.3007
 5237SOL    HW227171   3.819   1.727  11.030  0.1469  1.9592  0.6734
 5238SOL     OW27172   0.626   3.541   7.362 -0.4816 -0.2648 -0.0840
 5238SOL    HW127173   0.660   3.619   7.405  1.5397 -2.0906  1.6418
 5238SOL    HW227174   0.698   3.483   7.387  0.1816 -0.0441 -1.4795
 5239SOL     OW27175   4.375   2.522  15.234  0.4276 -0.3760 -0.3598
 5239SOL    HW127176   4.455   2.557  15.193 -0.9671  2.8799 -0.2700
 5239SOL    HW227177   4.305   2.587  15.224  0.3038 -0.0374  2.5396
 5240SOL     OW27178   2.414   0.363   9.708 -0.0177 -0.2580  0.6181
 5240SOL    HW127179   2.468   0.357   9.629 -0.8766  0.1954 -0.0127
 5240SOL    HW227180   2.407   0.270   9.730  2.2681 -0.5175  0.2565
 5241SOL     OW27181   4.338   3.246   4.809 -0.4755 -0.1728  0.1712
 5241SOL    HW127182   4.277   3.230   4.737  0.1571 -1.4894 -0.0757
 5241SOL    HW227183   4.330   3.166   4.860 -0.0065 -0.1645  0.2610
 5242SOL     OW27184   0.448   4.168  13.953 -0.3255 -0.5056  0.3603
 5242SOL    HW127185   0.407   4.121  14.026  1.3994  0.0943  1.7161
 5242SOL    HW227186   0.386   4.159  13.881  0.2902  2.1251 -0.4939
 5243SOL     OW27187   4.440   4.050   2.971 -0.1917  0.1027  0.2246
 5243SOL    HW127188   4.354   4.093   2.966  0.0630  0.7536  1.5872
 5243SOL    HW227189   4.434   3.996   2.892 -0.9260  0.5742 -0.0414
 5244SOL     OW27190   2.761   1.995   0.580 -0.4597 -0.2292 -0.3208
 5244SOL    HW127191   2.819   1.920   0.579  0.6886  0.6510  0.5380
 5244SOL    HW227192   2.829   2.054   0.549  0.3960 -0.1860  1.6708
 5245SOL     OW27193   0.840   0.773   9.327  0.2175 -0.1886 -0.6878
 5245SOL    HW127194   0.842   0.793   9.420 -2.0371  1.2267 -0.9537
 5245SOL    HW227195   0.897   0.840   9.289 -0.6104 -0.8322 -3.0386
 5246SOL     OW27196   3.886   0.419   2.686  0.2966  0.1969 -0.6221
 5246SOL    HW127197   3.956   0.479   2.712  0.4177 -0.2127 -0.0112
 5246SOL    HW227198   3.881   0.421   2.591  3.8971  2.4387 -0.7635
 5247SOL     OW27199   0.789   3.544   4.176  0.2510  0.1769 -0.3154
 5247SOL    HW127200   0.723   3.612   4.191 -1.3712 -1.0923 -1.6677
 5247SOL    HW227201   0.757   3.503   4.095 -0.7315 -0.4525  0.3929
 5248SOL     OW27202   3.711   2.815   2.553  0.2335 -0.5564 -0.4839
 5248SOL    HW127203   3.769   2.765   2.496 -1.2338 -3.1121  0.2273
 5248SOL    HW227204   3.646   2.848   2.491  0.9234  0.7573 -0.5029
 5249SOL     OW27205   4.632   4.438   3.067  0.2335 -0.1792 -0.0077
 5249SOL    HW127206   4.548   4.394   3.082  0.5611 -0.6465  0.4133
 5249SOL    HW227207   4.632   4.508   3.132  4.0812 -2.2036  2.1369
 5250SOL     OW27208   0.266   4.179  13.740 -0.6056  0.0362 -0.0348
 5250SOL    HW127209   0.189   4.159  13.686  0.8257 -2.4870 -1.1469
 5250SOL    HW227210   0.249   4.269  13.766  1.3606  0.7918 -1.4244
 5251SOL     OW27211   2.204   2.390   6.847  0.4225 -0.0324  0.0960
 5251SOL    HW127212   2.163   2.475   6.832 -1.4429 -0.6807  1.4579
 5251SOL    HW227213   2.247   2.377   6.763 -0.6744  0.1112 -0.4979
 5252SOL     OW27214   3.923   1.981   3.683 -0.0002  0.1024  0.1242
 5252SOL    HW127215   3.900   1.888   3.677  2.3540 -0.4670  0.0729
 5252SOL    HW227216   3.929   2.003   3.590 -0.2766  0.9457  0.3098
 5253SOL     OW27217   3.308   0.174  16.951  0.3832  0.4122  0.4379
 5253SOL    HW127218   3.290   0.144  17.040  0.6948  0.2851  0.4590
 5253SOL    HW227219   3.361   0.099  16.924 -2.4429 -1.8072  1.0703
 5254SOL     OW27220   1.046   4.101   2.020  0.3145 -0.2106  0.9800
 5254SOL    HW127221   1.048   4.010   2.049  0.6960 -0.3198  0.6182
 5254SOL    HW227222   1.134   4.109   1.981  0.0725  0.5937  0.5838
 5255SOL     OW27223   3.014   1.183   7.379  0.2799 -0.0158 -0.1122
 5255SOL    HW127224   2.925   1.162   7.352 -0.2014  0.5104  1.0245
 5255SOL    HW227225   3.040   1.107   7.432 -2.4015 -0.8866 -0.0637
 5256SOL     OW27226   0.217   3.994  14.467  0.7423  0.1038  0.9723
 5256SOL    HW127227   0.176   4.076  14.438  1.5461  0.0887 -0.2118
 5256SOL    HW227228   0.235   3.960  14.379 -0.4358 -0.8575  1.0919
 5257SOL     OW27229   1.581   2.303  14.032 -0.5773 -0.1547 -0.1852
 5257SOL    HW127230   1.507   2.307  14.092 -1.4244  0.8185 -1.2887
 5257SOL    HW227231   1.538   2.298  13.947  3.7145  1.1839 -2.4371
 5258SOL     OW27232   0.523   2.919   6.829 -0.0783  0.5517  0.2193
 5258SOL    HW127233   0.517   2.974   6.907  0.0340 -1.1602  1.4368
 5258SOL    HW227234   0.437   2.879   6.839  0.4335 -0.8749 -1.0252
 5259SOL     OW27235   3.158   1.690   3.498  0.0942  0.2188 -0.1215
 5259SOL    HW127236   3.093   1.621   3.483 -0.5199  0.5300  1.0638
 5259SOL    HW227237   3.231   1.630   3.510 -0.8057 -0.7805  0.3844
 5260SOL     OW27238   1.342   2.027   3.739 -0.3270 -0.8104  0.0611
 5260SOL    HW127239   1.400   2.100   3.763 -1.2829  0.5084 -1.6304
 5260SOL    HW227240   1.261   2.057   3.780  1.0859  2.0719  0.7650
 5261SOL     OW27241   2.236   1.108  14.047  0.3349 -0.0801  0.1498
 5261SOL    HW127242   2.272   1.142  13.965 -1.9060 -2.4874 -1.8040
 5261SOL    HW227243   2.260   1.189  14.093  0.3780 -1.1225  1.9679
 5262SOL     OW27244   2.212   2.737   7.298 -0.3732  0.4481 -0.3761
 5262SOL    HW127245   2.219   2.824   7.336  2.7699  0.3530 -0.6940
 5262SOL    HW227246   2.165   2.685   7.364  3.0366 -1.9365  0.1990
 5263SOL     OW27247   4.306   1.545   4.389  1.0796 -0.5342  0.1148
 5263SOL    HW127248   4.250   1.614   4.356  0.4193 -1.0520  0.1619
 5263SOL    HW227249   4.372   1.537   4.320  0.7604  1.0311 -0.3616
 5264SOL     OW27250   0.360   1.069   2.116  0.0174 -0.1784 -0.0615
 5264SOL    HW127251   0.353   0.976   2.138  0.5361 -0.4543 -1.0574
 5264SOL    HW227252   0.450   1.071   2.149 -0.7938  0.7063  2.1105
 5265SOL     OW27253   1.332   3.189   8.311  0.2748 -0.0237 -0.3041
 5265SOL    HW127254   1.428   3.182   8.317  0.0594 -3.7044 -1.4986
 5265SOL    HW227255   1.329   3.284   8.327  0.9438  0.2070 -1.4986
 5266SOL     OW27256   1.175   2.923  14.204  0.5289  0.2950  0.4603
 5266SOL    HW127257   1.167   2.846  14.260 -2.2865  0.5244  0.4034
 5266SOL    HW227258   1.108   2.987  14.231 -1.7328 -0.9611 -2.0912
 5267SOL     OW27259   3.223   3.040   3.866 -0.2145  0.0951  0.0158
 5267SOL    HW127260   3.252   3.077   3.782 -0.2677 -0.9696 -0.4746
 5267SOL    HW227261   3.144   3.090   3.887  1.4938  3.4832 -1.5588
 5268SOL     OW27262   0.210   1.105   2.389 -0.8183 -0.3000 -0.3943
 5268SOL    HW127263   0.192   1.192   2.351  5.1772  1.5031  1.0152
 5268SOL    HW227264   0.252   1.066   2.312 -1.2800  1.6878 -1.6765
 5269SOL     OW27265   1.195   4.143   3.191  0.0005  0.1805 -0.1439
 5269SOL    HW127266   1.207   4.146   3.097 -1.8682  0.8477 -0.3582
 5269SOL    HW227267   1.201   4.235   3.217 -1.2576  0.0768  0.5401
 5270SOL     OW27268   3.267   0.187   2.657  0.5133 -0.5792  0.1482
 5270SOL    HW127269   3.186   0.137   2.649  0.5493 -0.6925  0.4815
 5270SOL    HW227270   3.228   0.266   2.694  0.9212  0.0216 -0.7079
 5271SOL     OW27271   3.053   3.407   3.124  0.1571  0.2783  0.1777
 5271SOL    HW127272   2.978   3.465   3.140  0.9885  1.0616  1.2209
 5271SOL    HW227273   3.019   3.344   3.060  0.4226 -1.6096  1.9135
 5272SOL     OW27274   4.367   1.910   6.227  0.4066 -0.0456  0.1774
 5272SOL    HW127275   4.366   1.835   6.286 -0.3557 -0.2950 -0.1489
 5272SOL    HW227276   4.377   1.980   6.291  1.4760  0.2720 -0.3360
 5273SOL     OW27277   1.252   2.697   5.041  0.2982 -0.1952  0.2829
 5273SOL    HW127278   1.265   2.729   4.951 -1.8277  1.0775  0.4324
 5273SOL    HW227279   1.186   2.759   5.072  1.1119 -0.0380  1.6862
 5274SOL     OW27280   4.702   2.765   4.003 -0.4723  0.1591  0.3308
 5274SOL    HW127281   4.695   2.857   4.030  1.0886  0.5058 -0.4895
 5274SOL    HW227282   4.612   2.740   3.980  0.1676 -3.5163  1.8212
 5275SOL     OW27283   1.853   3.292  11.498  0.0262 -0.5098  0.2414
 5275SOL    HW127284   1.829   3.289  11.406 -1.1447  1.7702  0.4648
 5275SOL    HW227285   1.767   3.298  11.540  0.6899  1.4297  1.3468
 5276SOL     OW27286   4.443   3.662   8.547 -0.2646 -0.5744  0.6360
 5276SOL    HW127287   4.360   3.659   8.499  0.2934  1.8316 -0.4911
 5276SOL    HW227288   4.450   3.756   8.567 -0.5302 -0.5572  0.6467
 5277SOL     OW27289   0.273   4.556  14.167  0.1889 -0.3039 -0.6337
 5277SOL    HW127290   0.281   4.649  14.189 -0.3993  0.2657 -2.8672
 5277SOL    HW227291   0.224   4.517  14.239 -0.0614  2.0025  0.4677
 5278SOL     OW27292   0.929   0.983   5.189  0.7539  0.3228 -0.4144
 5278SOL    HW127293   0.866   0.914   5.210  0.5816  0.1086 -1.5955
 5278SOL    HW227294   1.010   0.964   5.235 -0.0198 -1.0195  0.3905
 5279SOL     OW27295   0.358   2.696   6.970  0.0745  0.9730  0.1102
 5279SOL    HW127296   0.347   2.605   6.944 -1.5754  0.7792  1.4498
 5279SOL    HW227297   0.314   2.743   6.898 -1.2247  0.1555  0.3725
 5280SOL     OW27298   3.842   4.017  14.789 -0.3989  0.7340  0.0820
 5280SOL    HW127299   3.817   3.958  14.717  1.6231 -1.2512  1.0043
 5280SOL    HW227300   3.930   3.982  14.806  0.4363  2.5442 -0.4587
 5281SOL     OW27301   4.022   1.015   9.574  0.1062  0.2797  0.1131
 5281SOL    HW127302   4.030   0.955   9.500 -0.8019  1.0353 -0.5972
 5281SOL    HW227303   4.089   0.981   9.633  0.0854  0.4724  0.2479
 5282SOL     OW27304   3.624   4.223  13.907 -0.2412  0.0545 -0.1778
 5282SOL    HW127305   3.597   4.198  13.995  0.3687  0.8131  0.2248
 5282SOL    HW227306   3.703   4.173  13.889 -1.3168 -1.3885 -0.8978
 5283SOL     OW27307   2.613   0.787   0.911  1.0593  0.5680 -0.0559
 5283SOL    HW127308   2.577   0.732   0.980 -1.0295 -0.0181 -1.6073
 5283SOL    HW227309   2.603   0.737   0.830  1.0468 -1.2017  1.0669
 5284SOL     OW27310   4.644   3.538   0.398 -0.5704 -0.1231 -0.7384
 5284SOL    HW127311   4.653   3.472   0.330 -2.6421  0.9164 -2.0280
 5284SOL    HW227312   0.004   3.535   0.445  0.3497  2.0573 -2.2299
 5285SOL     OW27313   0.533   1.029   3.068  0.0773 -0.2315  0.0258
 5285SOL    HW127314   0.557   0.951   3.119 -3.6234 -0.7241  1.0254
 5285SOL    HW227315   0.496   1.084   3.137  0.1101  0.0289 -0.1675
 5286SOL     OW27316   4.119   1.525   2.184  0.2831 -0.3411 -0.2832
 5286SOL    HW127317   4.162   1.610   2.195 -0.3226 -0.0447 -0.1908
 5286SOL    HW227318   4.130   1.481   2.268  2.0003 -1.8650 -1.3264
 5287SOL     OW27319   1.651   1.287  14.975 -0.2921  0.1603 -0.5595
 5287SOL    HW127320   1.588   1.304  15.044 -1.7850 -1.7189 -1.4363
 5287SOL    HW227321   1.704   1.218  15.015  1.9584  2.2672  0.0709
 5288SOL     OW27322   1.729   3.307   5.466 -0.2077  0.3745 -0.3328
 5288SOL    HW127323   1.672   3.240   5.505  2.4370 -0.3152  2.3866
 5288SOL    HW227324   1.774   3.334   5.546  0.2179  1.0982 -0.8230
 5289SOL     OW27325   2.678   1.559  15.827 -0.5314  0.0496  0.1024
 5289SOL    HW127326   2.678   1.548  15.732 -1.4801  1.1156 -0.0181
 5289SOL    HW227327   2.752   1.618  15.840 -0.5005  0.5805 -2.5829
 5290SOL     OW27328   1.281   2.007   3.434  0.0473  0.3585 -0.9767
 5290SOL    HW127329   1.207   2.041   3.484  1.0754  1.9958 -0.5514
 5290SOL    HW227330   1.339   1.995   3.510 -2.1767 -2.9873  0.2084
 5291SOL     OW27331   4.277   0.859   1.714 -0.1622 -0.3066  0.1772
 5291SOL    HW127332   4.354   0.902   1.751  0.4207  0.9906 -2.5899
 5291SOL    HW227333   4.296   0.768   1.738  0.2744  0.0845  1.3091
 5292SOL     OW27334   1.902   2.667   6.267  0.2957 -0.5643 -0.4223
 5292SOL    HW127335   1.994   2.689   6.252 -0.3723  0.4096 -3.0455
 5292SOL    HW227336   1.919   2.610   6.342 -0.0675 -1.3334 -0.9135
 5293SOL     OW27337   0.424   1.257   7.935 -0.2719 -0.2395 -0.2950
 5293SOL    HW127338   0.416   1.301   8.019 -0.6423  0.7141 -0.8296
 5293SOL    HW227339   0.453   1.172   7.971  0.4860  0.1993  0.1399
 5294SOL     OW27340   1.148   3.863   3.325  0.8285  0.0581 -0.0717
 5294SOL    HW127341   1.052   3.861   3.320  0.9666 -2.2124 -1.6937
 5294SOL    HW227342   1.158   3.956   3.301 -0.4592  0.4596  0.9590
 5295SOL     OW27343   3.241   0.628   2.662 -0.3331 -0.5883 -0.4239
 5295SOL    HW127344   3.272   0.654   2.576 -1.2630  0.8972 -0.3086
 5295SOL    HW227345   3.325   0.647   2.704 -0.0053 -1.2584 -0.7651
 5296SOL     OW27346   3.968   0.921  15.149  0.3906  0.4166  0.2606
 5296SOL    HW127347   4.041   0.917  15.211  0.7981 -0.0590 -0.2429
 5296SOL    HW227348   3.994   0.998  15.099 -2.1298  0.4723 -0.9265
 5297SOL     OW27349   2.821   3.581  16.378  0.6303  0.1074  0.4452
 5297SOL    HW127350   2.857   3.606  16.462  1.1590  0.2526  0.1777
 5297SOL    HW227351   2.754   3.513  16.383 -0.9855  1.5066 -2.1089
 5298SOL     OW27352   0.788   3.253  16.679 -0.1904  0.4036 -0.1567
 5298SOL    HW127353   0.702   3.212  16.691 -0.1155  0.9890  2.3487
 5298SOL    HW227354   0.843   3.177  16.662 -2.4031 -1.2786  0.2162
 5299SOL     OW27355   2.120   3.427   7.094  0.4963  0.1626  0.4600
 5299SOL    HW127356   2.190   3.383   7.045 -0.3558 -0.1512 -0.4648
 5299SOL    HW227357   2.057   3.357   7.109  1.7027 -1.3784 -1.6199
 5300SOL     OW27358   1.652   1.411  10.715  0.2237 -0.9658  0.4027
 5300SOL    HW127359   1.568   1.367  10.720  0.9771 -2.5857 -1.2562
 5300SOL    HW227360   1.648   1.447  10.803 -2.5939  0.8471 -0.4952
 5301SOL     OW27361   2.983   3.219   2.952  0.4038 -0.0050  0.9197
 5301SOL    HW127362   2.929   3.162   3.007  1.0460  0.7382  2.3304
 5301SOL    HW227363   2.928   3.207   2.874 -1.3199  0.0894  2.1198
 5302SOL     OW27364   2.584   4.337   3.794  0.4196  0.7600  0.2365
 5302SOL    HW127365   2.494   4.326   3.824  1.0515 -1.0408  1.4402
 5302SOL    HW227366   2.607   4.252   3.757  0.5310  0.3047  1.3772
 5303SOL     OW27367   0.899   1.364   3.291  0.5831 -0.1065  0.4160
 5303SOL    HW127368   0.951   1.391   3.214  0.4548 -0.5784  0.1628
 5303SOL    HW227369   0.963   1.385   3.359  3.2098  0.5753 -2.2295
 5304SOL     OW27370   3.172   2.528  15.306 -0.3813 -0.0855  0.5252
 5304SOL    HW127371   3.264   2.535  15.280 -0.0483  0.8122  1.9866
 5304SOL    HW227372   3.121   2.514  15.225 -1.9196  1.1700  1.2631
 5305SOL     OW27373   2.176   2.531   2.585 -0.2954  0.3514 -0.5202
 5305SOL    HW127374   2.249   2.515   2.644 -1.3302 -1.4211  0.2811
 5305SOL    HW227375   2.169   2.454   2.529  1.4036  0.6602 -1.1374
 5306SOL     OW27376   2.764   4.693   8.179  0.2647  0.2084  0.4618
 5306SOL    HW127377   2.729   0.011   8.257  1.9590  1.5218  0.5163
 5306SOL    HW227378   2.757   0.031   8.106 -0.7771  0.1703  0.5324
 5307SOL     OW27379   2.235   2.527  15.487 -0.3172  0.5250 -0.0332
 5307SOL    HW127380   2.194   2.500  15.405  0.1405  2.4377 -0.8787
 5307SOL    HW227381   2.161   2.524  15.548 -0.1172  0.5031  0.2074
 5308SOL     OW27382   1.567   2.128   7.416  0.0269  0.1676 -0.0493
 5308SOL    HW127383   1.475   2.138   7.392  0.5304  1.8616 -1.2789
 5308SOL    HW227384   1.595   2.044   7.379  1.5811  0.9502 -0.6516
 5309SOL     OW27385   2.739   2.367   6.534  0.2870 -0.0969  0.3478
 5309SOL    HW127386   2.685   2.418   6.595 -0.1750 -1.6853  1.2766
 5309SOL    HW227387   2.800   2.429   6.494 -0.2872 -1.1267 -2.0675
 5310SOL     OW27388   1.365   4.223   5.102  0.1089 -0.1957 -0.9405
 5310SOL    HW127389   1.355   4.239   5.008 -1.5190  1.0226 -0.5647
 5310SOL    HW227390   1.271   4.220   5.120  0.5450 -0.6759  1.2394
 5311SOL     OW27391   2.120   1.787   6.625  0.5348 -0.3123  0.1600
 5311SOL    HW127392   2.143   1.877   6.645  2.0840 -0.8199  0.7102
 5311SOL    HW227393   2.047   1.798   6.565  2.7555 -1.3948 -2.7503
 5312SOL     OW27394   2.520   4.662   1.143 -0.4273 -0.4551  0.0628
 5312SOL    HW127395   2.540   0.017   1.194 -0.5989  1.1329 -2.3383
 5312SOL    HW227396   2.604   4.648   1.099  0.2335  0.7192  0.9508
 5313SOL     OW27397   2.546   2.846   1.477 -0.0327  0.1795 -0.3907
 5313SOL    HW127398   2.614   2.792   1.517 -0.3872 -0.7914 -1.0776
 5313SOL    HW227399   2.533   2.794   1.397 -2.4517 -1.0557  0.7827
 5314SOL     OW27400   2.473   3.548   0.338 -0.7299  0.6546 -0.1082
 5314SOL    HW127401   2.449   3.513   0.252 -3.6827  1.1626  0.5089
 5314SOL    HW227402   2.412   3.502   0.396 -1.7036 -0.2752 -1.8618
 5315SOL     OW27403   2.166   1.826   1.034  0.3564 -0.1361 -0.4278
 5315SOL    HW127404   2.091   1.821   1.093  0.4662  0.1795 -0.2593
 5315SOL    HW227405   2.126   1.829   0.948 -0.5021  0.4863 -0.0016
 5316SOL     OW27406   1.093   1.149   7.448  0.2374 -0.3475 -0.3185
 5316SOL    HW127407   1.016   1.101   7.478 -0.1356 -0.2641 -1.1307
 5316SOL    HW227408   1.067   1.171   7.358  1.2903  0.3048 -0.4744
 5317SOL     OW27409   0.768   0.384   0.492  0.3469  0.4660  0.2320
 5317SOL    HW127410   0.860   0.385   0.519 -0.0848  0.0874  1.7007
 5317SOL    HW227411   0.728   0.399   0.578  0.3875  1.2031  0.1211
 5318SOL     OW27412   1.808   1.172   2.102 -0.3086 -0.6117  0.2419
 5318SOL    HW127413   1.807   1.139   2.012  3.3280 -0.4283  0.1439
 5318SOL    HW227414   1.735   1.233   2.091  0.1179 -0.4521 -1.6524
 5319SOL     OW27415   0.098   4.538  12.579 -0.8635  0.0784  0.6884
 5319SOL    HW127416   0.127   4.447  12.569 -0.5619  0.3004 -0.5213
 5319SOL    HW227417   0.168   4.567  12.638  0.4268 -0.1307 -0.7155
 5320SOL     OW27418   2.163   2.376   8.371  0.0649  0.2277 -0.2955
 5320SOL    HW127419   2.069   2.365   8.385  0.5967  0.1106  3.1052
 5320SOL    HW227420   2.190   2.292   8.408  0.0816  1.4444  2.4063
 5321SOL     OW27421   2.243   1.776   7.098 -0.3367 -0.7044 -0.2087
 5321SOL    HW127422   2.206   1.731   7.174  2.4970 -0.9247  1.0263
 5321SOL    HW227423   2.250   1.700   7.039 -1.6993 -0.1591 -1.0815
 5322SOL     OW27424   0.904   0.733   2.622 -0.1706 -0.0027 -0.4527
 5322SOL    HW127425   0.933   0.685   2.700 -0.9985  0.4293  0.1158
 5322SOL    HW227426   0.990   0.733   2.579 -0.3312  2.1541 -0.8123
 5323SOL     OW27427   3.317   2.996   2.061  0.8585 -0.2990 -0.1949
 5323SOL    HW127428   3.406   2.973   2.034  1.0691  1.3740 -0.9193
 5323SOL    HW227429   3.331   3.079   2.106 -1.5648 -0.6563  1.1760
 5324SOL     OW27430   1.467   0.300   1.988 -0.4309  0.2514 -0.0470
 5324SOL    HW127431   1.438   0.390   2.003  0.1310  0.1731  1.5251
 5324SOL    HW227432   1.389   0.263   1.948  0.6296 -0.2830 -1.6105
 5325SOL     OW27433   3.997   1.786   2.436  0.2909 -0.4814  0.1847
 5325SOL    HW127434   4.070   1.779   2.497  0.2358  2.5067  0.6030
 5325SOL    HW227435   3.929   1.742   2.486 -0.5417 -0.8309 -1.2402
 5326SOL     OW27436   1.989   1.838   6.970 -0.1178  0.0726 -0.6312
 5326SOL    HW127437   2.016   1.760   6.921 -0.7919  0.3953 -1.5084
 5326SOL    HW227438   2.057   1.852   7.036 -0.3560 -0.0926 -0.3560
 5327SOL     OW27439   1.520   1.356  13.022  0.1765  0.3339  0.0540
 5327SOL    HW127440   1.431   1.385  13.000  0.4051  2.6989  2.1953
 5327SOL    HW227441   1.545   1.299  12.950 -0.2763 -0.9637  0.9311
 5328SOL     OW27442   3.646   3.441   2.378 -0.0925 -0.2535 -0.1909
 5328SOL    HW127443   3.616   3.396   2.299 -0.1872  0.2334 -0.4358
 5328SOL    HW227444   3.649   3.369   2.440  1.3848  1.0745  1.2577
 5329SOL     OW27445   3.775   4.374  11.327 -0.0919 -0.2979  0.3182
 5329SOL    HW127446   3.696   4.400  11.375  0.4712 -0.5524  1.3898
 5329SOL    HW227447   3.808   4.461  11.305  1.1204 -1.3844 -2.1436
 5330SOL     OW27448   0.529   4.533   6.306 -0.1880  0.4361 -0.4895
 5330SOL    HW127449   0.507   4.510   6.215  1.1152 -0.2794 -0.6120
 5330SOL    HW227450   0.535   4.628   6.294 -0.4112  0.7223  1.7751
 5331SOL     OW27451   1.535   2.381   1.586 -0.3253  0.0400  0.4315
 5331SOL    HW127452   1.625   2.389   1.555 -0.6418  0.0730 -0.4834
 5331SOL    HW227453   1.487   2.324   1.526  0.2296  1.8876 -1.7748
 5332SOL     OW27454   3.768   4.286  15.519 -0.1154 -1.0328  0.0993
 5332SOL    HW127455   3.824   4.235  15.577  0.5071  0.0238  0.4165
 5332SOL    HW227456   3.828   4.339  15.467 -2.7300  3.1963  1.4781
 5333SOL     OW27457   1.146   1.464   1.789 -0.3030  0.1739 -0.1089
 5333SOL    HW127458   1.152   1.446   1.695 -0.0139  0.6280 -0.1786
 5333SOL    HW227459   1.209   1.534   1.805 -2.2003  1.6928  0.7119
 5334SOL     OW27460   1.133   0.110  11.792 -0.5957  0.3266 -0.6877
 5334SOL    HW127461   1.159   0.147  11.708  3.0291 -1.8634 -0.5605
 5334SOL    HW227462   1.097   0.186  11.838  1.9134  0.5412  0.9565
 5335SOL     OW27463   2.174   1.872  16.516  0.1403 -0.0724 -0.0740
 5335SOL    HW127464   2.125   1.863  16.597  0.6844  2.0232  0.5077
 5335SOL    HW227465   2.184   1.966  16.501 -3.1001  0.2522 -0.2486
 5336SOL     OW27466   2.679   3.005   8.604  0.7393 -0.5557  0.1155
 5336SOL    HW127467   2.640   3.087   8.634  2.0032  0.9669 -2.4486
 5336SOL    HW227468   2.662   2.962   8.689  2.2993  1.2687  1.3348
 5337SOL     OW27469   3.201   4.177   6.312 -0.1024  0.2002 -0.0757
 5337SOL    HW127470   3.141   4.240   6.350 -0.9228 -0.7809  0.2643
 5337SOL    HW227471   3.285   4.223   6.307 -0.0209  0.1709  0.9938
 5338SOL     OW27472   4.194   0.097   4.147 -0.3883  0.6783  0.1909
 5338SOL    HW127473   4.183   0.037   4.221 -0.2921  1.5666  0.9223
 5338SOL    HW227474   4.126   0.163   4.156 -1.4791 -0.4487  0.1856
 5339SOL     OW27475   3.741   0.062  13.102 -0.6357  0.3566  0.3823
 5339SOL    HW127476   3.701   4.700  13.088  1.6064 -0.6075 -0.2474
 5339SOL    HW227477   3.830   0.025  13.107  0.2620  2.3229 -1.2784
 5340SOL     OW27478   0.647   3.539   0.475  0.1567 -0.2338  0.5373
 5340SOL    HW127479   0.554   3.522   0.487 -0.1108  1.8294  1.5435
 5340SOL    HW227480   0.664   3.600   0.548 -0.4464 -1.1650  1.4564
 5341SOL     OW27481   3.358   2.483   0.619  0.3936  0.7561  0.4295
 5341SOL    HW127482   3.433   2.424   0.629 -0.0260 -0.1631 -1.8660
 5341SOL    HW227483   3.344   2.464   0.526 -1.2538  3.3340  0.1657
 5342SOL     OW27484   1.261   1.966  17.264 -0.4709 -0.2083  0.1562
 5342SOL    HW127485   1.260   2.049  17.313 -0.8444 -0.0197 -0.1730
 5342SOL    HW227486   1.271   1.986  17.171 -4.6474  1.5838  0.0669
 5343SOL     OW27487   3.764   2.128  14.801  0.8364  0.4865  0.7225
 5343SOL    HW127488   3.832   2.101  14.862  1.1202 -1.5129 -0.4814
 5343SOL    HW227489   3.761   2.060  14.733 -0.1751  1.8911 -0.6347
 5344SOL     OW27490   2.368   4.612   3.808 -0.0370 -0.5060 -0.4792
 5344SOL    HW127491   2.442   4.609   3.747 -0.0953  0.3209 -0.5947
 5344SOL    HW227492   2.335   4.523   3.802 -1.0095 -0.1112 -0.9572
 5345SOL     OW27493   3.228   3.012   5.449  0.4804 -0.0021  0.5021
 5345SOL    HW127494   3.149   3.032   5.398 -0.1744 -1.3915  0.9870
 5345SOL    HW227495   3.265   3.100   5.442 -0.2155  0.0957 -2.0733
 5346SOL     OW27496   0.260   4.611   2.648 -0.5008  0.0956 -0.4215
 5346SOL    HW127497   0.166   4.619   2.631 -0.6340  2.1904  1.2067
 5346SOL    HW227498   0.298   4.641   2.565  1.9377 -1.3432  0.2021
 5347SOL     OW27499   3.302   0.872   8.285 -1.0886 -0.3652 -0.0086
 5347SOL    HW127500   3.314   0.962   8.315  1.5337 -1.2926  1.7096
 5347SOL    HW227501   3.209   0.879   8.265 -0.8559  1.2277 -0.5745
 5348SOL     OW27502   1.570   2.850   1.398 -0.2692 -0.4373  0.0484
 5348SOL    HW127503   1.638   2.825   1.334 -2.0324 -0.7372 -1.7085
 5348SOL    HW227504   1.605   2.809   1.477 -1.3710  0.3327  0.9319
 5349SOL     OW27505   1.956   2.226   5.000 -0.5134  0.4880  0.2504
 5349SOL    HW127506   1.992   2.310   5.026  2.3379 -0.7345  0.2582
 5349SOL    HW227507   1.914   2.192   5.079 -0.5305  1.3947  0.6289
 5350SOL     OW27508   2.384   0.117   2.910  0.2128 -0.7324 -0.2491
 5350SOL    HW127509   2.366   0.034   2.955 -4.6306  1.6372  2.1665
 5350SOL    HW227510   2.477   0.107   2.890  0.9503  1.9736  1.9850
 5351SOL     OW27511   3.407   4.385   3.565 -0.3004  0.1076 -0.4089
 5351SOL    HW127512   3.415   4.339   3.648 -2.3322  1.2788  0.4403
 5351SOL    HW227513   3.433   4.315   3.505  0.9923  0.4545 -0.2555
 5352SOL     OW27514   0.436   3.677   8.200 -0.2454  0.3200 -0.2464
 5352SOL    HW127515   0.523   3.647   8.174 -0.3337 -0.0327 -0.1296
 5352SOL    HW227516   0.386   3.599   8.176 -0.6690  0.9476 -1.3833
 5353SOL     OW27517   1.397   0.436   6.832  0.2789  0.5810 -0.0888
 5353SOL    HW127518   1.350   0.500   6.778 -1.6998 -1.0075 -0.2226
 5353SOL    HW227519   1.451   0.382   6.774  0.0377  1.1632 -0.8549
 5354SOL     OW27520   0.783   2.532   6.120 -0.3940  0.4515  0.0413
 5354SOL    HW127521   0.788   2.447   6.078  2.9293 -0.6796  2.7145
 5354SOL    HW227522   0.785   2.507   6.212 -0.8666 -4.6101 -1.3192
 5355SOL     OW27523   1.501   3.512  15.820 -0.0308 -0.1741 -0.1209
 5355SOL    HW127524   1.447   3.438  15.792  1.5726  0.3133 -4.5456
 5355SOL    HW227525   1.469   3.573  15.753 -2.7440 -0.4608  0.9552
 5356SOL     OW27526   4.182   3.418   5.633 -0.2621  0.3411 -0.2698
 5356SOL    HW127527   4.211   3.406   5.723  0.8698 -0.3537 -0.7229
 5356SOL    HW227528   4.199   3.512   5.624  0.2154  0.1426 -1.4052
 5357SOL     OW27529   3.887   3.786   7.455 -0.7189 -0.7250  0.2278
 5357SOL    HW127530   3.855   3.714   7.510 -0.0091 -0.4534  0.9925
 5357SOL    HW227531   3.814   3.821   7.405  1.0239  3.2131  0.4363
 5358SOL     OW27532   1.097   0.573   9.106  0.1178  0.8617 -0.9135
 5358SOL    HW127533   1.172   0.541   9.056 -0.4930 -1.6244 -0.2795
 5358SOL    HW227534   1.122   0.629   9.178  0.7484 -2.8852  1.7932
 5359SOL     OW27535   4.538   2.196   8.116  0.3263 -0.1550  0.1297
 5359SOL    HW127536   4.626   2.170   8.145  0.9282 -0.2474 -1.7741
 5359SOL    HW227537   4.546   2.176   8.022 -2.0213  0.1227 -0.1087
 5360SOL     OW27538   2.138   3.190   2.580 -0.3323  0.0646 -0.3650
 5360SOL    HW127539   2.150   3.218   2.489  1.3049  0.7070  0.0567
 5360SOL    HW227540   2.167   3.269   2.626 -1.5304 -0.4806  1.3285
 5361SOL     OW27541   4.396   2.214  11.183  0.0634 -0.0863 -0.7455
 5361SOL    HW127542   4.413   2.308  11.179 -1.3802  0.2486  0.7678
 5361SOL    HW227543   4.458   2.177  11.247  0.4374 -0.1408 -1.1451
 5362SOL     OW27544   0.392   1.776  14.584  0.0814 -0.0860 -0.0746
 5362SOL    HW127545   0.324   1.779  14.516 -0.5684  4.0501  0.7536
 5362SOL    HW227546   0.343   1.818  14.655 -1.2652 -0.3042 -0.8606
 5363SOL     OW27547   3.624   1.206  12.829  0.1239  0.7524  0.0121
 5363SOL    HW127548   3.619   1.110  12.828  2.2179  0.6275  1.3997
 5363SOL    HW227549   3.719   1.217  12.834  0.4658 -0.6397 -3.5590
 5364SOL     OW27550   2.879   1.262   3.854 -0.0026  0.4095  0.5104
 5364SOL    HW127551   2.789   1.293   3.842  0.0458  1.2176  2.1577
 5364SOL    HW227552   2.914   1.351   3.855  0.1034  0.3665  0.6254
 5365SOL     OW27553   3.552   3.151   5.982  0.3884  0.3449 -0.2696
 5365SOL    HW127554   3.485   3.201   5.937 -2.8704 -2.2617  1.6355
 5365SOL    HW227555   3.507   3.118   6.060  2.0832 -2.6054 -0.5184
 5366SOL     OW27556   0.524   3.490   4.746 -0.1513  0.3541  0.6867
 5366SOL    HW127557   0.544   3.432   4.819  1.4203  1.6535  1.2690
 5366SOL    HW227558   0.443   3.456   4.707 -0.6433  2.9744 -0.5467
 5367SOL     OW27559   3.710   3.385   6.925  0.3060 -0.3179 -0.2501
 5367SOL    HW127560   3.681   3.314   6.982 -2.2872  1.4369  0.6338
 5367SOL    HW227561   3.728   3.328   6.851  0.6826  0.1885 -0.5528
 5368SOL     OW27562   3.080   0.084   3.695  0.2067 -0.3668 -0.8083
 5368SOL    HW127563   3.142   0.013   3.710  1.9986  1.1919 -0.8148
 5368SOL    HW227564   3.028   0.091   3.775  0.7247  2.0547 -0.6893
 5369SOL     OW27565   1.723   2.279  11.985  0.5956 -0.4062  0.2430
 5369SOL    HW127566   1.729   2.272  11.890  2.7619 -1.4945  0.4636
 5369SOL    HW227567   1.729   2.191  12.022  0.7709 -0.3498  0.3473
 5370SOL     OW27568   4.065   1.035   2.447 -0.3992  0.8752 -0.1781
 5370SOL    HW127569   4.100   0.973   2.511 -0.2244  1.7623  0.5824
 5370SOL    HW227570   4.006   1.079   2.508 -0.5633 -0.4914  0.6512
 5371SOL     OW27571   0.536   3.168  16.649  0.1761 -0.0097  0.4868
 5371SOL    HW127572   0.510   3.128  16.565 -0.3564 -0.5973  0.9336
 5371SOL    HW227573   0.554   3.086  16.695  3.3449  0.9653  0.9997
 5372SOL     OW27574   2.222   2.768   7.709  0.0465 -0.3608 -0.2483
 5372SOL    HW127575   2.148   2.822   7.681 -1.3012 -2.3688 -0.6058
 5372SOL    HW227576   2.235   2.797   7.799  0.5618 -0.2526 -0.3574
 5373SOL     OW27577   3.975   1.270   0.106  0.1392 -0.7149  0.0260
 5373SOL    HW127578   3.945   1.227   0.186  0.1598  0.2548  0.5567
 5373SOL    HW227579   4.066   1.296   0.122  0.0455  0.4463 -1.3180
 5374SOL     OW27580   2.430   1.260   6.739  0.3334  0.3615  1.2275
 5374SOL    HW127581   2.507   1.312   6.714 -1.4539  1.4263 -2.1058
 5374SOL    HW227582   2.466   1.174   6.759  0.5192  0.4107  1.1119
 5375SOL     OW27583   2.752   2.236   8.561  0.1690  0.1807 -0.3961
 5375SOL    HW127584   2.760   2.280   8.476 -1.3208 -0.1666 -0.7062
 5375SOL    HW227585   2.683   2.173   8.540  0.0654  0.2323 -0.2053
 5376SOL     OW27586   1.733   4.065   2.916 -0.2582 -1.0469  0.4740
 5376SOL    HW127587   1.800   4.106   2.971  0.1487 -0.3912 -0.4879
 5376SOL    HW227588   1.684   4.141   2.884  1.7142  1.1776  2.7316
 5377SOL     OW27589   2.736   0.849   8.055  0.7200 -0.0665 -0.8631
 5377SOL    HW127590   2.771   0.790   8.122  0.1715 -1.6748 -1.9832
 5377SOL    HW227591   2.647   0.814   8.062  1.8241 -2.6063  0.5022
 5378SOL     OW27592   2.503   3.365  16.149 -0.1921 -0.1646  0.6035
 5378SOL    HW127593   2.413   3.372  16.182 -0.0379 -2.2611  1.4652
 5378SOL    HW227594   2.485   3.360  16.055  0.4309 -0.6401  0.5130
 5379SOL     OW27595   1.850   4.371   4.023 -0.1014 -0.5472  0.1018
 5379SOL    HW127596   1.804   4.399   3.944  1.5024 -0.3899 -0.7739
 5379SOL    HW227597   1.843   4.277   4.005 -0.5920 -0.4601 -0.1664
 5380SOL     OW27598   3.616   0.637   0.627  0.2635 -0.0286  0.3995
 5380SOL    HW127599   3.665   0.676   0.700 -0.1279  1.7091 -0.2751
 5380SOL    HW227600   3.583   0.715   0.583 -0.3380  0.5425  1.8458
 5381SOL     OW27601   4.524   0.952   3.555 -0.2020 -0.1732  0.5894
 5381SOL    HW127602   4.575   0.979   3.479 -2.5539 -1.7872 -1.5642
 5381SOL    HW227603   4.451   1.014   3.546  0.8224  0.7957 -1.1980
 5382SOL     OW27604   2.514   1.416  14.383  0.0835 -0.0230  0.3615
 5382SOL    HW127605   2.552   1.393  14.468  1.0452  0.0112 -0.0608
 5382SOL    HW227606   2.504   1.511  14.385 -1.0997 -0.1625  0.9434
 5383SOL     OW27607   4.368   2.574  13.088 -0.0571 -0.0692  0.5199
 5383SOL    HW127608   4.314   2.579  13.167 -1.1894  0.9447 -0.3268
 5383SOL    HW227609   4.413   2.490  13.080 -0.7925 -0.3355 -0.7111
 5384SOL     OW27610   0.524   1.788  13.365  0.1402 -0.3313  0.0025
 5384SOL    HW127611   0.556   1.875  13.388 -0.6636  0.0652 -0.4028
 5384SOL    HW227612   0.545   1.782  13.272 -0.9372 -3.2573 -0.0619
 5385SOL     OW27613   2.833   2.868  13.674  0.0845 -0.0969  0.5762
 5385SOL    HW127614   2.760   2.881  13.613  0.5937  0.9661  0.1813
 5385SOL    HW227615   2.839   2.779  13.708 -0.4877 -0.2880  0.1809
 5386SOL     OW27616   2.167   4.552  16.084  0.6895 -0.4781 -0.1236
 5386SOL    HW127617   2.234   4.520  16.024 -0.7599 -1.9845 -0.9308
 5386SOL    HW227618   2.093   4.501  16.051  2.4340 -3.2446  0.2663
 5387SOL     OW27619   4.532   0.937   1.761  0.1362  0.0605  0.1739
 5387SOL    HW127620   4.617   0.910   1.725  0.2569  0.2702  0.3042
 5387SOL    HW227621   4.559   1.006   1.821 -0.3632  2.1135 -1.9867
 5388SOL     OW27622   2.737   1.039  17.656  0.2274 -0.4952  0.4658
 5388SOL    HW127623   2.786   1.117  17.633 -0.5165  0.0719  0.7975
 5388SOL    HW227624   2.733   0.995  17.570 -3.4125  2.3372 -0.8432
 5389SOL     OW27625   3.675   2.628  13.154  0.0878  0.0179  0.2207
 5389SOL    HW127626   3.629   2.654  13.074 -1.2773  1.8319  1.6010
 5389SOL    HW227627   3.678   2.533  13.143 -0.2052 -0.1881  1.9301
 5390SOL     OW27628   2.938   3.346   8.122 -0.2258  0.1986  0.3083
 5390SOL    HW127629   3.012   3.355   8.182  0.8272 -1.3091 -0.7318
 5390SOL    HW227630   2.956   3.428   8.077  0.4158  1.0293  2.0895
 5391SOL     OW27631   1.561   4.342   3.651 -0.1056 -0.1950  0.5207
 5391SOL    HW127632   1.548   4.251   3.679 -0.0555  0.4889  2.7632
 5391SOL    HW227633   1.562   4.380   3.739 -2.2677 -0.4992  0.6694
 5392SOL     OW27634   2.409   2.112   1.652  0.0426  0.2127 -0.1935
 5392SOL    HW127635   2.343   2.153   1.597  0.3655  0.1996 -0.5890
 5392SOL    HW227636   2.491   2.163   1.648 -0.4262  1.2021  2.4540
 5393SOL     OW27637   1.752   0.597   1.743  0.3364  0.1729  0.1002
 5393SOL    HW127638   1.726   0.562   1.658 -0.6611 -1.8980  1.2364
 5393SOL    HW227639   1.736   0.516   1.792  0.0126 -1.2801 -2.3775
 5394SOL     OW27640   1.271   3.754   0.447  0.2070  0.6370 -0.1336
 5394SOL    HW127641   1.201   3.705   0.403  0.3627  0.7349 -0.4839
 5394SOL    HW227642   1.252   3.843   0.417  0.8830  0.8577  0.1146
 5395SOL     OW27643   2.242   2.792   9.062 -0.2015  0.4119 -0.4865
 5395SOL    HW127644   2.328   2.758   9.086 -1.0080 -0.4790  1.1163
 5395SOL    HW227645   2.216   2.827   9.147 -0.5169  1.5637 -1.0460
 5396SOL     OW27646   0.826   2.674   3.158 -0.6884  0.1481  0.1515
 5396SOL    HW127647   0.799   2.609   3.223  0.0699  0.4333  0.7637
 5396SOL    HW227648   0.858   2.747   3.212  0.1565 -1.0326  1.2291
 5397SOL     OW27649   4.401   1.910   4.547 -0.0786  0.2438 -0.3343
 5397SOL    HW127650   4.337   1.981   4.553 -0.9935 -0.4577 -1.7961
 5397SOL    HW227651   4.476   1.956   4.585 -1.7461  2.3249  0.4681
 5398SOL     OW27652   1.096   2.150   8.830 -0.1563 -0.1922  0.6157
 5398SOL    HW127653   1.137   2.161   8.745 -0.4175  0.4581  0.5766
 5398SOL    HW227654   1.038   2.226   8.829  0.1836  0.0311 -1.3499
 5399SOL     OW27655   0.712   0.970  14.551 -0.1861  0.3610  0.2609
 5399SOL    HW127656   0.707   0.983  14.645 -2.7970  2.5836 -0.1797
 5399SOL    HW227657   0.624   0.999  14.527 -0.8204  0.2356  2.4704
 5400SOL     OW27658   4.713   1.649  13.331  0.1969  0.0847 -0.2135
 5400SOL    HW127659   4.708   1.588  13.404  0.3763  1.8229  1.2528
 5400SOL    HW227660   4.707   1.732  13.379  2.1378 -1.1977  2.2003
 5401SOL     OW27661   2.844   3.405  10.071  0.1913  0.0212 -0.0396
 5401SOL    HW127662   2.760   3.448  10.084 -0.1881 -0.8432  0.3453
 5401SOL    HW227663   2.861   3.407   9.977  0.6589  0.0817  0.0441
 5402SOL     OW27664   2.998   0.545   3.030  0.4531 -0.1180  0.1892
 5402SOL    HW127665   2.996   0.640   3.040  0.4605  0.2071 -2.9204
 5402SOL    HW227666   2.993   0.530   2.936 -3.7213  1.4049  0.1689
 5403SOL     OW27667   4.684   3.494  10.568 -0.0123 -0.3433  0.6381
 5403SOL    HW127668   4.683   3.401  10.547  0.5010 -0.0307 -0.7526
 5403SOL    HW227669   4.591   3.510  10.579 -0.4161 -2.4442  0.0614
 5404SOL     OW27670   0.988   2.316  16.862  0.3069 -0.0726  0.1442
 5404SOL    HW127671   0.990   2.326  16.957 -2.1654 -1.5925  0.3491
 5404SOL    HW227672   1.004   2.408  16.837  1.7592  0.1525  1.9056
 5405SOL     OW27673   1.278   2.952  11.023 -0.2363  0.4732  0.5875
 5405SOL    HW127674   1.209   3.006  11.062 -2.5876 -1.4222 -0.9305
 5405SOL    HW227675   1.270   2.980  10.932 -0.2802 -1.5175 -0.0100
 5406SOL     OW27676   4.269   0.417   6.078  0.4437  0.3395 -0.1417
 5406SOL    HW127677   4.231   0.330   6.087  0.8144  0.1226 -0.6508
 5406SOL    HW227678   4.362   0.396   6.070  0.6204  0.7045  0.9546
 5407SOL     OW27679   3.881   3.086   3.463 -0.6335 -0.2297 -0.9584
 5407SOL    HW127680   3.860   2.994   3.450  2.0606 -1.2228  1.7211
 5407SOL    HW227681   3.835   3.110   3.543  1.8534  1.6729 -0.0706
 5408SOL     OW27682   1.275   0.166  12.113  0.4565 -0.1376  0.3292
 5408SOL    HW127683   1.284   0.241  12.054  4.3536  0.6906  1.9144
 5408SOL    HW227684   1.267   0.208  12.199 -2.1671  0.8197 -0.3883
 5409SOL     OW27685   0.286   3.278   2.072 -0.7398  0.2491 -0.0048
 5409SOL    HW127686   0.248   3.248   2.155  0.2790 -0.2928  0.2621
 5409SOL    HW227687   0.373   3.238   2.073 -0.3650  1.0667 -0.3816
 5410SOL     OW27688   3.348   2.496  16.199  0.5297 -0.3820 -0.0827
 5410SOL    HW127689   3.344   2.589  16.223 -0.4272 -0.1661 -1.0995
 5410SOL    HW227690   3.422   2.476  16.256  0.5267  1.1267  0.4472
 5411SOL     OW27691   2.798   3.824   3.549 -0.0524 -0.1642  0.2020
 5411SOL    HW127692   2.739   3.760   3.589 -2.3651  1.3718 -0.7700
 5411SOL    HW227693   2.880   3.778   3.568 -0.6440 -1.2728  0.0746
 5412SOL     OW27694   2.910   4.431  11.755 -0.0324 -0.0481 -0.2280
 5412SOL    HW127695   2.818   4.444  11.731  0.0733 -0.3212 -0.8017
 5412SOL    HW227696   2.891   4.362  11.819  0.3206  0.0812  0.0101
 5413SOL     OW27697   1.512   2.227   5.896  0.3975 -0.0665 -0.4000
 5413SOL    HW127698   1.514   2.133   5.910 -0.6748  0.0648  0.6708
 5413SOL    HW227699   1.420   2.252   5.910  0.0432 -2.0750  0.8587
 5414SOL     OW27700   4.295   3.324   8.777  0.1426  0.3338 -0.3209
 5414SOL    HW127701   4.368   3.280   8.820  0.7036  2.4284  0.8864
 5414SOL    HW227702   4.243   3.347   8.854 -0.2076  2.0255 -1.0736
 5415SOL     OW27703   3.769   4.264   3.823 -0.2580 -0.1072 -0.1658
 5415SOL    HW127704   3.859   4.277   3.852 -0.5477 -0.5842  0.9301
 5415SOL    HW227705   3.760   4.306   3.738  1.2505  1.5870  0.5290
 5416SOL     OW27706   2.547   2.315   7.796  0.4215  0.3644 -0.1138
 5416SOL    HW127707   2.485   2.387   7.782 -2.0519 -2.0317 -1.5279
 5416SOL    HW227708   2.557   2.327   7.890 -0.0731 -0.0882  0.0027
 5417SOL     OW27709   0.637   4.439  17.664  0.3869 -0.4564  0.0539
 5417SOL    HW127710   0.620   4.389   0.048 -0.0977 -1.1524 -0.4882
 5417SOL    HW227711   0.712   4.492  17.692 -0.6956  0.5904  0.9758
 5418SOL     OW27712   1.684   2.287   2.939  0.3091 -0.0102 -0.2987
 5418SOL    HW127713   1.630   2.354   2.896  1.5746  0.9623 -0.3835
 5418SOL    HW227714   1.675   2.305   3.033 -1.5699 -2.7823  0.0412
 5419SOL     OW27715   3.104   4.352  12.146  0.4049 -0.2058  0.1142
 5419SOL    HW127716   3.056   4.344  12.228 -0.0366  0.9323 -0.0236
 5419SOL    HW227717   3.083   4.267  12.107  0.8936  0.1301 -0.9005
 5420SOL     OW27718   4.148   1.769   2.663 -0.2433 -0.2745  0.0012
 5420SOL    HW127719   4.212   1.714   2.708 -0.0576 -0.7615 -0.8526
 5420SOL    HW227720   4.181   1.856   2.684 -0.9235 -0.2006  0.7829
 5421SOL     OW27721   4.369   3.107  10.594 -0.1789 -0.5043  0.0414
 5421SOL    HW127722   4.337   3.196  10.611  1.3197  0.4256 -2.0164
 5421SOL    HW227723   4.318   3.093  10.514  1.1545 -0.4801 -0.7991
 5422SOL     OW27724   2.561   2.228   7.547  0.0486 -0.3313  0.3578
 5422SOL    HW127725   2.555   2.246   7.640 -0.7509 -0.6707  0.3671
 5422SOL    HW227726   2.541   2.317   7.518  0.9742 -0.2186  0.0489
 5423SOL     OW27727   0.684   2.090   8.793 -0.5312  0.5077 -0.5869
 5423SOL    HW127728   0.766   2.041   8.789 -1.0169 -0.5486  2.0414
 5423SOL    HW227729   0.687   2.117   8.885  1.1542  0.2377 -0.5644
 5424SOL     OW27730   2.096   3.896  16.576  0.5979 -0.9619 -0.2556
 5424SOL    HW127731   2.134   3.957  16.514 -0.8645  1.6548  1.4451
 5424SOL    HW227732   2.166   3.832  16.587  1.6771  0.3611  0.5311
 5425SOL     OW27733   3.640   1.163   6.155  1.3762  0.1681 -0.5163
 5425SOL    HW127734   3.662   1.182   6.064  1.7047 -0.2926 -0.5348
 5425SOL    HW227735   3.603   1.075   6.148 -2.7160  1.8620 -0.1782
 5426SOL     OW27736   1.711   1.329   5.139  0.5556  0.1647 -0.7312
 5426SOL    HW127737   1.633   1.316   5.085 -0.6774  0.2253  1.0229
 5426SOL    HW227738   1.698   1.418   5.173 -0.4303 -1.3051  2.7321
 5427SOL     OW27739   2.295   1.281  10.116  0.0434 -0.2153 -0.0333
 5427SOL    HW127740   2.210   1.285  10.160  0.4921  1.1385  0.6962
 5427SOL    HW227741   2.282   1.341  10.042  0.9822 -1.0487 -0.8777
 5428SOL     OW27742   1.517   4.661   9.852 -0.1635 -0.2379  0.4185
 5428SOL    HW127743   1.504   4.566   9.851 -1.6542 -0.0041 -2.3758
 5428SOL    HW227744   1.430   4.698   9.836  0.8656  1.6600 -0.7867
 5429SOL     OW27745   2.863   2.599   5.814  0.1957  0.4253  1.2322
 5429SOL    HW127746   2.904   2.569   5.733 -1.5774 -1.3327  0.9811
 5429SOL    HW227747   2.925   2.565   5.878  0.4127  1.5320  1.6250
 5430SOL     OW27748   0.383   4.027  15.545 -0.2791 -0.3505 -0.2969
 5430SOL    HW127749   0.355   3.935  15.545  2.0903 -1.0780 -1.2806
 5430SOL    HW227750   0.475   4.034  15.570 -1.1707 -0.3800  3.0563
 5431SOL     OW27751   0.774   0.481   8.681  0.5442 -0.0611  0.1552
 5431SOL    HW127752   0.825   0.516   8.754  0.2192 -0.9586  0.8143
 5431SOL    HW227753   0.742   0.400   8.721  0.5333  0.7264  1.7279
 5432SOL     OW27754   4.107   3.025   6.047  0.2567 -0.0814 -0.6300
 5432SOL    HW127755   4.178   3.016   6.112 -1.5148 -1.1970  1.1484
 5432SOL    HW227756   4.059   3.106   6.063 -1.1584 -0.9879 -0.2557
 5433SOL     OW27757   4.533   3.991   4.717  0.0571  0.5170 -0.3345
 5433SOL    HW127758   4.454   4.045   4.719  0.2294  0.7606 -0.0275
 5433SOL    HW227759   4.593   4.056   4.681  0.1770 -0.0164 -1.1062
 5434SOL     OW27760   2.111   1.450  13.631 -0.1855 -0.3191 -0.0663
 5434SOL    HW127761   2.076   1.538  13.614 -0.1799 -0.1316  0.8937
 5434SOL    HW227762   2.027   1.406  13.639 -0.1132 -0.2939  0.8276
 5435SOL     OW27763   1.204   2.248  13.592  0.5871  0.4508  0.1225
 5435SOL    HW127764   1.188   2.267  13.685  0.3692  1.4875 -0.1208
 5435SOL    HW227765   1.239   2.332  13.563  0.0433  0.3886 -0.7385
 5436SOL     OW27766   2.089   3.085   6.572  0.3053 -0.6295 -0.0919
 5436SOL    HW127767   2.108   3.085   6.666 -2.5710  0.5177  0.4900
 5436SOL    HW227768   2.062   3.177   6.569  0.7220 -0.5099 -0.2056
 5437SOL     OW27769   3.920   4.355   4.797  0.1522 -0.4610 -0.1786
 5437SOL    HW127770   3.850   4.382   4.856  0.7652  1.8696 -0.5134
 5437SOL    HW227771   3.866   4.348   4.718  0.5038  0.1914 -0.4740
 5438SOL     OW27772   2.162   1.355   6.793  0.2875 -0.2821 -0.5282
 5438SOL    HW127773   2.247   1.315   6.774 -0.2336 -1.3337 -0.6556
 5438SOL    HW227774   2.194   1.432   6.839 -0.9039  0.6459 -1.2667
 5439SOL     OW27775   3.295   1.215   5.122 -0.6014  0.4484  0.9125
 5439SOL    HW127776   3.251   1.290   5.082  2.5768  2.0059  0.4105
 5439SOL    HW227777   3.368   1.192   5.065 -0.3552 -0.4619  1.5961
 5440SOL     OW27778   4.139   2.537   8.171 -0.4540  0.1121  0.0854
 5440SOL    HW127779   4.139   2.579   8.085 -1.6110  0.6367  0.3365
 5440SOL    HW227780   4.213   2.482   8.146 -2.0635 -2.1140  0.1400
 5441SOL     OW27781   1.277   1.671   0.727  0.0772  0.5250 -0.3873
 5441SOL    HW127782   1.372   1.666   0.722  0.0887 -1.8432  2.3625
 5441SOL    HW227783   1.266   1.724   0.805 -0.0150 -2.3042  1.5341
 5442SOL     OW27784   2.132   3.233   1.820  0.8282 -0.2318  0.7167
 5442SOL    HW127785   2.084   3.301   1.868 -1.5396 -0.2917 -1.5370
 5442SOL    HW227786   2.133   3.166   1.889 -0.3490 -1.1399 -0.1368
 5443SOL     OW27787   2.616   1.504   0.345  0.4007  0.1776 -0.3200
 5443SOL    HW127788   2.598   1.450   0.423  0.0281 -2.8588 -2.4904
 5443SOL    HW227789   2.575   1.589   0.363  1.9310  0.4655  1.8089
 5444SOL     OW27790   2.362   4.172  10.353  0.1109 -0.0670 -0.5066
 5444SOL    HW127791   2.425   4.239  10.325 -0.9876  1.0504 -0.2640
 5444SOL    HW227792   2.371   4.113  10.278  1.0841 -1.8679  1.0244
 5445SOL     OW27793   2.827   0.515   0.970  0.1639 -0.1792 -0.4089
 5445SOL    HW127794   2.900   0.577   0.981  1.0647 -1.4023  0.5686
 5445SOL    HW227795   2.756   0.572   1.000  0.6673  0.3839 -0.2826
 5446SOL     OW27796   0.985   1.864   6.589  0.3034 -0.3517  0.5189
 5446SOL    HW127797   1.027   1.896   6.669  1.0300 -1.5457  0.6035
 5446SOL    HW227798   1.006   1.917   6.512 -0.0460 -0.4142  0.3844
 5447SOL     OW27799   3.874   4.289   3.034 -0.0279  0.1078 -0.0706
 5447SOL    HW127800   3.879   4.226   2.963 -1.1052  0.3879 -0.3916
 5447SOL    HW227801   3.956   4.273   3.082 -0.7867 -1.2631  0.7471
 5448SOL     OW27802   3.386   1.740  15.774  0.2487 -0.2121 -0.4847
 5448SOL    HW127803   3.469   1.694  15.786  1.4929  1.5983 -2.1081
 5448SOL    HW227804   3.427   1.826  15.786  0.8732 -0.7767  1.4609
 5449SOL     OW27805   1.681   3.751  10.217 -0.0837 -0.3890  0.4079
 5449SOL    HW127806   1.658   3.842  10.199 -2.0909 -1.0125 -0.1243
 5449SOL    HW227807   1.645   3.699  10.145  0.2863  0.2724 -0.2557
 5450SOL     OW27808   1.555   3.421   3.164  0.1893 -0.1200 -0.0127
 5450SOL    HW127809   1.643   3.427   3.127 -0.0947 -1.6415 -0.9298
 5450SOL    HW227810   1.557   3.501   3.217 -3.8527 -0.0628  0.0438
 5451SOL     OW27811   3.011   2.130   7.409 -0.6151 -0.3491 -0.2752
 5451SOL    HW127812   3.075   2.170   7.468 -1.1881 -0.9594  0.7698
 5451SOL    HW227813   2.936   2.186   7.431 -0.2013  0.1841 -0.2077
 5452SOL     OW27814   3.610   4.144  10.821  0.0029  0.0411 -0.4477
 5452SOL    HW127815   3.631   4.051  10.806 -0.9166 -0.5299  1.7322
 5452SOL    HW227816   3.593   4.167  10.730 -1.5000 -0.4525 -0.2858
 5453SOL     OW27817   3.647   0.643  14.853 -0.0517 -0.8026 -0.7090
 5453SOL    HW127818   3.630   0.631  14.946  1.7626  3.4683  0.1995
 5453SOL    HW227819   3.645   0.550  14.830 -0.4465 -0.0501 -3.7744
 5454SOL     OW27820   0.628   4.327   5.381 -0.1573  0.7639 -0.0855
 5454SOL    HW127821   0.714   4.345   5.419  0.2395  0.5100 -0.8575
 5454SOL    HW227822   0.594   4.264   5.444 -1.0499  2.5464  1.2105
 5455SOL     OW27823   0.951   1.359   4.674 -0.1059  0.3038  0.8224
 5455SOL    HW127824   0.910   1.326   4.754 -0.3685  1.5777  1.2233
 5455SOL    HW227825   0.872   1.375   4.622  1.3608 -0.1207 -1.5103
 5456SOL     OW27826   0.461   0.715   6.068  0.6237 -0.2145  0.1892
 5456SOL    HW127827   0.426   0.751   6.149 -0.7277  0.9022 -0.8971
 5456SOL    HW227828   0.389   0.742   6.011  0.5393 -2.7192 -0.8912
 5457SOL     OW27829   2.322   0.437  14.372  0.3186  0.3910 -0.5257
 5457SOL    HW127830   2.256   0.369  14.386  0.7051  0.2400  0.5055
 5457SOL    HW227831   2.309   0.465  14.281  0.1366  0.0750 -0.5985
 5458SOL     OW27832   3.491   3.656   4.647  0.1786  0.2017  0.1453
 5458SOL    HW127833   3.516   3.696   4.730  0.8068  1.1263 -0.5003
 5458SOL    HW227834   3.398   3.638   4.664 -0.4136  2.1585 -0.9715
 5459SOL     OW27835   1.875   2.127   5.255  0.5556  0.1415 -0.2214
 5459SOL    HW127836   1.835   2.184   5.321 -0.7440 -2.8124  1.5145
 5459SOL    HW227837   1.877   2.051   5.313 -0.5508 -1.2697 -2.0551
 5460SOL     OW27838   0.185   2.970  12.940 -0.1886  0.2561 -0.0408
 5460SOL    HW127839   0.182   2.991  13.033  2.3777 -0.9909  0.3422
 5460SOL    HW227840   0.111   2.913  12.919 -0.0057  0.0892 -0.2410
 5461SOL     OW27841   0.972   3.886   2.284 -0.4212  0.4391  0.0692
 5461SOL    HW127842   1.051   3.879   2.231  0.3868  0.4591  1.2660
 5461SOL    HW227843   1.017   3.943   2.346 -1.6130  0.1117  1.2393
 5462SOL     OW27844   3.959   2.316  15.925 -0.9930  0.2188  0.0929
 5462SOL    HW127845   4.009   2.252  15.977  0.4289 -0.9203 -2.6833
 5462SOL    HW227846   3.911   2.252  15.873 -1.2246  0.1386  0.4021
 5463SOL     OW27847   2.485   3.414   1.353  0.2762  0.5315 -0.1693
 5463SOL    HW127848   2.537   3.462   1.288 -1.2611  0.4594 -1.4709
 5463SOL    HW227849   2.461   3.337   1.301  0.9690  1.8637 -2.4540
 5464SOL     OW27850   0.714   2.100   4.228  0.7312 -0.3693  0.9869
 5464SOL    HW127851   0.667   2.101   4.311 -0.4116  0.8822  0.3349
 5464SOL    HW227852   0.645   2.064   4.174  1.5729 -0.6597  0.1068
 5465SOL     OW27853   4.118   1.084  16.038 -0.1745 -0.3522 -0.3295
 5465SOL    HW127854   4.203   1.069  15.996 -0.2374 -0.5292 -0.3968
 5465SOL    HW227855   4.140   1.082  16.131  2.6805  1.2851 -0.9816
 5466SOL     OW27856   2.015   0.343  15.108  0.6022  0.4980 -0.3978
 5466SOL    HW127857   2.082   0.296  15.058 -0.3615  0.1483 -1.3543
 5466SOL    HW227858   2.061   0.371  15.187 -0.7246 -1.6789  1.1225
 5467SOL     OW27859   0.791   3.511   8.860  0.4691  0.2870  0.0836
 5467SOL    HW127860   0.716   3.570   8.866  1.4986  1.7819 -1.7964
 5467SOL    HW227861   0.769   3.436   8.915  0.7944  1.2586  1.5359
 5468SOL     OW27862   2.594   1.904   9.722 -0.2231  0.5365  0.2342
 5468SOL    HW127863   2.596   1.818   9.764 -3.8550  0.3202 -0.0280
 5468SOL    HW227864   2.619   1.954   9.799  0.2290  1.0503 -0.2480
 5469SOL     OW27865   2.726   0.309   7.263  0.3700 -0.1258 -0.9163
 5469SOL    HW127866   2.763   0.284   7.347  0.8629 -1.1587 -1.4460
 5469SOL    HW227867   2.723   0.405   7.266  0.2120 -0.1550 -0.2249
 5470SOL     OW27868   1.366   3.832   3.774 -0.0792 -0.1789  0.4133
 5470SOL    HW127869   1.439   3.771   3.764 -0.8234 -0.4612 -3.3431
 5470SOL    HW227870   1.323   3.795   3.852  0.6155 -0.6344  0.5800
 5471SOL     OW27871   2.346   2.648   4.771  0.4347 -0.0173  0.0256
 5471SOL    HW127872   2.395   2.618   4.694 -0.9837 -1.8412 -0.1471
 5471SOL    HW227873   2.334   2.741   4.749 -1.0741 -0.2753 -0.2481
 5472SOL     OW27874   2.758   0.993   3.581 -0.1705  0.2127 -0.3580
 5472SOL    HW127875   2.743   0.985   3.675  0.0438  0.3962 -0.3072
 5472SOL    HW227876   2.790   0.906   3.556 -2.4777 -0.1030 -2.2031
 5473SOL     OW27877   0.745   3.596   3.330 -0.0427 -0.5012 -0.5461
 5473SOL    HW127878   0.698   3.577   3.249 -1.3566  0.8362 -0.1039
 5473SOL    HW227879   0.683   3.656   3.372  1.9379  1.2027 -0.0717
 5474SOL     OW27880   0.456   1.913   3.647  0.6002 -0.4723 -0.2522
 5474SOL    HW127881   0.442   2.007   3.655 -0.2275 -0.4352 -2.0612
 5474SOL    HW227882   0.491   1.893   3.733  1.0113  1.5121  0.0490
 5475SOL     OW27883   3.424   2.906   7.241  0.2035 -0.2164 -0.4640
 5475SOL    HW127884   3.498   2.847   7.251  1.4167  1.2813 -0.6267
 5475SOL    HW227885   3.416   2.903   7.145 -1.8238  0.8104 -0.3250
 5476SOL     OW27886   0.475   3.972   1.952 -0.4208 -0.1067 -0.3736
 5476SOL    HW127887   0.543   3.929   1.900  0.6835  2.2441 -0.8639
 5476SOL    HW227888   0.508   4.061   1.956 -0.0645 -0.1740 -1.8702
 5477SOL     OW27889   1.466   2.312   9.529 -0.0188 -0.3954  0.1772
 5477SOL    HW127890   1.439   2.220   9.529 -0.6308 -0.2195 -2.7537
 5477SOL    HW227891   1.527   2.310   9.455  0.3604 -1.3230  0.5144
 5478SOL     OW27892   0.904   2.611   6.921 -0.2831 -0.0475 -0.1357
 5478SOL    HW127893   0.968   2.594   6.989 -3.3988 -1.6936  2.4123
 5478SOL    HW227894   0.942   2.677   6.863  0.7407  0.2007  0.8225
 5479SOL     OW27895   3.908   0.974   9.803 -0.2593  0.0948  0.5715
 5479SOL    HW127896   3.941   1.007   9.719 -2.4981  2.0525  0.4408
 5479SOL    HW227897   3.899   0.881   9.785 -3.3929  0.4751  0.1210
 5480SOL     OW27898   4.397   0.463   4.681 -0.1600  0.5950  0.1070
 5480SOL    HW127899   4.419   0.478   4.773 -2.3797  3.4467  0.1776
 5480SOL    HW227900   4.346   0.383   4.689  0.7499 -0.0460 -0.4539
 5481SOL     OW27901   3.990   1.401   6.007 -0.1738 -0.0399  0.1739
 5481SOL    HW127902   3.942   1.420   5.926 -0.8798 -1.3297  0.2744
 5481SOL    HW227903   3.996   1.490   6.040 -0.5797  0.6403 -1.5885
 5482SOL     OW27904   4.705   3.897  14.361  0.0094 -0.2727  0.0529
 5482SOL    HW127905   0.015   3.941  14.282 -2.8657 -0.3867 -1.2499
 5482SOL    HW227906   0.020   3.948  14.432  1.1746  0.9338 -1.4320
 5483SOL     OW27907   1.951   4.340   2.545 -0.4792 -0.1853 -0.5286
 5483SOL    HW127908   2.007   4.399   2.495 -0.9795  1.9791  1.4228
 5483SOL    HW227909   1.880   4.404   2.546  0.6679  1.1194 -1.8208
 5484SOL     OW27910   1.416   1.247   3.414 -0.5033 -0.8434  0.0988
 5484SOL    HW127911   1.362   1.278   3.341  1.8166  0.7573 -0.9579
 5484SOL    HW227912   1.397   1.153   3.407 -2.4968 -0.4818  0.7390
 5485SOL     OW27913   1.989   2.622   7.466  0.6144 -0.5618  0.5877
 5485SOL    HW127914   1.913   2.614   7.523 -0.2916 -0.7179 -0.6510
 5485SOL    HW227915   2.063   2.601   7.524  1.9373 -0.3746 -1.0385
 5486SOL     OW27916   3.782   0.514   6.852  0.1816  0.1738  0.5543
 5486SOL    HW127917   3.700   0.480   6.887  0.2289 -0.8988 -0.3655
 5486SOL    HW227918   3.755   0.593   6.805  0.5122  1.2843  2.2479
 5487SOL     OW27919   3.288   0.718   6.650 -0.6944 -0.8085  0.0820
 5487SOL    HW127920   3.284   0.770   6.731 -0.5004 -0.2334 -0.2795
 5487SOL    HW227921   3.305   0.629   6.680  1.3626 -0.4814 -0.0653
 5488SOL     OW27922   1.709   4.511   7.243  0.3519 -0.0345  0.1326
 5488SOL    HW127923   1.750   4.596   7.226  0.8471 -0.1321  0.8628
 5488SOL    HW227924   1.624   4.534   7.206  0.0779 -1.4642 -0.1277
 5489SOL     OW27925   0.760   0.732   9.998  0.4041 -0.2500 -0.3079
 5489SOL    HW127926   0.810   0.763   9.922  0.9924 -2.0292 -0.6381
 5489SOL    HW227927   0.676   0.754   9.957 -0.4797 -2.6338  0.2594
 5490SOL     OW27928   4.509   3.808  12.139 -0.4584 -0.2163 -0.2614
 5490SOL    HW127929   4.443   3.870  12.171 -1.9939 -2.1543  0.3323
 5490SOL    HW227930   4.564   3.786  12.213 -0.3526  2.3109  0.4110
 5491SOL     OW27931   1.193   0.627   2.641 -0.5303  0.4555  0.6004
 5491SOL    HW127932   1.241   0.657   2.564 -0.0514  0.6716  0.9849
 5491SOL    HW227933   1.155   0.548   2.603 -1.5816  0.9110  0.7160
 5492SOL     OW27934   4.085   1.426   7.905  0.2832  0.1173  0.0693
 5492SOL    HW127935   4.069   1.495   7.970 -2.4410 -2.3854  2.0529
 5492SOL    HW227936   4.147   1.477   7.853  0.9363 -1.9528 -1.1598
 5493SOL     OW27937   0.237   1.311   5.287  0.4101  0.3317 -0.7900
 5493SOL    HW127938   0.198   1.271   5.365 -0.6443 -0.0367 -1.4933
 5493SOL    HW227939   0.164   1.327   5.227  0.0056  0.3318 -0.2973
 5494SOL     OW27940   4.590   2.257   5.471  0.1908  0.1905  0.0609
 5494SOL    HW127941   4.665   2.205   5.500  0.5673  1.1566  0.8250
 5494SOL    HW227942   4.536   2.249   5.550 -0.9718 -0.6982 -0.8188
 5495SOL     OW27943   3.485   1.074   2.394  0.0930  0.7866 -0.9557
 5495SOL    HW127944   3.530   1.060   2.311  0.4789 -3.2345 -0.0776
 5495SOL    HW227945   3.551   1.052   2.460 -1.8702 -1.5590  0.2329
 5496SOL     OW27946   0.363   1.556   3.889  0.1623  0.0393  0.0920
 5496SOL    HW127947   0.451   1.593   3.900  0.0133 -0.2421  2.2553
 5496SOL    HW227948   0.360   1.523   3.799  1.3071 -0.5574  0.2765
 5497SOL     OW27949   2.700   3.824   5.820 -0.0132 -0.8237 -0.4426
 5497SOL    HW127950   2.622   3.793   5.773  0.7714  1.5108 -3.2662
 5497SOL    HW227951   2.666   3.893   5.876 -1.8331 -0.1570 -2.3591
 5498SOL     OW27952   2.835   4.313   7.113  0.4315  0.3474  0.4435
 5498SOL    HW127953   2.833   4.217   7.106 -1.8097  0.3640  0.6705
 5498SOL    HW227954   2.741   4.334   7.114  0.4647  0.4587  1.2686
 5499SOL     OW27955   1.995   1.681   2.688  0.0641 -0.6532  0.4215
 5499SOL    HW127956   2.074   1.717   2.648 -1.0491 -2.6935 -3.5253
 5499SOL    HW227957   1.984   1.605   2.631 -1.3779 -0.1509  0.0240
 5500SOL     OW27958   1.950   4.105  13.631  0.0634  0.3899  0.2031
 5500SOL    HW127959   1.943   4.197  13.606  2.3140  0.5384  0.0666
 5500SOL    HW227960   2.042   4.081  13.619  0.4881  2.2473 -0.2025
 5501SOL     OW27961   2.490   3.455  14.953 -0.0130  0.1905  0.3698
 5501SOL    HW127962   2.455   3.444  15.041  0.5833 -0.3411  0.5354
 5501SOL    HW227963   2.472   3.549  14.950 -1.0740  0.0989  4.8583
 5502SOL     OW27964   3.123   3.045   8.452 -0.8635 -0.2758 -0.4380
 5502SOL    HW127965   3.053   2.985   8.425 -2.3341  0.6900  1.2011
 5502SOL    HW227966   3.071   3.080   8.525  1.5835 -1.1280  1.7214
 5503SOL     OW27967   0.148   3.605   6.190 -0.1197  0.5850 -0.0280
 5503SOL    HW127968   0.097   3.677   6.152 -0.6649  0.0147 -0.3609
 5503SOL    HW227969   0.210   3.644   6.252  0.3881 -1.2411  0.6058
 5504SOL     OW27970   3.236   0.495  12.670 -0.4715 -0.0912  0.1792
 5504SOL    HW127971   3.152   0.529  12.699 -0.8411 -0.1891 -0.7741
 5504SOL    HW227972   3.252   0.537  12.585  0.2306 -0.0098  0.3485
 5505SOL     OW27973   4.597   2.296  16.581  0.1864 -0.0932 -0.6112
 5505SOL    HW127974   4.642   2.342  16.511 -0.4923  0.0083 -0.9840
 5505SOL    HW227975   4.585   2.354  16.656 -0.2703  0.1018 -0.8314
 5506SOL     OW27976   1.247   0.873  13.374  0.3364 -0.4108  0.0366
 5506SOL    HW127977   1.237   0.778  13.379 -2.2657 -0.1042  0.4450
 5506SOL    HW227978   1.156   0.903  13.369  0.5364 -0.0774 -1.5978
 5507SOL     OW27979   3.991   1.965   3.008 -0.1945 -0.4049 -0.1008
 5507SOL    HW127980   3.943   1.927   2.934 -0.8573 -0.3192  0.2872
 5507SOL    HW227981   4.077   1.996   2.978 -0.5983  1.2075  0.4711
 5508SOL     OW27982   2.082   4.151   5.163  0.0232  0.0555  0.7761
 5508SOL    HW127983   2.006   4.145   5.220  0.6440 -0.9730  1.4928
 5508SOL    HW227984   2.140   4.189   5.228  0.8237 -0.6737  0.4855
 5509SOL     OW27985   2.000   2.612   5.848 -0.3251 -0.0642 -0.0180
 5509SOL    HW127986   1.996   2.659   5.932  0.6516 -2.1268  1.1720
 5509SOL    HW227987   2.080   2.652   5.814  1.3658 -4.0815 -0.6452
 5510SOL     OW27988   4.601   0.798  17.588 -0.4011  0.0005 -0.0253
 5510SOL    HW127989   4.584   0.813  17.681  2.1415 -0.3236  0.4796
 5510SOL    HW227990   4.592   0.883  17.546  0.3371  0.6571  1.1574
 5511SOL     OW27991   1.960   2.825   1.895 -0.2478 -0.4008  0.4150
 5511SOL    HW127992   1.930   2.768   1.965  1.1604  0.2257  1.5369
 5511SOL    HW227993   2.029   2.876   1.939 -0.9174  2.2482 -1.5829
 5512SOL     OW27994   0.912   0.566   4.615 -0.7528  0.3689 -0.4747
 5512SOL    HW127995   0.821   0.596   4.623 -1.1914 -1.4600  1.3888
 5512SOL    HW227996   0.950   0.635   4.560 -2.9101  1.4070 -0.6738
 5513SOL     OW27997   1.345   3.377  17.009  0.2743  0.5617 -0.2531
 5513SOL    HW127998   1.376   3.392  17.099 -1.0169  2.7435 -0.1620
 5513SOL    HW227999   1.429   3.378  16.963 -0.1663 -0.3589 -1.0777
 5514SOL     OW28000   0.120   0.629   3.701 -0.8449 -0.2246 -0.1008
 5514SOL    HW128001   0.074   0.578   3.766  0.0199  1.7592  2.0702
 5514SOL    HW228002   0.189   0.570   3.671 -0.5580 -0.4155  0.9425
 5515SOL     OW28003   1.846   2.294   1.075 -0.0934  0.2455  0.2770
 5515SOL    HW128004   1.878   2.311   1.163  1.1692  3.4421 -0.8156
 5515SOL    HW228005   1.925   2.259   1.035  0.9955  0.1417  2.5554
 5516SOL     OW28006   0.458   1.719  17.452 -0.6313 -0.2620  0.2339
 5516SOL    HW128007   0.552   1.728  17.470 -0.1644 -0.3719 -2.2135
 5516SOL    HW228008   0.417   1.772  17.521 -0.9661 -0.0931 -0.0900
 5517SOL     OW28009   3.378   0.450   2.942 -0.1303 -0.2311 -0.6590
 5517SOL    HW128010   3.467   0.417   2.957  0.5343  2.0646  0.4461
 5517SOL    HW228011   3.355   0.465   3.034 -0.8561  1.1596 -1.0625
 5518SOL     OW28012   0.002   2.958   9.529  0.2852  0.0091 -0.0229
 5518SOL    HW128013   0.010   2.871   9.568  0.2171 -0.0122 -0.0551
 5518SOL    HW228014   4.654   2.938   9.468 -0.0811 -0.5807  0.6039
 5519SOL     OW28015   4.472   2.090   6.405  0.1344  0.1191 -0.0988
 5519SOL    HW128016   4.446   2.182   6.411  0.6646  0.1699  1.3910
 5519SOL    HW228017   4.558   2.100   6.445  0.5480  0.5208 -1.0882
 5520SOL     OW28018   2.671   1.090   5.066 -0.5213 -0.0453 -0.2593
 5520SOL    HW128019   2.710   1.176   5.081 -1.2478  0.1111  0.7285
 5520SOL    HW228020   2.633   1.079   5.153 -0.9978 -0.8907 -0.5730
 5521SOL     OW28021   3.776   0.934   7.047  0.1345 -1.0122 -0.4416
 5521SOL    HW128022   3.729   0.856   7.076  0.9770 -1.5391 -0.4638
 5521SOL    HW228023   3.866   0.901   7.047  0.2912 -0.5796  0.1448
 5522SOL     OW28024   3.637   2.405  15.959 -0.4158  0.0615 -0.4856
 5522SOL    HW128025   3.727   2.395  15.989 -0.0956 -1.9898 -2.1615
 5522SOL    HW228026   3.640   2.498  15.935  0.8290 -0.4674 -2.2713
 5523SOL     OW28027   3.020   3.615   8.023 -0.2766 -0.0904  0.1614
 5523SOL    HW128028   3.113   3.612   8.003  0.6105  2.1465  4.0941
 5523SOL    HW228029   2.984   3.615   7.934  0.2935  0.5402 -0.0633
 5524SOL     OW28030   3.042   3.476   4.484  0.5413  0.7600  0.4884
 5524SOL    HW128031   3.106   3.405   4.473  0.5833  0.8056  0.4368
 5524SOL    HW228032   3.096   3.554   4.497  1.9311 -0.2948  1.0254
 5525SOL     OW28033   3.026   2.761   9.446 -0.2319  0.5130  0.0333
 5525SOL    HW128034   3.058   2.792   9.362  1.5244 -0.5143  0.3314
 5525SOL    HW228035   3.054   2.669   9.443  0.9247  0.8460  1.0475
 5526SOL     OW28036   1.075   1.364   6.959  0.5146 -0.5342 -0.2247
 5526SOL    HW128037   1.159   1.369   7.003 -0.4409 -0.8074  1.6354
 5526SOL    HW228038   1.105   1.406   6.879 -0.3670 -1.1801 -0.8955
 5527SOL     OW28039   0.516   1.125   7.528  0.1577  0.3002 -0.1410
 5527SOL    HW128040   0.540   1.082   7.446  1.4587  0.1765  0.3147
 5527SOL    HW228041   0.584   1.097   7.589  0.5813  0.3634 -0.5907
 5528SOL     OW28042   2.992   4.549   8.442 -0.6135  0.4215 -0.3529
 5528SOL    HW128043   3.062   4.606   8.475  0.4555 -1.3097  0.3832
 5528SOL    HW228044   3.039   4.467   8.452  0.4650  1.4004  2.6055
 5529SOL     OW28045   0.186   1.278   7.540 -0.1619 -0.2852 -0.1253
 5529SOL    HW128046   0.136   1.327   7.605 -0.3858  0.4596 -0.8514
 5529SOL    HW228047   0.160   1.189   7.562  0.1367 -0.3033  0.1528
 5530SOL     OW28048   0.728   3.705   3.847 -0.0879 -0.6510 -0.1203
 5530SOL    HW128049   0.705   3.726   3.938 -0.0821 -1.4357  0.0623
 5530SOL    HW228050   0.819   3.732   3.832 -0.1062  0.5153  1.8693
 5531SOL     OW28051   2.274   2.689   6.377  0.4893 -0.1784  0.0400
 5531SOL    HW128052   2.368   2.703   6.388  0.4705  0.4314 -0.6115
 5531SOL    HW228053   2.237   2.736   6.452  0.0498 -0.2536 -0.1264
 5532SOL     OW28054   1.501   1.173   9.757  0.8307 -0.2603  0.0775
 5532SOL    HW128055   1.472   1.202   9.670 -1.9328  0.3377  1.1757
 5532SOL    HW228056   1.519   1.260   9.793  0.7771 -0.7175  1.1967
 5533SOL     OW28057   1.713   2.811   3.105  0.6510 -0.3935 -0.3924
 5533SOL    HW128058   1.786   2.750   3.112  0.6076 -0.3503  0.4174
 5533SOL    HW228059   1.700   2.810   3.010 -1.4479  0.1858 -0.1166
 5534SOL     OW28060   2.690   4.723   5.886 -0.1958 -0.0515  1.0712
 5534SOL    HW128061   2.689   4.640   5.933 -3.4914 -0.6593 -0.0352
 5534SOL    HW228062   2.697   0.067   5.953 -0.1920  0.5242  0.4960
 5535SOL     OW28063   1.480   2.613   5.134 -0.3786 -0.2679  0.8787
 5535SOL    HW128064   1.537   2.663   5.076 -0.5264 -0.3661  0.6467
 5535SOL    HW228065   1.393   2.631   5.097  1.0435  0.4370 -2.1537
 5536SOL     OW28066   2.790   3.095   3.108  0.2918  0.1259  0.4463
 5536SOL    HW128067   2.744   3.057   3.183  1.8055  1.3639  2.0109
 5536SOL    HW228068   2.709   3.121   3.063  1.1886  1.3851 -0.4385
 5537SOL     OW28069   3.247   1.375   4.459  0.1971  0.1059  0.8801
 5537SOL    HW128070   3.304   1.444   4.425 -1.2771  0.1603 -1.4917
 5537SOL    HW228071   3.311   1.303   4.456  1.1240  0.8646  2.9216
 5538SOL     OW28072   1.302   4.694   2.570  0.1873  0.1374  0.0270
 5538SOL    HW128073   1.318   4.644   2.490 -0.6986  1.9524 -1.3020
 5538SOL    HW228074   1.376   0.031   2.569 -1.0620  1.6922  0.7188
 5539SOL     OW28075   0.423   2.247   7.806 -0.3669  0.3424  0.0354
 5539SOL    HW128076   0.518   2.258   7.809 -0.0637 -1.4528 -3.0317
 5539SOL    HW228077   0.409   2.246   7.711  0.8107 -0.5809 -0.1294
 5540SOL     OW28078   1.891   2.905   2.484 -0.2028  0.0257  0.5644
 5540SOL    HW128079   1.954   2.925   2.553  0.0131  0.4342  0.2505
 5540SOL    HW228080   1.925   2.818   2.465 -2.2608 -0.6941  0.1401
 5541SOL     OW28081   3.603   0.580  15.111  0.0248  0.4555  0.5633
 5541SOL    HW128082   3.534   0.587  15.177 -0.6535  0.5672 -0.1493
 5541SOL    HW228083   3.682   0.603  15.160  0.8050  2.7695 -1.7301
 5542SOL     OW28084   0.746   2.652  15.787  0.0541  0.2448  0.3769
 5542SOL    HW128085   0.691   2.608  15.722 -1.6089  0.4102  1.6675
 5542SOL    HW228086   0.784   2.724  15.737 -2.2968 -0.4841 -2.4585
 5543SOL     OW28087   1.695   0.408   6.026 -0.0279  0.5404 -0.8534
 5543SOL    HW128088   1.746   0.333   6.057 -0.1464 -0.1691 -2.3721
 5543SOL    HW228089   1.638   0.372   5.959  0.5322 -1.9199  0.0058
 5544SOL     OW28090   2.444   4.278   4.196  0.1172 -0.4814  0.1743
 5544SOL    HW128091   2.384   4.326   4.255  0.6529  1.8046 -1.1292
 5544SOL    HW228092   2.463   4.351   4.137 -1.7841  0.2614  0.4801
 5545SOL     OW28093   1.390   2.024   0.705  0.0134  0.4088  0.2475
 5545SOL    HW128094   1.374   1.976   0.624  0.7876 -0.4736  0.6066
 5545SOL    HW228095   1.372   2.114   0.679 -2.5931 -1.1659 -3.4217
 5546SOL     OW28096   2.362   1.594  16.750 -0.0739  0.5367  0.1199
 5546SOL    HW128097   2.405   1.640  16.678 -0.3062  1.0583  0.3097
 5546SOL    HW228098   2.316   1.658  16.804 -0.5905 -0.7953  1.2527
 5547SOL     OW28099   4.080   0.683   5.282 -0.2911 -0.8107 -0.2022
 5547SOL    HW128100   4.022   0.745   5.239  1.2996 -0.1257 -1.3346
 5547SOL    HW228101   4.083   0.604   5.228  2.1989 -1.3242  0.6646
 5548SOL     OW28102   4.148   1.662   5.395  0.1931  0.3557  0.3170
 5548SOL    HW128103   4.228   1.619   5.425 -0.6468 -1.6180 -0.2762
 5548SOL    HW228104   4.134   1.623   5.308  1.8352  2.5717 -0.9654
 5549SOL     OW28105   2.901   0.780   9.804  0.0825  0.8731 -0.1554
 5549SOL    HW128106   2.869   0.830   9.729 -0.9368 -0.5753 -0.6950
 5549SOL    HW228107   2.996   0.785   9.795  0.3924 -0.3204  2.7150
 5550SOL     OW28108   3.424   0.709  16.196  0.2272 -0.1736 -0.0486
 5550SOL    HW128109   3.449   0.777  16.258  0.2388  0.0272 -0.2730
 5550SOL    HW228110   3.508   0.667  16.179  0.1814 -0.7336  1.1196
 5551SOL     OW28111   1.781   1.589   6.653 -0.9705  0.0289  0.4536
 5551SOL    HW128112   1.794   1.503   6.613 -0.7542  0.2503  0.0505
 5551SOL    HW228113   1.768   1.565   6.745  0.5095  0.6182  0.8151
 5552SOL     OW28114   4.374   3.751   3.076 -0.7498 -0.4648 -0.2512
 5552SOL    HW128115   4.368   3.783   2.986 -0.8165 -1.6137 -0.6614
 5552SOL    HW228116   4.343   3.664   3.050 -1.9441  0.1504 -0.8776
 5553SOL     OW28117   0.624   3.399   6.518  0.1736  0.0122 -0.1196
 5553SOL    HW128118   0.581   3.363   6.440  1.5372  0.9861 -1.3161
 5553SOL    HW228119   0.599   3.326   6.574  0.2736  0.7972  0.9437
 5554SOL     OW28120   4.531   4.242   8.718 -0.7041 -0.2502 -0.1553
 5554SOL    HW128121   4.617   4.264   8.755 -0.6992  0.3029 -0.4924
 5554SOL    HW228122   4.518   4.152   8.747  0.3925 -0.3187  0.1400
 5555SOL     OW28123   3.546   0.592  14.258 -0.1274  0.5121  0.5586
 5555SOL    HW128124   3.586   0.521  14.309 -0.3348  0.5761  0.8106
 5555SOL    HW228125   3.630   0.639  14.255 -0.7034  1.5252  0.4458
 5556SOL     OW28126   4.264   0.010   3.651 -0.3845 -0.2927  0.0845
 5556SOL    HW128127   4.202   4.714   3.581  0.5339 -0.2579 -0.7457
 5556SOL    HW228128   4.202   4.719   3.722  0.3484 -1.4273  0.5012
 5557SOL     OW28129   2.410   2.369  13.615 -0.3931  0.6125 -0.3606
 5557SOL    HW128130   2.414   2.277  13.586 -0.7676  1.4865 -3.2284
 5557SOL    HW228131   2.335   2.412  13.573 -0.4148  1.0984  0.1908
 5558SOL     OW28132   3.073   3.725  11.088 -0.0374  0.1101 -0.2735
 5558SOL    HW128133   3.162   3.737  11.055  0.0697  0.5521  0.1737
 5558SOL    HW228134   3.073   3.630  11.101  1.4284 -0.2446 -2.8222
 5559SOL     OW28135   1.082   4.477   3.080  0.3538  0.0976 -0.2417
 5559SOL    HW128136   1.132   4.445   3.155 -0.9393  1.3403  1.1307
 5559SOL    HW228137   1.133   4.449   3.004 -0.5237 -2.1108 -0.0423
 5560SOL     OW28138   4.416   2.488   7.525 -0.1822 -0.2057 -0.2495
 5560SOL    HW128139   4.373   2.459   7.445 -0.4087 -0.2431 -0.1125
 5560SOL    HW228140   4.352   2.447   7.584  0.0446 -2.5368 -1.6471
 5561SOL     OW28141   2.092   1.189  13.171 -0.0095  0.3692  0.3891
 5561SOL    HW128142   2.178   1.187  13.130 -0.2763 -1.0812 -0.1143
 5561SOL    HW228143   2.104   1.118  13.235 -1.4974  1.0939  1.4535
 5562SOL     OW28144   3.115   3.233   0.427 -0.3699 -0.2430  0.1107
 5562SOL    HW128145   3.044   3.220   0.364 -1.0030 -0.7476  0.9335
 5562SOL    HW228146   3.098   3.166   0.493 -2.3644  0.3768  0.2535
 5563SOL     OW28147   3.888   2.725   8.752 -0.6103  0.5244  0.0837
 5563SOL    HW128148   3.841   2.776   8.686 -0.1097  2.8376  1.5541
 5563SOL    HW228149   3.980   2.737   8.730 -0.8748 -3.2736 -3.1428
 5564SOL     OW28150   1.735   2.310   5.400 -0.0938  0.0765  0.0612
 5564SOL    HW128151   1.723   2.390   5.349 -1.9849 -0.1464  0.1415
 5564SOL    HW228152   1.652   2.302   5.448  0.2665  1.5965  0.9411
 5565SOL     OW28153   3.305   2.597   2.788  0.2123 -0.2561 -0.1763
 5565SOL    HW128154   3.276   2.686   2.809  1.8643  0.3796 -0.5693
 5565SOL    HW228155   3.243   2.563   2.724  0.7991 -1.6324 -0.0189
 5566SOL     OW28156   0.750   2.915   7.510 -0.4953  0.1348  0.2239
 5566SOL    HW128157   0.655   2.906   7.517 -0.5788 -1.3314 -2.6998
 5566SOL    HW228158   0.771   2.866   7.430 -2.4535 -0.3278 -0.0032
 5567SOL     OW28159   1.268   4.230   7.891 -0.4479 -0.1259  0.4490
 5567SOL    HW128160   1.242   4.283   7.967  2.7351  0.8978  0.8138
 5567SOL    HW228161   1.249   4.295   7.824  0.6570  0.5030  0.7331
 5568SOL     OW28162   0.302   2.184   2.903  0.2505 -0.0081  0.0137
 5568SOL    HW128163   0.382   2.159   2.857  0.6585 -0.2156  0.8519
 5568SOL    HW228164   0.320   2.262   2.956 -2.1521  1.0195 -0.6662
 5569SOL     OW28165   3.295   1.768   4.591 -0.1600  0.3864  0.3550
 5569SOL    HW128166   3.200   1.761   4.596 -0.2216 -0.7293 -2.2395
 5569SOL    HW228167   3.315   1.683   4.629  0.0156 -0.1677 -0.9605
 5570SOL     OW28168   4.195   1.455   2.711  0.3319 -0.5195 -0.2576
 5570SOL    HW128169   4.248   1.382   2.742  0.1491 -1.3897 -2.0027
 5570SOL    HW228170   4.149   1.490   2.788  0.0087  3.9012 -2.4714
 5571SOL     OW28171   0.701   2.698   2.768 -0.8214 -0.1963 -0.0203
 5571SOL    HW128172   0.754   2.713   2.846 -0.0264 -2.8081 -0.0547
 5571SOL    HW228173   0.668   2.782   2.736 -1.6456 -0.6980 -0.4984
 5572SOL     OW28174   0.199   2.003   5.958 -0.4913 -0.4570 -0.0552
 5572SOL    HW128175   0.179   2.049   5.876  4.3829  0.0029 -0.9623
 5572SOL    HW228176   0.232   2.079   6.006  0.1016  0.1934 -1.4919
 5573SOL     OW28177   2.936   1.561  16.479 -0.3497  0.4937  0.6222
 5573SOL    HW128178   2.935   1.640  16.426  0.9166 -0.2044 -0.4436
 5573SOL    HW228179   3.002   1.588  16.543 -1.6024  1.4008  1.5267
 5574SOL     OW28180   1.741   0.956   2.765 -0.1609  0.0086 -0.0525
 5574SOL    HW128181   1.736   0.935   2.672 -2.3205  2.9039 -0.6032
 5574SOL    HW228182   1.723   1.050   2.771 -2.4949 -0.4423 -0.1936
 5575SOL     OW28183   2.221   3.118   4.430 -0.0422 -0.0542 -0.7821
 5575SOL    HW128184   2.299   3.148   4.383 -1.6791  0.7437 -3.0214
 5575SOL    HW228185   2.206   3.196   4.483  0.4618  0.7621 -1.8460
 5576SOL     OW28186   1.854   1.466   0.407 -0.1619  0.5119 -0.0276
 5576SOL    HW128187   1.898   1.450   0.323 -1.5122  1.2946 -0.8951
 5576SOL    HW228188   1.817   1.553   0.393 -0.1008  0.7742  1.4406
 5577SOL     OW28189   1.587   4.440   4.876  0.4866 -0.1339 -0.3670
 5577SOL    HW128190   1.610   4.451   4.968 -1.1869 -1.6896  0.2360
 5577SOL    HW228191   1.506   4.491   4.872  0.4538 -0.0869  0.8700
 5578SOL     OW28192   3.197   1.424  13.982 -0.1263 -0.0493 -0.5537
 5578SOL    HW128193   3.282   1.447  14.020 -0.9199  3.3010 -0.8218
 5578SOL    HW228194   3.219   1.408  13.890  1.5093  0.1428 -0.1958
 5579SOL     OW28195   1.705   0.778   2.173 -0.1843 -0.1728 -0.2185
 5579SOL    HW128196   1.655   0.809   2.097 -3.1017 -1.1471  1.2995
 5579SOL    HW228197   1.791   0.804   2.141  0.2638 -0.0977  1.0489
 5580SOL     OW28198   2.941   0.698  10.107  0.2758 -0.4539  0.3205
 5580SOL    HW128199   2.897   0.782  10.093  0.6071 -0.3331 -0.0086
 5580SOL    HW228200   3.029   0.735  10.109  0.1889 -0.2583  0.4869
 5581SOL     OW28201   2.215   2.992   5.934  0.9788  0.1028 -0.3176
 5581SOL    HW128202   2.152   3.060   5.956 -2.0046 -3.1760  1.2982
 5581SOL    HW228203   2.240   3.031   5.850  1.6776  2.2001  0.8567
 5582SOL     OW28204   2.725   1.927  10.512 -0.0127  0.4164  0.2324
 5582SOL    HW128205   2.699   2.016  10.487  0.8516  0.3101 -1.0508
 5582SOL    HW228206   2.804   1.893  10.471  0.2534  0.2554  0.8885
 5583SOL     OW28207   1.666   1.532   3.275  0.0038  0.1267  0.3913
 5583SOL    HW128208   1.662   1.604   3.212 -2.1112 -0.5061 -0.1973
 5583SOL    HW228209   1.649   1.581   3.355 -3.6017 -1.4659  0.5741
 5584SOL     OW28210   1.733   0.184   9.453 -0.2362  0.1327  0.5285
 5584SOL    HW128211   1.726   0.274   9.419  0.5041  0.8489  2.3119
 5584SOL    HW228212   1.827   0.172   9.459 -0.1247  0.1924 -1.0036
 5585SOL     OW28213   0.997   0.776   4.469  0.0278  0.8680 -0.8470
 5585SOL    HW128214   1.074   0.820   4.432  0.7047 -0.9404 -1.6036
 5585SOL    HW228215   0.932   0.830   4.423  0.0624  1.1273 -0.5870
 5586SOL     OW28216   2.512   4.656   4.317  0.2316 -0.1460 -0.4532
 5586SOL    HW128217   2.422   4.664   4.347  1.4521  0.8335  2.9890
 5586SOL    HW228218   2.551   4.607   4.390  0.2477 -1.0126 -1.0465
 5587SOL     OW28219   4.156   3.785   8.154  0.7405  0.0905 -0.4331
 5587SOL    HW128220   4.069   3.763   8.187  0.5191 -0.2592 -1.2409
 5587SOL    HW228221   4.193   3.833   8.228 -1.9292 -0.7818  1.4611
 5588SOL     OW28222   1.221   1.613   5.618  0.2247  0.6917  0.2549
 5588SOL    HW128223   1.197   1.555   5.545 -2.3495 -0.0230  1.6529
 5588SOL    HW228224   1.222   1.558   5.696 -3.8303 -0.0949 -0.2341
 5589SOL     OW28225   4.094   1.017   0.849 -0.9839 -0.0186 -0.6038
 5589SOL    HW128226   4.100   1.104   0.887 -0.0329  0.2233 -1.3265
 5589SOL    HW228227   4.007   1.025   0.810 -1.6930  0.8023  1.1278
 5590SOL     OW28228   1.916   2.979   5.423 -0.1571 -0.1821 -0.4149
 5590SOL    HW128229   1.894   3.062   5.466  1.8227  0.3348 -0.4050
 5590SOL    HW228230   1.851   2.921   5.463  0.3862  0.9433  2.1021
 5591SOL     OW28231   0.595   3.758  10.267  0.1046 -0.3718  0.2700
 5591SOL    HW128232   0.521   3.753  10.328 -0.5125  0.7091 -0.3682
 5591SOL    HW228233   0.554   3.732  10.184  1.6492  1.2562 -0.9885
 5592SOL     OW28234   2.804   3.602   9.635 -0.1035  0.0826 -0.1899
 5592SOL    HW128235   2.826   3.530   9.694 -2.5214  0.4969  1.2368
 5592SOL    HW228236   2.717   3.629   9.663  0.8494  1.2529  1.6584
 5593SOL     OW28237   4.415   2.836   2.747  0.2121  0.3716  0.0007
 5593SOL    HW128238   4.493   2.834   2.802  0.5556  1.0093 -0.4530
 5593SOL    HW228239   4.456   2.820   2.661  1.5151 -0.0902  0.7087
 5594SOL     OW28240   0.739   3.082  17.341  0.3803 -0.0553 -0.0083
 5594SOL    HW128241   0.829   3.089  17.372  0.1727 -2.8094  1.2105
 5594SOL    HW228242   0.686   3.096  17.420  0.8937  0.7805  0.1905
 5595SOL     OW28243   2.489   4.480   2.787  0.1212 -0.0329 -0.0062
 5595SOL    HW128244   2.430   4.513   2.855 -0.7806 -0.6787 -0.4811
 5595SOL    HW228245   2.426   4.430   2.736  0.6534  1.0422 -1.7213
 5596SOL     OW28246   3.135   2.727   1.941  0.1796  0.0265  0.1384
 5596SOL    HW128247   3.160   2.693   1.855  1.1471 -0.4733  0.6136
 5596SOL    HW228248   3.124   2.647   1.992 -2.4100  1.2383  1.4612
 5597SOL     OW28249   0.825   1.488   8.987 -0.8473  0.4111 -0.0052
 5597SOL    HW128250   0.832   1.460   9.079 -0.4998  0.5524  0.0147
 5597SOL    HW228251   0.739   1.529   8.986 -1.0069  0.0450 -1.0022
 5598SOL     OW28252   1.833   1.658  14.949  0.0895  0.4279 -0.3704
 5598SOL    HW128253   1.831   1.569  14.915  1.4280 -0.0191  0.7016
 5598SOL    HW228254   1.855   1.698  14.865 -0.0307 -0.7474 -0.9601
 5599SOL     OW28255   2.367   3.163  13.860  0.3689 -0.5065 -0.5979
 5599SOL    HW128256   2.283   3.121  13.841 -0.4902  2.2225 -2.8066
 5599SOL    HW228257   2.391   3.122  13.944  1.2063 -0.4540 -0.8048
 5600SOL     OW28258   4.356   1.491   5.514 -0.5769  0.0112 -0.3751
 5600SOL    HW128259   4.339   1.401   5.487 -1.1529 -0.2629  0.9062
 5600SOL    HW228260   4.313   1.508   5.597  0.8060 -1.6255  0.6780
 5601SOL     OW28261   1.503   0.267   8.533  0.1096  0.1604  0.5366
 5601SOL    HW128262   1.410   0.288   8.526 -0.1178 -0.5667  1.4819
 5601SOL    HW228263   1.529   0.262   8.441  0.9944 -2.0301  0.9348
 5602SOL     OW28264   0.091   3.321  14.322 -0.1940 -0.2733 -0.3978
 5602SOL    HW128265   0.033   3.336  14.247 -1.5379  2.6694  1.2213
 5602SOL    HW228266   0.172   3.303  14.274  0.3567 -0.7536  0.7200
 5603SOL     OW28267   3.680   1.884  10.133  0.1343 -0.1551 -0.6117
 5603SOL    HW128268   3.611   1.854  10.074  0.1722  0.6444 -1.0540
 5603SOL    HW228269   3.735   1.810  10.106 -0.1399  1.1878 -4.7756
 5604SOL     OW28270   3.933   3.102   8.115  0.0521  0.1421  0.7945
 5604SOL    HW128271   3.897   3.015   8.135  1.0179 -1.2361 -3.3260
 5604SOL    HW228272   3.964   3.076   8.028  1.9887  1.5832  1.0607
 5605SOL     OW28273   3.209   4.048   6.064  0.3757 -0.0579 -0.1640
 5605SOL    HW128274   3.211   3.956   6.091  1.4186 -0.2677 -0.9615
 5605SOL    HW228275   3.197   4.091   6.148 -1.0191 -2.6131  0.9571
 5606SOL     OW28276   3.541   0.298  17.020  0.0886 -0.4363  0.2531
 5606SOL    HW128277   3.595   0.313  16.942  1.4154 -2.2091  0.8570
 5606SOL    HW228278   3.458   0.265  16.986 -1.0436  2.1734  0.4285
 5607SOL     OW28279   1.277   1.586   5.262 -0.0054 -0.2060  0.5281
 5607SOL    HW128280   1.214   1.612   5.195 -0.9481 -2.6088  0.4906
 5607SOL    HW228281   1.235   1.520   5.317 -0.4697 -1.2290 -1.0438
 5608SOL     OW28282   0.033   0.412   4.647 -0.4920 -0.4201  0.6835
 5608SOL    HW128283   4.705   0.480   4.691  0.3769 -0.5675  1.9477
 5608SOL    HW228284   0.123   0.445   4.651 -0.2767 -0.9777  0.3741
 5609SOL     OW28285   2.622   1.061  14.565  0.3079  0.3287  0.6115
 5609SOL    HW128286   2.696   1.116  14.593  1.7584 -0.2538 -2.0749
 5609SOL    HW228287   2.560   1.129  14.539 -0.7478 -0.6730  0.4902
 5610SOL     OW28288   4.565   2.232   3.218  0.1824  0.0680 -0.0173
 5610SOL    HW128289   4.535   2.142   3.232 -0.7802  0.5913  1.2680
 5610SOL    HW228290   4.497   2.281   3.264  0.1053 -0.1571  0.1103
 5611SOL     OW28291   1.103   1.651   1.335 -0.4778  0.0502  0.1380
 5611SOL    HW128292   1.023   1.656   1.386 -0.2971  2.1160  0.2340
 5611SOL    HW228293   1.093   1.732   1.285  2.3766  0.3845  0.0937
 5612SOL     OW28294   2.027   3.783  10.679 -0.2921  0.0463  0.4038
 5612SOL    HW128295   1.979   3.799  10.598 -0.3432 -0.2334  0.3819
 5612SOL    HW228296   1.978   3.707  10.710 -1.8760  1.1955  0.7039
 5613SOL     OW28297   3.948   3.602   5.777 -0.1073 -0.4019  0.8540
 5613SOL    HW128298   3.881   3.666   5.752 -0.1429 -0.5536  0.5596
 5613SOL    HW228299   4.016   3.616   5.711  1.8270 -0.0927  2.8913
 5614SOL     OW28300   3.706   2.744   7.326 -0.0555 -0.6228  0.0317
 5614SOL    HW128301   3.731   2.659   7.362  0.2607 -1.2836 -1.7450
 5614SOL    HW228302   3.707   2.788   7.411 -1.4184 -1.7542  0.6348
 5615SOL     OW28303   3.776   2.988   3.132  0.1718 -0.1391  0.3952
 5615SOL    HW128304   3.773   2.987   3.036  1.7702 -2.6295  0.3747
 5615SOL    HW228305   3.683   3.006   3.144  0.0608 -0.8791  0.6505
 5616SOL     OW28306   2.377   3.317  12.136 -0.3910 -0.1290  0.0549
 5616SOL    HW128307   2.301   3.277  12.094 -1.4927  0.4327  1.5125
 5616SOL    HW228308   2.403   3.388  12.077 -0.9379  0.2683  0.2979
 5617SOL     OW28309   3.326   0.543  13.490  0.2490  0.0714 -0.4688
 5617SOL    HW128310   3.292   0.624  13.453 -1.0092 -0.2528  0.0056
 5617SOL    HW228311   3.244   0.508  13.524  0.5850 -1.4257 -1.1910
 5618SOL     OW28312   0.269   1.893  11.215 -0.0712  0.6537 -0.0005
 5618SOL    HW128313   0.276   1.839  11.136  0.7148 -2.1680  2.0119
 5618SOL    HW228314   0.358   1.927  11.226  0.8501 -0.6791 -3.1793
 5619SOL     OW28315   3.089   4.543   9.188  0.1334  0.7177  0.3731
 5619SOL    HW128316   3.156   4.518   9.124 -2.7485  0.5227 -2.5662
 5619SOL    HW228317   3.145   4.570   9.261  1.2545 -0.2814 -0.1009
 5620SOL     OW28318   1.781   4.409   2.316  0.0455  0.1874 -0.7514
 5620SOL    HW128319   1.778   4.322   2.276 -1.6646 -0.5965  1.0368
 5620SOL    HW228320   1.693   4.436   2.290  0.8131  2.4508 -1.0247
 5621SOL     OW28321   3.981   4.071   4.087  0.4157  0.3643  0.2515
 5621SOL    HW128322   4.046   4.005   4.111  0.2740  0.7076  1.5682
 5621SOL    HW228323   3.901   4.055   4.137  0.4222 -1.0803 -0.2227
 5622SOL     OW28324   0.531   4.258   5.976  0.6194 -0.0183 -0.0771
 5622SOL    HW128325   0.501   4.282   5.889 -1.8023 -2.3225  0.1465
 5622SOL    HW228326   0.532   4.162   5.981  1.5500 -0.1001 -1.7384
 5623SOL     OW28327   2.880   1.148  14.866  0.3599  0.2933  0.2436
 5623SOL    HW128328   2.798   1.192  14.887 -0.6425 -0.4894 -2.0407
 5623SOL    HW228329   2.923   1.213  14.809 -0.3686  1.1172  0.6382
 5624SOL     OW28330   3.345   2.157   3.490  0.2004  0.6491  0.0330
 5624SOL    HW128331   3.265   2.151   3.437 -0.3988  1.3506  0.8556
 5624SOL    HW228332   3.329   2.239   3.538  0.0375  0.1501  0.8195
 5625SOL     OW28333   2.521   3.301   6.020  0.4007  0.0723  0.5228
 5625SOL    HW128334   2.586   3.372   6.018  2.7697 -2.1344 -0.7031
 5625SOL    HW228335   2.546   3.262   6.103  0.2608 -0.6008  0.2427
 5626SOL     OW28336   3.297   2.007   8.344  0.1116  0.4205 -0.4978
 5626SOL    HW128337   3.348   2.084   8.320 -0.8914  2.1205  2.7189
 5626SOL    HW228338   3.352   1.937   8.309 -1.3992  0.2581 -2.5423
 5627SOL     OW28339   1.115   4.624  14.936 -0.3758  0.4181  0.2651
 5627SOL    HW128340   1.059   4.607  14.860  0.8776 -0.7345 -0.4128
 5627SOL    HW228341   1.066   4.575  15.003 -0.3779  0.5966  0.3930
 5628SOL     OW28342   0.201   0.675   6.515 -0.2136 -0.4259  0.6347
 5628SOL    HW128343   0.202   0.652   6.608 -0.1471 -0.3369  0.6563
 5628SOL    HW228344   0.174   0.767   6.514  2.5457  0.3812  0.3619
 5629SOL     OW28345   3.660   1.753   4.507 -0.2391 -0.0725 -0.0405
 5629SOL    HW128346   3.754   1.760   4.491 -0.3157  1.0768  0.0134
 5629SOL    HW228347   3.631   1.842   4.485  0.1474  0.1212  0.2430
 5630SOL     OW28348   3.217   4.059  15.602  0.2225  0.0108 -0.2146
 5630SOL    HW128349   3.168   4.118  15.545 -2.1043 -1.1467  0.6279
 5630SOL    HW228350   3.194   4.085  15.691  0.0915  1.7479 -0.7668
 5631SOL     OW28351   1.063   1.331  14.332 -0.3352  0.0157 -0.1108
 5631SOL    HW128352   1.019   1.261  14.380 -1.0275  1.5096  1.4286
 5631SOL    HW228353   1.131   1.286  14.281 -0.8154 -1.0810  0.2116
 5632SOL     OW28354   4.484   2.921  16.850  0.0049 -0.0407  0.0865
 5632SOL    HW128355   4.549   2.990  16.838  0.5065 -0.4844  0.2412
 5632SOL    HW228356   4.401   2.968  16.840  0.9650  0.8394 -3.7326
 5633SOL     OW28357   4.553   3.981  14.094  0.8606 -0.0344  0.2302
 5633SOL    HW128358   4.509   4.046  14.149 -0.8569 -1.9051  1.0769
 5633SOL    HW228359   4.641   3.996  14.126  0.7717 -2.7829  1.7263
 5634SOL     OW28360   0.825   3.056   6.286  0.5426  0.1627  0.6557
 5634SOL    HW128361   0.842   2.967   6.255 -1.8648 -0.7646  1.9489
 5634SOL    HW228362   0.879   3.056   6.366 -0.4820  0.3936  1.3497
 5635SOL     OW28363   3.823   1.260   8.597  0.1887 -0.1885  0.0997
 5635SOL    HW128364   3.917   1.257   8.581  0.2797 -1.0247  0.8508
 5635SOL    HW228365   3.781   1.207   8.529  1.3484 -1.3455  0.2919
 5636SOL     OW28366   3.238   1.296   8.353 -0.3450 -0.0427  0.4786
 5636SOL    HW128367   3.264   1.333   8.268 -0.6979 -0.4081  0.2132
 5636SOL    HW228368   3.152   1.265   8.325 -0.6523  2.0810 -0.9406
 5637SOL     OW28369   1.541   2.608   0.805 -0.0913 -0.2791  0.2388
 5637SOL    HW128370   1.505   2.607   0.894 -0.6589  1.4937  0.0143
 5637SOL    HW228371   1.625   2.566   0.825 -0.8200 -2.2007 -0.7566
 5638SOL     OW28372   3.775   2.850   8.536  0.9165 -0.3322 -0.5642
 5638SOL    HW128373   3.751   2.833   8.445  0.1866  2.7129 -0.9634
 5638SOL    HW228374   3.699   2.905   8.557  1.8876  0.3187  1.2695
 5639SOL     OW28375   4.494   3.607  14.925  0.1886 -0.3134  0.2654
 5639SOL    HW128376   4.529   3.626  14.838  0.4605  3.0199  1.0848
 5639SOL    HW228377   4.402   3.635  14.921  0.0593 -1.0274 -1.5291
 5640SOL     OW28378   0.899   4.711   8.668 -0.4562 -0.3412 -0.3324
 5640SOL    HW128379   0.865   0.004   8.756  2.1564  0.9051  0.4571
 5640SOL    HW228380   0.964   4.642   8.684  0.9902  1.1405  0.1986
 5641SOL     OW28381   1.643   2.302   8.831 -0.0287  0.7645 -0.0638
 5641SOL    HW128382   1.739   2.307   8.833 -0.0332 -0.0537  2.1943
 5641SOL    HW228383   1.617   2.273   8.919  2.1144 -1.2223 -0.0692
 5642SOL     OW28384   4.651   1.953   7.734 -0.4525  0.1933 -0.6617
 5642SOL    HW128385   4.605   1.881   7.690 -2.1753  0.5391  0.5835
 5642SOL    HW228386   0.011   1.911   7.754  0.6677  2.6702 -0.1613
 5643SOL     OW28387   2.561   1.649   9.812 -0.1570 -0.5218 -0.2760
 5643SOL    HW128388   2.519   1.652   9.898  0.8786 -0.8831  0.2483
 5643SOL    HW228389   2.627   1.580   9.819 -0.3326 -0.6705 -0.1171
 5644SOL     OW28390   3.145   2.291  15.463 -0.4084 -0.0102 -0.5547
 5644SOL    HW128391   3.154   2.354  15.391  1.3492  0.0928 -0.2426
 5644SOL    HW228392   3.202   2.222  15.428  2.0893  1.8366 -0.1828
 5645SOL     OW28393   2.708   1.604  14.083 -0.1123  0.2601  0.5150
 5645SOL    HW128394   2.783   1.545  14.091 -1.0092 -1.1567 -1.4925
 5645SOL    HW228395   2.635   1.546  14.061  1.0263 -0.2339 -1.9327
 5646SOL     OW28396   1.548   0.434  13.970  0.4992  0.3487  0.3585
 5646SOL    HW128397   1.523   0.515  14.016 -0.3462  1.6191 -2.2983
 5646SOL    HW228398   1.642   0.446  13.960  0.5438  0.8049  1.3083
 5647SOL     OW28399   2.483   2.504   1.752  0.2006 -0.7485  0.3079
 5647SOL    HW128400   2.393   2.494   1.720  0.2034  1.3235 -0.3045
 5647SOL    HW228401   2.536   2.490   1.674 -0.2310  2.3184 -0.5446
 5648SOL     OW28402   3.986   0.118   7.984 -0.2480  0.3019 -0.0722
 5648SOL    HW128403   3.935   0.050   7.940 -0.3094 -0.2034  0.7872
 5648SOL    HW228404   4.033   0.067   8.050  0.8425 -0.0684 -1.1118
 5649SOL     OW28405   3.484   4.139   6.040  0.4206 -0.9760 -0.0596
 5649SOL    HW128406   3.392   4.125   6.014  0.1041  1.9105 -0.5093
 5649SOL    HW228407   3.520   4.135   5.952  3.0450  3.5794  0.8116
 5650SOL     OW28408   4.279   2.960   7.967 -0.2532  0.0054  0.3372
 5650SOL    HW128409   4.331   3.004   7.899  0.2992 -0.1732  0.6475
 5650SOL    HW228410   4.294   2.869   7.941 -0.2869 -0.0452  0.4992
 5651SOL     OW28411   0.215   3.475   4.673  0.4799  0.0042 -0.2236
 5651SOL    HW128412   0.179   3.410   4.614  1.4703 -0.7995  0.0628
 5651SOL    HW228413   0.141   3.516   4.719  0.5720 -1.4280  1.2184
 5652SOL     OW28414   2.588   1.339   1.432 -0.7813  0.1039  0.1605
 5652SOL    HW128415   2.677   1.334   1.468  0.4416  2.9852 -2.5037
 5652SOL    HW228416   2.579   1.433   1.440  1.1665  0.2305  0.8982
 5653SOL     OW28417   1.803   3.036   7.284 -0.6189  0.2665  0.8663
 5653SOL    HW128418   1.728   3.052   7.341  0.1264  2.6619  1.1919
 5653SOL    HW228419   1.815   2.941   7.277 -0.6902  0.3103  0.1364
 5654SOL     OW28420   4.295   0.602  13.074  0.2236  0.1320  0.2377
 5654SOL    HW128421   4.285   0.530  13.011  0.6027  0.5447 -0.2973
 5654SOL    HW228422   4.276   0.565  13.160  0.6214 -0.3720  0.1117
 5655SOL     OW28423   0.966   4.487   5.451 -0.1188  0.1989 -0.0070
 5655SOL    HW128424   1.006   4.538   5.521  0.0167 -0.6315  0.5167
 5655SOL    HW228425   0.886   4.538   5.439  0.6990  1.0268 -1.9255
 5656SOL     OW28426   2.224   1.420  16.974 -0.4376  0.1561  0.2486
 5656SOL    HW128427   2.297   1.362  16.954  0.1895  1.1916 -0.4481
 5656SOL    HW228428   2.243   1.503  16.931  1.2299 -0.0321  0.6470
 5657SOL     OW28429   2.493   3.198   6.698 -0.0800  0.0191 -0.5123
 5657SOL    HW128430   2.414   3.245   6.674  0.7262  2.5273  1.8074
 5657SOL    HW228431   2.563   3.262   6.682  0.8137 -0.8236  0.0048
 5658SOL     OW28432   2.689   4.497  10.979  0.0409 -0.1179 -0.2934
 5658SOL    HW128433   2.659   4.411  10.950  0.0120  0.3956 -1.7581
 5658SOL    HW228434   2.772   4.496  10.933  1.3608  1.8318  2.0336
 5659SOL     OW28435   2.855   1.100   2.518 -0.3485 -0.6664  0.4708
 5659SOL    HW128436   2.866   1.107   2.423  1.6323  0.9945  0.7999
 5659SOL    HW228437   2.814   1.185   2.532  1.6883 -0.1304  3.2258
 5660SOL     OW28438   3.839   3.420   4.294  0.0418 -0.3347  0.1899
 5660SOL    HW128439   3.793   3.411   4.210  0.2285  1.1205 -0.0624
 5660SOL    HW228440   3.772   3.456   4.351 -1.2924  0.0519 -1.6322
 5661SOL     OW28441   3.746   4.639   7.217  0.2813 -0.5211 -0.1188
 5661SOL    HW128442   3.694   4.559   7.211 -2.2026  0.9739  1.2886
 5661SOL    HW228443   3.740   4.657   7.123 -1.8259 -1.4842 -0.1572
 5662SOL     OW28444   3.254   1.236   3.191 -0.4667 -0.1750 -0.1267
 5662SOL    HW128445   3.267   1.197   3.104  2.2787  1.5215 -0.4840
 5662SOL    HW228446   3.333   1.289   3.203 -0.4537 -0.1544 -0.2992
 5663SOL     OW28447   2.387   1.280  17.197  0.1816 -1.1170  0.1477
 5663SOL    HW128448   2.463   1.338  17.188  0.7588 -1.5125  2.6093
 5663SOL    HW228449   2.411   1.216  17.131 -0.2002 -1.7359  0.6144
 5664SOL     OW28450   3.598   2.338   3.489 -0.1062  0.0356 -0.6529
 5664SOL    HW128451   3.640   2.310   3.407 -0.0837  2.2905 -1.4209
 5664SOL    HW228452   3.536   2.407   3.465 -2.1852 -0.6101  2.9229
 5665SOL     OW28453   3.479   3.486   8.784 -0.0303 -0.6795 -0.4927
 5665SOL    HW128454   3.432   3.556   8.738  1.4996  0.7231  0.0903
 5665SOL    HW228455   3.423   3.463   8.858  2.0041 -0.5097  1.0959
 5666SOL     OW28456   1.439   3.285   3.529  0.3607 -0.1252  0.1954
 5666SOL    HW128457   1.449   3.252   3.440 -0.2955  0.9950 -0.2901
 5666SOL    HW228458   1.403   3.210   3.577  0.6141 -0.8439 -0.7416
 5667SOL     OW28459   1.588   3.600   6.110 -0.5031 -0.2828 -0.3495
 5667SOL    HW128460   1.515   3.553   6.150 -1.5345  1.6270 -0.0157
 5667SOL    HW228461   1.576   3.689   6.143  1.3128 -0.5767  1.1069
 5668SOL     OW28462   1.279   0.522   1.145  0.0801 -0.4056  0.0480
 5668SOL    HW128463   1.287   0.604   1.194 -0.7076 -0.2054 -0.1623
 5668SOL    HW228464   1.307   0.548   1.058 -1.2133 -1.0258 -0.5490
 5669SOL     OW28465   2.746   0.690   0.042  0.9907  0.3766  0.2818
 5669SOL    HW128466   2.698   0.699   0.124 -1.5535 -2.6448 -0.8792
 5669SOL    HW228467   2.674   0.711  17.677 -0.0010 -0.7631  1.0658
 5670SOL     OW28468   1.832   0.407   2.194 -0.5359 -0.0391  0.1106
 5670SOL    HW128469   1.866   0.440   2.111  0.1964 -2.4278 -0.5546
 5670SOL    HW228470   1.793   0.491   2.218  0.1075 -0.1471  1.5495
 5671SOL     OW28471   4.424   2.143  13.299 -0.5220 -0.3206 -0.6613
 5671SOL    HW128472   4.343   2.189  13.278 -1.5893 -1.8690  0.0973
 5671SOL    HW228473   4.388   2.075  13.356 -0.1875 -1.3210 -1.6473
 5672SOL     OW28474   0.542   4.593  14.724  0.0726 -0.0265 -0.9493
 5672SOL    HW128475   0.507   4.679  14.700  1.6543  1.0801  0.6655
 5672SOL    HW228476   0.608   4.589  14.654  1.5768 -1.3520  0.5603
 5673SOL     OW28477   3.392   3.059   6.198  0.1993 -0.0240  0.1082
 5673SOL    HW128478   3.405   3.056   6.293  2.6141 -3.3095 -0.3240
 5673SOL    HW228479   3.328   3.130   6.188 -0.4937 -0.6867 -0.1313
 5674SOL     OW28480   0.019   4.138   9.664 -0.3510  0.1832  0.3075
 5674SOL    HW128481   4.650   4.160   9.677 -0.7258 -0.4560 -1.3361
 5674SOL    HW228482   0.038   4.090   9.745  2.4039 -0.0383 -0.4587
 5675SOL     OW28483   1.512   3.188   0.868  0.9751  0.9919 -0.1963
 5675SOL    HW128484   1.455   3.116   0.842 -0.1044  3.0986 -3.5939
 5675SOL    HW228485   1.586   3.139   0.904 -1.1526 -2.1889 -0.1743
 5676SOL     OW28486   0.034   0.903  10.405 -0.0271 -0.7134  0.5929
 5676SOL    HW128487   0.026   0.962  10.481 -1.0674 -2.1389  1.5778
 5676SOL    HW228488   0.123   0.873  10.425  1.1235  2.5475  0.4515
 5677SOL     OW28489   3.670   4.275   8.138 -1.0431  0.1770  0.0009
 5677SOL    HW128490   3.672   4.309   8.049  1.3623  0.6306  0.2332
 5677SOL    HW228491   3.598   4.322   8.180  0.5251  1.2290  1.4939
 5678SOL     OW28492   4.584   4.644  10.746  0.0530  0.2061  0.2395
 5678SOL    HW128493   4.540   4.715  10.699 -2.2220  0.0680  2.2105
 5678SOL    HW228494   4.671   4.686  10.741 -0.5824  1.4000 -0.9013
 5679SOL     OW28495   0.207   3.059   7.848 -0.1063  0.2444 -0.2176
 5679SOL    HW128496   0.139   3.014   7.899 -0.2129  1.2025  0.4767
 5679SOL    HW228497   0.277   3.044   7.911  0.3030  0.3864 -0.6408
 5680SOL     OW28498   2.666   4.090   3.396  0.3406  0.5825  0.3648
 5680SOL    HW128499   2.687   4.017   3.339  1.7034  0.9287  0.4256
 5680SOL    HW228500   2.707   4.159   3.345 -1.6836  2.8147  1.6954
 5681SOL     OW28501   0.689   2.242   5.135 -0.0177  0.4694 -0.6025
 5681SOL    HW128502   0.749   2.175   5.101  1.7713  2.1001 -0.6716
 5681SOL    HW228503   0.753   2.299   5.178  0.0141  2.0044 -2.7055
 5682SOL     OW28504   3.462   1.563   4.414 -0.2099  0.3374  0.3081
 5682SOL    HW128505   3.518   1.636   4.441 -0.5994  0.7570 -0.0331
 5682SOL    HW228506   3.470   1.565   4.318 -0.9705 -2.8680  0.1603
 5683SOL     OW28507   2.504   0.504   4.919 -0.1654  0.0317 -0.1158
 5683SOL    HW128508   2.409   0.510   4.924  0.0624  1.8725  1.6738
 5683SOL    HW228509   2.522   0.410   4.906 -3.1326 -0.6710  1.0674
 5684SOL     OW28510   2.004   2.649   2.423  0.3422  0.0660 -0.2959
 5684SOL    HW128511   2.076   2.627   2.483  1.5932  1.5381 -1.2423
 5684SOL    HW228512   1.930   2.605   2.464  0.9887 -0.0705  0.7284
 5685SOL     OW28513   1.119   0.026   3.378 -0.1881  1.2304  0.0467
 5685SOL    HW128514   1.127   4.675   3.437 -1.7307  0.1455 -1.1216
 5685SOL    HW228515   1.206   0.019   3.340 -1.3119 -0.6647 -2.1807
 5686SOL     OW28516   4.248   1.153  16.292  0.0251  0.2350  0.3750
 5686SOL    HW128517   4.241   1.246  16.314 -0.4778  0.3948 -0.4720
 5686SOL    HW228518   4.336   1.133  16.325  0.9218  0.2515 -2.0647
 5687SOL     OW28519   3.711   0.502  10.820 -0.2389 -0.1963 -0.5864
 5687SOL    HW128520   3.651   0.571  10.793  0.4655  0.2124 -1.1061
 5687SOL    HW228521   3.759   0.540  10.893  2.2467 -0.7480 -1.9484
 5688SOL     OW28522   1.256   2.903  11.944  0.4407 -0.4456 -0.1900
 5688SOL    HW128523   1.240   2.844  11.871  0.4054 -0.3878 -0.2291
 5688SOL    HW228524   1.239   2.845  12.018  0.0722 -0.3540 -0.2042
 5689SOL     OW28525   3.707   0.474  17.179  0.3697  0.5601  0.1672
 5689SOL    HW128526   3.748   0.494  17.096 -0.5461  1.0667 -0.1652
 5689SOL    HW228527   3.631   0.418  17.162  1.1201 -0.4881  0.2632
 5690SOL     OW28528   1.796   1.437  14.794  0.2823  0.0822  0.7083
 5690SOL    HW128529   1.747   1.381  14.854 -0.1998  0.5703  0.7659
 5690SOL    HW228530   1.828   1.376  14.727 -1.3737 -0.3947  0.3340
 5691SOL     OW28531   3.284   1.195   8.600  0.1566  0.4210 -0.1248
 5691SOL    HW128532   3.263   1.233   8.515 -0.4061 -0.0937 -0.2190
 5691SOL    HW228533   3.264   1.267   8.661 -1.7284 -1.8919  2.0134
 5692SOL     OW28534   3.510   3.311   4.416 -0.2158 -0.2245 -0.3054
 5692SOL    HW128535   3.569   3.295   4.342 -2.0395  0.2212 -1.8389
 5692SOL    HW228536   3.525   3.405   4.428 -2.0507  0.0902 -0.4919
 5693SOL     OW28537   1.887   0.641   2.516 -0.7003  0.2351 -0.5885
 5693SOL    HW128538   1.967   0.693   2.522 -0.2098 -0.6382  0.5882
 5693SOL    HW228539   1.848   0.704   2.456  0.3559  0.7943 -0.6965
 5694SOL     OW28540   4.214   4.204   8.026 -0.2476 -0.0989  0.2300
 5694SOL    HW128541   4.200   4.204   8.120 -1.7862 -1.5062  0.0124
 5694SOL    HW228542   4.298   4.160   8.016 -1.2819 -1.6959 -1.6800
 5695SOL     OW28543   0.717   3.569   6.170 -0.0801  0.4263 -0.5029
 5695SOL    HW128544   0.648   3.517   6.211  3.9853 -2.0277  3.2431
 5695SOL    HW228545   0.723   3.639   6.235  1.5663  0.2855 -0.4985
 5696SOL     OW28546   3.910   3.471   5.179  0.1037 -1.1303  0.1017
 5696SOL    HW128547   3.944   3.508   5.260 -0.6524  2.6646 -1.3440
 5696SOL    HW228548   3.854   3.544   5.154  1.6997 -0.9472 -2.9406
 5697SOL     OW28549   4.063   2.110  17.614 -0.0476 -0.7648  0.5111
 5697SOL    HW128550   4.133   2.060  17.573  0.8464  0.6925  0.2458
 5697SOL    HW228551   4.045   2.057  17.692 -1.5121 -0.4449  0.3904
 5698SOL     OW28552   0.239   1.323   5.745 -0.1655  0.2968 -0.7346
 5698SOL    HW128553   0.314   1.377   5.720 -2.5436  4.0331  0.1856
 5698SOL    HW228554   0.242   1.271   5.664 -1.6539 -2.4372  0.9569
 5699SOL     OW28555   1.372   3.783  10.439 -0.0728 -0.6247 -0.0608
 5699SOL    HW128556   1.313   3.745  10.374 -0.1440 -1.1646  0.3126
 5699SOL    HW228557   1.444   3.820  10.387 -1.0454 -0.9976 -1.6873
 5700SOL     OW28558   3.562   0.752   4.031  0.3991  1.1699  0.8075
 5700SOL    HW128559   3.502   0.685   3.998  0.0564  2.3510 -1.0308
 5700SOL    HW228560   3.624   0.776   3.962  0.6333 -0.5989  0.4014
 5701SOL     OW28561   4.564   4.498   5.179 -0.7231  0.2395  0.6884
 5701SOL    HW128562   4.600   4.448   5.252  0.2014  0.7666  0.6003
 5701SOL    HW228563   4.498   4.437   5.145 -0.4212  0.1409  0.2746
 5702SOL     OW28564   2.517   0.781   0.220  0.1872  0.0826  0.5956
 5702SOL    HW128565   2.577   0.856   0.221  1.7798 -1.1781 -0.2464
 5702SOL    HW228566   2.448   0.810   0.161  1.6831  0.5835 -0.8956
 5703SOL     OW28567   0.540   3.128   4.741 -0.5856 -0.2276 -0.7202
 5703SOL    HW128568   0.469   3.094   4.796 -0.4829 -0.6054 -0.8230
 5703SOL    HW228569   0.579   3.186   4.806  2.5170  1.2887 -3.9320
 5704SOL     OW28570   3.675   0.804   8.111  0.0409 -0.0356  1.0615
 5704SOL    HW128571   3.738   0.731   8.112 -0.5750 -0.5638  1.2786
 5704SOL    HW228572   3.717   0.869   8.168  1.1778 -0.0723  0.2711
 5705SOL     OW28573   3.113   3.999   2.979  0.2851 -0.2264  0.1941
 5705SOL    HW128574   3.171   3.990   3.055  0.7706 -0.0422 -0.1512
 5705SOL    HW228575   3.170   3.967   2.909  0.3473  0.0822  0.1011
 5706SOL     OW28576   4.669   2.877   3.252 -0.0246  0.1433  0.1777
 5706SOL    HW128577   0.014   2.891   3.187 -0.8915 -1.6443 -1.1342
 5706SOL    HW228578   4.689   2.932   3.328  1.6169  0.9308 -0.8270
 5707SOL     OW28579   1.627   4.589   2.112  0.0491 -0.3372 -0.3500
 5707SOL    HW128580   1.531   4.586   2.114 -0.0164  0.9509 -1.1784
 5707SOL    HW228581   1.649   4.599   2.019  0.5046  1.5111 -0.0541
 5708SOL     OW28582   0.152   0.253   3.424 -0.0771  0.0157 -0.6785
 5708SOL    HW128583   0.103   0.221   3.348 -1.9999  0.6671  0.3022
 5708SOL    HW228584   0.076   0.271   3.479  0.3003  0.0943 -0.1869
 5709SOL     OW28585   4.080   3.575   2.568 -0.0437 -0.3679  0.0065
 5709SOL    HW128586   4.019   3.535   2.506  0.5426  0.1926 -0.9487
 5709SOL    HW228587   4.150   3.509   2.571 -0.4769 -0.8615 -0.7614
 5710SOL     OW28588   0.659   2.668   3.702 -0.0800  0.0647  0.5012
 5710SOL    HW128589   0.610   2.732   3.651 -0.2073  1.5415  2.4775
 5710SOL    HW228590   0.595   2.633   3.765 -0.5031 -0.8598 -0.4382
 5711SOL     OW28591   2.136   0.447   2.470 -0.0637 -0.4930  0.1426
 5711SOL    HW128592   2.145   0.354   2.491 -0.3313 -1.1825 -2.6867
 5711SOL    HW228593   2.055   0.475   2.511 -1.5355 -2.4692 -1.4109
 5712SOL     OW28594   3.279   1.941  13.835  0.2227  0.3082  0.5203
 5712SOL    HW128595   3.238   1.876  13.892 -1.3202 -2.0170 -3.2359
 5712SOL    HW228596   3.332   1.882  13.782  1.1854  0.2033  1.6121
 5713SOL     OW28597   2.143   4.598   3.196 -0.2758  0.6254  0.0776
 5713SOL    HW128598   2.114   4.659   3.128  0.4064  0.3968 -0.4151
 5713SOL    HW228599   2.183   4.658   3.259 -0.6735  0.4575  0.4946
 5714SOL     OW28600   0.641   0.906  17.509  0.2399  0.5948 -0.3346
 5714SOL    HW128601   0.661   0.915  17.602  0.7739 -1.5208 -0.2400
 5714SOL    HW228602   0.689   0.824  17.495  0.3405  0.5706  0.1286
 5715SOL     OW28603   1.730   0.484  15.070  0.1335 -0.1274  0.0695
 5715SOL    HW128604   1.746   0.417  15.003 -2.6816 -1.4437  0.7139
 5715SOL    HW228605   1.818   0.493  15.105  0.5980  0.5858 -1.2774
 5716SOL     OW28606   0.678   0.729   4.442 -0.0769 -0.0461  0.2444
 5716SOL    HW128607   0.731   0.791   4.392 -0.1346  0.7691  1.2100
 5716SOL    HW228608   0.603   0.779   4.475 -0.3080 -1.2209  1.4931
 5717SOL     OW28609   1.519   2.053  10.385  0.2813  0.1909  0.1642
 5717SOL    HW128610   1.577   2.100  10.446 -0.9759  1.8908  0.0441
 5717SOL    HW228611   1.513   1.967  10.426  1.6735 -0.0289 -0.0944
 5718SOL     OW28612   4.649   2.978   4.450 -0.5415 -0.0851 -0.0888
 5718SOL    HW128613   4.714   3.038   4.487 -1.6497  0.5573  0.8146
 5718SOL    HW228614   4.582   2.973   4.518 -1.2502  2.2022 -0.6225
 5719SOL     OW28615   0.198   0.132   6.932 -0.6638 -0.1309 -0.6281
 5719SOL    HW128616   0.221   0.156   6.842 -2.5699  1.9014 -0.5714
 5719SOL    HW228617   0.114   0.175   6.949  0.8566  1.4204  3.0096
 5720SOL     OW28618   3.007   1.125   3.645  0.1936 -0.5859 -0.3493
 5720SOL    HW128619   2.916   1.096   3.634 -0.3245  1.0114 -0.3057
 5720SOL    HW228620   3.004   1.134   3.741 -3.3110  0.9078 -0.5794
 5721SOL     OW28621   4.063   4.241   3.238 -0.0361 -0.0979  0.0660
 5721SOL    HW128622   4.144   4.292   3.238 -0.4633  0.6336 -3.7135
 5721SOL    HW228623   4.081   4.148   3.223 -0.1480 -0.1730  0.4133
 5722SOL     OW28624   2.620   2.539   6.754 -0.7756 -0.3864  0.4493
 5722SOL    HW128625   2.545   2.569   6.704  0.4339  1.6479 -0.1278
 5722SOL    HW228626   2.593   2.574   6.839 -1.1048 -3.6746  1.7030
 5723SOL     OW28627   1.890   2.100   4.324 -0.5028  0.1189  0.7733
 5723SOL    HW128628   1.983   2.109   4.345 -0.2773 -2.1182  0.7257
 5723SOL    HW228629   1.872   2.011   4.353 -1.3501  0.2511  0.6520
 5724SOL     OW28630   0.437   4.155   4.577 -0.4357  0.5229  0.3086
 5724SOL    HW128631   0.406   4.166   4.487 -0.8994  0.7694  0.4982
 5724SOL    HW228632   0.364   4.194   4.625  1.1456  0.8658  2.4126
 5725SOL     OW28633   0.307   2.153   0.606  0.1082 -0.1321  0.1236
 5725SOL    HW128634   0.297   2.065   0.569 -1.9013  0.5852 -1.0445
 5725SOL    HW228635   0.257   2.197   0.537  0.6527  2.2284  1.2065
 5726SOL     OW28636   1.313   3.856   8.105  1.1612  0.2581  0.4319
 5726SOL    HW128637   1.237   3.911   8.120  0.2295 -0.4491 -1.7490
 5726SOL    HW228638   1.312   3.826   8.196  0.9943 -1.3316 -0.0947
 5727SOL     OW28639   2.517   0.944   7.316  0.0779  0.3227  0.2662
 5727SOL    HW128640   2.513   0.856   7.353  1.9115  1.3941  3.0249
 5727SOL    HW228641   2.588   0.929   7.254 -0.3408  0.0065 -0.1389
 5728SOL     OW28642   3.808   1.107   5.315  0.0475  0.2995  0.1211
 5728SOL    HW128643   3.769   1.021   5.333 -0.5931  0.4199 -0.6793
 5728SOL    HW228644   3.901   1.087   5.307 -0.3936 -2.1126  1.0430
 5729SOL     OW28645   3.608   1.489   6.195  0.2805 -0.2116  0.0393
 5729SOL    HW128646   3.645   1.577   6.186  1.0983 -0.8120 -2.3105
 5729SOL    HW228647   3.686   1.448   6.232  1.0834 -0.3501 -1.8061
 5730SOL     OW28648   0.125   1.266   3.285 -0.5106 -0.3214 -0.1367
 5730SOL    HW128649   0.201   1.265   3.344 -0.2975 -0.4925 -0.4118
 5730SOL    HW228650   0.161   1.300   3.203 -3.1074  1.0920 -0.6560
 5731SOL     OW28651   1.099   2.782  16.997  0.7624  0.4103  0.3136
 5731SOL    HW128652   1.193   2.798  17.006  0.6500  1.7114 -0.7834
 5731SOL    HW228653   1.063   2.823  17.076  0.2939  2.3598 -0.9140
 5732SOL     OW28654   3.860   0.822  16.283 -0.5219  0.3970  0.0973
 5732SOL    HW128655   3.801   0.750  16.307  1.1559 -2.5678 -4.8512
 5732SOL    HW228656   3.906   0.849  16.362 -0.0566 -0.7743  0.2293
 5733SOL     OW28657   2.625   0.822  16.931  0.7331 -0.1117 -0.0476
 5733SOL    HW128658   2.543   0.774  16.921  0.2117  0.7808 -0.0082
 5733SOL    HW228659   2.596   0.912  16.922 -0.8979 -0.7408 -1.0073
 5734SOL     OW28660   3.571   0.124  11.086 -0.5159 -0.4500 -0.3575
 5734SOL    HW128661   3.482   0.151  11.062 -0.6469 -0.2104  0.4063
 5734SOL    HW228662   3.565   0.039  11.041 -0.0441 -0.0220 -1.2268
 5735SOL     OW28663   0.646   3.019   8.375  0.0797  0.3245  0.7408
 5735SOL    HW128664   0.656   3.101   8.325  1.0074  0.5503  1.2859
 5735SOL    HW228665   0.710   3.044   8.442  1.2741  0.0454 -0.2883
 5736SOL     OW28666   3.758   4.544  16.056 -0.3053  0.5166 -0.6026
 5736SOL    HW128667   3.748   4.452  16.030  0.3622  0.6037 -1.1599
 5736SOL    HW228668   3.844   4.555  16.096 -0.8230 -3.4227  1.6035
 5737SOL     OW28669   0.095   4.679   7.261 -0.1692 -0.4191  0.0666
 5737SOL    HW128670   0.064   0.018   7.327 -0.9561  0.4210 -1.0989
 5737SOL    HW228671   0.030   4.699   7.194 -0.6039 -2.2672 -0.0593
 5738SOL     OW28672   4.281   0.984  15.090 -0.1063 -0.0808 -0.2107
 5738SOL    HW128673   4.251   0.913  15.145  0.3382 -0.2688 -0.2076
 5738SOL    HW228674   4.376   0.984  15.108 -0.0238  1.0170 -0.6486
 5739SOL     OW28675   1.039   1.015   5.530 -0.5575 -0.8634 -0.0182
 5739SOL    HW128676   1.084   1.095   5.558  0.7058 -1.6013  0.0835
 5739SOL    HW228677   1.115   0.966   5.497 -0.3132 -1.0037  0.7535
 5740SOL     OW28678   3.137   4.073   2.535  0.2998  0.3587  0.2812
 5740SOL    HW128679   3.078   4.107   2.468 -0.0749  0.5361  0.7062
 5740SOL    HW228680   3.198   4.147   2.535  0.2987  0.3658  2.2041
 5741SOL     OW28681   3.164   4.405   4.742  0.0460 -0.2158 -0.0743
 5741SOL    HW128682   3.171   4.382   4.835 -0.7102  0.3437  0.1342
 5741SOL    HW228683   3.222   4.481   4.753 -1.1739  0.6338  0.5635
 5742SOL     OW28684   1.811   3.751   9.108  0.6519 -0.3078 -0.1213
 5742SOL    HW128685   1.775   3.760   9.197  0.1389  2.0004 -0.5703
 5742SOL    HW228686   1.866   3.829   9.106  2.0301 -1.3490 -2.1107
 5743SOL     OW28687   2.493   3.154   1.217  0.6833 -0.5336  0.3126
 5743SOL    HW128688   2.444   3.079   1.249  0.9955 -0.0471  1.9352
 5743SOL    HW228689   2.583   3.124   1.234  1.2267 -0.1758 -1.8677
 5744SOL     OW28690   0.476   3.418   2.360 -0.4662  0.1219  0.1374
 5744SOL    HW128691   0.468   3.495   2.303 -0.4705 -0.6970 -0.9610
 5744SOL    HW228692   0.510   3.344   2.310 -3.2262 -2.1893  1.7304
 5745SOL     OW28693   3.178   1.918   6.123  0.1145 -0.3100  0.1389
 5745SOL    HW128694   3.239   1.852   6.089  1.2702  0.4499  0.7680
 5745SOL    HW228695   3.095   1.897   6.080  1.4455  0.2440 -2.6756
 5746SOL     OW28696   3.773   0.908   4.199  0.2191 -0.7742 -0.1576
 5746SOL    HW128697   3.804   0.818   4.184  3.0675  0.2813 -0.6535
 5746SOL    HW228698   3.793   0.903   4.292 -1.1742 -2.1934  0.0605
 5747SOL     OW28699   1.837   4.717  17.410  0.3677 -0.1332  0.2452
 5747SOL    HW128700   1.768   0.049  17.447 -0.0979 -0.9851  0.6677
 5747SOL    HW228701   1.890   4.719  17.489 -0.1934  0.1226  0.6139
 5748SOL     OW28702   3.420   3.258   2.696 -0.2065  0.3703 -0.6311
 5748SOL    HW128703   3.364   3.210   2.757 -0.4948 -0.0413 -1.2209
 5748SOL    HW228704   3.371   3.340   2.690  1.4341  1.2141 -2.2846
 5749SOL     OW28705   3.325   2.518  12.377  0.4638 -0.3724 -0.3292
 5749SOL    HW128706   3.355   2.427  12.368 -2.3849 -1.2794 -0.6259
 5749SOL    HW228707   3.403   2.564  12.347  2.1916 -2.1482  1.4316
 5750SOL     OW28708   3.710   2.325   1.404  0.3200  0.1481  0.0861
 5750SOL    HW128709   3.695   2.283   1.488  2.0802 -2.1983 -0.7737
 5750SOL    HW228710   3.789   2.281   1.374  0.7662  2.1403 -1.7158
 5751SOL     OW28711   3.877   2.224   8.504  0.5562  0.2202  0.0978
 5751SOL    HW128712   3.901   2.296   8.562 -0.3105  0.9212 -0.4121
 5751SOL    HW228713   3.884   2.263   8.417  4.5757 -0.1153  0.2493
 5752SOL     OW28714   1.045   3.332  16.009  0.3824 -0.0215  0.4689
 5752SOL    HW128715   0.978   3.321  15.942  0.1873 -0.7853  0.7851
 5752SOL    HW228716   1.082   3.244  16.009 -0.1014 -0.2289  0.1969
 5753SOL     OW28717   2.423   3.506   7.731 -0.9567 -0.1488 -0.7927
 5753SOL    HW128718   2.408   3.507   7.825 -0.3807 -0.1924 -0.7007
 5753SOL    HW228719   2.512   3.472   7.727 -0.7874  0.4218 -2.0083
 5754SOL     OW28720   1.225   3.351   4.638  0.1144 -0.3749 -0.2768
 5754SOL    HW128721   1.222   3.438   4.677 -2.2632 -0.9534  0.8115
 5754SOL    HW228722   1.317   3.334   4.616  0.2140  0.4913 -0.5196
 5755SOL     OW28723   3.793   0.313  15.720 -0.1721  0.3858 -0.4090
 5755SOL    HW128724   3.700   0.288  15.718 -0.2356  0.4751  1.9924
 5755SOL    HW228725   3.837   0.242  15.767  1.7655  0.9290 -1.4066
 5756SOL     OW28726   0.893   1.322   7.828 -0.3774 -0.5758  0.6771
 5756SOL    HW128727   0.949   1.245   7.820 -3.1072 -2.4715 -0.3788
 5756SOL    HW228728   0.855   1.319   7.740  0.8574  0.4480  0.1216
 5757SOL     OW28729   4.203   1.726   6.639  0.2221  0.0838 -0.0002
 5757SOL    HW128730   4.247   1.781   6.704 -1.6334  1.3294  0.1790
 5757SOL    HW228731   4.244   1.754   6.556  0.5327 -1.1607 -0.2658
 5758SOL     OW28732   2.332   4.605  13.059  0.8146 -0.1672 -0.1272
 5758SOL    HW128733   2.311   4.520  13.099 -1.5222  0.4437 -0.0587
 5758SOL    HW228734   2.297   4.597  12.970 -1.1297 -1.5487  0.7611
 5759SOL     OW28735   0.855   1.987   7.236  0.2193 -0.3167 -0.1426
 5759SOL    HW128736   0.853   2.063   7.178  1.0763  0.4827  0.8868
 5759SOL    HW228737   0.846   2.020   7.325  0.3966  3.6866 -1.5988
 5760SOL     OW28738   0.957   3.725   3.557 -0.0396 -0.4756  0.5791
 5760SOL    HW128739   0.897   3.651   3.550  1.2359 -1.7542  3.6253
 5760SOL    HW228740   1.040   3.676   3.555 -0.1750 -0.7369  1.4813
 5761SOL     OW28741   2.008   1.470  16.688 -0.1397 -0.0088  0.3248
 5761SOL    HW128742   1.971   1.535  16.628 -1.0525 -1.5990 -0.8097
 5761SOL    HW228743   2.006   1.390  16.637  0.3903 -0.5678  1.1905
 5762SOL     OW28744   0.997   3.005   4.073 -0.1951 -0.0010  0.0141
 5762SOL    HW128745   0.954   2.930   4.115 -1.9112  1.1374  0.3148
 5762SOL    HW228746   0.936   3.074   4.101 -0.0322  1.0204 -2.1844
 5763SOL     OW28747   0.392   3.682  16.758 -0.0302 -0.2139  0.4396
 5763SOL    HW128748   0.304   3.718  16.769  0.0252 -0.0360  0.3049
 5763SOL    HW228749   0.372   3.588  16.755  3.8628 -1.0395 -0.0183
 5764SOL     OW28750   4.664   3.405  14.107  0.0183  0.2409 -0.2190
 5764SOL    HW128751   4.660   3.439  14.018  2.1725 -0.0579 -0.4432
 5764SOL    HW228752   4.570   3.389  14.117  0.3374 -0.8108  1.1689
 5765SOL     OW28753   2.050   1.733   4.000 -0.2186 -0.1229 -0.4862
 5765SOL    HW128754   2.069   1.786   3.922  2.5897 -1.2493 -0.6017
 5765SOL    HW228755   2.127   1.676   3.993  0.4508  0.2743  3.9528
 5766SOL     OW28756   1.687   2.409   7.809 -0.3302  0.1969  0.7839
 5766SOL    HW128757   1.655   2.449   7.890  0.1866  0.9146  0.6361
 5766SOL    HW228758   1.635   2.329   7.805  1.5603 -1.0438  1.3459
 5767SOL     OW28759   0.437   1.618   3.234  0.2367 -0.0809  0.2630
 5767SOL    HW128760   0.361   1.563   3.215 -0.9060  1.4811  0.3538
 5767SOL    HW228761   0.407   1.656   3.316  0.0157  0.4800 -0.0814
 5768SOL     OW28762   1.903   4.171   8.658 -0.4200  0.2184 -0.2173
 5768SOL    HW128763   1.814   4.182   8.693 -0.4179  0.3939 -0.2690
 5768SOL    HW228764   1.949   4.191   8.740  0.0337 -0.8385 -0.2146
 5769SOL     OW28765   4.413   1.932   5.692 -0.4229  0.3823  0.9465
 5769SOL    HW128766   4.327   1.892   5.706  0.1604 -1.9874 -2.3305
 5769SOL    HW228767   4.398   2.014   5.740 -3.5738  0.4751 -0.1621
 5770SOL     OW28768   1.568   2.906   6.163  0.3172  0.1440 -0.5730
 5770SOL    HW128769   1.507   2.854   6.216  0.3523  1.3609  0.6662
 5770SOL    HW228770   1.584   2.845   6.092  1.8502  1.2167 -1.1343
 5771SOL     OW28771   0.243   1.889  17.577 -0.0447  0.2534  0.0354
 5771SOL    HW128772   0.263   1.982  17.565  1.0113  0.1142  0.6497
 5771SOL    HW228773   0.184   1.869  17.504  0.2941 -3.9430  0.8923
 5772SOL     OW28774   1.807   0.877  10.730  0.1480  0.1760  0.2394
 5772SOL    HW128775   1.762   0.829  10.801 -1.1148  2.1382  0.7587
 5772SOL    HW228776   1.869   0.807  10.710 -1.6993 -1.5120  0.4273
 5773SOL     OW28777   3.791   1.604   5.191 -0.2539  0.1344 -0.2484
 5773SOL    HW128778   3.795   1.510   5.173  1.4017  0.0720  0.4143
 5773SOL    HW228779   3.730   1.636   5.124 -0.6126  0.1287  0.0782
 5774SOL     OW28780   4.168   2.405   6.877 -0.5758 -0.1944  0.1596
 5774SOL    HW128781   4.116   2.478   6.844 -0.0922  0.5185  0.9942
 5774SOL    HW228782   4.111   2.374   6.948 -1.8491 -0.6740 -1.0816
 5775SOL     OW28783   3.107   2.697   3.325 -0.7013 -0.2452 -0.5305
 5775SOL    HW128784   3.033   2.636   3.328 -0.8724 -0.0509 -0.7721
 5775SOL    HW228785   3.089   2.717   3.233 -0.7762  1.2321 -0.1836
 5776SOL     OW28786   1.138   1.489   2.308 -0.4327  0.4392 -0.0621
 5776SOL    HW128787   1.042   1.493   2.303 -0.3740 -0.8838 -2.2147
 5776SOL    HW228788   1.164   1.526   2.224  0.4647 -1.0777 -0.4615
 5777SOL     OW28789   4.571   2.312   4.937  0.4495  0.2238  0.4780
 5777SOL    HW128790   4.570   2.320   5.032  2.7272  1.0039  0.4318
 5777SOL    HW228791   4.621   2.391   4.915  0.2056  0.1731 -0.2529
 5778SOL     OW28792   2.729   2.256   3.638 -0.4561  0.6250 -0.6702
 5778SOL    HW128793   2.694   2.331   3.687 -0.7177 -0.1584  0.3498
 5778SOL    HW228794   2.687   2.258   3.552 -0.0498 -0.1142 -0.8857
 5779SOL     OW28795   4.128   1.328  15.917  0.2812  0.1423 -0.3473
 5779SOL    HW128796   4.125   1.248  15.969 -2.9927  0.0050 -0.7736
 5779SOL    HW228797   4.050   1.377  15.944 -0.6221 -1.2394 -0.4665
 5780SOL     OW28798   2.333   3.308   2.883  0.2165 -0.3093  0.0445
 5780SOL    HW128799   2.367   3.378   2.938  0.7815  0.7943 -1.7079
 5780SOL    HW228800   2.365   3.333   2.796 -1.0997  2.3525  0.3315
 5781SOL     OW28801   1.613   3.055   7.502 -0.1291 -0.2095  0.1254
 5781SOL    HW128802   1.673   2.989   7.537  0.9805  0.0345 -1.2963
 5781SOL    HW228803   1.651   3.136   7.535  1.3197 -0.7355 -0.2574
 5782SOL     OW28804   2.928   1.182   1.015 -0.0564 -0.4827 -0.0779
 5782SOL    HW128805   2.836   1.190   1.042 -0.5173  0.1429 -1.8234
 5782SOL    HW228806   2.971   1.138   1.088 -3.8775  3.0138  4.2969
 5783SOL     OW28807   2.670   1.587   9.169 -0.1950 -0.0938 -0.4421
 5783SOL    HW128808   2.637   1.627   9.088 -1.5021  2.6002  1.4199
 5783SOL    HW228809   2.707   1.664   9.212  1.0270 -2.4766  2.8214
 5784SOL     OW28810   4.076   1.952   6.278  0.1866 -0.0690 -0.0002
 5784SOL    HW128811   4.024   2.025   6.311  2.1830  1.4134 -0.1424
 5784SOL    HW228812   4.139   1.984   6.214 -2.4444  3.0460 -1.0399
 5785SOL     OW28813   3.980   3.826   2.576 -0.4253  0.1805 -0.2848
 5785SOL    HW128814   3.980   3.873   2.493  3.2329 -0.2353 -0.5097
 5785SOL    HW228815   4.046   3.757   2.568 -1.0923 -0.4925 -0.0306
 5786SOL     OW28816   1.554   1.969   5.350 -0.2199 -0.1125 -0.3086
 5786SOL    HW128817   1.524   2.052   5.388  1.4420  0.9954 -1.4165
 5786SOL    HW228818   1.490   1.904   5.379  0.8574 -0.5437  1.1496
 5787SOL     OW28819   2.070   3.656  12.552  0.1118  0.1015 -0.8031
 5787SOL    HW128820   1.977   3.635  12.560  0.3445  0.3472  2.6407
 5787SOL    HW228821   2.055   3.722  12.485 -1.5566  0.3148 -0.2103
 5788SOL     OW28822   1.004   2.003   2.024 -0.0467 -0.2003 -0.0621
 5788SOL    HW128823   0.935   2.062   2.056  1.1213  2.2642 -2.0717
 5788SOL    HW228824   1.011   2.026   1.932 -1.4403  0.0822 -0.1052
 5789SOL     OW28825   0.408   2.601   8.298  0.5215  0.0441 -0.2753
 5789SOL    HW128826   0.464   2.631   8.370  0.0782  1.6190 -0.5985
 5789SOL    HW228827   0.421   2.506   8.305 -0.7833 -0.0334  1.1138
 5790SOL     OW28828   0.645   3.634  13.614 -0.1634  0.1451  0.5025
 5790SOL    HW128829   0.694   3.688  13.676  1.1467 -0.8774  0.3691
 5790SOL    HW228830   0.711   3.622  13.545 -1.0166  3.5753 -0.8821
 5791SOL     OW28831   0.428   1.395   7.490 -0.0764  0.0418  0.1145
 5791SOL    HW128832   0.336   1.375   7.509  0.3128  1.2031  3.1734
 5791SOL    HW228833   0.466   1.307   7.491  0.6828  0.3715  1.3404
 5792SOL     OW28834   1.378   3.856  14.282  0.1986  0.0226 -0.3983
 5792SOL    HW128835   1.384   3.950  14.293 -1.7291  0.0788  0.1433
 5792SOL    HW228836   1.297   3.842  14.331  1.0525 -1.4031  0.6057
 5793SOL     OW28837   2.199   4.409   9.185  0.6588  0.1113  0.4674
 5793SOL    HW128838   2.245   4.457   9.254 -0.0551 -0.9076  1.6511
 5793SOL    HW228839   2.164   4.333   9.231  1.2266 -0.4802 -0.0890
 5794SOL     OW28840   0.512   0.431   9.137 -0.0679 -0.0383  0.2735
 5794SOL    HW128841   0.553   0.508   9.177  1.7403 -0.7284 -0.2476
 5794SOL    HW228842   0.561   0.362   9.182  2.3016  1.7797  0.4976
 5795SOL     OW28843   1.319   4.499  13.586 -0.3620  0.4842 -0.2941
 5795SOL    HW128844   1.399   4.487  13.536  0.3275 -1.2042  1.1920
 5795SOL    HW228845   1.354   4.494  13.675 -0.0034 -0.9516 -0.5230
 5796SOL     OW28846   0.931   4.419   7.906 -0.2766 -0.5763 -0.2696
 5796SOL    HW128847   0.880   4.476   7.847 -0.8192  0.8267  1.5473
 5796SOL    HW228848   0.991   4.378   7.844 -2.1805  0.9743 -3.1734
 5797SOL     OW28849   3.116   3.908   7.225 -0.0531  0.1188 -0.9393
 5797SOL    HW128850   3.153   3.969   7.288  1.6155 -1.3169 -0.5355
 5797SOL    HW228851   3.107   3.972   7.154 -1.1480 -1.7372 -2.4603
 5798SOL     OW28852   4.657   3.153   4.890  0.0100 -0.0625 -0.0237
 5798SOL    HW128853   4.691   3.197   4.968  0.7340  1.1226 -1.0120
 5798SOL    HW228854   4.648   3.227   4.830  1.5114  1.4611  1.6428
 5799SOL     OW28855   0.164   2.967   7.119 -0.0303 -0.4064 -0.1406
 5799SOL    HW128856   0.179   2.943   7.028 -1.1384  0.8615 -0.6643
 5799SOL    HW228857   0.152   3.062   7.113  2.4975 -0.0438  0.5811
 5800SOL     OW28858   1.026   3.996   4.059  0.1689  0.2264 -0.3640
 5800SOL    HW128859   1.059   4.086   4.058  1.7610 -0.3542 -0.9765
 5800SOL    HW228860   1.101   3.950   4.097  0.4980 -0.0016 -1.2929
 5801SOL     OW28861   1.841   1.812  16.693  0.1517  0.1386 -0.3111
 5801SOL    HW128862   1.816   1.733  16.645 -0.9045 -0.4221  1.1495
 5801SOL    HW228863   1.764   1.867  16.701 -1.1535 -1.7454  0.0467
 5802SOL     OW28864   1.820   3.651   1.415 -0.0952  0.0395  0.4126
 5802SOL    HW128865   1.767   3.588   1.367  0.0442 -0.4892  0.9482
 5802SOL    HW228866   1.867   3.686   1.339 -1.9268 -0.7292 -1.0555
 5803SOL     OW28867   1.091   1.012  13.799  0.2390 -0.0606  0.6510
 5803SOL    HW128868   1.051   1.073  13.861  2.9794  1.0596  1.3253
 5803SOL    HW228869   1.041   1.044  13.724 -0.6138 -2.0277  0.4055
 5804SOL     OW28870   2.738   1.092   0.557 -0.2369  0.1966 -0.2765
 5804SOL    HW128871   2.649   1.092   0.522 -1.9428 -1.1623  3.9852
 5804SOL    HW228872   2.726   1.056   0.646 -0.3612  0.9396  0.0045
 5805SOL     OW28873   0.657   2.034  13.383  0.4389 -0.3079  0.2997
 5805SOL    HW128874   0.663   2.087  13.462 -0.5448  1.0142 -0.5154
 5805SOL    HW228875   0.679   2.103  13.320 -1.6675  1.0358  1.0382
 5806SOL     OW28876   4.142   3.725   7.416  0.4065  0.6848  0.7177
 5806SOL    HW128877   4.170   3.708   7.327 -0.2611 -0.4380  0.7285
 5806SOL    HW228878   4.056   3.768   7.416  0.1294  0.1127 -1.2308
 5807SOL     OW28879   2.109   0.342   2.826 -0.5236 -0.2160 -0.5824
 5807SOL    HW128880   2.078   0.300   2.746  0.4146 -2.3440  0.1515
 5807SOL    HW228881   2.202   0.350   2.806 -0.7450  0.2676 -1.3842
 5808SOL     OW28882   3.571   2.055  14.422 -0.6147 -0.2543  0.3634
 5808SOL    HW128883   3.587   2.148  14.437  0.4185  0.0788 -2.8108
 5808SOL    HW228884   3.539   2.069  14.333 -1.0694 -0.5634  0.4752
 5809SOL     OW28885   4.065   1.995   6.817 -0.3827  0.2616 -0.6599
 5809SOL    HW128886   4.021   1.918   6.781 -0.6828  1.0058 -1.8858
 5809SOL    HW228887   4.052   1.986   6.911 -3.8711 -1.1077 -1.2847
 5810SOL     OW28888   4.716   2.163   0.689 -0.4313 -0.4630 -0.2799
 5810SOL    HW128889   4.688   2.227   0.754  0.3567  2.2422 -2.6319
 5810SOL    HW228890   4.677   2.201   0.611 -1.2964 -1.2230 -0.2225
 5811SOL     OW28891   3.984   4.374   2.585  0.0448  0.0208 -0.2137
 5811SOL    HW128892   4.008   4.460   2.619 -0.5921  0.7219 -1.5357
 5811SOL    HW228893   4.058   4.358   2.526 -0.0474 -0.3168 -0.2405
 5812SOL     OW28894   4.337   0.551   7.575 -0.3565  0.6493  0.0152
 5812SOL    HW128895   4.257   0.598   7.553 -0.0645  0.9682 -0.3737
 5812SOL    HW228896   4.313   0.459   7.579  1.1838  0.1883 -1.3074
 5813SOL     OW28897   3.320   4.302   4.109  0.5829  0.0399 -0.4508
 5813SOL    HW128898   3.338   4.217   4.149  0.8536 -0.7101 -2.1510
 5813SOL    HW228899   3.368   4.297   4.027  0.1194 -1.2045 -0.6576
 5814SOL     OW28900   2.032   0.691   9.032 -0.3888 -0.4859 -0.0833
 5814SOL    HW128901   2.017   0.603   9.066 -0.2660  0.4207  2.2668
 5814SOL    HW228902   1.968   0.692   8.961  1.2266  0.3732 -1.5228
 5815SOL     OW28903   1.003   2.969   4.756  0.6458 -0.2680 -0.0021
 5815SOL    HW128904   0.932   2.921   4.714 -1.1619  0.1780  2.5345
 5815SOL    HW228905   0.961   2.997   4.837  2.6449  1.7277  0.3489
 5816SOL     OW28906   3.588   1.391   8.831  0.8117  0.4243  0.5266
 5816SOL    HW128907   3.645   1.314   8.821 -0.6283 -0.7033  1.0458
 5816SOL    HW228908   3.645   1.455   8.874  1.8207 -0.4921  0.5534
 5817SOL     OW28909   4.717   2.358   3.909 -0.3545  0.1906 -0.5919
 5817SOL    HW128910   0.050   2.391   3.979 -1.0276  1.4767 -0.6561
 5817SOL    HW228911   4.718   2.437   3.854 -3.0446  0.1094 -0.7842
 5818SOL     OW28912   1.594   3.980  14.948 -0.4488 -0.1193  0.8189
 5818SOL    HW128913   1.536   3.926  14.894 -0.7790  2.3372 -1.2937
 5818SOL    HW228914   1.538   4.003  15.023  0.3221  0.3966  1.2442
 5819SOL     OW28915   4.603   4.590  11.114  0.6462  0.5034  0.3771
 5819SOL    HW128916   4.629   4.614  11.203 -0.2457  0.6123  0.6133
 5819SOL    HW228917   4.531   4.648  11.089 -0.6418 -1.7289 -1.1027
 5820SOL     OW28918   3.658   0.231  16.744  0.2841  0.0036 -0.3202
 5820SOL    HW128919   3.638   0.161  16.682 -2.3162  0.1985  0.3005
 5820SOL    HW228920   3.652   0.307  16.686  0.2334 -0.6623 -1.1758
 5821SOL     OW28921   3.577   3.310   5.623 -0.0239 -0.3405  0.1300
 5821SOL    HW128922   3.620   3.255   5.689 -1.0502 -0.8856  0.3446
 5821SOL    HW228923   3.656   3.358   5.598  0.2401  1.0155  3.4787
 5822SOL     OW28924   3.832   1.265  15.809 -0.3197 -0.7477  0.1520
 5822SOL    HW128925   3.783   1.333  15.854  1.1090  1.1398 -1.1282
 5822SOL    HW228926   3.898   1.317  15.763  0.0039  0.2089  1.7215
 5823SOL     OW28927   3.096   1.670   9.655 -0.0033  0.1468  0.9093
 5823SOL    HW128928   3.103   1.756   9.697 -0.5771  0.0922  1.1263
 5823SOL    HW228929   3.134   1.598   9.706 -0.7815 -1.2759 -0.4916
 5824SOL     OW28930   2.117   0.086   3.016 -0.5985 -0.1485 -0.3574
 5824SOL    HW128931   2.052   0.140   2.971 -1.7369 -2.6221 -1.7073
 5824SOL    HW228932   2.198   0.107   2.970  0.3578  0.9989  1.8956
 5825SOL     OW28933   2.504   3.336   2.374  0.2178  0.0151  0.2161
 5825SOL    HW128934   2.459   3.383   2.304  2.3076  2.8201  0.7447
 5825SOL    HW228935   2.585   3.331   2.322 -0.9379 -0.6972 -1.4892
 5826SOL     OW28936   3.739   3.310  14.336  0.0204  0.3577 -0.0474
 5826SOL    HW128937   3.780   3.322  14.251 -0.7949 -0.4955 -0.5612
 5826SOL    HW228938   3.790   3.233  14.364 -1.6621 -1.0176 -0.7569
 5827SOL     OW28939   3.613   3.803   3.611 -0.1098  0.3495 -0.3807
 5827SOL    HW128940   3.648   3.716   3.588  0.0097 -0.0981  1.5022
 5827SOL    HW228941   3.522   3.781   3.590 -0.4647 -0.0523  1.5822
 5828SOL     OW28942   0.467   0.666   7.153  0.0026  0.1706  0.1069
 5828SOL    HW128943   0.562   0.675   7.160  0.0162 -0.2334  0.4205
 5828SOL    HW228944   0.466   0.571   7.140 -0.8602  0.3829 -1.3767
 5829SOL     OW28945   2.731   0.413   2.031 -0.5976 -0.1486 -0.0592
 5829SOL    HW128946   2.751   0.482   2.094  1.0608  1.2163 -2.1068
 5829SOL    HW228947   2.636   0.420   2.033 -0.6432 -0.6349 -0.3465
 5830SOL     OW28948   0.198   2.183   7.510  0.0450 -0.6681 -0.4917
 5830SOL    HW128949   0.211   2.264   7.462 -0.0802  0.1451  0.8355
 5830SOL    HW228950   0.116   2.148   7.477  1.3945 -2.8944 -1.4622
 5831SOL     OW28951   4.692   1.283   0.830 -0.0064 -0.1271  0.5096
 5831SOL    HW128952   0.002   1.242   0.750 -0.1294 -1.4543  1.1460
 5831SOL    HW228953   0.041   1.269   0.891  0.8476  1.1931 -0.1864
 5832SOL     OW28954   2.221   3.447  10.145 -0.0555  0.0521 -0.1174
 5832SOL    HW128955   2.165   3.384  10.189 -1.5671 -0.0487 -2.2044
 5832SOL    HW228956   2.240   3.403  10.062 -0.4873 -0.1641 -0.0970
 5833SOL     OW28957   4.018   4.362   6.327 -0.0532 -0.2748 -0.3681
 5833SOL    HW128958   4.072   4.355   6.406  0.5745 -0.4102 -0.8109
 5833SOL    HW228959   4.065   4.427   6.275  0.8665 -1.7355 -1.3590
 5834SOL     OW28960   2.675   3.861   3.184 -0.0001  0.2629  0.2431
 5834SOL    HW128961   2.694   3.782   3.134 -3.1439 -0.4209  0.1363
 5834SOL    HW228962   2.701   3.938   3.133  0.7656  0.7349  1.3394
 5835SOL     OW28963   0.815   0.682  17.463 -0.5868  0.3311  0.4014
 5835SOL    HW128964   0.892   0.724  17.426 -0.7506 -1.1892 -1.6763
 5835SOL    HW228965   0.838   0.677  17.556  0.1432 -0.2511  0.1894
 5836SOL     OW28966   2.500   4.642   2.544 -0.2041 -0.2582  0.0731
 5836SOL    HW128967   2.442   4.599   2.481  1.5896 -1.7440 -0.5466
 5836SOL    HW228968   2.496   4.572   2.609 -1.4510 -0.3219 -0.0612
 5837SOL     OW28969   2.761   4.596   0.320 -0.1122  0.7711 -0.8081
 5837SOL    HW128970   2.750   4.513   0.366  1.6518 -1.0245 -3.5600
 5837SOL    HW228971   2.841   4.573   0.272 -0.2751 -3.0046  0.7584
 5838SOL     OW28972   4.549   2.632   3.350 -0.2307 -0.3910 -0.5309
 5838SOL    HW128973   4.562   2.723   3.324 -1.8379  0.1333  0.4913
 5838SOL    HW228974   4.632   2.600   3.316  0.7600  1.4717  0.1321
 5839SOL     OW28975   1.735   4.604   7.738 -0.0517 -0.2996 -0.3797
 5839SOL    HW128976   1.819   4.613   7.694  1.4889 -2.2812  2.1946
 5839SOL    HW228977   1.734   4.685   7.789 -1.7451 -0.2820 -0.4389
 5840SOL     OW28978   3.665   1.019   2.601 -0.4556  0.2672  0.4070
 5840SOL    HW128979   3.622   1.077   2.664 -3.1307 -1.9315  0.6030
 5840SOL    HW228980   3.754   1.053   2.594 -0.0623 -0.6825  0.7371
 5841SOL     OW28981   3.384   0.316  14.665 -0.4591  0.1135  0.0497
 5841SOL    HW128982   3.367   0.349  14.753 -2.2309 -2.5634  0.6923
 5841SOL    HW228983   3.350   0.227  14.670 -0.6753  0.2300  0.6088
 5842SOL     OW28984   4.666   3.659   6.846 -0.1658 -0.2729  0.1793
 5842SOL    HW128985   4.701   3.733   6.795  0.5742  0.4487  1.7320
 5842SOL    HW228986   4.661   3.701   6.932  0.6512  0.7283 -0.2592
 5843SOL     OW28987   2.049   2.686   2.803  0.1433  0.5349  0.1550
 5843SOL    HW128988   2.067   2.744   2.729 -1.5779  1.6050  0.5940
 5843SOL    HW228989   2.125   2.627   2.804  1.7519  2.6101  0.2551
 5844SOL     OW28990   3.523   1.399  17.108 -0.1411 -0.5845 -0.2632
 5844SOL    HW128991   3.455   1.388  17.041  0.9963 -2.2583 -1.1454
 5844SOL    HW228992   3.530   1.316  17.154 -0.2672 -1.9921 -2.7488
 5845SOL     OW28993   2.788   3.420   5.987 -0.0511  0.5187 -0.3568
 5845SOL    HW128994   2.841   3.426   5.907  2.0168 -0.0846  0.9738
 5845SOL    HW228995   2.801   3.330   6.014  0.0875  0.5430 -0.3428
 5846SOL     OW28996   2.256   1.223   0.510  0.0814  0.0238  0.5511
 5846SOL    HW128997   2.243   1.317   0.493  0.1747 -0.1063 -0.2302
 5846SOL    HW228998   2.202   1.208   0.587  2.0119 -1.8123  1.5410
 5847SOL     OW28999   2.436   1.661   5.384 -0.0558 -0.0098  0.5143
 5847SOL    HW129000   2.421   1.752   5.409 -0.7658  0.5461 -1.9331
 5847SOL    HW229001   2.404   1.619   5.464 -0.6476 -1.4031 -0.4589
 5848SOL     OW29002   2.482   1.607   8.133 -0.5236  0.0959 -0.3725
 5848SOL    HW129003   2.397   1.642   8.160 -0.9768 -1.0270 -0.3255
 5848SOL    HW229004   2.503   1.560   8.214 -0.4660 -1.0497 -1.0462
 5849SOL     OW29005   4.084   0.730   6.400 -0.4445 -0.2126 -0.0617
 5849SOL    HW129006   4.031   0.708   6.323  1.4103 -0.9390 -1.1602
 5849SOL    HW229007   4.082   0.825   6.389 -0.8094 -0.6238 -3.5561
 5850SOL     OW29008   3.043   2.109  16.535  0.2978  0.0745 -0.1298
 5850SOL    HW129009   2.949   2.124  16.540 -0.5331 -5.3498  0.1118
 5850SOL    HW229010   3.064   2.018  16.516 -2.8804 -0.3428 -1.6311
 5851SOL     OW29011   2.900   3.999   4.983 -0.4972 -0.2726 -0.7931
 5851SOL    HW129012   2.889   4.030   5.073  2.6198 -0.2926 -0.3964
 5851SOL    HW229013   2.934   3.909   4.987 -2.4422 -0.8475  2.2610
 5852SOL     OW29014   0.363   2.210   6.053 -0.4552  0.3194 -0.9797
 5852SOL    HW129015   0.368   2.274   5.982 -0.4332  1.1167 -0.2664
 5852SOL    HW229016   0.378   2.276   6.120 -4.3626 -1.6982  1.8845
 5853SOL     OW29017   1.650   4.603   4.266  0.0511  0.1141  0.1849
 5853SOL    HW129018   1.595   4.610   4.344  0.0640 -0.6187  0.2557
 5853SOL    HW229019   1.662   4.508   4.258 -2.9944 -0.4596  2.4935
 5854SOL     OW29020   0.244   0.293   2.098 -0.7686 -0.8448 -0.0731
 5854SOL    HW129021   0.175   0.327   2.041  0.3947 -2.5590 -2.4928
 5854SOL    HW229022   0.307   0.359   2.069  0.5957 -1.6639  1.0147
 5855SOL     OW29023   0.233   1.819   1.309 -0.2673 -0.0481 -0.0151
 5855SOL    HW129024   0.273   1.750   1.255  2.0613  1.7186 -0.5218
 5855SOL    HW229025   0.155   1.836   1.255  0.4035  1.5371 -0.4830
 5856SOL     OW29026   1.758   4.639  16.717  0.3122  0.1459  0.0178
 5856SOL    HW129027   1.817   4.585  16.664 -2.4686 -1.5632 -1.2798
 5856SOL    HW229028   1.815   4.716  16.726  2.9557 -1.8327  0.3985
 5857SOL     OW29029   0.292   0.027   2.896  0.5333  0.0265  0.0008
 5857SOL    HW129030   0.202   4.717   2.902  0.4264  0.1003 -1.2504
 5857SOL    HW229031   0.310   0.001   2.806  1.3846 -0.0031  0.1835
 5858SOL     OW29032   0.411   2.810   5.153  0.3134  0.3222 -0.3442
 5858SOL    HW129033   0.428   2.763   5.234 -2.0269  0.5329  0.2653
 5858SOL    HW229034   0.340   2.758   5.114 -1.0455  2.1784 -0.3585
 5859SOL     OW29035   2.168   0.070   8.554 -0.3083  0.3391  0.5171
 5859SOL    HW129036   2.147   0.135   8.486 -1.3141  1.4020  1.8449
 5859SOL    HW229037   2.262   0.083   8.559 -0.0452 -0.5595 -1.9701
 5860SOL     OW29038   4.584   3.459   8.683 -0.5553  0.2051  0.2472
 5860SOL    HW129039   4.526   3.521   8.639  2.1240  2.1414 -0.4746
 5860SOL    HW229040   4.519   3.388   8.691 -0.5477  0.1614 -0.0937
 5861SOL     OW29041   4.205   2.015  11.112 -0.3372  0.6156  0.0210
 5861SOL    HW129042   4.243   2.102  11.101 -2.0460  1.3309 -0.1529
 5861SOL    HW229043   4.250   1.981  11.189  1.6565  1.2886 -0.8323
 5862SOL     OW29044   2.387   4.202   3.060 -0.1430  0.3885 -0.6896
 5862SOL    HW129045   2.407   4.111   3.038 -0.1039  0.0064  0.9021
 5862SOL    HW229046   2.470   4.239   3.088  1.4439 -2.1894 -1.9976
 5863SOL     OW29047   3.998   1.021  12.757 -0.2185 -0.2575 -0.0655
 5863SOL    HW129048   3.944   1.024  12.678 -0.3864  0.6220  0.0831
 5863SOL    HW229049   3.955   1.088  12.809 -0.5212  0.8047 -1.6806
 5864SOL     OW29050   0.700   0.411   3.235  0.2239  0.9411 -1.1500
 5864SOL    HW129051   0.779   0.414   3.182  0.8868 -0.6274 -0.2517
 5864SOL    HW229052   0.636   0.440   3.170 -1.1512  0.1551 -0.1608
 5865SOL     OW29053   1.288   2.514   3.102 -0.2445  0.2065  0.4185
 5865SOL    HW129054   1.304   2.586   3.162  1.5975  0.8425 -0.8220
 5865SOL    HW229055   1.356   2.525   3.035  0.2495  0.7099  0.9991
 5866SOL     OW29056   1.522   3.122   7.095 -0.1981 -0.1230  0.0180
 5866SOL    HW129057   1.492   3.196   7.150  3.3158 -0.8514  2.9155
 5866SOL    HW229058   1.529   3.057   7.165 -2.1447  2.0551  2.3004
 5867SOL     OW29059   3.434   1.142   6.458 -0.2872 -0.2029 -0.0422
 5867SOL    HW129060   3.450   1.088   6.381  0.9755 -1.1497  0.8790
 5867SOL    HW229061   3.501   1.210   6.452 -1.6453  1.4340  2.9934
 5868SOL     OW29062   2.999   3.659   4.825  0.0396 -0.3954  0.7344
 5868SOL    HW129063   2.983   3.720   4.897 -0.0480  1.7601 -1.0917
 5868SOL    HW229064   2.912   3.664   4.786  0.8417  0.5914 -0.9509
 5869SOL     OW29065   4.439   4.215  15.486  0.7405  0.0548 -0.0786
 5869SOL    HW129066   4.501   4.142  15.493  0.5544  0.1371  2.5846
 5869SOL    HW229067   4.376   4.187  15.553 -0.3998  1.3795 -0.5932
 5870SOL     OW29068   4.559   1.818  13.602  0.3134 -0.1091  0.1280
 5870SOL    HW129069   4.510   1.860  13.531  2.6150 -1.2410 -2.1353
 5870SOL    HW229070   4.648   1.836  13.573  0.4654  1.1476  1.4005
 5871SOL     OW29071   3.101   1.497   3.136 -0.4905 -0.8700 -0.6223
 5871SOL    HW129072   3.056   1.581   3.135  2.7706  0.9019  1.1004
 5871SOL    HW229073   3.066   1.457   3.216  0.1472  0.1826  0.1780
 5872SOL     OW29074   1.093   0.913  16.385  0.2639 -0.1512  0.0011
 5872SOL    HW129075   1.009   0.911  16.430 -0.0998  1.5540 -0.6212
 5872SOL    HW229076   1.063   0.952  16.303 -1.4781 -1.2145  0.1374
 5873SOL     OW29077   3.691   2.141  16.155 -0.3493 -0.3914  0.2584
 5873SOL    HW129078   3.622   2.167  16.095  0.5088  0.9906 -0.1184
 5873SOL    HW229079   3.649   2.144  16.241 -0.2936  1.4024  0.2204
 5874SOL     OW29080   2.574   1.142   5.323  0.0357 -0.7495  0.4395
 5874SOL    HW129081   2.534   1.197   5.391  1.1359 -0.0006  0.4807
 5874SOL    HW229082   2.645   1.108   5.377 -0.2355  0.6418  1.6950
 5875SOL     OW29083   4.479   3.513   8.200  0.1593  0.9152 -0.0725
 5875SOL    HW129084   4.535   3.447   8.240 -2.8544 -3.4309 -3.0033
 5875SOL    HW229085   4.395   3.467   8.207 -0.3482  1.5264 -2.0769
 5876SOL     OW29086   3.663   2.337   8.233 -0.5918  0.5348  0.4734
 5876SOL    HW129087   3.758   2.332   8.244 -0.7823  0.9132  2.3019
 5876SOL    HW229088   3.666   2.385   8.150 -3.6078  2.9717  1.7522
 5877SOL     OW29089   2.147   3.813  10.391  0.1050  0.2661 -0.2426
 5877SOL    HW129090   2.111   3.891  10.432  0.1582 -0.1161  0.5133
 5877SOL    HW229091   2.217   3.802  10.455 -0.2811 -1.4300 -0.1272
 5878SOL     OW29092   1.234   0.126   4.231  0.6393 -0.2726  0.1872
 5878SOL    HW129093   1.157   0.182   4.230  2.0641  1.7400  3.3804
 5878SOL    HW229094   1.234   0.110   4.325 -0.4279  0.7759  0.3666
 5879SOL     OW29095   3.222   4.489   7.274 -0.1168 -0.5352 -0.0672
 5879SOL    HW129096   3.165   4.474   7.199 -0.5870  2.1329 -0.2574
 5879SOL    HW229097   3.299   4.437   7.249  1.1278  0.9517  0.6573
 5880SOL     OW29098   3.952   4.611   9.596 -0.2565 -0.5133 -0.4593
 5880SOL    HW129099   3.909   4.624   9.680  1.6659 -0.1392  0.4504
 5880SOL    HW229100   3.909   4.680   9.545 -2.1173 -0.7044  0.8633
 5881SOL     OW29101   2.359   0.465  15.914 -0.1246  0.4976  0.2475
 5881SOL    HW129102   2.396   0.393  15.863 -0.9778  0.2336  0.0114
 5881SOL    HW229103   2.374   0.538  15.853 -2.8050  1.4796  0.7447
 5882SOL     OW29104   1.552   3.962   2.730 -0.0586  0.1795  0.4758
 5882SOL    HW129105   1.624   3.987   2.787 -0.2686  1.5430  0.1399
 5882SOL    HW229106   1.568   4.011   2.649  0.3474 -1.0612 -0.1947
 5883SOL     OW29107   1.794   1.750   5.013 -0.2623  0.3277 -0.3094
 5883SOL    HW129108   1.798   1.729   4.919  1.7118  1.3361 -0.4572
 5883SOL    HW229109   1.874   1.716   5.053 -0.2722  0.1619 -0.4315
 5884SOL     OW29110   2.680   0.284   2.528  0.2961 -0.5590 -0.4116
 5884SOL    HW129111   2.693   0.321   2.441  0.5508  2.9721  1.1247
 5884SOL    HW229112   2.717   0.357   2.577 -0.6350  0.7785 -1.6997
 5885SOL     OW29113   4.664   3.455   5.087  0.0070 -0.3855 -0.8834
 5885SOL    HW129114   0.002   3.517   5.126  0.7570 -1.2515 -0.6809
 5885SOL    HW229115   4.717   3.378   5.107 -0.3387  0.2104  2.3577
 5886SOL     OW29116   4.663   1.977  13.238 -0.2238 -0.3333 -0.2022
 5886SOL    HW129117   4.600   2.042  13.271  0.4620  0.1837  0.0798
 5886SOL    HW229118   4.710   1.945  13.316  0.2972  0.3753 -0.2289
 5887SOL     OW29119   4.637   4.454   9.368 -0.3490 -0.5936  0.1908
 5887SOL    HW129120   4.707   4.416   9.420  0.2792  0.7757  0.3602
 5887SOL    HW229121   4.673   4.543   9.370 -1.1931 -0.2836  1.5243
 5888SOL     OW29122   0.357   3.279  17.328 -0.1115  0.3110  0.0103
 5888SOL    HW129123   0.297   3.353  17.329 -1.1833 -0.5985  2.6357
 5888SOL    HW229124   0.435   3.329  17.305  0.1037  0.8414  1.8833
 5889SOL     OW29125   4.598   0.695   2.995 -0.0549 -0.1394 -0.8841
 5889SOL    HW129126   4.573   0.771   3.048  0.5798 -1.0262  0.6892
 5889SOL    HW229127   4.577   0.717   2.905 -1.2154  0.4386 -0.4651
 5890SOL     OW29128   1.647   0.421   7.560  0.1521  0.1547 -0.4669
 5890SOL    HW129129   1.675   0.469   7.638  0.8477 -0.8256 -0.1269
 5890SOL    HW229130   1.603   0.485   7.503 -0.2722 -0.1648 -0.4953
 5891SOL     OW29131   3.475   1.240   5.748 -0.2357  0.2917  0.3347
 5891SOL    HW129132   3.525   1.304   5.799 -0.5146  0.9095 -0.1558
 5891SOL    HW229133   3.528   1.219   5.672  0.7274  0.0560  1.0759
 5892SOL     OW29134   2.475   1.923   7.850 -0.2228  0.7149  0.1733
 5892SOL    HW129135   2.434   1.963   7.773 -2.6819 -2.0726  0.0337
 5892SOL    HW229136   2.430   1.966   7.923 -0.4246 -0.8455  0.9694
 5893SOL     OW29137   4.392   0.592   3.183  0.2409 -0.1088  0.0133
 5893SOL    HW129138   4.457   0.544   3.234 -0.4106 -0.2788  0.6878
 5893SOL    HW229139   4.448   0.633   3.117  0.0730 -0.0585 -0.0981
 5894SOL     OW29140   4.697   4.106   2.978  0.0154  0.0390  0.3805
 5894SOL    HW129141   4.710   4.134   2.888 -2.0793 -1.9502 -0.5187
 5894SOL    HW229142   4.602   4.091   2.975  0.2099 -0.9764 -0.6324
 5895SOL     OW29143   3.234   0.887  11.077 -0.2096 -0.4625  0.4713
 5895SOL    HW129144   3.254   0.962  11.021 -1.2749 -1.0564 -0.7152
 5895SOL    HW229145   3.140   0.885  11.058 -0.3706 -2.1628  1.3857
 5896SOL     OW29146   3.962   2.381   0.290 -0.5050 -1.1709  0.1047
 5896SOL    HW129147   3.870   2.364   0.309 -1.2413  1.0669 -1.4029
 5896SOL    HW229148   3.984   2.456   0.346  1.0653 -0.8646 -0.9131
 5897SOL     OW29149   2.344   0.659   0.632  0.1609 -0.0186  0.0676
 5897SOL    HW129150   2.345   0.575   0.586  0.7325 -0.5638  1.0738
 5897SOL    HW229151   2.419   0.643   0.690  0.4199  0.2414 -0.1932
 5898SOL     OW29152   0.303   0.883   6.211  0.0233  0.4310 -0.5713
 5898SOL    HW129153   0.289   0.902   6.304  1.5332 -0.1674 -0.2221
 5898SOL    HW229154   0.282   0.969   6.174  0.2516  1.2178  1.1055
 5899SOL     OW29155   2.344   1.634  17.681 -0.2475  0.1158  0.0202
 5899SOL    HW129156   2.401   1.696  17.635 -1.8993  0.8028 -1.0707
 5899SOL    HW229157   2.261   1.673  17.653  0.3370  1.4196  0.0978
 5900SOL     OW29158   2.649   0.772  10.018  0.7364 -0.5451 -0.4720
 5900SOL    HW129159   2.575   0.761   9.958  0.5715 -0.6229 -0.2544
 5900SOL    HW229160   2.654   0.868  10.019  2.8258 -0.6648  0.1311
 5901SOL     OW29161   2.460   0.120   7.595 -0.7726  0.3506  0.0119
 5901SOL    HW129162   2.448   0.196   7.537  0.9046  0.4109 -0.2396
 5901SOL    HW229163   2.457   0.051   7.530  0.2005  0.1355  0.1996
 5902SOL     OW29164   3.458   0.298  13.656  0.1052  0.5321  0.3465
 5902SOL    HW129165   3.381   0.272  13.707 -0.6283  0.1623 -0.9434
 5902SOL    HW229166   3.482   0.213  13.618  0.4977  0.5454  0.5641
 5903SOL     OW29167   1.326   2.286  12.293 -0.1692 -0.4481 -0.7230
 5903SOL    HW129168   1.250   2.228  12.295 -1.2195  0.9782  0.6847
 5903SOL    HW229169   1.349   2.275  12.201 -0.2732  0.0810 -0.8137
 5904SOL     OW29170   3.690   2.882   3.415 -0.4103 -0.7549  0.4023
 5904SOL    HW129171   3.681   2.828   3.494  2.0136 -3.6092 -1.2731
 5904SOL    HW229172   3.734   2.822   3.355  1.4117 -0.7398  1.7430
 5905SOL     OW29173   3.705   0.706   4.715  0.0661  0.2739 -0.2425
 5905SOL    HW129174   3.622   0.661   4.699  0.3501 -0.5161  0.5039
 5905SOL    HW229175   3.748   0.725   4.631 -0.8502 -0.8737 -0.9693
 5906SOL     OW29176   3.752   1.158  16.577 -0.2686 -0.1773 -0.3442
 5906SOL    HW129177   3.800   1.107  16.641  0.6799  3.5958  1.9224
 5906SOL    HW229178   3.820   1.197  16.523  1.8806 -1.9652  1.1069
 5907SOL     OW29179   4.507   0.686   2.092  0.5672 -0.4353  0.1293
 5907SOL    HW129180   4.544   0.633   2.021 -0.2803  1.3425 -1.6369
 5907SOL    HW229181   4.446   0.742   2.045  1.0863  1.5055  1.7548
 5908SOL     OW29182   3.058   1.999  13.261  0.2765 -0.3307  0.1763
 5908SOL    HW129183   3.023   2.088  13.262 -1.1364 -0.8851 -0.5910
 5908SOL    HW229184   3.032   1.963  13.346  0.4924  0.4200  0.5581
 5909SOL     OW29185   3.667   4.265  15.084  0.0281 -0.4275 -0.2580
 5909SOL    HW129186   3.687   4.227  15.170  0.6618 -0.7431 -0.5459
 5909SOL    HW229187   3.626   4.191  15.038 -0.5187 -0.7532  0.7524
 5910SOL     OW29188   3.179   2.025   1.073  0.0793 -0.0220  0.8906
 5910SOL    HW129189   3.245   2.072   1.124  2.1530 -0.0101 -1.7894
 5910SOL    HW229190   3.221   1.941   1.054  1.7488  0.4870  2.2862
 5911SOL     OW29191   3.235   0.538   4.822 -0.0472  0.5472 -0.4065
 5911SOL    HW129192   3.185   0.604   4.871 -1.1450 -0.5727 -0.0148
 5911SOL    HW229193   3.180   0.505   4.752  1.9116 -0.9097 -1.2347
 5912SOL     OW29194   1.875   2.145   8.513 -0.0052  0.1376 -0.5492
 5912SOL    HW129195   1.845   2.081   8.449  0.5577  0.2097 -0.8791
 5912SOL    HW229196   1.962   2.110   8.530 -0.6321 -1.8661 -1.4425
 5913SOL     OW29197   0.049   0.942  14.836  0.5592  0.4041  0.1307
 5913SOL    HW129198   0.091   1.026  14.818  2.4948 -0.3802  1.0049
 5913SOL    HW229199   0.077   0.938  14.927  0.3094  1.4457  0.2483
 5914SOL     OW29200   3.321   1.720  14.072 -0.5118 -0.2843 -0.0512
 5914SOL    HW129201   3.333   1.715  14.167 -1.6032  1.2960  0.1718
 5914SOL    HW229202   3.385   1.655  14.044  0.2530  0.8118 -0.8578
 5915SOL     OW29203   2.288   2.317   3.742 -0.2615  1.3379  0.7500
 5915SOL    HW129204   2.334   2.398   3.719 -0.2611  0.3298 -2.6875
 5915SOL    HW229205   2.339   2.261   3.685 -1.8008 -0.3923  1.0918
 5916SOL     OW29206   1.861   0.755   3.535  0.5836 -0.1134  0.2881
 5916SOL    HW129207   1.868   0.778   3.627  0.4546 -3.1670  1.0748
 5916SOL    HW229208   1.855   0.838   3.487 -1.6522 -1.2777 -1.4895
 5917SOL     OW29209   0.687   2.440   8.378  0.2067 -0.0389 -0.1141
 5917SOL    HW129210   0.638   2.508   8.333 -0.8217 -0.2225  0.7286
 5917SOL    HW229211   0.758   2.496   8.411 -2.0536  1.0520  2.9248
 5918SOL     OW29212   2.589   1.968  14.485 -0.0259  0.6354  0.4997
 5918SOL    HW129213   2.673   2.004  14.455  0.1319 -0.5242 -0.4562
 5918SOL    HW229214   2.601   2.006  14.573 -0.7454 -1.1007  1.3420
 5919SOL     OW29215   3.186   0.053  15.424  0.3521  0.4309  0.2202
 5919SOL    HW129216   3.164   0.142  15.395  0.2472  0.5081  0.5419
 5919SOL    HW229217   3.279   0.044  15.403  0.2690 -0.2127  0.1199
 5920SOL     OW29218   2.975   2.522  15.921  0.6691 -0.3145 -0.0559
 5920SOL    HW129219   2.914   2.596  15.915  2.0267  0.5159 -3.5489
 5920SOL    HW229220   3.048   2.552  15.867  0.5779 -1.0449 -0.5800
 5921SOL     OW29221   3.258   1.042   1.328 -0.3942 -0.3852  0.2728
 5921SOL    HW129222   3.324   1.110   1.341 -0.3218 -0.1891 -1.1959
 5921SOL    HW229223   3.319   0.971   1.305 -2.2264 -1.5528 -0.9490
 5922SOL     OW29224   0.216   0.883   3.552 -0.2084  0.7013 -0.0587
 5922SOL    HW129225   0.129   0.855   3.583  1.2849 -0.8088  2.7813
 5922SOL    HW229226   0.244   0.801   3.512 -0.9904 -0.0382  0.9023
 5923SOL     OW29227   1.906   3.088   3.789 -0.4997 -0.0656  0.1046
 5923SOL    HW129228   1.896   2.993   3.802 -0.0916 -0.2308 -0.7951
 5923SOL    HW229229   1.840   3.102   3.722  0.0613  0.0906 -0.4194
 5924SOL     OW29230   0.317   1.832   2.162  0.7212  0.4203  0.3702
 5924SOL    HW129231   0.288   1.914   2.121  1.6799 -0.1538 -1.4584
 5924SOL    HW229232   0.327   1.773   2.087 -3.2238  2.2639 -1.6369
 5925SOL     OW29233   0.261   0.436   3.234  0.2622  0.3748 -0.2004
 5925SOL    HW129234   0.236   0.367   3.295  2.0848 -1.3600 -1.3992
 5925SOL    HW229235   0.294   0.374   3.168 -0.6602 -2.6059  2.1049
 5926SOL     OW29236   3.653   0.753   6.730 -0.1504  0.4123 -0.1759
 5926SOL    HW129237   3.625   0.731   6.641 -0.0963  0.7828 -0.2832
 5926SOL    HW229238   3.589   0.703   6.781 -0.7115 -0.3987 -1.6720
 5927SOL     OW29239   4.379   2.202   7.105 -0.6520  0.0146  0.3306
 5927SOL    HW129240   4.387   2.265   7.033 -0.9079 -1.7675 -1.2535
 5927SOL    HW229241   4.451   2.143   7.083 -0.6470 -0.0113  0.4177
 5928SOL     OW29242   0.651   0.480  12.019  0.7510  0.1911  0.0131
 5928SOL    HW129243   0.629   0.567  11.985 -0.4729 -0.6762 -1.4411
 5928SOL    HW229244   0.742   0.461  11.997  0.5162 -2.5435  1.3697
 5929SOL     OW29245   0.181   0.632  13.451 -0.6987  0.0957 -0.2967
 5929SOL    HW129246   0.233   0.551  13.446  0.9354  1.2123 -1.5126
 5929SOL    HW229247   0.147   0.629  13.361 -1.1157  2.3916 -0.2197
 5930SOL     OW29248   1.231   0.377   4.854 -0.2333  0.3787 -0.3807
 5930SOL    HW129249   1.276   0.461   4.858  1.6400 -0.7424  2.9324
 5930SOL    HW229250   1.240   0.356   4.761 -0.7253 -2.5848  0.2499
 5931SOL     OW29251   3.700   2.152   1.636  0.8299 -0.0203  0.5524
 5931SOL    HW129252   3.667   2.072   1.676  1.1772 -0.0725  0.7367
 5931SOL    HW229253   3.783   2.168   1.682  0.4805  0.3071  1.0684
 5932SOL     OW29254   2.718   0.409   1.743 -0.8226 -0.0934  0.2954
 5932SOL    HW129255   2.774   0.332   1.759  1.0276  1.1285 -0.2677
 5932SOL    HW229256   2.724   0.446   1.831  1.1454  0.1480  0.0584
 5933SOL     OW29257   1.090   2.848  12.763 -0.3286  0.7105 -0.0115
 5933SOL    HW129258   1.076   2.783  12.694 -0.0048 -0.4755  1.0462
 5933SOL    HW229259   1.116   2.789  12.834 -0.3879  1.5451  0.6998
 5934SOL     OW29260   1.304   4.401   5.775 -0.2408  0.4682  0.1530
 5934SOL    HW129261   1.351   4.478   5.807  3.4973 -2.0216  0.5432
 5934SOL    HW229262   1.325   4.342   5.847 -0.0585  0.4395  0.0765
 5935SOL     OW29263   4.078   3.099   2.832 -0.3391 -0.1309  0.0218
 5935SOL    HW129264   3.983   3.104   2.821 -0.6336 -1.7714  1.7056
 5935SOL    HW229265   4.096   3.006   2.814  0.6491 -0.1678  1.1864
 5936SOL     OW29266   0.130   0.490   7.663  0.4811  0.0631 -0.6013
 5936SOL    HW129267   0.073   0.458   7.733  0.0986  2.2412  0.0889
 5936SOL    HW229268   0.217   0.494   7.704 -0.3580  0.0371  1.1821
 5937SOL     OW29269   4.529   2.810   0.548  0.3976 -0.1958  0.0044
 5937SOL    HW129270   4.517   2.851   0.633  2.1456 -0.3786  0.3499
 5937SOL    HW229271   4.447   2.826   0.502  0.8779 -1.9795 -1.4669
 5938SOL     OW29272   2.521   1.303  16.551  0.1716 -0.0901 -0.3407
 5938SOL    HW129273   2.463   1.340  16.484  0.3417 -1.8068 -1.4331
 5938SOL    HW229274   2.590   1.368  16.563 -0.1323  0.4652 -1.5731
 5939SOL     OW29275   1.815   3.252   1.380  0.3560 -0.1787 -0.6129
 5939SOL    HW129276   1.895   3.297   1.406 -1.2882  1.8972  0.9348
 5939SOL    HW229277   1.808   3.186   1.449 -0.8839  1.6047  0.9715
 5940SOL     OW29278   2.013   1.415   7.846  0.2541  0.2271  0.0135
 5940SOL    HW129279   1.945   1.480   7.828 -0.6715  0.2261  3.4181
 5940SOL    HW229280   1.968   1.338   7.813  0.4927 -0.5343  1.5020
 5941SOL     OW29281   1.385   1.713   3.136 -0.3655 -0.0192  0.0107
 5941SOL    HW129282   1.439   1.646   3.094 -0.1404  0.9296 -1.2538
 5941SOL    HW229283   1.427   1.798   3.119  0.6821 -0.4996  0.2134
 5942SOL     OW29284   4.069   0.987  17.653 -0.4229 -0.0274 -0.1756
 5942SOL    HW129285   3.986   1.023  17.684 -0.7125  0.4508 -1.5173
 5942SOL    HW229286   4.086   0.902  17.694 -2.2934  0.0826  0.8379
 5943SOL     OW29287   2.495   2.686  10.152 -0.0167  0.2369  0.4232
 5943SOL    HW129288   2.496   2.635  10.233  2.8340  0.4132  0.4987
 5943SOL    HW229289   2.432   2.756  10.167 -0.7827 -0.4238  0.2973
 5944SOL     OW29290   2.458   3.719   7.484  0.3300  0.7358 -0.0017
 5944SOL    HW129291   2.529   3.741   7.423  1.6822  0.7899  1.6188
 5944SOL    HW229292   2.505   3.733   7.566  0.6091  0.1829 -0.0718
 5945SOL     OW29293   2.505   1.613  10.895  0.6601  0.3424 -0.0398
 5945SOL    HW129294   2.421   1.647  10.865  0.5865  0.1200 -0.0852
 5945SOL    HW229295   2.501   1.521  10.869  2.0234  0.2109  0.2226
 5946SOL     OW29296   1.003   2.813  16.384 -0.2028 -0.1187 -0.1220
 5946SOL    HW129297   1.034   2.902  16.400 -0.0113 -0.2022 -0.0351
 5946SOL    HW229298   1.010   2.792  16.291  0.5425  1.7177 -0.4738
 5947SOL     OW29299   0.911   3.107   1.584 -0.2777 -0.2788 -0.2718
 5947SOL    HW129300   0.892   3.016   1.608 -1.3720 -0.5626 -2.2799
 5947SOL    HW229301   0.866   3.120   1.501 -0.6375  0.1035 -0.0215
 5948SOL     OW29302   3.439   1.154  14.042  0.5859 -0.3856 -0.1758
 5948SOL    HW129303   3.385   1.158  13.963 -0.9061  1.1535  0.9141
 5948SOL    HW229304   3.522   1.200  14.023 -0.8989  2.5186  0.3474
 5949SOL     OW29305   2.669   1.970   8.733  0.7409  0.1327 -0.5110
 5949SOL    HW129306   2.749   1.983   8.683  1.3548 -1.6883 -0.0094
 5949SOL    HW229307   2.615   2.037   8.691  0.0618 -0.2933 -0.3290
 5950SOL     OW29308   2.732   3.838   9.954  0.5124  0.6096  0.6077
 5950SOL    HW129309   2.808   3.843  10.012  0.6363  0.8911  0.4216
 5950SOL    HW229310   2.725   3.927   9.920  0.2526 -0.1660 -1.3615
 5951SOL     OW29311   0.793   3.342  13.958 -0.8015  0.4869  0.0586
 5951SOL    HW129312   0.862   3.335  13.891 -0.7199  0.9533  0.0945
 5951SOL    HW229313   0.718   3.313  13.906 -0.7958  0.1610  0.2322
 5952SOL     OW29314   0.015   1.293  17.358  0.2605 -0.3023  0.0219
 5952SOL    HW129315   0.109   1.293  17.338 -0.0613  0.5361 -1.4903
 5952SOL    HW229316   4.696   1.316  17.275  2.0905  2.2413 -0.2057
 5953SOL     OW29317   1.126   3.716   2.800  0.1360  0.7014  0.1788
 5953SOL    HW129318   1.177   3.728   2.720 -2.3079 -1.0483 -1.6206
 5953SOL    HW229319   1.040   3.678   2.784  1.6176 -2.6948  0.2047
 5954SOL     OW29320   1.637   4.267   5.140 -0.3758 -0.8159 -0.3722
 5954SOL    HW129321   1.553   4.221   5.134  0.4419 -2.2321 -1.1731
 5954SOL    HW229322   1.642   4.304   5.228 -0.2874  0.3038 -0.8515
 5955SOL     OW29323   4.447   3.106  10.303  0.0549  0.3906 -0.3963
 5955SOL    HW129324   4.370   3.049  10.302  0.2642  0.0950  0.7100
 5955SOL    HW229325   4.409   3.192  10.285 -1.7672  0.0492  1.7746
 5956SOL     OW29326   1.501   0.642   9.487 -0.4152 -0.1662  0.3817
 5956SOL    HW129327   1.523   0.733   9.506  1.1855 -0.4040 -0.3159
 5956SOL    HW229328   1.407   0.633   9.500 -0.6405  1.9336  0.1433
 5957SOL     OW29329   1.184   4.240   8.820 -0.0184  0.1553 -0.0334
 5957SOL    HW129330   1.168   4.238   8.914 -0.0339 -0.3543 -0.0494
 5957SOL    HW229331   1.162   4.149   8.800  1.7116 -0.7111  2.0580
 5958SOL     OW29332   1.417   3.433   4.278 -0.4053 -0.1046  0.1481
 5958SOL    HW129333   1.420   3.525   4.302 -0.1190 -0.4494  1.4019
 5958SOL    HW229334   1.494   3.389   4.316 -1.6963 -1.9339  0.6738
 5959SOL     OW29335   1.998   0.940   5.356 -0.0419 -0.2475 -0.5845
 5959SOL    HW129336   1.966   1.028   5.335  0.1883  0.1440  0.7422
 5959SOL    HW229337   2.087   0.955   5.324 -0.5290  1.7644 -1.0066
 5960SOL     OW29338   3.548   2.137  15.032 -0.5689  0.2699 -0.5876
 5960SOL    HW129339   3.624   2.182  14.993  0.8094 -1.0527  0.5547
 5960SOL    HW229340   3.481   2.205  15.025  1.9804  2.8428 -0.0546
 5961SOL     OW29341   2.389   2.208   1.296  0.2235 -0.2469  0.0361
 5961SOL    HW129342   2.336   2.182   1.372  1.0962 -0.6391  0.5191
 5961SOL    HW229343   2.342   2.286   1.266  0.7040 -0.3401 -0.9631
 5962SOL     OW29344   3.614   4.457   9.421 -0.2566 -0.7866 -0.3600
 5962SOL    HW129345   3.626   4.458   9.516 -0.0972 -0.7251 -0.3817
 5962SOL    HW229346   3.705   4.464   9.393  0.2065 -1.2715  1.0372
 5963SOL     OW29347   0.496   4.642   4.483 -0.3723 -0.0378 -0.3624
 5963SOL    HW129348   0.557   4.592   4.538  1.3150  2.5541  0.1050
 5963SOL    HW229349   0.412   4.598   4.498  0.6451 -2.0418 -0.4795
 5964SOL     OW29350   3.239   0.238  13.854 -0.0776  0.5072 -0.2324
 5964SOL    HW129351   3.192   0.315  13.885 -2.1348 -1.1553  0.7825
 5964SOL    HW229352   3.169   0.181  13.823  0.7311  1.3962 -3.6839
 5965SOL     OW29353   2.508   4.239   6.514 -0.2074 -1.0071  0.6189
 5965SOL    HW129354   2.548   4.187   6.444  1.4931 -0.6007  1.2834
 5965SOL    HW229355   2.450   4.295   6.464  3.3203  0.3155 -1.9931
 5966SOL     OW29356   4.393   2.545   3.811 -0.4550 -0.2752 -0.5689
 5966SOL    HW129357   4.365   2.453   3.810  0.4025 -0.5729  1.2128
 5966SOL    HW229358   4.443   2.551   3.730  2.1041  0.4075  1.0679
 5967SOL     OW29359   1.387   0.184   6.510 -0.5032  0.4837 -0.4327
 5967SOL    HW129360   1.354   0.101   6.544 -0.6841  0.5519 -0.4399
 5967SOL    HW229361   1.344   0.242   6.574 -1.2543 -0.0116 -0.4828
 5968SOL     OW29362   1.331   1.243   4.139  0.1193  0.1245 -0.4989
 5968SOL    HW129363   1.344   1.244   4.045  0.6722  0.7367 -0.4178
 5968SOL    HW229364   1.343   1.335   4.163  2.4254 -0.6052  1.1484
 5969SOL     OW29365   0.478   3.439   5.506  0.2020 -0.4292  0.3093
 5969SOL    HW129366   0.554   3.454   5.562  0.3665 -4.5552  1.2240
 5969SOL    HW229367   0.445   3.360   5.549 -1.9732 -0.5452 -1.5817
 5970SOL     OW29368   3.486   2.757   4.929  0.2354  0.1151  0.0597
 5970SOL    HW129369   3.523   2.750   4.841 -0.2364  0.5082 -0.1691
 5970SOL    HW229370   3.467   2.850   4.930 -2.3132 -0.4067  1.7525
 5971SOL     OW29371   2.482   3.230   5.286 -0.2869  0.4160 -0.2530
 5971SOL    HW129372   2.559   3.173   5.277 -0.3931  0.4532 -1.4182
 5971SOL    HW229373   2.523   3.304   5.330 -1.0189  0.8957 -0.3740
 5972SOL     OW29374   0.919   0.886  15.832  0.4496 -0.5461  0.0157
 5972SOL    HW129375   0.972   0.953  15.876 -0.3802 -0.8235  1.4335
 5972SOL    HW229376   0.840   0.939  15.840  1.7248  1.1716  1.4304
 5973SOL     OW29377   2.690   2.262   4.060  0.1151 -0.2218 -0.0783
 5973SOL    HW129378   2.773   2.229   4.094  0.7931 -0.1248 -1.6059
 5973SOL    HW229379   2.631   2.187   4.051 -1.1667  0.9490 -1.3909
 5974SOL     OW29380   1.041   1.063   5.882  0.2987  1.0422  0.0681
 5974SOL    HW129381   0.974   1.083   5.948  0.8318  0.2440  0.8589
 5974SOL    HW229382   1.021   0.972   5.860  1.4579  1.4801 -2.7684
 5975SOL     OW29383   2.310   1.221   8.415 -0.0426  0.2846  0.4676
 5975SOL    HW129384   2.349   1.248   8.498  2.0688 -3.5456  0.7138
 5975SOL    HW229385   2.373   1.152   8.394 -0.0514  0.7485 -1.0267
 5976SOL     OW29386   2.676   1.034   9.905  0.1130  0.6094 -0.3791
 5976SOL    HW129387   2.680   1.084   9.823  0.8592  0.3563 -0.4925
 5976SOL    HW229388   2.592   1.067   9.938  0.4920  1.4555 -0.2520
 5977SOL     OW29389   0.515   4.196   6.901  0.2064 -0.9030 -0.0028
 5977SOL    HW129390   0.595   4.240   6.873  0.3368 -1.3805 -0.3835
 5977SOL    HW229391   0.481   4.260   6.964  0.4923 -0.5990 -0.1612
 5978SOL     OW29392   2.393   1.528  11.972  0.2735  0.7638  0.0366
 5978SOL    HW129393   2.444   1.546  11.893  3.0491 -2.4436  1.0904
 5978SOL    HW229394   2.342   1.609  11.966 -1.0911 -0.0354  0.9053
 5979SOL     OW29395   0.073   0.483   4.325 -0.8953 -0.2496 -0.6798
 5979SOL    HW129396   0.145   0.421   4.336 -0.9343 -0.3679 -1.1042
 5979SOL    HW229397   0.019   0.478   4.404 -0.7543  0.9227 -0.5190
 5980SOL     OW29398   4.382   1.562   2.412  0.3092 -0.4492 -0.1847
 5980SOL    HW129399   4.433   1.482   2.423 -0.9805 -1.0414  1.5731
 5980SOL    HW229400   4.298   1.524   2.440  1.1417 -0.1863  2.7326
 5981SOL     OW29401   2.004   4.457   5.707 -0.8405  0.0046 -0.2109
 5981SOL    HW129402   2.024   4.501   5.624  0.3808  2.3297  1.3246
 5981SOL    HW229403   2.081   4.480   5.759  0.3636 -2.1242 -1.0444
 5982SOL     OW29404   2.757   2.893   5.915 -0.3125 -1.2951 -0.2165
 5982SOL    HW129405   2.661   2.893   5.916 -0.3027  0.1484 -0.0674
 5982SOL    HW229406   2.774   2.854   6.001  0.5740  3.6530  1.8717
 5983SOL     OW29407   1.709   0.965   4.483  0.2131 -0.2800  0.2046
 5983SOL    HW129408   1.637   1.016   4.444  0.6253  0.1330 -0.0212
 5983SOL    HW229409   1.773   0.956   4.412 -1.2324  0.7556 -1.2564
 5984SOL     OW29410   1.182   2.182   8.552  0.6115  0.2750 -0.4053
 5984SOL    HW129411   1.135   2.265   8.547 -0.1264 -0.1497 -0.4401
 5984SOL    HW229412   1.255   2.194   8.492  2.2090 -4.2763  0.5743
 5985SOL     OW29413   0.429   0.694   5.332  0.3672 -0.2965  0.1091
 5985SOL    HW129414   0.503   0.634   5.331  0.2001 -0.5082  0.3170
 5985SOL    HW229415   0.405   0.699   5.240 -1.4234 -2.7009  0.4371
 5986SOL     OW29416   3.819   0.213   8.312  0.8049 -0.7221 -0.7600
 5986SOL    HW129417   3.796   0.158   8.238 -1.7746 -1.1549  0.3560
 5986SOL    HW229418   3.747   0.277   8.315  0.9527 -0.6044  0.3211
 5987SOL     OW29419   4.648   2.448   8.964 -0.0572  0.2966  0.4265
 5987SOL    HW129420   4.585   2.377   8.981  0.4307 -0.2360  0.0002
 5987SOL    HW229421   0.011   2.409   8.953  0.0927  0.6919  0.2142
 5988SOL     OW29422   0.587   3.406   8.392  0.3636  0.6876 -0.2871
 5988SOL    HW129423   0.671   3.441   8.423 -0.2358  0.0697  2.0446
 5988SOL    HW229424   0.620   3.362   8.313 -0.9012 -0.7264 -0.0145
 5989SOL     OW29425   0.331   3.056   6.583  0.5805  0.0743  0.1809
 5989SOL    HW129426   0.310   3.140   6.542 -1.6276 -0.3635  0.4088
 5989SOL    HW229427   0.342   3.075   6.677  0.0461  0.5929  0.1405
 5990SOL     OW29428   3.866   0.378   2.101  0.2544 -0.0174  0.1475
 5990SOL    HW129429   3.858   0.473   2.096  2.9439  0.2259  0.3424
 5990SOL    HW229430   3.843   0.340   2.016  1.2464  1.9088 -0.9636
 5991SOL     OW29431   2.384   0.544  16.596  0.2848 -0.1373  0.3101
 5991SOL    HW129432   2.448   0.590  16.542 -1.1945  0.3849 -0.9810
 5991SOL    HW229433   2.319   0.528  16.528 -0.4375  0.1783  0.9361
 5992SOL     OW29434   2.551   0.563   6.687 -0.1335  0.6521  0.1607
 5992SOL    HW129435   2.507   0.545   6.604 -0.4506  0.5114  0.3602
 5992SOL    HW229436   2.593   0.478   6.697  0.6363  1.1145  0.8838
 5993SOL     OW29437   0.844   3.990   8.316 -0.1371 -0.3949 -0.4240
 5993SOL    HW129438   0.826   4.075   8.276 -1.6647 -0.5649 -0.0891
 5993SOL    HW229439   0.900   4.012   8.391  1.5065  2.3311 -2.4564
 5994SOL     OW29440   0.913   0.355   6.050 -0.2535 -0.4751 -0.2676
 5994SOL    HW129441   0.870   0.420   5.994 -0.2164  0.0333  0.2966
 5994SOL    HW229442   0.942   0.418   6.115 -2.9295  0.5652 -0.0727
 5995SOL     OW29443   2.584   1.486   8.373 -0.2327  0.1475  0.0131
 5995SOL    HW129444   2.633   1.556   8.416 -2.3400  1.6837 -0.1306
 5995SOL    HW229445   2.557   1.436   8.450  2.7674  0.5337  1.3343
 5996SOL     OW29446   0.513   3.686  14.867 -0.0895 -0.2472 -0.5422
 5996SOL    HW129447   0.537   3.771  14.830  0.6339 -0.7012 -1.1148
 5996SOL    HW229448   0.523   3.623  14.796  1.1614  0.5248 -1.0652
 5997SOL     OW29449   2.065   4.364   3.252 -0.0623 -0.0611 -0.7896
 5997SOL    HW129450   2.123   4.337   3.324 -1.4535  1.8066  1.0241
 5997SOL    HW229451   2.103   4.451   3.243  1.7412 -1.1435 -3.6507
 5998SOL     OW29452   2.224   2.206   1.509 -0.0794  0.3424  0.5135
 5998SOL    HW129453   2.142   2.165   1.537  1.5169 -2.0640  1.6179
 5998SOL    HW229454   2.219   2.302   1.514  1.8027  0.4390  0.4964
 5999SOL     OW29455   0.870   3.414   7.444 -0.7907 -0.2526 -0.0850
 5999SOL    HW129456   0.888   3.396   7.352 -2.2445 -0.5651 -0.3139
 5999SOL    HW229457   0.921   3.493   7.463 -0.0386 -1.0623  1.2874
 6000SOL     OW29458   4.395   0.873   6.492 -0.2844 -0.4384 -0.0823
 6000SOL    HW129459   4.321   0.934   6.495  0.3603  0.3569 -0.2420
 6000SOL    HW229460   4.445   0.905   6.567 -1.9860 -2.0848  1.7453
 6001SOL     OW29461   2.882   1.266   7.679 -0.0661 -0.1634 -0.3681
 6001SOL    HW129462   2.887   1.202   7.608 -1.7488 -0.7032  0.0021
 6001SOL    HW229463   2.877   1.350   7.632  2.3832 -0.1940 -0.7025
 6002SOL     OW29464   0.124   3.396  10.978  0.0934 -0.0930 -0.2511
 6002SOL    HW129465   0.190   3.425  11.041  0.8075 -1.3123 -0.4348
 6002SOL    HW229466   0.155   3.310  10.950 -2.6194 -1.0265 -0.2859
 6003SOL     OW29467   3.048   0.410   4.245 -0.4763  0.4019 -0.3277
 6003SOL    HW129468   2.960   0.419   4.281  0.3367  0.6664  1.5680
 6003SOL    HW229469   3.024   0.447   4.160 -1.1807 -0.7801 -0.6367
 6004SOL     OW29470   3.278   2.120  10.322 -0.3639  0.6246 -0.0876
 6004SOL    HW129471   3.230   2.039  10.312  0.6715  0.1605 -1.4198
 6004SOL    HW229472   3.243   2.165  10.399  0.8957 -1.8351  1.9161
 6005SOL     OW29473   4.473   1.668   3.970  0.1729  0.0288  0.0965
 6005SOL    HW129474   4.517   1.602   3.915 -0.3333 -2.0036  2.1378
 6005SOL    HW229475   4.384   1.637   3.986 -0.8152  2.0536 -1.6147
 6006SOL     OW29476   1.965   2.848   4.116  0.5049 -0.3817  1.2592
 6006SOL    HW129477   2.033   2.814   4.174  0.6629 -0.0566  1.2655
 6006SOL    HW229478   2.013   2.835   4.034 -0.6893  0.1028  0.4822
 6007SOL     OW29479   2.962   1.443  11.155 -0.0879 -0.4209 -0.4255
 6007SOL    HW129480   2.963   1.539  11.158 -0.8288 -0.4913  1.8418
 6007SOL    HW229481   3.020   1.423  11.081 -1.0934  0.9090 -1.5797
 6008SOL     OW29482   3.306   3.105   6.844  0.7755 -0.3698 -0.0497
 6008SOL    HW129483   3.267   3.151   6.919 -1.0955 -0.5968 -0.8918
 6008SOL    HW229484   3.231   3.077   6.792  1.0390 -0.3068 -0.4555
 6009SOL     OW29485   1.906   3.867   8.082  0.2726  0.1121  0.0025
 6009SOL    HW129486   1.966   3.814   8.030  1.8215  1.1019  0.7866
 6009SOL    HW229487   1.928   3.841   8.171  1.8899 -0.1786 -0.4843
 6010SOL     OW29488   1.868   2.692   1.033  0.4271 -0.3962 -0.2416
 6010SOL    HW129489   1.818   2.631   0.978 -0.8883 -0.2428  0.7687
 6010SOL    HW229490   1.955   2.688   0.993 -0.3696  1.7675 -2.1758
 6011SOL     OW29491   3.699   1.789  17.012 -0.1359  0.5714 -0.0628
 6011SOL    HW129492   3.770   1.735  17.046 -1.1931 -1.7435 -1.5404
 6011SOL    HW229493   3.624   1.756  17.063 -0.5383 -0.2252 -1.1764
 6012SOL     OW29494   0.958   3.691   4.853  0.2153 -0.5831 -0.0287
 6012SOL    HW129495   0.915   3.776   4.847  1.8859  0.0274 -3.6137
 6012SOL    HW229496   1.042   3.725   4.885 -0.4313 -0.0545  1.1095
 6013SOL     OW29497   4.012   1.619   8.061  0.5974 -0.2666 -0.1227
 6013SOL    HW129498   4.043   1.693   8.114  0.7213 -1.1264  0.9983
 6013SOL    HW229499   3.931   1.659   8.028 -0.5009 -2.2048  0.2361
 6014SOL     OW29500   1.266   2.095   4.719 -0.6661 -0.3249 -0.2771
 6014SOL    HW129501   1.322   2.031   4.762 -0.7182 -1.2955 -1.6704
 6014SOL    HW229502   1.192   2.038   4.697 -0.8766 -0.0321 -0.3232
 6015SOL     OW29503   3.408   1.526   5.661  0.5456 -0.8099 -0.2391
 6015SOL    HW129504   3.498   1.542   5.634  0.3182  0.0066 -0.5257
 6015SOL    HW229505   3.419   1.510   5.755 -1.0598  0.1613  0.1145
 6016SOL     OW29506   1.670   0.520   1.483 -0.1340  0.0583 -0.6043
 6016SOL    HW129507   1.638   0.586   1.421 -0.3050  0.3120 -0.2450
 6016SOL    HW229508   1.591   0.467   1.495  0.1180  0.3735  2.2812
 6017SOL     OW29509   0.391   2.633   6.014  0.6915  0.4329 -0.1388
 6017SOL    HW129510   0.363   2.589   5.934 -0.6985  2.6302 -0.8640
 6017SOL    HW229511   0.482   2.638   5.984  1.0459  0.8997  1.0222
 6018SOL     OW29512   3.789   3.791   2.224 -0.1047  0.1981  0.2973
 6018SOL    HW129513   3.874   3.829   2.247  0.2083 -0.8189  0.8136
 6018SOL    HW229514   3.812   3.712   2.176 -2.6785 -0.4348  0.1007
 6019SOL     OW29515   2.721   1.250   6.940 -0.2369  0.2059  0.0941
 6019SOL    HW129516   2.685   1.336   6.965 -0.9910  0.1620 -0.8623
 6019SOL    HW229517   2.719   1.199   7.021  1.6034 -1.1422 -0.7216
 6020SOL     OW29518   0.614   3.123   6.685 -0.1454 -0.0905 -0.0294
 6020SOL    HW129519   0.577   3.045   6.727 -0.3698 -0.5436 -1.0679
 6020SOL    HW229520   0.654   3.162   6.762 -1.2782  0.5128  0.2555
 6021SOL     OW29521   3.124   2.985   5.972 -0.2171 -0.5627  0.1481
 6021SOL    HW129522   3.117   2.893   5.945  0.6547 -0.8808  1.0187
 6021SOL    HW229523   3.152   2.977   6.063  0.4521  2.7271  0.2564
 6022SOL     OW29524   3.841   1.240   0.532  0.1063 -0.1918 -0.7516
 6022SOL    HW129525   3.778   1.273   0.468 -1.2211 -2.4037 -0.5724
 6022SOL    HW229526   3.833   1.300   0.606 -0.1519 -0.3622 -0.6437
 6023SOL     OW29527   1.646   3.842   6.502  0.2334 -0.6704 -0.9972
 6023SOL    HW129528   1.594   3.913   6.466  1.1380  0.8392  0.6385
 6023SOL    HW229529   1.582   3.771   6.504 -0.6799  0.1441 -1.4917
 6024SOL     OW29530   0.143   3.813  14.841 -0.5410 -0.2189 -0.2938
 6024SOL    HW129531   0.174   3.893  14.800  0.6665  0.7250  2.4562
 6024SOL    HW229532   0.116   3.846  14.927  1.0507  2.2300 -0.7331
 6025SOL     OW29533   0.440   1.142  14.527  0.6757 -0.5298 -0.0421
 6025SOL    HW129534   0.420   1.115  14.437  1.7555  0.9319 -0.7233
 6025SOL    HW229535   0.477   1.230  14.524  0.9689 -0.6642 -0.3930
 6026SOL     OW29536   4.714   0.474   3.230  0.3139 -0.3208 -0.1151
 6026SOL    HW129537   4.715   0.566   3.254 -0.0322 -0.6716  1.2357
 6026SOL    HW229538   0.084   0.471   3.209  0.3898 -0.4056  0.2305
 6027SOL     OW29539   2.918   1.831   7.241  0.1921 -0.0939  0.1378
 6027SOL    HW129540   2.990   1.833   7.304  0.4168 -2.2165 -0.0401
 6027SOL    HW229541   2.940   1.893   7.172 -1.3045  0.0533 -0.2080
 6028SOL     OW29542   0.608   2.441   2.734  0.1019 -0.6460  0.0139
 6028SOL    HW129543   0.644   2.523   2.770  0.4884 -1.1439  0.7575
 6028SOL    HW229544   0.589   2.460   2.642 -0.2477 -1.4584 -0.0813
 6029SOL     OW29545   0.852   3.036   5.062  0.5094 -0.0850  1.1178
 6029SOL    HW129546   0.798   3.080   5.128  0.7889 -0.8510  1.8551
 6029SOL    HW229547   0.792   2.964   5.045 -0.1551 -0.1331  3.6796
 6030SOL     OW29548   2.677   4.461   8.055 -0.4986  0.7883 -0.0216
 6030SOL    HW129549   2.714   4.395   8.114 -0.6897 -2.0241 -3.0732
 6030SOL    HW229550   2.715   4.535   8.102 -0.0408  0.3342  0.3270
 6031SOL     OW29551   3.639   2.668  12.864  0.5562  0.8551  0.3852
 6031SOL    HW129552   3.695   2.603  12.822  0.3960  0.2410  1.1293
 6031SOL    HW229553   3.651   2.741  12.803  0.9244  0.0244 -0.5350
 6032SOL     OW29554   0.328   3.494   3.155 -0.6549  0.1855  0.1289
 6032SOL    HW129555   0.423   3.483   3.157 -0.8005 -1.3858 -1.2568
 6032SOL    HW229556   0.327   3.569   3.095 -1.1225 -0.1032 -0.2269
 6033SOL     OW29557   1.504   2.648   4.253 -0.0085  0.3132  0.2080
 6033SOL    HW129558   1.503   2.571   4.196 -0.7433 -0.2792  1.0036
 6033SOL    HW229559   1.513   2.599   4.335  0.8579  0.3701  0.1387
 6034SOL     OW29560   4.713   0.215   8.462  0.0981  0.7301 -0.8592
 6034SOL    HW129561   4.628   0.250   8.436 -0.1591  1.7091  1.2808
 6034SOL    HW229562   4.694   0.135   8.512 -0.3614  2.7285  2.1557
 6035SOL     OW29563   1.231   2.216   1.142 -0.2480  0.0263  0.0122
 6035SOL    HW129564   1.307   2.272   1.158 -0.6548  1.0339 -1.6757
 6035SOL    HW229565   1.162   2.276   1.170 -0.4038 -0.4967  0.7686
 6036SOL     OW29566   3.481   3.479  12.877  0.3527  0.4677  0.2802
 6036SOL    HW129567   3.480   3.572  12.896  0.7981  0.4094  0.5790
 6036SOL    HW229568   3.505   3.465  12.968 -0.3677  0.6627  0.4978
 6037SOL     OW29569   2.882   2.754  14.368  0.4379 -0.5116 -0.2796
 6037SOL    HW129570   2.868   2.667  14.330  0.1246 -0.1551 -0.9812
 6037SOL    HW229571   2.950   2.738  14.434  0.6485 -1.6790 -0.7638
 6038SOL     OW29572   0.015   3.774   6.021 -0.5996 -0.4552 -0.6747
 6038SOL    HW129573   4.711   3.865   6.017 -0.9765 -0.5079  0.6230
 6038SOL    HW229574   4.665   3.734   5.974 -0.9205 -0.0612 -0.5088
 6039SOL     OW29575   0.455   4.398   7.090  0.1026 -0.2803  0.5359
 6039SOL    HW129576   0.367   4.365   7.109 -0.5620  0.1523 -1.7551
 6039SOL    HW229577   0.453   4.493   7.078  0.6376 -0.3475 -0.0879
 6040SOL     OW29578   0.721   4.387   4.507  0.0465 -0.5429 -0.6071
 6040SOL    HW129579   0.814   4.398   4.527  0.1813  0.0317 -1.5647
 6040SOL    HW229580   0.728   4.351   4.418  0.2929 -1.1567 -0.3374
 6041SOL     OW29581   4.511   0.985   7.549 -0.2305  0.3085  0.4535
 6041SOL    HW129582   4.432   0.969   7.602 -0.1648 -1.3152  0.0769
 6041SOL    HW229583   4.470   1.036   7.479  0.4977 -0.2087 -0.3530
 6042SOL     OW29584   1.445   2.166   1.854 -0.6467 -0.4924  0.0449
 6042SOL    HW129585   1.394   2.148   1.775  1.1372 -2.8464 -0.5490
 6042SOL    HW229586   1.431   2.094   1.915  2.7991 -0.4094  0.9259
 6043SOL     OW29587   3.858   0.302  11.544  0.0814 -0.1150 -0.3459
 6043SOL    HW129588   3.814   0.308  11.460 -0.5792 -0.0151  0.0114
 6043SOL    HW229589   3.791   0.318  11.610  0.4343  2.1033 -0.5304
 6044SOL     OW29590   1.004   0.313   6.800  0.2735 -0.2893  0.0476
 6044SOL    HW129591   0.922   0.295   6.754  1.2509  1.0356 -2.1788
 6044SOL    HW229592   1.016   0.405   6.779 -2.5859  0.2201  0.6141
 6045SOL     OW29593   3.599   1.830   6.698  0.0749 -0.7068 -0.1804
 6045SOL    HW129594   3.505   1.825   6.685  0.0057 -4.0979  1.6564
 6045SOL    HW229595   3.626   1.812   6.608  2.0679 -2.2510  0.7098
 6046SOL     OW29596   1.028   2.161  13.213 -0.4945  0.7963  0.0186
 6046SOL    HW129597   0.991   2.074  13.193  1.3427  0.3078 -1.2334
 6046SOL    HW229598   1.121   2.141  13.218  0.0998  2.9970 -2.6262
 6047SOL     OW29599   1.907   0.655  11.981  0.2551 -0.2863  0.2069
 6047SOL    HW129600   1.924   0.678  11.889 -1.7669  0.6160  0.0715
 6047SOL    HW229601   1.950   0.729  12.024 -0.2402  0.3321 -0.3728
 6048SOL     OW29602   2.682   0.106   4.039 -0.4335 -0.1545  0.5805
 6048SOL    HW129603   2.640   0.077   4.120  0.6557 -0.9140  0.8765
 6048SOL    HW229604   2.669   0.201   4.042  1.6404  0.1759 -1.3281
 6049SOL     OW29605   4.559   0.586   7.028 -0.2119  0.0582  0.7825
 6049SOL    HW129606   4.506   0.534   7.088  2.1559 -3.6501 -0.3486
 6049SOL    HW229607   4.479   0.608   6.980  0.3798 -0.1399 -0.2915
 6050SOL     OW29608   3.730   4.708   7.652  0.6435 -0.0082 -0.2319
 6050SOL    HW129609   3.686   0.003   7.570 -2.5812 -3.0019  0.8208
 6050SOL    HW229610   3.677   0.035   7.714  0.6503  0.8243 -0.9146
 6051SOL     OW29611   4.180   3.346   7.100  0.3359  0.2525 -0.7434
 6051SOL    HW129612   4.131   3.375   7.177  0.4048  0.0669 -0.6301
 6051SOL    HW229613   4.269   3.370   7.127  0.2818 -1.1594  0.6884
 6052SOL     OW29614   2.140   2.053   0.757  0.4076  0.0291  0.2397
 6052SOL    HW129615   2.141   1.960   0.734  2.7788  0.4059 -1.1390
 6052SOL    HW229616   2.220   2.074   0.804  0.2985  1.1011 -0.0628
 6053SOL     OW29617   0.220   1.410   1.938 -0.8949  0.3931  0.4204
 6053SOL    HW129618   0.156   1.427   2.007 -1.0217  1.4437  0.0324
 6053SOL    HW229619   0.296   1.468   1.948  1.2869 -2.4655  0.6656
 6054SOL     OW29620   1.194   4.616   9.947 -0.1708  0.1643  0.5008
 6054SOL    HW129621   1.176   4.708   9.967  0.2122  0.8224 -2.2090
 6054SOL    HW229622   1.190   4.619   9.852  2.2834 -0.9731  0.3533
 6055SOL     OW29623   0.952   0.840   9.803  0.2283 -0.2677 -0.4761
 6055SOL    HW129624   0.907   0.821   9.721  1.7670 -1.9017 -0.9371
 6055SOL    HW229625   1.008   0.763   9.806 -0.0213 -0.3252  2.5238
 6056SOL     OW29626   3.266   4.295  13.507 -0.4216 -0.5740 -0.4261
 6056SOL    HW129627   3.213   4.215  13.515 -1.7898  0.4547  0.7840
 6056SOL    HW229628   3.324   4.277  13.580 -1.8326  1.6214  1.2231
 6057SOL     OW29629   3.191   2.213   5.392 -0.5765 -0.6094  0.5457
 6057SOL    HW129630   3.156   2.126   5.373 -0.6300 -0.5333  0.3002
 6057SOL    HW229631   3.218   2.252   5.309  0.1233  0.2964  1.1932
 6058SOL     OW29632   3.075   4.140   3.831 -0.2658 -0.3506  0.3062
 6058SOL    HW129633   3.128   4.078   3.882  1.2693  1.9997  1.5557
 6058SOL    HW229634   3.099   4.111   3.743  1.4525 -1.7262  1.2388
 6059SOL     OW29635   1.316   3.460   8.351  0.3282 -0.6499 -0.1163
 6059SOL    HW129636   1.373   3.528   8.388  0.3978 -0.4096 -0.6724
 6059SOL    HW229637   1.325   3.488   8.260 -0.4909 -0.4130 -0.1177
 6060SOL     OW29638   1.443   1.803  10.502  0.1882 -0.1901 -0.1628
 6060SOL    HW129639   1.408   1.734  10.558  1.3710 -1.5507 -1.0962
 6060SOL    HW229640   1.504   1.747  10.454  0.0953  1.3756 -2.1402
 6061SOL     OW29641   2.396   0.185   5.775 -0.0051  0.3402 -0.2236
 6061SOL    HW129642   2.358   0.162   5.859  0.0379 -0.3858 -0.4077
 6061SOL    HW229643   2.330   0.246   5.742 -0.6388 -0.1824  0.0770
 6062SOL     OW29644   0.853   4.491   7.114 -0.0954  0.2326 -0.1557
 6062SOL    HW129645   0.804   4.410   7.125  0.3476 -0.1161 -0.7618
 6062SOL    HW229646   0.907   4.481   7.192 -1.1958 -1.8962  0.3347
 6063SOL     OW29647   1.070   2.645   4.282 -0.7244  0.3079  0.2440
 6063SOL    HW129648   1.147   2.701   4.273 -0.2832 -0.7672 -2.5211
 6063SOL    HW229649   0.996   2.706   4.282 -1.5401 -0.6945 -0.4159
 6064SOL     OW29650   2.471   2.922   2.145  0.5909 -0.5060  0.4581
 6064SOL    HW129651   2.489   2.941   2.053  1.3416  1.8473  1.0905
 6064SOL    HW229652   2.418   2.995   2.178  1.2887  0.4107 -0.4537
 6065SOL     OW29653   2.620   0.512   5.207  0.2267  0.2165  0.8098
 6065SOL    HW129654   2.579   0.588   5.164  0.6002 -0.8676 -1.4515
 6065SOL    HW229655   2.685   0.561   5.257 -0.0919 -0.5315  1.9353
 6066SOL     OW29656   0.193   3.713   8.384  0.6124 -0.2860  0.0070
 6066SOL    HW129657   0.270   3.657   8.396  2.8217  2.4397 -1.2064
 6066SOL    HW229658   0.128   3.643   8.382 -0.1618  0.4178  1.2097
 6067SOL     OW29659   1.240   3.321   9.254  0.3858 -0.7628 -0.0431
 6067SOL    HW129660   1.303   3.250   9.265  0.8257 -0.2330  0.7929
 6067SOL    HW229661   1.290   3.392   9.294  2.1801 -1.6215 -0.7972
 6068SOL     OW29662   2.032   0.555   9.416  0.3149  0.1136 -0.5481
 6068SOL    HW129663   2.012   0.648   9.410 -0.0167 -0.0376 -1.7836
 6068SOL    HW229664   1.942   0.526   9.403  0.2215 -0.5377  1.6071
 6069SOL     OW29665   2.954   0.731  13.206 -0.0217  0.6815 -0.1227
 6069SOL    HW129666   2.983   0.717  13.116  2.9761  0.9036  0.8130
 6069SOL    HW229667   2.874   0.778  13.183  0.3293  1.3495  0.0157
 6070SOL     OW29668   2.492   3.761   4.393  0.5348  0.2091  0.7178
 6070SOL    HW129669   2.440   3.785   4.470 -1.2542 -0.6549 -0.2166
 6070SOL    HW229670   2.491   3.843   4.345 -1.1777  0.1227  0.6279
 6071SOL     OW29671   0.418   1.843  16.724 -0.1979  0.4936  0.0377
 6071SOL    HW129672   0.500   1.801  16.697 -0.5196 -1.2018  1.6554
 6071SOL    HW229673   0.449   1.932  16.738  2.7244 -0.5903  0.6328
 6072SOL     OW29674   0.195   2.691   6.516 -0.1580  0.4006 -0.3891
 6072SOL    HW129675   0.236   2.682   6.429 -1.9197 -1.2483 -1.0630
 6072SOL    HW229676   0.114   2.737   6.491 -0.7527 -0.3465  0.1639
 6073SOL     OW29677   2.182   3.283   7.790  0.5814 -0.7161  0.0541
 6073SOL    HW129678   2.154   3.305   7.701 -0.6245  0.9914  0.8436
 6073SOL    HW229679   2.268   3.247   7.769  0.8690  0.5114 -0.8811
 6074SOL     OW29680   4.008   4.662  12.306 -0.6040 -0.3367 -0.6933
 6074SOL    HW129681   4.055   0.011  12.266 -1.5305 -0.2532 -1.5957
 6074SOL    HW229682   4.048   4.669  12.393  1.1706 -1.0063 -1.4509
 6075SOL     OW29683   0.460   0.642   5.055  0.7495  0.0180 -0.0220
 6075SOL    HW129684   0.459   0.547   5.065 -1.8250 -0.0631 -1.0982
 6075SOL    HW229685   0.507   0.640   4.972  0.1718 -1.1951 -0.3078
 6076SOL     OW29686   0.284   1.608  16.322 -0.0871  0.4275 -0.1956
 6076SOL    HW129687   0.280   1.644  16.410 -0.3431 -0.6516  0.2237
 6076SOL    HW229688   0.237   1.529  16.347  1.2716 -0.9730 -2.0318
 6077SOL     OW29689   1.627   1.502  10.965  0.1115 -0.3280  0.4269
 6077SOL    HW129690   1.564   1.517  11.035  0.2575 -2.0938  0.9152
 6077SOL    HW229691   1.649   1.595  10.959 -2.3346  0.3070  1.3224
 6078SOL     OW29692   1.379   0.462   0.214  0.1505 -0.2252 -0.2658
 6078SOL    HW129693   1.346   0.430   0.299  0.9176 -1.2174 -0.3379
 6078SOL    HW229694   1.309   0.518   0.180  0.4024 -0.6017 -1.3899
 6079SOL     OW29695   4.507   0.391   8.323  0.2001  0.3477  0.2476
 6079SOL    HW129696   4.432   0.377   8.381 -0.0780 -1.3081 -0.5128
 6079SOL    HW229697   4.488   0.485   8.326 -0.1728  0.2603  0.5998
 6080SOL     OW29698   1.227   0.179   5.530 -0.1535 -0.2839 -0.0259
 6080SOL    HW129699   1.166   0.225   5.472 -0.2666  0.2615  0.5235
 6080SOL    HW229700   1.171   0.174   5.608 -0.2424 -1.3704 -0.1609
 6081SOL     OW29701   1.548   4.637   6.851  0.0911  0.6512  0.3195
 6081SOL    HW129702   1.568   0.007   6.860 -1.4088  1.3455 -3.3191
 6081SOL    HW229703   1.513   4.622   6.939 -0.9543 -0.6610 -0.3234
 6082SOL     OW29704   3.435   4.342   2.812 -0.3013 -0.6579  0.4108
 6082SOL    HW129705   3.393   4.416   2.767  3.0805  1.2904  0.4797
 6082SOL    HW229706   3.521   4.342   2.770 -0.7019  1.9715 -0.4016
 6083SOL     OW29707   2.032   1.498   4.468 -0.2425 -0.5122 -0.2019
 6083SOL    HW129708   1.991   1.413   4.454 -0.2896 -0.6890  0.9844
 6083SOL    HW229709   1.962   1.559   4.444  0.2187  0.4281  0.8111
 6084SOL     OW29710   1.663   2.768   8.034 -0.7924 -0.2332  0.1047
 6084SOL    HW129711   1.717   2.718   7.973 -2.9183  2.4285 -4.0040
 6084SOL    HW229712   1.625   2.687   8.066 -2.4311  0.6441  0.3736
 6085SOL     OW29713   1.285   1.427   0.803 -0.0995 -0.0815 -0.2134
 6085SOL    HW129714   1.254   1.515   0.784  1.1998  0.3087 -0.5493
 6085SOL    HW229715   1.381   1.427   0.805 -0.0932 -0.7078 -0.3498
 6086SOL     OW29716   1.855   3.454   7.449 -0.9072  0.2240  0.0255
 6086SOL    HW129717   1.764   3.428   7.438 -0.8891  0.4056 -0.5207
 6086SOL    HW229718   1.836   3.548   7.461  3.3212  0.8068  2.1468
 6087SOL     OW29719   2.324   2.308   2.948 -0.5375 -0.2717 -0.2069
 6087SOL    HW129720   2.415   2.304   2.920 -0.3622  1.1150  0.2008
 6087SOL    HW229721   2.312   2.213   2.937  1.2709 -0.5484  0.2440
 6088SOL     OW29722   2.438   4.063   6.755 -0.1009 -0.9689  0.0127
 6088SOL    HW129723   2.445   4.007   6.833 -0.9026 -1.7806 -0.4943
 6088SOL    HW229724   2.370   4.023   6.702  0.0614  0.4716 -1.2786
 6089SOL     OW29725   3.238   4.388   0.263 -0.9270 -0.9489  0.0170
 6089SOL    HW129726   3.323   4.348   0.281 -0.3622 -1.0249 -2.9407
 6089SOL    HW229727   3.194   4.387   0.349 -1.7444 -0.4612 -0.3913
 6090SOL     OW29728   1.274   3.737   4.038 -0.1633 -0.1969 -0.7541
 6090SOL    HW129729   1.196   3.724   4.091  0.2831  0.5413  0.0889
 6090SOL    HW229730   1.337   3.680   4.083 -0.2003 -0.4113 -0.9723
 6091SOL     OW29731   4.324   4.709   6.877 -0.2352  0.2590  0.3517
 6091SOL    HW129732   4.347   4.714   6.785  0.5724  4.1719  0.7873
 6091SOL    HW229733   4.331   4.615   6.895  2.7578  0.4895  0.3531
 6092SOL     OW29734   4.519   3.462   5.888  0.1119  0.6493 -0.3361
 6092SOL    HW129735   4.428   3.439   5.907 -0.1191  1.1455 -0.8532
 6092SOL    HW229736   4.499   3.550   5.856 -0.1153  0.3216 -1.1040
 6093SOL     OW29737   4.044   0.146  11.921  0.0181  0.1808  0.1274
 6093SOL    HW129738   4.013   0.061  11.891  0.9058  0.0950 -0.5518
 6093SOL    HW229739   4.070   0.192  11.841 -2.3416 -0.1766 -0.8165
 6094SOL     OW29740   1.186   1.532   7.816 -0.3933  0.1597 -0.0830
 6094SOL    HW129741   1.199   1.535   7.911  0.0258 -4.0208  0.0176
 6094SOL    HW229742   1.227   1.448   7.795 -0.1387  0.1918  0.2800
 6095SOL     OW29743   1.405   2.799   2.360  0.1221 -0.0630  0.0422
 6095SOL    HW129744   1.338   2.864   2.382  0.4913 -0.8188  3.3755
 6095SOL    HW229745   1.362   2.716   2.381  0.0205 -0.2000 -0.6969
 6096SOL     OW29746   4.627   3.333   4.667 -1.0161  0.4119 -0.5102
 6096SOL    HW129747   4.625   3.380   4.584  1.0124 -0.2152 -0.9178
 6096SOL    HW229748   4.572   3.390   4.722 -2.1527 -0.2671 -0.9461
 6097SOL     OW29749   1.255   2.175  10.864  0.5443 -0.1944  0.2864
 6097SOL    HW129750   1.240   2.123  10.942  2.3235 -0.3295  0.5384
 6097SOL    HW229751   1.269   2.112  10.793 -1.1816 -3.4925  2.9216
 6098SOL     OW29752   0.483   3.914   7.328  0.1802 -0.5166 -0.1987
 6098SOL    HW129753   0.390   3.937   7.330 -0.3358 -2.5385 -0.6962
 6098SOL    HW229754   0.504   3.910   7.421 -0.3969  1.6445  0.0228
 6099SOL     OW29755   1.687   1.943   9.731  0.6832 -0.9982 -1.1681
 6099SOL    HW129756   1.693   1.986   9.645 -0.0480  0.3085 -0.5544
 6099SOL    HW229757   1.649   2.010   9.787  0.5259 -2.4432  0.4434
 6100SOL     OW29758   0.984   3.089   6.499 -0.1464 -0.2669 -0.5113
 6100SOL    HW129759   0.984   3.166   6.555  1.8254  0.3026 -1.2994
 6100SOL    HW229760   0.927   3.023   6.539 -2.6611  0.8903 -2.1923
 6101SOL     OW29761   2.900   1.826  12.031  0.0847  0.8721 -0.2017
 6101SOL    HW129762   2.847   1.766  12.084 -0.4781  1.1339 -0.4734
 6101SOL    HW229763   2.838   1.899  12.030 -1.1053 -0.1285 -0.2615
 6102SOL     OW29764   4.625   3.783   4.549  0.1746 -0.3210  0.2854
 6102SOL    HW129765   4.600   3.845   4.617  1.0170 -0.3666  0.6343
 6102SOL    HW229766   4.664   3.710   4.597 -1.1564 -0.8219  0.6022
 6103SOL     OW29767   1.433   4.434   4.010  0.4270 -0.0681 -0.1209
 6103SOL    HW129768   1.434   4.361   4.072 -1.2413 -1.6906 -2.0116
 6103SOL    HW229769   1.525   4.436   3.984 -0.0231 -1.8901 -1.8057
 6104SOL     OW29770   3.263   1.699   0.277 -0.5721  0.4432  0.0739
 6104SOL    HW129771   3.248   1.748   0.196 -1.2167  1.0764  0.5730
 6104SOL    HW229772   3.196   1.631   0.277  0.7964 -0.8874  3.0568
 6105SOL     OW29773   1.940   3.498  10.332  0.2456  0.0374 -0.7820
 6105SOL    HW129774   1.943   3.437  10.405  1.3583 -0.2837 -1.0965
 6105SOL    HW229775   1.963   3.438  10.261 -0.2353  0.7840 -1.5767
 6106SOL     OW29776   2.640   3.519   1.546  0.2856 -0.5439  0.1641
 6106SOL    HW129777   2.587   3.465   1.487  3.3783 -0.1883 -2.9420
 6106SOL    HW229778   2.674   3.453   1.606  0.6508  0.3417  0.9430
 6107SOL     OW29779   3.638   4.315  11.686 -0.1104 -0.4418 -0.6850
 6107SOL    HW129780   3.629   4.220  11.690  1.1157 -0.5672 -0.9008
 6107SOL    HW229781   3.610   4.332  11.597  2.5119 -1.6248 -1.7459
 6108SOL     OW29782   1.089   3.216   5.063  0.1680  0.6796  0.3024
 6108SOL    HW129783   1.014   3.169   5.100  0.0858  1.5306  1.2317
 6108SOL    HW229784   1.057   3.244   4.978 -2.2246  1.1761  1.3515
 6109SOL     OW29785   0.205   1.976   3.026  0.2885 -0.2226 -0.1418
 6109SOL    HW129786   0.203   2.067   2.995 -0.2541 -0.2347 -0.1283
 6109SOL    HW229787   0.179   1.933   2.944  0.6162  0.2573 -0.5028
 6110SOL     OW29788   3.685   1.931   5.441 -0.3307  0.0466  0.2299
 6110SOL    HW129789   3.764   1.889   5.407  0.1217  0.5073  0.7100
 6110SOL    HW229790   3.720   2.004   5.492  3.1811 -0.3882 -1.5504
 6111SOL     OW29791   2.730   1.466   6.556 -0.4598 -0.0729  0.1693
 6111SOL    HW129792   2.749   1.385   6.603  1.3269 -0.3694 -1.0507
 6111SOL    HW229793   2.676   1.512   6.620 -0.0806  1.3502 -0.5219
 6112SOL     OW29794   1.266   4.424   8.395 -0.5007 -0.0791  0.3773
 6112SOL    HW129795   1.234   4.514   8.403 -0.6070 -0.0516 -0.4176
 6112SOL    HW229796   1.286   4.425   8.302  0.9921  0.0174  0.7052
 6113SOL     OW29797   0.216   4.498   9.743 -0.5998  0.0005 -0.0271
 6113SOL    HW129798   0.131   4.535   9.766 -0.7740 -1.2762  1.3703
 6113SOL    HW229799   0.248   4.455   9.822  1.5797 -0.1866 -0.9949
 6114SOL     OW29800   4.215   3.706   6.712  0.0358  0.0015  0.4931
 6114SOL    HW129801   4.164   3.696   6.793 -0.3276 -1.0503  0.1421
 6114SOL    HW229802   4.236   3.799   6.719  0.1781  0.2112 -2.7140
 6115SOL     OW29803   1.708   2.153  13.383 -0.0856  0.8228 -0.0301
 6115SOL    HW129804   1.680   2.137  13.473  2.0177  1.2772  0.7160
 6115SOL    HW229805   1.797   2.119  13.391 -0.9984 -2.0348 -2.1127
 6116SOL     OW29806   1.987   2.695   3.063  0.4196  0.5814  0.0398
 6116SOL    HW129807   1.998   2.682   2.969 -0.0299  2.6674 -0.3040
 6116SOL    HW229808   2.065   2.749   3.074  0.2852  0.4564  1.5978
 6117SOL     OW29809   3.215   3.046   7.768 -0.2589 -0.0205 -0.2169
 6117SOL    HW129810   3.238   3.120   7.711  2.1764 -1.2120 -0.7335
 6117SOL    HW229811   3.204   2.977   7.704 -0.3168 -0.2321  0.0213
 6118SOL     OW29812   2.331   3.479  15.185  0.3952 -0.0501 -0.3712
 6118SOL    HW129813   2.295   3.566  15.206  1.0830  0.5095 -1.5350
 6118SOL    HW229814   2.409   3.480  15.241  0.4251 -0.1704 -0.4115
 6119SOL     OW29815   2.855   2.980   6.573  0.4790  0.4368  0.5535
 6119SOL    HW129816   2.782   3.020   6.527  0.0369 -2.1097 -0.9711
 6119SOL    HW229817   2.800   2.920   6.624  2.0494 -0.1495  1.5773
 6120SOL     OW29818   3.556   1.603  13.413 -0.0531 -0.6283  0.2777
 6120SOL    HW129819   3.614   1.531  13.437 -0.3687 -1.5580 -1.6859
 6120SOL    HW229820   3.482   1.568  13.462 -1.3997  2.0509  0.1398
 6121SOL     OW29821   0.299   1.788  13.542 -0.0807  0.0823 -0.4874
 6121SOL    HW129822   0.288   1.700  13.579  1.4057  1.2441  2.7820
 6121SOL    HW229823   0.361   1.775  13.470  1.0372  0.6887  0.3574
 6122SOL     OW29824   3.108   1.699  13.861  0.0771  0.4779 -0.1733
 6122SOL    HW129825   3.152   1.713  13.945  0.5097  3.0762 -0.8428
 6122SOL    HW229826   3.017   1.709  13.888 -0.2543 -2.3016 -0.2421
 6123SOL     OW29827   3.853   1.888   3.260  0.1765  0.3801 -0.0309
 6123SOL    HW129828   3.816   1.878   3.172  0.9415 -0.4919 -0.2651
 6123SOL    HW229829   3.941   1.859   3.233 -0.1304 -1.2180  0.6572
 6124SOL     OW29830   2.373   0.418   0.502  0.3097  0.3562  0.8582
 6124SOL    HW129831   2.343   0.453   0.417  1.7162  1.2107  0.7061
 6124SOL    HW229832   2.451   0.367   0.482  1.5045  1.1774  3.3926
 6125SOL     OW29833   2.505   1.145   0.456 -0.3741 -0.0746 -0.0515
 6125SOL    HW129834   2.419   1.179   0.483  0.1814  0.5420  0.9507
 6125SOL    HW229835   2.488   1.145   0.362 -0.6523  4.3061 -0.0110
 6126SOL     OW29836   4.414   0.648   8.360  0.5589 -0.2952 -0.0215
 6126SOL    HW129837   4.322   0.659   8.335  0.9585  1.6746 -0.6164
 6126SOL    HW229838   4.412   0.667   8.453 -1.7337 -1.5767  0.1887
 6127SOL     OW29839   3.459   0.451  11.028  0.0073 -0.4134 -0.0117
 6127SOL    HW129840   3.404   0.432  11.104  1.0388  1.3911  1.1773
 6127SOL    HW229841   3.394   0.431  10.960  1.7823 -3.2760 -0.8962
 6128SOL     OW29842   4.455   3.768  12.591 -0.4082 -0.1909  0.0421
 6128SOL    HW129843   4.410   3.698  12.637 -1.5121  2.1919  2.5879
 6128SOL    HW229844   4.490   3.820  12.663  1.1058 -0.7482 -0.2875
 6129SOL     OW29845   0.442   3.015   1.470 -0.2677  0.1702 -0.4917
 6129SOL    HW129846   0.422   2.923   1.454 -0.4892 -0.0380  1.0135
 6129SOL    HW229847   0.512   3.027   1.406 -1.1484 -0.1058 -1.5002
 6130SOL     OW29848   3.766   1.448   3.076  0.0637  0.3269 -0.4828
 6130SOL    HW129849   3.742   1.356   3.090  0.3806  0.8352  3.4803
 6130SOL    HW229850   3.790   1.481   3.163  1.4071 -0.5729 -0.5095
 6131SOL     OW29851   0.084   2.845   8.670 -0.0203  0.1420  0.2598
 6131SOL    HW129852   0.087   2.765   8.619  1.4608  0.3559  0.0159
 6131SOL    HW229853   0.174   2.847   8.701 -0.0126  1.9788  0.1434
 6132SOL     OW29854   1.551   0.892   5.643 -0.4286  0.6121 -0.2900
 6132SOL    HW129855   1.564   0.920   5.734  0.2076  2.4721 -0.9461
 6132SOL    HW229856   1.463   0.929   5.639 -0.3995  1.0563  2.6591
 6133SOL     OW29857   4.641   1.100   2.806 -0.3588  0.3797 -0.4506
 6133SOL    HW129858   4.557   1.142   2.790  1.1645  3.3916 -0.5706
 6133SOL    HW229859   4.708   1.149   2.757 -0.5083 -1.5370 -2.6213
 6134SOL     OW29860   2.752   4.566   1.040 -0.1435 -0.3138 -0.3674
 6134SOL    HW129861   2.845   4.569   1.060 -0.0863  0.2990 -0.7066
 6134SOL    HW229862   2.748   4.542   0.947 -0.5040 -0.3045 -0.3553
 6135SOL     OW29863   2.292   4.349  13.114  0.4500  0.3686 -0.5244
 6135SOL    HW129864   2.286   4.260  13.078 -0.9503 -1.1368  3.3566
 6135SOL    HW229865   2.238   4.343  13.193 -2.2010  1.9038 -2.2085
 6136SOL     OW29866   3.585   2.556   4.250  0.0948  0.4929 -0.2268
 6136SOL    HW129867   3.532   2.577   4.327 -1.3328  0.0223 -1.0668
 6136SOL    HW229868   3.663   2.543   4.304 -0.6737 -0.3058  0.6976
 6137SOL     OW29869   2.650   4.517   6.077  0.5993  0.2790  0.0017
 6137SOL    HW129870   2.688   4.482   6.157 -0.7862 -2.2334 -0.4317
 6137SOL    HW229871   2.556   4.516   6.096  0.6208 -2.1725 -0.0350
 6138SOL     OW29872   3.634   2.301  10.066  0.2207  0.4578 -0.4537
 6138SOL    HW129873   3.728   2.308  10.085 -0.0303 -1.4818  1.5636
 6138SOL    HW229874   3.602   2.239  10.132 -0.4315  0.1758 -1.0356
 6139SOL     OW29875   0.093   0.405   4.039  0.6189 -0.2065 -0.0080
 6139SOL    HW129876   0.132   0.489   4.012  2.2400 -0.5270  1.3345
 6139SOL    HW229877   0.046   0.435   4.116  1.7702 -0.5011  0.8129
 6140SOL     OW29878   1.051   4.576   3.671 -0.4021  0.3256  0.2045
 6140SOL    HW129879   0.983   4.520   3.635 -1.6251  1.1098  1.3286
 6140SOL    HW229880   1.000   4.618   3.740  1.7738  2.0500  0.7712
 6141SOL     OW29881   1.548   3.992  11.437 -0.0113 -0.1709  0.4885
 6141SOL    HW129882   1.533   3.898  11.448  0.6004 -0.1414  1.5602
 6141SOL    HW229883   1.595   4.023  11.514  0.4478 -0.2921  0.2574
 6142SOL     OW29884   0.330   2.381   6.363 -0.2756 -0.0543  0.4934
 6142SOL    HW129885   0.374   2.465   6.352 -1.1169  0.2301 -0.7414
 6142SOL    HW229886   0.409   2.327   6.363 -0.8442 -0.9112 -0.7802
 6143SOL     OW29887   3.696   3.799   2.694 -0.1278  0.0588  0.5763
 6143SOL    HW129888   3.672   3.889   2.673  2.6878  0.6438 -0.1277
 6143SOL    HW229889   3.674   3.769   2.606  1.6378  0.7602 -0.0987
 6144SOL     OW29890   0.908   2.237   7.823 -0.0830  0.1944  0.2486
 6144SOL    HW129891   0.981   2.187   7.860  0.0144 -0.7592 -1.2462
 6144SOL    HW229892   0.940   2.326   7.842 -1.3091 -0.0974  3.8469
 6145SOL     OW29893   1.384   4.651   3.217 -0.2259 -0.6818  0.2241
 6145SOL    HW129894   1.419   0.016   3.205  0.7447 -1.3053 -1.4595
 6145SOL    HW229895   1.434   4.609   3.147  1.4592  2.1558 -0.2904
 6146SOL     OW29896   3.050   0.043   5.500  0.6269 -1.3741 -0.6150
 6146SOL    HW129897   3.089   0.109   5.444  2.5688 -0.5281  1.7215
 6146SOL    HW229898   2.973   0.092   5.529  2.5460  0.3548  1.4838
 6147SOL     OW29899   0.818   1.773   8.357 -0.0017  0.1100  0.1704
 6147SOL    HW129900   0.834   1.753   8.265 -2.0731  0.5578 -0.3007
 6147SOL    HW229901   0.903   1.796   8.394 -0.0693  2.8939 -1.3785
 6148SOL     OW29902   0.582   3.798   2.694  0.2220 -0.1701  0.2708
 6148SOL    HW129903   0.618   3.754   2.617 -0.3924 -1.5657  0.7806
 6148SOL    HW229904   0.486   3.797   2.685  0.1800  1.0430  0.5672
 6149SOL     OW29905   3.234   2.274   7.564  0.0129  0.2707  0.0227
 6149SOL    HW129906   3.276   2.353   7.531  2.9652 -0.5903  1.7387
 6149SOL    HW229907   3.221   2.296   7.656  1.4625 -2.0535  0.7933
 6150SOL     OW29908   2.210   1.642   7.332  0.4779  0.1571  0.1882
 6150SOL    HW129909   2.196   1.562   7.382  0.2707  0.0791  0.0066
 6150SOL    HW229910   2.134   1.696   7.355  0.6046  0.0848  0.7653
 6151SOL     OW29911   1.895   1.250   4.781 -0.0422  0.4517  0.0996
 6151SOL    HW129912   1.863   1.337   4.806 -1.5547 -0.9401  3.0504
 6151SOL    HW229913   1.816   1.200   4.760 -0.2222  0.2043  1.3633
 6152SOL     OW29914   0.765   3.877   4.498  0.5345  0.1918  0.1591
 6152SOL    HW129915   0.726   3.809   4.554 -2.7299  1.0340 -1.0685
 6152SOL    HW229916   0.780   3.952   4.555  1.2998  0.6542 -0.6722
 6153SOL     OW29917   3.887   1.123  16.236 -0.4040 -0.1727 -1.1572
 6153SOL    HW129918   3.917   1.033  16.238 -1.5852 -0.5362  0.5913
 6153SOL    HW229919   3.861   1.133  16.144 -3.0075  0.6071 -0.3481
 6154SOL     OW29920   4.034   3.319   3.551 -0.3065 -0.0134 -0.0250
 6154SOL    HW129921   3.982   3.248   3.514 -0.9562  0.1408  0.5814
 6154SOL    HW229922   4.003   3.396   3.503 -0.2534  0.7139  1.1057
 6155SOL     OW29923   2.805   0.650   5.335  0.2739  0.5358  0.3471
 6155SOL    HW129924   2.838   0.669   5.423 -1.3560 -0.6310  1.2066
 6155SOL    HW229925   2.829   0.735   5.298  0.5157 -0.1122 -0.9712
 6156SOL     OW29926   2.983   1.496  17.394 -0.7334 -0.0370  0.9911
 6156SOL    HW129927   3.013   1.449  17.316  0.3047  0.6463  0.9711
 6156SOL    HW229928   2.934   1.569  17.356 -0.0699  0.2286  0.6501
 6157SOL     OW29929   1.479   4.357   9.873 -0.9329 -0.6346 -0.0229
 6157SOL    HW129930   1.566   4.340   9.909 -0.8588 -0.9761 -0.3655
 6157SOL    HW229931   1.426   4.335   9.950  1.7212  2.3128  2.6337
 6158SOL     OW29932   2.436   4.430   6.312 -0.6581  0.1243  0.1557
 6158SOL    HW129933   2.420   4.523   6.295  1.3124  0.2617 -0.9798
 6158SOL    HW229934   2.350   4.390   6.307 -0.4855 -0.1007 -1.0962
 6159SOL     OW29935   2.754   4.150  11.602  0.0965  0.1570  0.1086
 6159SOL    HW129936   2.724   4.234  11.637 -1.9784 -0.6263  0.2077
 6159SOL    HW229937   2.676   4.112  11.562  1.5656  0.7966 -3.2886
 6160SOL     OW29938   1.715   0.764  10.938 -0.1128 -0.8148  0.2825
 6160SOL    HW129939   1.678   0.678  10.958 -1.5772  0.0439  1.3420
 6160SOL    HW229940   1.660   0.826  10.988 -0.2479 -1.6527  1.1789
 6161SOL     OW29941   1.558   1.162   7.014 -0.3169 -0.6254 -0.0827
 6161SOL    HW129942   1.605   1.121   7.086  0.6370  0.2677 -0.2018
 6161SOL    HW229943   1.515   1.095   6.960 -1.6396  1.1445 -1.2287
 6162SOL     OW29944   1.659   3.131   6.374 -0.0576 -0.4490  0.2731
 6162SOL    HW129945   1.599   3.057   6.387 -1.5897  0.8847  0.7517
 6162SOL    HW229946   1.673   3.128   6.279  0.1074 -1.6917  0.3358
 6163SOL     OW29947   3.348   3.904   1.579 -0.2313 -0.1673 -0.2807
 6163SOL    HW129948   3.364   3.859   1.496  1.4415 -1.3343  0.6750
 6163SOL    HW229949   3.340   3.996   1.553  0.2122 -0.3000 -0.9009
 6164SOL     OW29950   4.438   0.109   7.886 -0.1536  0.0427  0.1935
 6164SOL    HW129951   4.363   0.168   7.884  0.7335  1.1648 -0.1116
 6164SOL    HW229952   4.500   0.158   7.940 -1.5637  0.7361  1.1870
 6165SOL     OW29953   2.456   0.636   3.596  0.1217 -0.1378  0.0211
 6165SOL    HW129954   2.406   0.565   3.557  1.8715 -1.2783 -0.1782
 6165SOL    HW229955   2.386   0.700   3.603 -0.5893 -0.8779 -0.4100
 6166SOL     OW29956   1.043   0.719  15.658  0.2902 -0.8551  0.6470
 6166SOL    HW129957   1.041   0.637  15.707  1.7194 -1.1281  0.2479
 6166SOL    HW229958   0.999   0.778  15.719  1.1457  0.2941  0.1550
 6167SOL     OW29959   0.493   0.245   3.540 -0.5449  0.5337  0.3920
 6167SOL    HW129960   0.482   0.152   3.517 -0.0728  0.6046 -0.1188
 6167SOL    HW229961   0.495   0.295   3.458 -0.3555 -2.7582 -1.6444
 6168SOL     OW29962   1.612   1.066   7.696  0.6410  0.4221 -0.1159
 6168SOL    HW129963   1.582   0.979   7.668 -0.0583  0.1827  1.3656
 6168SOL    HW229964   1.643   1.103   7.614 -0.3758 -0.9189 -1.0972
 6169SOL     OW29965   0.572   1.152   6.886 -0.0425 -0.2451 -0.3998
 6169SOL    HW129966   0.540   1.240   6.906 -1.7183 -0.3427 -2.6795
 6169SOL    HW229967   0.666   1.168   6.890 -0.1952  1.3029 -3.2826
 6170SOL     OW29968   2.900   3.881   2.308  0.5488 -0.3622  0.1406
 6170SOL    HW129969   2.970   3.839   2.357  0.4389 -0.0177  0.5928
 6170SOL    HW229970   2.910   3.976   2.313 -0.2094 -0.2091 -1.1173
 6171SOL     OW29971   0.467   4.076  10.376 -0.6732  0.6956 -0.2171
 6171SOL    HW129972   0.509   4.066  10.290 -0.3152 -0.4841  0.0877
 6171SOL    HW229973   0.396   4.014  10.361 -0.9003  0.2981  2.4994
 6172SOL     OW29974   0.779   0.215   6.271  0.3051  0.3214 -0.2616
 6172SOL    HW129975   0.728   0.286   6.311  2.2042  0.0235  2.6338
 6172SOL    HW229976   0.837   0.263   6.212  1.1982  1.3616  1.4678
 6173SOL     OW29977   1.171   4.376   9.241 -0.0120  0.1897 -0.1639
 6173SOL    HW129978   1.211   4.326   9.312  1.9036  0.1060 -1.2921
 6173SOL    HW229979   1.157   4.464   9.276 -2.2144  0.2187 -1.1319
 6174SOL     OW29980   1.402   2.304   0.781  0.3250 -0.0176 -0.1010
 6174SOL    HW129981   1.348   2.376   0.814 -0.1036 -0.8054  0.9276
 6174SOL    HW229982   1.464   2.288   0.852 -0.7714  0.9406  1.0685
 6175SOL     OW29983   2.197   3.551   2.583  0.2517  0.3511  0.1824
 6175SOL    HW129984   2.286   3.518   2.576 -0.1923 -1.0482  1.0897
 6175SOL    HW229985   2.201   3.624   2.646  0.0341 -0.2046  0.8418
 6176SOL     OW29986   1.230   1.402   4.904 -0.6361  0.4313 -0.0881
 6176SOL    HW129987   1.220   1.450   4.822 -3.3988  1.6490  0.9726
 6176SOL    HW229988   1.178   1.456   4.963  2.2117  2.5122  0.5007
 6177SOL     OW29989   0.020   3.749   5.030 -0.4159  0.2231  0.4322
 6177SOL    HW129990   4.683   3.817   5.059 -0.1382  1.1771 -1.1933
 6177SOL    HW229991   0.053   3.715   5.113 -2.7421  0.4408  1.4512
 6178SOL     OW29992   3.040   4.650   6.212 -0.2043  0.1208 -0.6970
 6178SOL    HW129993   3.123   4.605   6.199 -0.2218  0.0378 -0.5185
 6178SOL    HW229994   3.014   4.661   6.120 -1.7896  1.0983 -0.1424
 6179SOL     OW29995   2.814   3.395   5.430 -0.3941 -0.3264  0.0883
 6179SOL    HW129996   2.802   3.324   5.493 -1.7478 -1.0544 -0.9653
 6179SOL    HW229997   2.839   3.345   5.353  0.5384  1.0148 -0.4698
 6180SOL     OW29998   2.643   2.582   5.278  0.2355 -0.3976  0.0519
 6180SOL    HW129999   2.626   2.587   5.372 -0.8082  1.3421 -0.2232
 6180SOL    HW230000   2.566   2.630   5.250  0.9366  0.6406 -0.0957
 6181SOL     OW30001   3.101   1.554   4.765 -0.2164 -0.0273  0.7417
 6181SOL    HW130002   3.033   1.487   4.757 -1.5819  1.3382  0.7671
 6181SOL    HW230003   3.052   1.635   4.780  1.0928  0.5697  1.7709
 6182SOL     OW30004   2.379   0.985  10.710  0.2026  0.3263 -0.2738
 6182SOL    HW130005   2.470   0.974  10.737  0.4705  0.3883 -1.1510
 6182SOL    HW230006   2.390   1.077  10.686  0.0930  0.4407  0.1083
 6183SOL     OW30007   4.496   1.136  15.353  0.0804 -0.5993 -0.0189
 6183SOL    HW130008   4.499   1.105  15.262  2.6257  1.2722 -0.5750
 6183SOL    HW230009   4.405   1.164  15.351  0.1156 -0.5563 -0.8994
 6184SOL     OW30010   4.606   1.433   5.943  0.4757 -0.0595 -0.1679
 6184SOL    HW130011   4.514   1.444   5.966 -0.1561 -0.7771 -2.3987
 6184SOL    HW230012   4.621   1.504   5.880  0.3399 -0.8703 -1.1021
 6185SOL     OW30013   1.149   1.408   6.668 -0.4107  0.3770  0.0774
 6185SOL    HW130014   1.217   1.463   6.628 -1.0297  1.3729  0.3913
 6185SOL    HW230015   1.075   1.452   6.626 -2.0653 -0.9872  1.5582
 6186SOL     OW30016   4.409   0.996  12.224 -0.3903 -0.3571 -0.3031
 6186SOL    HW130017   4.346   0.978  12.154 -0.6234 -0.5230 -0.0510
 6186SOL    HW230018   4.347   1.009  12.296 -0.8245 -0.3608 -0.6744
 6187SOL     OW30019   1.127   1.767  10.807 -0.1580  0.1282  0.0336
 6187SOL    HW130020   1.069   1.694  10.830  1.2161 -1.0718 -0.2782
 6187SOL    HW230021   1.098   1.814  10.885  2.5787 -2.1245  2.3996
 6188SOL     OW30022   1.268   0.248   8.911 -0.6541 -0.5898  0.6963
 6188SOL    HW130023   1.182   0.271   8.948 -0.7712  0.2845 -0.1085
 6188SOL    HW230024   1.299   0.167   8.951 -3.6843 -2.9843 -1.7901
 6189SOL     OW30025   4.303   4.537   1.415  0.3416 -0.1126  0.1443
 6189SOL    HW130026   4.240   4.466   1.423  0.4745 -0.2645 -0.1571
 6189SOL    HW230027   4.376   4.522   1.475  2.6266  0.0804 -2.6113
 6190SOL     OW30028   3.445   2.825   5.940 -0.1403  0.8349  0.7695
 6190SOL    HW130029   3.382   2.837   6.011 -0.6506  0.5496  0.3634
 6190SOL    HW230030   3.469   2.915   5.917  0.3893  0.0749 -1.6811
 6191SOL     OW30031   1.395   4.270   6.451  0.2778 -0.0111  0.0255
 6191SOL    HW130032   1.422   4.354   6.489 -1.2694  0.1452  0.7858
 6191SOL    HW230033   1.382   4.294   6.360  4.2067 -0.1587 -0.5660
 6192SOL     OW30034   0.335   1.912   0.184 -0.2230 -0.5798 -0.0723
 6192SOL    HW130035   0.249   1.939   0.219 -1.0878 -1.0033 -1.8730
 6192SOL    HW230036   0.312   1.885   0.095  1.8566 -4.8788  0.6662
 6193SOL     OW30037   0.459   3.348   1.691  0.4957  0.3959  0.1277
 6193SOL    HW130038   0.506   3.354   1.609 -2.1022  2.0190 -1.2653
 6193SOL    HW230039   0.486   3.260   1.715 -1.5532 -0.3226 -0.1985
 6194SOL     OW30040   2.395   1.265   0.155  0.4464  0.1436  0.4706
 6194SOL    HW130041   2.375   1.272   0.062 -1.0872  0.6842  0.8508
 6194SOL    HW230042   2.404   1.357   0.178 -1.4974  0.6050 -0.6390
 6195SOL     OW30043   4.011   1.307  16.894  0.4175  0.9086  0.1030
 6195SOL    HW130044   3.980   1.366  16.962  2.9329  0.9023  1.2407
 6195SOL    HW230045   4.101   1.335  16.875  0.1802  2.1998  0.9061
 6196SOL     OW30046   4.211   0.160   6.166 -0.4607  0.4557  1.1774
 6196SOL    HW130047   4.243   0.138   6.253 -1.9011 -0.2546  1.5257
 6196SOL    HW230048   4.265   0.103   6.111  1.1777 -0.0279  3.3128
 6197SOL     OW30049   1.350   0.111   7.181  0.0482 -0.1534 -0.4434
 6197SOL    HW130050   1.348   0.153   7.267 -1.0093  0.5416 -0.8111
 6197SOL    HW230051   1.263   0.073   7.190  0.7001 -1.1810  1.7401
 6198SOL     OW30052   1.020   3.578   8.262  0.1981 -0.4116  0.4491
 6198SOL    HW130053   1.102   3.620   8.287 -0.4142  1.4442 -0.6896
 6198SOL    HW230054   1.037   3.569   8.168  0.9800 -0.0613  0.5566
 6199SOL     OW30055   3.515   1.514   1.761 -0.6656  0.0807  0.0327
 6199SOL    HW130056   3.463   1.501   1.681 -0.0216  1.3146 -0.5873
 6199SOL    HW230057   3.481   1.599   1.791 -0.6527  1.0729 -2.7730
 6200SOL     OW30058   4.037   4.654   6.792  0.4758  0.3125  0.0842
 6200SOL    HW130059   4.128   4.676   6.813  1.2911 -3.6453  0.6488
 6200SOL    HW230060   4.038   4.696   6.706  1.0611 -0.8458 -0.4776
 6201SOL     OW30061   2.583   4.436   3.046 -0.2716 -0.3577  0.0802
 6201SOL    HW130062   2.671   4.472   3.036 -0.3936 -0.5091 -1.6192
 6201SOL    HW230063   2.545   4.443   2.958 -1.8010  0.4695  0.8092
 6202SOL     OW30064   3.850   2.109   9.914 -0.0297 -0.1316  0.3568
 6202SOL    HW130065   3.772   2.105   9.860  0.0373  2.0534  0.0837
 6202SOL    HW230066   3.830   2.054   9.990 -0.4312  1.9281  1.7620
 6203SOL     OW30067   0.793   0.320   0.991 -0.6551 -0.3061 -0.3889
 6203SOL    HW130068   0.799   0.345   1.083 -1.2133 -0.8472 -0.2054
 6203SOL    HW230069   0.811   0.226   0.997  2.3395  0.5554  3.6090
 6204SOL     OW30070   2.698   4.410   5.716  0.0411  0.0211 -0.2369
 6204SOL    HW130071   2.790   4.410   5.744  0.3803 -2.5852 -1.2743
 6204SOL    HW230072   2.661   4.479   5.770  0.7081  0.7303 -0.6755
 6205SOL     OW30073   0.138   4.051   6.619  0.2645 -0.3265  0.3966
 6205SOL    HW130074   0.230   4.078   6.624  0.1819 -0.4696  3.1947
 6205SOL    HW230075   0.096   4.107   6.685 -0.2321  0.2140 -0.3885
 6206SOL     OW30076   0.848   4.599  13.529  0.4488 -0.2154  0.2224
 6206SOL    HW130077   0.875   4.574  13.441  0.4849  1.9718 -0.3844
 6206SOL    HW230078   0.868   4.519  13.577 -0.4954  0.5544  1.9221
 6207SOL     OW30079   4.622   3.115   3.445 -0.1340 -0.3134  0.1441
 6207SOL    HW130080   4.674   3.158   3.377  2.1561 -0.4252  1.8420
 6207SOL    HW230081   4.591   3.188   3.498  2.0669  1.0814 -0.5211
 6208SOL     OW30082   1.434   2.446   9.100  0.1831 -0.8177  0.1698
 6208SOL    HW130083   1.364   2.385   9.125 -0.0973 -0.5950 -0.0692
 6208SOL    HW230084   1.517   2.398   9.098  1.7449  1.9916 -1.9716
 6209SOL     OW30085   2.375   1.870   3.223  0.4462 -0.1095 -0.3979
 6209SOL    HW130086   2.409   1.859   3.312  0.0221 -0.6182 -0.2985
 6209SOL    HW230087   2.287   1.833   3.232  0.2733  0.3250 -0.2981
 6210SOL     OW30088   3.064   1.293   6.840  0.2286 -0.4983  0.3803
 6210SOL    HW130089   3.020   1.355   6.782 -0.5663 -2.2278 -0.8538
 6210SOL    HW230090   3.094   1.232   6.773  1.0429 -1.7643  1.8696
 6211SOL     OW30091   2.932   1.910  10.367  0.1842  0.4696  0.4088
 6211SOL    HW130092   3.027   1.897  10.371  0.2907  0.7829 -1.0102
 6211SOL    HW230093   2.930   1.988  10.312  0.8549  0.9083  0.9945
 6212SOL     OW30094   2.306   2.857   2.457 -0.0089 -0.1056 -0.3358
 6212SOL    HW130095   2.331   2.943   2.425  0.4986  0.5241  1.7710
 6212SOL    HW230096   2.364   2.787   2.427  1.1301  0.1955  1.1666
 6213SOL     OW30097   3.286   4.716  12.045 -0.4273  0.2282 -0.0715
 6213SOL    HW130098   3.342   4.638  12.045  0.2293  0.6973 -1.1122
 6213SOL    HW230099   3.355   0.058  12.032 -1.6019  1.2292 -1.2743
 6214SOL     OW30100   2.847   4.547   2.992  0.2873 -0.1341 -0.2649
 6214SOL    HW130101   2.894   4.472   3.028 -1.2888 -1.1841 -0.4045
 6214SOL    HW230102   2.888   4.566   2.907 -0.6287  0.3512 -0.6011
 6215SOL     OW30103   2.077   1.168   0.708  0.1486  0.1557 -0.1492
 6215SOL    HW130104   2.013   1.104   0.676 -2.4249  1.8900  1.5052
 6215SOL    HW230105   2.107   1.123   0.788  0.5216  0.3925 -0.1580
 6216SOL     OW30106   0.605   2.711  16.646 -0.7190 -0.0343  0.1083
 6216SOL    HW130107   0.544   2.641  16.619  0.2604 -0.5720 -0.7384
 6216SOL    HW230108   0.630   2.738  16.557 -3.9616  1.3528 -0.3989
 6217SOL     OW30109   4.409   3.901  13.876  0.7799 -0.2017 -0.5083
 6217SOL    HW130110   4.392   3.990  13.846 -0.6518 -0.1301  0.5200
 6217SOL    HW230111   4.443   3.928  13.961  2.5367 -1.7995 -0.7000
 6218SOL     OW30112   3.023   2.159   6.097 -0.0387 -0.6291  0.2551
 6218SOL    HW130113   3.085   2.092   6.126 -0.7630 -1.0831  0.7913
 6218SOL    HW230114   2.950   2.136   6.155 -0.5007 -0.6353 -0.3323
 6219SOL     OW30115   1.471   1.709  13.216 -0.3923 -0.4722 -0.9700
 6219SOL    HW130116   1.406   1.736  13.281  1.5975  0.2008  0.7390
 6219SOL    HW230117   1.507   1.789  13.177 -0.7517  1.0229  1.7552
 6220SOL     OW30118   4.215   1.969   3.432  0.1109  1.0058  0.6960
 6220SOL    HW130119   4.143   1.908   3.448  0.7064  0.2483  0.4750
 6220SOL    HW230120   4.244   1.967   3.523  1.2378  0.5476  0.3302
 6221SOL     OW30121   3.312   3.275   3.159  0.7913  0.3098  0.5112
 6221SOL    HW130122   3.234   3.330   3.162 -0.2903 -1.0920 -1.0020
 6221SOL    HW230123   3.292   3.196   3.210  0.8621 -0.1611 -0.1825
 6222SOL     OW30124   1.661   0.980   1.446 -0.1371 -0.2369 -0.6640
 6222SOL    HW130125   1.599   1.015   1.383 -0.5441  0.4020  0.0869
 6222SOL    HW230126   1.706   1.057   1.480 -1.6131 -0.8029  2.6285
 6223SOL     OW30127   4.541   1.289   8.018 -0.2764 -0.3973  0.6261
 6223SOL    HW130128   4.587   1.297   7.934 -1.2075 -1.2464  0.0424
 6223SOL    HW230129   4.599   1.225   8.061  1.5165  2.7170  2.8948
 6224SOL     OW30130   4.311   3.790   2.380 -0.0895  0.1492  0.3372
 6224SOL    HW130131   4.271   3.812   2.464  0.6592  2.6782  0.0510
 6224SOL    HW230132   4.386   3.850   2.382  2.2054 -2.7060 -0.6182
 6225SOL     OW30133   0.122   1.824   5.065  0.1518  0.0260  0.5089
 6225SOL    HW130134   0.206   1.852   5.102 -0.8018  0.7464  2.1526
 6225SOL    HW230135   0.066   1.891   5.103 -0.4402 -0.3455  0.2795
 6226SOL     OW30136   4.007   0.243   9.136 -0.5403  0.3963  0.3087
 6226SOL    HW130137   3.933   0.301   9.120 -0.9552 -0.3391 -0.4237
 6226SOL    HW230138   3.981   0.168   9.083  2.6384 -0.4343 -0.0970
 6227SOL     OW30139   0.134   2.127   5.455 -0.1957 -0.1793 -0.2847
 6227SOL    HW130140   0.197   2.058   5.434 -0.0008  0.3378 -1.3940
 6227SOL    HW230141   0.189   2.200   5.482  0.6820 -1.7826  2.2840
 6228SOL     OW30142   2.344   3.859   6.441  0.3508 -0.1439  0.7869
 6228SOL    HW130143   2.389   3.830   6.362 -2.6349  0.4705 -1.1303
 6228SOL    HW230144   2.286   3.934   6.432 -0.7576 -0.9435  1.2110
 6229SOL     OW30145   1.579   3.756  11.774 -0.2235 -0.2061 -0.5169
 6229SOL    HW130146   1.510   3.803  11.728 -0.0309 -0.2058 -0.8060
 6229SOL    HW230147   1.653   3.814  11.755  0.1393 -1.0180 -1.5440
 6230SOL     OW30148   1.026   0.253   4.296 -0.3604 -0.5656  0.3212
 6230SOL    HW130149   1.016   0.337   4.253 -1.1309 -1.2529 -0.8453
 6230SOL    HW230150   0.970   0.197   4.242 -0.4385 -1.6357  1.4996
 6231SOL     OW30151   2.124   1.766   2.185  0.1938 -0.1243 -0.1732
 6231SOL    HW130152   2.077   1.699   2.235  2.5573 -0.8293  1.0785
 6231SOL    HW230153   2.163   1.714   2.115  0.3473 -1.5657  1.0083
 6232SOL     OW30154   1.977   0.566   8.540 -0.2554  0.1530  0.1363
 6232SOL    HW130155   2.032   0.568   8.461  0.1211 -0.2971  0.3909
 6232SOL    HW230156   1.958   0.472   8.539  0.5934 -0.0103 -1.1321
 6233SOL     OW30157   2.621   2.915   4.552  0.0633  0.2423  0.2211
 6233SOL    HW130158   2.582   2.887   4.635 -0.9183  1.9287  0.3383
 6233SOL    HW230159   2.703   2.958   4.576 -0.9811  2.8599 -0.8502
 6234SOL     OW30160   2.398   1.876   1.774 -0.3454 -0.1076 -0.7365
 6234SOL    HW130161   2.421   1.824   1.697  1.6312  1.1664 -1.0274
 6234SOL    HW230162   2.395   1.967   1.744 -0.2036  0.6236  1.4912
 6235SOL     OW30163   3.727   1.042   4.987 -0.0063 -0.4915 -0.6203
 6235SOL    HW130164   3.785   1.029   4.911  1.1103  0.3936  0.0873
 6235SOL    HW230165   3.794   1.030   5.055  0.1138  0.6151 -0.5474
 6236SOL     OW30166   1.227   2.400   1.587 -0.1239  0.3265  0.0531
 6236SOL    HW130167   1.176   2.428   1.511 -1.1424 -2.2144 -0.1868
 6236SOL    HW230168   1.155   2.364   1.638 -1.6625  0.5597 -1.9191
 6237SOL     OW30169   2.560   1.829   1.222  0.5133 -0.1434  0.5338
 6237SOL    HW130170   2.529   1.913   1.188  0.6469 -1.1817 -2.1377
 6237SOL    HW230171   2.479   1.790   1.256  0.1371  0.5020  0.3695
 6238SOL     OW30172   2.648   0.128   3.486 -0.4983 -0.3666 -0.1211
 6238SOL    HW130173   2.590   0.053   3.505 -0.1579 -0.5664  0.1254
 6238SOL    HW230174   2.623   0.177   3.565  0.0914  1.6583 -1.1965
 6239SOL     OW30175   4.621   1.761  17.038 -0.5644 -0.0392  0.7125
 6239SOL    HW130176   4.662   1.711  17.109  0.8004 -0.7336 -0.5390
 6239SOL    HW230177   4.572   1.823  17.092 -2.0214 -0.0377 -0.6210
 6240SOL     OW30178   3.954   1.326   3.686 -0.4142  0.0400 -0.1296
 6240SOL    HW130179   4.041   1.344   3.650 -0.4894 -0.7984 -0.7317
 6240SOL    HW230180   3.957   1.230   3.685 -1.2633  0.0236 -0.7168
 6241SOL     OW30181   2.491   0.704   8.154 -0.1474 -0.6505  0.0181
 6241SOL    HW130182   2.484   0.635   8.088 -0.8959  0.7883 -1.3912
 6241SOL    HW230183   2.417   0.757   8.124  0.0250 -1.1940 -1.3769
 6242SOL     OW30184   0.382   2.989   8.031  0.4511  0.6605 -0.3293
 6242SOL    HW130185   0.333   2.927   8.086  2.6038 -0.1900  0.6086
 6242SOL    HW230186   0.465   2.945   8.047  0.4359  0.4382 -0.8872
 6243SOL     OW30187   3.247   0.447   3.447  0.5127  0.2211 -0.0921
 6243SOL    HW130188   3.289   0.513   3.501 -0.9922 -0.6960  2.2237
 6243SOL    HW230189   3.170   0.495   3.418  0.4928  0.0935 -0.2530
 6244SOL     OW30190   3.196   2.987   5.063  0.4252  0.4456  0.1023
 6244SOL    HW130191   3.157   2.994   4.976  0.7470  1.5928  0.0516
 6244SOL    HW230192   3.199   2.892   5.073  1.1685  0.3311 -1.1109
 6245SOL     OW30193   1.248   3.018   5.828  0.0913 -0.3516  0.3289
 6245SOL    HW130194   1.286   2.938   5.866 -0.5788 -1.2966 -0.9912
 6245SOL    HW230195   1.260   2.997   5.735 -1.2856 -0.5881  0.2074
 6246SOL     OW30196   1.993   2.057   7.203  0.5802  0.6990  0.1726
 6246SOL    HW130197   2.041   2.082   7.124 -0.1181  3.3366  0.5885
 6246SOL    HW230198   2.007   2.131   7.261 -0.4087  0.6780  0.4480
 6247SOL     OW30199   0.066   2.627  10.826  0.0430  0.1410  0.1912
 6247SOL    HW130200   4.700   2.599  10.805  0.7094 -2.5861  1.0084
 6247SOL    HW230201   0.102   2.545  10.860 -1.0680 -1.1731 -1.8117
 6248SOL     OW30202   1.987   4.526   4.921  0.5727 -0.1780 -0.2650
 6248SOL    HW130203   2.051   4.504   4.854  0.6084 -1.9052  0.3439
 6248SOL    HW230204   1.956   4.439   4.944  0.6818 -0.8600 -2.7983
 6249SOL     OW30205   3.209   3.689   4.669  0.0318  0.5062 -0.1715
 6249SOL    HW130206   3.154   3.740   4.609  1.6627 -2.9864 -4.6737
 6249SOL    HW230207   3.145   3.661   4.735  0.2387  1.1140  0.2866
 6250SOL     OW30208   1.208   3.171  11.919  0.0523 -0.4937  0.3297
 6250SOL    HW130209   1.240   3.081  11.916 -1.1103 -0.8766 -0.8050
 6250SOL    HW230210   1.234   3.200  11.831 -2.2017  2.1111  0.5097
 6251SOL     OW30211   4.395   2.780   4.144 -0.1393 -0.5404  0.3719
 6251SOL    HW130212   4.359   2.852   4.197  0.8750 -1.0487  1.7573
 6251SOL    HW230213   4.399   2.716   4.215  1.3960  1.4375  2.0806
 6252SOL     OW30214   3.404   4.040   4.196  0.2049 -0.3625  0.6519
 6252SOL    HW130215   3.435   3.950   4.191 -1.9179 -1.1131  1.1536
 6252SOL    HW230216   3.480   4.059   4.250 -0.2922  0.4534  1.0715
 6253SOL     OW30217   2.223   0.086  16.136  0.3069 -0.3413  0.1038
 6253SOL    HW130218   2.200   4.723  16.103  2.0496 -1.2090  1.1697
 6253SOL    HW230219   2.303   0.063  16.183  0.6667 -0.4560 -0.5620
 6254SOL     OW30220   2.915   3.763   6.034 -0.5079 -0.0587 -0.0077
 6254SOL    HW130221   3.008   3.779   6.016 -0.4007 -2.5279 -1.6548
 6254SOL    HW230222   2.877   3.785   5.949 -0.7366  1.1810  0.4097
 6255SOL     OW30223   3.735   3.725   4.282  0.3371 -0.5964 -0.8354
 6255SOL    HW130224   3.704   3.690   4.365 -0.7891  1.1791 -0.5174
 6255SOL    HW230225   3.823   3.687   4.277  0.2647 -0.6218 -2.1758
 6256SOL     OW30226   3.591   0.484   1.643 -0.0403 -0.2490 -0.9461
 6256SOL    HW130227   3.686   0.484   1.657  0.0225  0.9836 -1.3593
 6256SOL    HW230228   3.579   0.391   1.666 -2.8066  0.2365 -0.4268
 6257SOL     OW30229   3.728   1.157   3.214 -0.4145 -0.0175  0.2121
 6257SOL    HW130230   3.792   1.134   3.282 -1.2546 -0.3593  0.8881
 6257SOL    HW230231   3.686   1.075   3.186 -0.5379  0.0271  0.2673
 6258SOL     OW30232   2.827   2.618   8.344  0.2644 -0.5183 -0.1940
 6258SOL    HW130233   2.895   2.616   8.411  0.1359  3.5751  0.0229
 6258SOL    HW230234   2.774   2.693   8.369  0.4255 -0.8617  1.1658
 6259SOL     OW30235   3.179   0.690   1.161  0.2112  0.0628  0.1028
 6259SOL    HW130236   3.241   0.757   1.189 -0.3268  0.9165 -0.7635
 6259SOL    HW230237   3.165   0.638   1.240 -0.0944 -0.4921 -0.3223
 6260SOL     OW30238   4.538   2.629  10.410 -0.2210 -0.2465 -0.1178
 6260SOL    HW130239   4.552   2.712  10.365  1.1573  2.1925  4.8266
 6260SOL    HW230240   4.452   2.605  10.376  0.3347 -2.1101 -0.2107
 6261SOL     OW30241   4.050   4.106   8.343  0.1578 -0.3540  0.1353
 6261SOL    HW130242   4.106   4.032   8.368  1.6196  0.1948 -1.5017
 6261SOL    HW230243   4.121   4.167   8.323  0.9254 -0.9181  1.1127
 6262SOL     OW30244   1.980   4.236  15.194  0.5853 -0.0531 -0.1988
 6262SOL    HW130245   1.982   4.329  15.214 -0.0014  0.0792 -0.7500
 6262SOL    HW230246   2.071   4.212  15.211  1.1114  2.0474 -0.0746
 6263SOL     OW30247   3.489   1.450  15.713  0.4913 -0.2733 -0.4520
 6263SOL    HW130248   3.559   1.511  15.738 -0.8625  1.2189 -0.2834
 6263SOL    HW230249   3.535   1.389  15.654  3.8513  0.3051  1.5361
 6264SOL     OW30250   0.109   1.597   0.944  0.0490 -0.3197 -0.4561
 6264SOL    HW130251   0.164   1.538   0.892 -0.8807 -1.7702  0.2149
 6264SOL    HW230252   0.172   1.610   1.015  1.3661 -1.3836 -1.4207
 6265SOL     OW30253   2.521   1.167  13.966  0.1476 -0.2091  0.3469
 6265SOL    HW130254   2.546   1.094  13.909  0.0399 -0.2503  0.3511
 6265SOL    HW230255   2.516   1.239  13.903 -4.0240 -0.8176 -0.0672
 6266SOL     OW30256   1.323   1.283   8.188 -0.0132  0.7649  0.3613
 6266SOL    HW130257   1.266   1.313   8.259 -0.0607 -0.6049  0.8958
 6266SOL    HW230258   1.383   1.221   8.229  1.2146  0.8963 -1.2720
 6267SOL     OW30259   0.117   0.943   6.453  0.1610 -0.1208  0.1406
 6267SOL    HW130260   0.092   1.034   6.468  2.5227  0.4038  0.8394
 6267SOL    HW230261   0.062   0.917   6.379  0.3379  0.3847 -0.1717
 6268SOL     OW30262   2.056   0.104  12.040 -0.3494  0.6165 -0.9639
 6268SOL    HW130263   2.027   0.040  12.106  0.8390  1.2356  0.1515
 6268SOL    HW230264   2.151   0.108  12.050 -0.6085  2.4763  0.6076
 6269SOL     OW30265   4.497   4.683   4.137  0.5607 -0.4179 -0.3090
 6269SOL    HW130266   4.555   0.007   4.197 -1.4168  0.6602  0.7436
 6269SOL    HW230267   4.466   0.035   4.086 -0.5611 -0.6833 -0.0140
 6270SOL     OW30268   1.252   4.476   4.362  0.6123 -0.7886 -0.2646
 6270SOL    HW130269   1.279   4.564   4.390 -3.5040  0.7246 -0.9835
 6270SOL    HW230270   1.228   4.487   4.270  0.6951 -0.0827 -0.2027
 6271SOL     OW30271   0.189   4.066   5.619 -0.4323 -0.3747  0.5999
 6271SOL    HW130272   0.252   4.044   5.550  1.4416 -0.7246  2.4131
 6271SOL    HW230273   0.181   3.978   5.656  0.5499 -0.5925  0.2993
 6272SOL     OW30274   3.565   0.746  17.351  0.1201  0.3070 -0.2959
 6272SOL    HW130275   3.486   0.698  17.327  1.2411 -1.7048  0.0187
 6272SOL    HW230276   3.628   0.710  17.288  1.2107  0.7317  0.5508
 6273SOL     OW30277   4.332   4.428   2.986  0.1831  0.4053 -0.3543
 6273SOL    HW130278   4.290   4.510   2.959 -0.2926  0.2331 -0.1555
 6273SOL    HW230279   4.299   4.370   2.918  0.8531  0.0690 -0.3923
 6274SOL     OW30280   0.444   2.094   6.480 -0.4697 -0.4722  0.0634
 6274SOL    HW130281   0.499   2.127   6.408  0.5766 -0.2934  0.9305
 6274SOL    HW230282   0.380   2.043   6.430 -1.0552  1.9530 -1.6668
 6275SOL     OW30283   0.837   0.293  11.027  0.1836  0.0779 -0.8844
 6275SOL    HW130284   0.766   0.228  11.018  0.9899 -0.7211 -1.5084
 6275SOL    HW230285   0.894   0.259  10.958 -0.4345 -0.3642 -1.1834
 6276SOL     OW30286   1.141   0.644   3.879 -0.7509  0.5501 -0.3379
 6276SOL    HW130287   1.201   0.570   3.870 -2.2642 -0.5769 -1.0872
 6276SOL    HW230288   1.146   0.654   3.974 -0.7434 -1.2950 -0.1449
 6277SOL     OW30289   2.295   0.134   5.313  0.2110 -0.0489 -0.0283
 6277SOL    HW130290   2.267   0.197   5.379 -0.2029 -0.9034  0.6159
 6277SOL    HW230291   2.386   0.110   5.330 -0.2043  0.1885  2.4638
 6278SOL     OW30292   4.607   3.187   6.206  0.2419 -0.0525 -0.3122
 6278SOL    HW130293   4.636   3.215   6.293 -2.0327  0.3447  0.3156
 6278SOL    HW230294   4.685   3.210   6.157  0.1223  1.1621  0.0714
 6279SOL     OW30295   2.555   1.383  11.555  0.4294  0.2283 -0.3158
 6279SOL    HW130296   2.538   1.460  11.610 -1.6767 -0.3150 -0.1829
 6279SOL    HW230297   2.646   1.364  11.575 -0.3257 -1.5185  1.4313
 6280SOL     OW30298   1.701   3.570   5.879  0.5496 -0.7143  0.2660
 6280SOL    HW130299   1.647   3.576   5.958 -0.4655 -0.9271 -0.4137
 6280SOL    HW230300   1.692   3.660   5.847 -0.3847 -0.6025  0.8488
 6281SOL     OW30301   2.935   1.293  17.085  0.2775 -0.3395  0.0058
 6281SOL    HW130302   2.866   1.258  17.142  1.8051 -0.2481  1.9246
 6281SOL    HW230303   2.937   1.222  17.021  0.0684  0.6461 -1.0926
 6282SOL     OW30304   0.390   1.916  16.990 -1.0947  0.6430 -0.4687
 6282SOL    HW130305   0.411   1.847  17.054 -1.9678  0.1009 -0.7690
 6282SOL    HW230306   0.404   1.869  16.907 -0.8114  1.3513 -0.8191
 6283SOL     OW30307   4.419   2.798   8.281  0.0226  0.5703 -0.2951
 6283SOL    HW130308   4.334   2.796   8.326 -0.4049  1.0000 -1.0740
 6283SOL    HW230309   4.472   2.791   8.360 -1.2766 -1.6425  0.3855
 6284SOL     OW30310   0.396   0.697  15.182 -0.2943  0.2805 -0.1582
 6284SOL    HW130311   0.349   0.614  15.175  1.4880 -0.8669  1.1864
 6284SOL    HW230312   0.334   0.765  15.157  0.1586  0.0728 -1.8348
 6285SOL     OW30313   1.839   2.485   6.909 -0.0525 -0.2928  0.2399
 6285SOL    HW130314   1.924   2.523   6.885 -0.6153  2.0085  1.9294
 6285SOL    HW230315   1.819   2.444   6.824 -0.8522 -0.7391  0.6501
 6286SOL     OW30316   2.317   2.430   5.519  0.1511 -0.2302  0.0233
 6286SOL    HW130317   2.279   2.402   5.603  1.0983  1.7211  1.0810
 6286SOL    HW230318   2.246   2.407   5.459  1.9096 -1.8160 -1.4524
 6287SOL     OW30319   3.735   2.061   5.755 -0.3376  0.7480  0.0639
 6287SOL    HW130320   3.652   2.021   5.783  0.4922 -0.5604  0.6725
 6287SOL    HW230321   3.712   2.154   5.756  1.8918  1.2884  0.1212
 6288SOL     OW30322   1.218   1.674  11.874 -0.0708  0.5514 -0.0986
 6288SOL    HW130323   1.124   1.674  11.888  0.0908  0.2650  0.9725
 6288SOL    HW230324   1.239   1.589  11.835 -1.3569  0.0171  0.4019
 6289SOL     OW30325   3.864   1.008   0.686 -0.3310 -0.5134 -1.0015
 6289SOL    HW130326   3.864   0.945   0.613 -0.2266 -2.9252  1.0885
 6289SOL    HW230327   3.841   1.091   0.645  0.1327  0.3440  0.4821
 6290SOL     OW30328   2.877   4.143   4.731 -0.5491 -0.1960 -0.0960
 6290SOL    HW130329   2.878   4.092   4.811  0.4879 -1.2440 -0.7925
 6290SOL    HW230330   2.822   4.218   4.755 -1.0751 -0.0748 -1.6817
 6291SOL     OW30331   1.050   1.784   2.190  0.3570 -0.0054 -0.3870
 6291SOL    HW130332   1.045   1.720   2.118 -0.7707  0.3187 -0.5910
 6291SOL    HW230333   1.038   1.867   2.145  0.5023  0.0497 -0.3237
 6292SOL     OW30334   0.940   1.758   9.147 -0.4816  0.0868  0.3056
 6292SOL    HW130335   0.859   1.740   9.195 -2.0281  1.7326 -1.7140
 6292SOL    HW230336   1.006   1.719   9.204 -1.0838  0.0271  0.9641
 6293SOL     OW30337   1.817   3.704   7.503 -0.7753  0.0770 -0.1424
 6293SOL    HW130338   1.769   3.765   7.561  0.9312  0.7964  0.5126
 6293SOL    HW230339   1.825   3.761   7.427 -0.0713 -0.2563 -0.3152
 6294SOL     OW30340   1.068   3.633   9.232  0.2066 -0.8238  0.1185
 6294SOL    HW130341   1.109   3.648   9.146 -0.1407  0.2072  0.1409
 6294SOL    HW230342   1.099   3.712   9.277 -2.1871  0.8904 -1.2464
 6295SOL     OW30343   2.812   0.466   4.374  0.0042  0.2105  0.7101
 6295SOL    HW130344   2.725   0.506   4.368  1.5210  3.6034  1.4538
 6295SOL    HW230345   2.840   0.487   4.463 -0.0905  0.4290  0.6887
 6296SOL     OW30346   0.544   1.178   4.150 -0.2060  0.4015 -0.2241
 6296SOL    HW130347   0.591   1.175   4.066  1.9082  0.9947  0.9414
 6296SOL    HW230348   0.464   1.214   4.111 -1.1931 -0.1983  1.2624
 6297SOL     OW30349   1.029   0.462   0.812  0.3915  0.2060 -0.1154
 6297SOL    HW130350   0.982   0.493   0.735 -0.8171 -0.5068  0.3440
 6297SOL    HW230351   0.955   0.454   0.873  0.6311 -1.3310 -0.0366
 6298SOL     OW30352   0.059   2.760   7.632 -0.3879 -0.2999 -0.3814
 6298SOL    HW130353   0.010   2.757   7.550  1.7456 -2.9037 -1.5716
 6298SOL    HW230354   0.121   2.826   7.602 -2.1638  1.6715  0.3452
 6299SOL     OW30355   2.129   0.594   6.827  0.0484 -0.1887 -0.7306
 6299SOL    HW130356   2.144   0.614   6.735  2.4790  1.2922  0.0038
 6299SOL    HW230357   2.094   0.676   6.862  0.9590 -0.9618  1.9759
 6300SOL     OW30358   3.409   2.575   6.714  0.3148  0.9794 -0.3661
 6300SOL    HW130359   3.471   2.592   6.643  1.9045 -0.9047  0.5877
 6300SOL    HW230360   3.332   2.608   6.666 -0.7107 -1.0492 -0.1026
 6301SOL     OW30361   2.613   0.434  14.432 -0.3781 -0.0982  0.4091
 6301SOL    HW130362   2.566   0.388  14.361 -1.9278 -1.1778  2.1373
 6301SOL    HW230363   2.604   0.362  14.494 -2.1636 -1.2332 -1.1552
 6302SOL     OW30364   2.111   4.127   8.225 -0.4030  0.0171  0.1380
 6302SOL    HW130365   2.040   4.191   8.221 -1.0257 -0.6279  0.7098
 6302SOL    HW230366   2.066   4.081   8.297 -1.3054 -0.7425 -0.9090
 6303SOL     OW30367   4.356   4.232   6.612 -0.0099 -0.1257 -0.3225
 6303SOL    HW130368   4.363   4.209   6.519  1.4878  1.7156 -0.6765
 6303SOL    HW230369   4.335   4.151   6.658  0.0657  1.4509  2.5097
 6304SOL     OW30370   1.452   3.810   0.691 -1.0622  0.0379  0.3905
 6304SOL    HW130371   1.378   3.763   0.652 -0.2938 -0.8072 -0.0609
 6304SOL    HW230372   1.400   3.878   0.732 -2.1854  0.7543 -2.2656
 6305SOL     OW30373   2.191   4.367  10.174 -0.2844 -0.0065 -0.5980
 6305SOL    HW130374   2.244   4.367  10.094  1.8675 -0.6932  0.8271
 6305SOL    HW230375   2.158   4.457  10.179  0.4520  0.2903 -1.0485
 6306SOL     OW30376   3.876   0.563  14.517 -0.2165  0.0690 -0.3799
 6306SOL    HW130377   3.969   0.545  14.503 -0.1402 -0.2512  0.5454
 6306SOL    HW230378   3.874   0.627  14.588  0.9700  1.0610 -1.2296
 6307SOL     OW30379   3.764   2.526   2.727  0.3494  0.5975  0.1608
 6307SOL    HW130380   3.790   2.596   2.786 -2.3294  1.0995  0.7776
 6307SOL    HW230381   3.847   2.496   2.690  0.2345  0.6452 -0.1402
 6308SOL     OW30382   0.006   2.939  10.833  0.1698 -0.3594 -0.6842
 6308SOL    HW130383   0.019   2.846  10.851 -0.3684 -0.3256 -0.1183
 6308SOL    HW230384   4.698   2.976  10.915 -0.6952 -1.7031 -0.4105
 6309SOL     OW30385   0.493   2.672   4.286  0.0009  0.5202 -0.0810
 6309SOL    HW130386   0.421   2.703   4.231 -1.3735  0.3824  1.6446
 6309SOL    HW230387   0.443   2.639   4.361 -0.0625  0.8238  0.0080
 6310SOL     OW30388   3.525   0.192   1.829  0.0997  0.4995  0.1817
 6310SOL    HW130389   3.488   0.128   1.888 -2.3124  0.4378 -1.3949
 6310SOL    HW230390   3.462   0.199   1.757  2.3477 -0.4083 -1.8944
 6311SOL     OW30391   1.989   1.647   5.766  0.8117  0.7438  0.2291
 6311SOL    HW130392   2.050   1.582   5.732  0.6863  0.6943  0.0975
 6311SOL    HW230393   2.033   1.730   5.748  1.8013  0.1661  0.0054
 6312SOL     OW30394   2.601   1.556   4.252  0.0449 -0.0190 -0.1584
 6312SOL    HW130395   2.566   1.644   4.239 -0.7244 -0.1979  0.6696
 6312SOL    HW230396   2.663   1.546   4.180 -1.4806  0.0235 -1.4761
 6313SOL     OW30397   2.779   1.887   1.094  0.2152 -0.6988  0.3397
 6313SOL    HW130398   2.691   1.865   1.124  0.3675  1.5470  2.4825
 6313SOL    HW230399   2.796   1.807   1.044  1.5295 -0.7156  0.8003
 6314SOL     OW30400   4.513   0.650   7.759  0.0660  0.0942  0.4177
 6314SOL    HW130401   4.451   0.596   7.709  3.2114 -1.7077 -1.5933
 6314SOL    HW230402   4.576   0.581   7.782  1.3269  1.2474  0.4084
 6315SOL     OW30403   0.314   0.422   3.655 -0.7021  0.4437 -0.1284
 6315SOL    HW130404   0.409   0.425   3.640 -0.7034 -1.0420 -0.4450
 6315SOL    HW230405   0.284   0.390   3.570 -0.6834  0.0880 -0.0012
 6316SOL     OW30406   2.003   1.101   7.146 -0.2113  0.2630  0.0681
 6316SOL    HW130407   2.092   1.099   7.111 -0.5552 -0.5151 -0.7646
 6316SOL    HW230408   1.992   1.194   7.165 -0.9746  0.2631 -0.3897
 6317SOL     OW30409   1.390   2.200   3.260  0.3229 -0.3037  0.0596
 6317SOL    HW130410   1.324   2.266   3.239 -1.8988 -2.6769 -0.4151
 6317SOL    HW230411   1.353   2.138   3.324 -1.5304 -2.2420 -2.8758
 6318SOL     OW30412   2.281   3.922  13.298  0.2984  0.3224 -0.4038
 6318SOL    HW130413   2.253   3.918  13.207 -0.4438 -1.4649 -0.1008
 6318SOL    HW230414   2.352   3.985  13.292  0.1855  0.2404 -2.5367
 6319SOL     OW30415   0.282   0.511   4.699  0.3713 -0.1697 -0.7595
 6319SOL    HW130416   0.366   0.473   4.723  1.0718  0.5726 -2.0458
 6319SOL    HW230417   0.302   0.603   4.720  0.2067 -0.6015  1.3671
 6320SOL     OW30418   3.439   1.384  15.119 -0.3598  0.0868 -0.4980
 6320SOL    HW130419   3.472   1.393  15.208 -0.7332 -1.5859 -0.1956
 6320SOL    HW230420   3.359   1.437  15.122 -0.4211 -0.0872  1.0194
 6321SOL     OW30421   0.626   3.745  16.900  0.6570 -0.2787 -0.9487
 6321SOL    HW130422   0.652   3.654  16.887  0.5829 -0.3690 -0.4647
 6321SOL    HW230423   0.548   3.748  16.845 -0.7070  0.1522  1.0037
 6322SOL     OW30424   3.451   0.886  14.528  0.3963 -0.0215  0.6144
 6322SOL    HW130425   3.380   0.949  14.518  1.4149  1.3657  2.1737
 6322SOL    HW230426   3.420   0.815  14.471  0.1025  1.6773 -1.3562
 6323SOL     OW30427   2.871   4.039   1.986  0.1342 -0.1564  0.1751
 6323SOL    HW130428   2.881   4.124   2.028  1.2330 -0.9178  1.4507
 6323SOL    HW230429   2.884   4.057   1.893 -2.1970 -1.1330 -0.3359
 6324SOL     OW30430   3.936   2.588  13.308  0.2603  0.2131 -0.4676
 6324SOL    HW130431   3.911   2.502  13.274 -0.0972  0.2078 -0.1926
 6324SOL    HW230432   3.853   2.631  13.286 -0.5319 -0.2918  1.4904
 6325SOL     OW30433   3.726   1.512   6.673  0.7844  0.0362  0.0161
 6325SOL    HW130434   3.703   1.482   6.761 -0.5838 -1.8432 -0.9740
 6325SOL    HW230435   3.821   1.500   6.682  0.8403  1.0128  0.7649
 6326SOL     OW30436   1.683   0.372   1.841 -0.3002  0.2697 -0.2066
 6326SOL    HW130437   1.590   0.356   1.852 -0.2112 -0.3823 -0.3499
 6326SOL    HW230438   1.715   0.288   1.875  0.3719  0.6114  0.0162
 6327SOL     OW30439   0.272   3.932   4.155  0.4985  0.1737  0.7555
 6327SOL    HW130440   0.239   3.938   4.245 -0.5468 -0.3300  0.4069
 6327SOL    HW230441   0.348   3.874   4.163  0.4878 -0.2984 -2.4629
 6328SOL     OW30442   0.647   0.652   0.062 -0.3265 -0.0595  0.3905
 6328SOL    HW130443   0.742   0.648   0.074 -0.1968 -0.3218 -0.6964
 6328SOL    HW230444   0.630   0.585   0.128 -1.6291 -1.1243 -1.0504
 6329SOL     OW30445   0.044   3.384   7.007 -0.0953  0.3952  0.0423
 6329SOL    HW130446   0.115   3.353   7.063 -2.0606 -0.5220  2.0273
 6329SOL    HW230447   0.039   3.479   7.020  0.1905  0.6737 -1.8745
 6330SOL     OW30448   2.873   3.789   2.725  0.2768 -0.0166 -0.1137
 6330SOL    HW130449   2.920   3.761   2.646  1.8700  2.6958 -0.1275
 6330SOL    HW230450   2.896   3.882   2.727 -0.0499  0.0537  0.2424
 6331SOL     OW30451   1.139   2.782   0.265  0.2902  0.0067  0.7212
 6331SOL    HW130452   1.128   2.699   0.311 -2.8804  0.7432  1.3243
 6331SOL    HW230453   1.078   2.775   0.191  1.9471  1.7560 -0.8136
 6332SOL     OW30454   0.978   1.910   0.792  0.0070  0.1368  0.6240
 6332SOL    HW130455   0.916   1.982   0.783  0.0216 -0.0774 -1.1478
 6332SOL    HW230456   1.045   1.952   0.847  0.3821  0.0522  0.2350
 6333SOL     OW30457   3.840   1.589  13.662  0.9921 -0.0634 -0.3972
 6333SOL    HW130458   3.845   1.673  13.709 -2.6274 -0.3881  0.6341
 6333SOL    HW230459   3.932   1.563  13.664  1.3560  1.3755  1.8211
 6334SOL     OW30460   1.682   3.301   4.361  0.1048 -0.1610 -0.1921
 6334SOL    HW130461   1.648   3.260   4.282  0.0300  0.2899 -0.3928
 6334SOL    HW230462   1.755   3.352   4.325  0.6466 -0.5198  0.3743
 6335SOL     OW30463   1.544   0.322  12.666 -0.0828  0.5543  0.0449
 6335SOL    HW130464   1.463   0.285  12.700 -0.2567 -0.3002 -1.2714
 6335SOL    HW230465   1.535   0.321  12.570 -0.4305  1.8264  0.0655
 6336SOL     OW30466   1.557   1.630   1.956 -0.8221 -0.4876  0.5834
 6336SOL    HW130467   1.652   1.638   1.959 -0.8145  0.3207 -1.9054
 6336SOL    HW230468   1.540   1.570   1.883 -1.5045 -0.0781  0.4143
 6337SOL     OW30469   3.495   0.069  11.498  0.5186  0.1487 -0.4065
 6337SOL    HW130470   3.517   0.029  11.582  0.8077 -0.3469 -0.7200
 6337SOL    HW230471   3.559   0.024  11.443 -0.5005 -0.5655 -1.0193
 6338SOL     OW30472   0.014   2.142   5.789  0.2347  0.2668  0.3487
 6338SOL    HW130473   4.720   2.229   5.753 -1.5242  0.7794  2.3830
 6338SOL    HW230474   4.706   2.160   5.878 -1.2503  1.7184 -0.4649
 6339SOL     OW30475   0.213   3.988   7.369 -0.5027 -0.9156  0.4383
 6339SOL    HW130476   0.221   4.072   7.413 -1.5429  0.4469 -1.9946
 6339SOL    HW230477   0.123   3.962   7.389  0.3429 -4.1256  0.1042
 6340SOL     OW30478   0.682   2.790  16.395 -0.7055  0.1154  0.3465
 6340SOL    HW130479   0.658   2.769  16.304  1.1807  2.4912 -0.7018
 6340SOL    HW230480   0.764   2.741  16.397 -0.5875  0.3246  0.5705
 6341SOL     OW30481   2.667   4.244   8.856  0.5547 -0.0372  0.5287
 6341SOL    HW130482   2.612   4.322   8.860  1.4807  0.7046 -1.8631
 6341SOL    HW230483   2.756   4.276   8.873  0.6987  0.7428 -1.7491
 6342SOL     OW30484   3.012   0.629  11.470  0.4560 -0.3408  0.0801
 6342SOL    HW130485   2.986   0.627  11.562  1.0161 -0.8382  0.2301
 6342SOL    HW230486   3.107   0.641  11.472  0.7405 -2.3124 -1.8980
 6343SOL     OW30487   4.523   3.947   6.135  0.3095  0.4323 -0.4196
 6343SOL    HW130488   4.448   3.898   6.169  0.1943  2.3612  2.1539
 6343SOL    HW230489   4.589   3.946   6.205 -1.1171 -0.3448  0.9261
 6344SOL     OW30490   3.185   2.913   6.408 -0.7684  0.1692  0.9923
 6344SOL    HW130491   3.172   2.844   6.343 -1.7627  2.9180 -1.6632
 6344SOL    HW230492   3.132   2.980   6.366 -0.6161 -0.0595  0.4284
 6345SOL     OW30493   0.496   0.758   2.848  0.0417 -0.2572 -0.1813
 6345SOL    HW130494   0.581   0.742   2.889  0.9884 -1.7437 -2.7083
 6345SOL    HW230495   0.446   0.749   2.929  1.0598  3.0801  0.8110
 6346SOL     OW30496   2.857   1.332   8.954 -0.0692 -0.2336  0.4927
 6346SOL    HW130497   2.787   1.289   9.004 -0.8848  1.5333  0.8617
 6346SOL    HW230498   2.857   1.423   8.982 -1.0607 -0.6722  1.9115
 6347SOL     OW30499   1.492   3.095   4.508  0.1380 -0.3129  0.3199
 6347SOL    HW130500   1.513   3.006   4.535  1.6645  0.2235  0.9350
 6347SOL    HW230501   1.544   3.107   4.429  1.8268  2.5123  1.8341
 6348SOL     OW30502   3.481   3.834   5.796  0.0326 -0.1972  0.2522
 6348SOL    HW130503   3.402   3.805   5.750 -0.7864  2.8721 -0.2874
 6348SOL    HW230504   3.475   3.926   5.771 -0.6111 -0.9592 -2.3726
 6349SOL     OW30505   4.520   4.467   6.635  0.4293  0.0838  0.3949
 6349SOL    HW130506   4.459   4.394   6.625 -0.9658  1.2090  0.5798
 6349SOL    HW230507   4.560   4.464   6.548 -1.1421  1.3308 -0.3821
 6350SOL     OW30508   2.072   4.601   6.117  0.0886 -0.3008 -0.6187
 6350SOL    HW130509   2.033   4.530   6.066  0.2035 -1.7299  1.2963
 6350SOL    HW230510   2.006   4.612   6.185  0.0176 -1.9349 -0.4143
 6351SOL     OW30511   0.683   4.461  16.517 -0.3303  0.0415  0.9616
 6351SOL    HW130512   0.677   4.376  16.473  1.5244  0.0685  0.6560
 6351SOL    HW230513   0.594   4.494  16.527 -0.4114 -0.0210  0.4665
 6352SOL     OW30514   3.703   1.054  17.406  0.3103  0.4118 -0.3142
 6352SOL    HW130515   3.771   1.010  17.355  1.4752  1.2381  0.5250
 6352SOL    HW230516   3.761   1.112  17.456  0.7339  0.5603 -0.9796
 6353SOL     OW30517   0.558   0.665   1.141  0.0425  0.4245 -0.8946
 6353SOL    HW130518   0.483   0.723   1.153 -0.5687 -0.6892  0.6839
 6353SOL    HW230519   0.564   0.666   1.046 -2.6412  2.5852 -1.0570
 6354SOL     OW30520   4.071   1.036   5.294  0.2044  0.1356  0.5340
 6354SOL    HW130521   4.149   0.991   5.326  1.2751  1.9617  0.5249
 6354SOL    HW230522   4.034   0.966   5.240  2.5491 -0.8254  0.1833
 6355SOL     OW30523   2.489   2.592  10.791  0.2478 -0.4243  0.3388
 6355SOL    HW130524   2.577   2.559  10.809 -0.0263 -0.8625  0.8606
 6355SOL    HW230525   2.458   2.533  10.722  1.3565  0.5405 -0.9822
 6356SOL     OW30526   3.057   3.810   3.186 -0.2720  0.0827 -0.2075
 6356SOL    HW130527   3.009   3.857   3.117 -1.9715 -1.8707 -0.3743
 6356SOL    HW230528   3.052   3.722   3.147  0.4019 -0.1916  0.3442
 6357SOL     OW30529   0.348   4.501   3.092 -0.5845 -0.4324 -0.2347
 6357SOL    HW130530   0.320   4.516   3.002 -0.6066 -0.2992 -0.2054
 6357SOL    HW230531   0.431   4.461   3.067  0.6241  0.5037  2.2522
 6358SOL     OW30532   3.529   1.496  12.942 -0.1916 -0.4334 -0.5961
 6358SOL    HW130533   3.460   1.559  12.962 -0.0400 -0.6419  0.5931
 6358SOL    HW230534   3.600   1.548  12.980 -0.3366 -0.5004 -0.2236
 6359SOL     OW30535   4.685   3.391   6.746  0.6045  0.3127  0.1831
 6359SOL    HW130536   4.657   3.482   6.745 -1.5667 -0.3499  0.3972
 6359SOL    HW230537   0.017   3.395   6.825 -1.7024 -0.2936  1.8289
 6360SOL     OW30538   3.378   4.278  11.884 -0.3835 -0.5656 -0.0832
 6360SOL    HW130539   3.349   4.255  11.973  1.5695 -2.8177 -0.0303
 6360SOL    HW230540   3.337   4.200  11.847  0.7858 -0.0381 -2.4737
 6361SOL     OW30541   2.431   4.701  16.289  0.4770  0.3347  0.3080
 6361SOL    HW130542   2.449   4.607  16.278  1.7033  0.3634  1.8900
 6361SOL    HW230543   2.517   0.012  16.263  0.6237  0.5229  1.0305
 6362SOL     OW30544   4.143   2.707  15.201 -0.1314 -0.1422 -0.5808
 6362SOL    HW130545   4.074   2.727  15.138 -1.8160  0.3674  1.4088
 6362SOL    HW230546   4.209   2.773  15.178 -0.6556  0.0799 -1.4216
 6363SOL     OW30547   3.010   2.800   3.086 -0.2562  0.4724 -0.5355
 6363SOL    HW130548   2.917   2.819   3.097 -0.1834  0.4271  0.2041
 6363SOL    HW230549   3.039   2.828   2.999  1.4681  1.4582  0.3511
 6364SOL     OW30550   2.926   1.516   0.637 -0.7264 -0.0676  0.0063
 6364SOL    HW130551   2.901   1.428   0.667  0.9434  0.6605  3.4854
 6364SOL    HW230552   3.017   1.500   0.614 -1.1821  0.4212 -2.1380
 6365SOL     OW30553   0.313   1.981   1.493 -0.4576  0.1277  0.1293
 6365SOL    HW130554   0.257   1.926   1.438  0.5110 -2.1047  1.3973
 6365SOL    HW230555   0.400   1.946   1.473 -0.3848  0.2525  0.2280
 6366SOL     OW30556   3.195   1.459   5.047  0.0583  0.4044 -0.0238
 6366SOL    HW130557   3.151   1.513   4.982 -1.9629 -0.5528  0.5408
 6366SOL    HW230558   3.134   1.460   5.121 -1.3825  0.7076 -1.2058
 6367SOL     OW30559   4.135   0.861   2.237 -0.0898 -0.3341 -0.0544
 6367SOL    HW130560   4.087   0.910   2.303 -3.8472 -1.6445 -1.8441
 6367SOL    HW230561   4.217   0.910   2.227  2.0225 -3.5269  1.6846
 6368SOL     OW30562   1.315   2.862   0.998  0.2978  0.3105 -0.1624
 6368SOL    HW130563   1.256   2.931   1.028 -1.3570 -1.2628  0.1772
 6368SOL    HW230564   1.385   2.908   0.952  0.1296 -0.4328 -1.1712
 6369SOL     OW30565   3.686   4.043   3.526  0.1142 -0.2559 -0.2353
 6369SOL    HW130566   3.775   4.074   3.512  0.2812 -0.5104  0.2686
 6369SOL    HW230567   3.697   3.951   3.550  0.6027 -0.0826  0.2105
 6370SOL     OW30568   0.620   3.941  11.244 -0.4085  0.0873  0.8006
 6370SOL    HW130569   0.601   3.867  11.302  0.5069  0.3339  1.4204
 6370SOL    HW230570   0.707   3.915  11.214  1.1156  3.1915  2.5076
 6371SOL     OW30571   2.052   4.287   8.886 -0.3605 -0.0498 -0.2512
 6371SOL    HW130572   2.145   4.268   8.895 -0.3198  0.0408 -0.4693
 6371SOL    HW230573   2.046   4.378   8.913 -0.7774  0.6479 -2.6313
 6372SOL     OW30574   3.558   3.148   7.594  0.2414 -0.4549  0.5469
 6372SOL    HW130575   3.571   3.166   7.687  0.3281  0.9008  0.2732
 6372SOL    HW230576   3.466   3.170   7.582  0.6686  0.9993 -0.0520
 6373SOL     OW30577   4.659   0.343   3.546 -0.1133 -0.0912  0.4540
 6373SOL    HW130578   4.577   0.340   3.594 -1.3540  0.7417 -1.5974
 6373SOL    HW230579   4.654   0.433   3.512 -2.7792 -0.5635 -0.3924
 6374SOL     OW30580   0.344   4.183  12.777 -0.0636 -0.5020  0.4506
 6374SOL    HW130581   0.373   4.165  12.867  0.4315 -2.2873 -0.0692
 6374SOL    HW230582   0.419   4.170  12.719 -0.8318  0.5142 -0.7616
 6375SOL     OW30583   2.599   3.787   7.707  0.6306  0.0373  0.0829
 6375SOL    HW130584   2.579   3.851   7.776 -4.1742  0.9669 -2.1762
 6375SOL    HW230585   2.633   3.716   7.762 -1.6047 -1.2801 -0.2278
 6376SOL     OW30586   3.600   1.817   0.624  0.9310  0.2889  0.9154
 6376SOL    HW130587   3.611   1.759   0.700  1.1060 -0.3241  0.4162
 6376SOL    HW230588   3.564   1.762   0.554  1.9904  0.0983  0.5225
 6377SOL     OW30589   1.333   4.564   2.089  0.0441  0.0778 -0.6851
 6377SOL    HW130590   1.256   4.621   2.087 -0.3975 -0.4606  0.7835
 6377SOL    HW230591   1.350   4.522   2.005  3.2920  1.5938 -0.8118
 6378SOL     OW30592   3.463   4.472   8.545  0.4051  0.0514  0.8062
 6378SOL    HW130593   3.551   4.438   8.561 -0.2142 -0.9961  2.0139
 6378SOL    HW230594   3.432   4.492   8.633  2.2826 -0.3593  1.5446
 6379SOL     OW30595   2.877   1.584   7.123 -0.0358  0.5398 -0.0229
 6379SOL    HW130596   2.905   1.668   7.160 -0.8321  1.2320 -0.9875
 6379SOL    HW230597   2.935   1.534   7.180 -1.3547 -0.4833  0.4276
 6380SOL     OW30598   2.780   0.914  17.153  0.5605  0.1220 -0.0362
 6380SOL    HW130599   2.723   0.866  17.092 -0.9997  0.0482  1.4703
 6380SOL    HW230600   2.852   0.941  17.096 -0.3110  1.1785 -0.6321
 6381SOL     OW30601   2.513   3.173   4.317  0.2415 -0.4305  0.2948
 6381SOL    HW130602   2.553   3.217   4.243 -2.1752 -1.7014 -1.7655
 6381SOL    HW230603   2.568   3.195   4.392  1.1885 -1.2590 -0.1508
 6382SOL     OW30604   4.379   3.409   9.737 -0.1652  0.5593  0.2654
 6382SOL    HW130605   4.375   3.407   9.642  1.1956 -1.9389  0.2547
 6382SOL    HW230606   4.472   3.431   9.745 -0.1230  1.5733 -3.2135
 6383SOL     OW30607   4.481   0.333  15.370  0.4124 -0.0238 -0.6030
 6383SOL    HW130608   4.575   0.347  15.365  0.1289  1.7032 -0.9140
 6383SOL    HW230609   4.482   0.241  15.399  0.4378  0.5599  1.2930
 6384SOL     OW30610   4.278   0.865   5.507  0.2364 -0.0987 -0.6027
 6384SOL    HW130611   4.357   0.835   5.552  1.0538  1.4006 -1.0490
 6384SOL    HW230612   4.316   0.905   5.429 -2.5300  0.4715 -1.6571
 6385SOL     OW30613   1.366   2.826   3.754 -0.4216  0.3558 -0.3500
 6385SOL    HW130614   1.438   2.809   3.814  2.2658  1.4386 -3.2773
 6385SOL    HW230615   1.310   2.750   3.774 -0.5950  1.0443  1.8154
 6386SOL     OW30616   1.207   3.575  14.999 -0.1701 -0.9412 -0.8710
 6386SOL    HW130617   1.220   3.604  15.089 -0.4293  1.0091 -1.4413
 6386SOL    HW230618   1.206   3.662  14.958  1.5486 -0.8174 -0.6346
 6387SOL     OW30619   1.721   4.720   8.211 -0.0072  0.5813  0.1384
 6387SOL    HW130620   1.662   4.676   8.272  1.1436 -1.7160 -0.4308
 6387SOL    HW230621   1.685   0.085   8.217 -1.9215 -0.3423  2.2309
 6388SOL     OW30622   3.696   2.571   2.195 -1.4319 -0.5980  0.6631
 6388SOL    HW130623   3.645   2.581   2.275 -1.5717  2.8418  0.1398
 6388SOL    HW230624   3.759   2.642   2.204 -2.0014  0.0653 -0.5749
 6389SOL     OW30625   2.432   1.660  12.501 -0.2053 -0.2683  0.1986
 6389SOL    HW130626   2.358   1.599  12.505 -1.5552  1.3290 -0.0756
 6389SOL    HW230627   2.428   1.682  12.408  0.9274 -2.3284 -0.3367
 6390SOL     OW30628   1.629   0.391   0.264 -0.0770 -0.0466  0.9278
 6390SOL    HW130629   1.624   0.342   0.346  0.1485  1.1236  1.6242
 6390SOL    HW230630   1.538   0.415   0.247 -0.3889 -1.8941 -0.0557
 6391SOL     OW30631   4.687   1.706  13.853  0.5280  0.2232 -0.0954
 6391SOL    HW130632   4.708   1.798  13.863  2.7025 -0.3516  0.6901
 6391SOL    HW230633   4.654   1.707  13.764  0.8130 -1.0350 -0.2216
 6392SOL     OW30634   2.699   3.908   5.192 -0.3026 -0.2434 -0.0243
 6392SOL    HW130635   2.632   3.943   5.133  0.8695 -0.2318 -1.3305
 6392SOL    HW230636   2.673   3.941   5.278 -0.0476  1.9047 -0.7957
 6393SOL     OW30637   3.684   2.402  16.678  0.0009 -0.4019  0.3391
 6393SOL    HW130638   3.643   2.365  16.757 -0.4146 -0.5215  0.0661
 6393SOL    HW230639   3.769   2.416  16.721 -0.6250  0.0753  1.4010
 6394SOL     OW30640   4.469   4.250   1.404  0.1786  0.4455  0.6371
 6394SOL    HW130641   4.417   4.264   1.324 -1.2821 -0.5866  1.4047
 6394SOL    HW230642   4.400   4.196   1.443  0.3598 -1.3748 -1.5722
 6395SOL     OW30643   3.202   1.856  10.373 -0.7845  0.2415 -0.3427
 6395SOL    HW130644   3.236   1.790  10.313  3.4238 -0.5301  2.8584
 6395SOL    HW230645   3.262   1.849  10.448 -0.5624 -1.0909 -0.6402
 6396SOL     OW30646   0.369   4.719   3.814 -0.5328  0.2740 -0.1840
 6396SOL    HW130647   0.358   0.079   3.859  1.7615  0.5719 -0.2055
 6396SOL    HW230648   0.362   0.032   3.725  1.0650  1.5750  0.2227
 6397SOL     OW30649   1.705   3.904  15.370 -0.1843 -0.1816 -0.1560
 6397SOL    HW130650   1.769   3.932  15.305 -0.1545 -1.3251 -0.6194
 6397SOL    HW230651   1.749   3.883  15.452  0.4579 -0.5098 -0.5888
 6398SOL     OW30652   3.060   0.840   5.726 -0.2804 -0.1673  0.4005
 6398SOL    HW130653   3.129   0.774   5.728 -0.7707 -0.7668 -2.2776
 6398SOL    HW230654   3.097   0.900   5.662  1.3187 -1.2313  0.3231
 6399SOL     OW30655   0.707   0.210  10.770  0.4789 -0.0290  0.3032
 6399SOL    HW130656   0.692   0.161  10.850  0.0618 -1.1860 -0.4788
 6399SOL    HW230657   0.718   0.128  10.721 -0.4407  0.0133  0.0298
 6400SOL     OW30658   1.186   1.137   6.754 -0.0702 -1.4434 -0.7215
 6400SOL    HW130659   1.161   1.228   6.740 -2.7236 -2.2877 -1.4992
 6400SOL    HW230660   1.123   1.096   6.813 -0.3066 -1.8557 -1.2546
 6401SOL     OW30661   0.187   2.902   1.775  0.4626 -0.0234  0.3252
 6401SOL    HW130662   0.272   2.946   1.775  1.3641 -1.7488  2.1302
 6401SOL    HW230663   0.137   2.983   1.788  0.0602 -0.0900 -0.8229
 6402SOL     OW30664   2.329   0.759  10.570 -0.1114  0.2185 -0.3065
 6402SOL    HW130665   2.236   0.754  10.591 -0.4751  2.2310 -1.4048
 6402SOL    HW230666   2.357   0.841  10.610 -1.7053  0.1142  1.0051
 6403SOL     OW30667   1.086   3.603   7.356  0.1486 -0.1182 -0.2593
 6403SOL    HW130668   1.153   3.672   7.352  0.3244 -0.3044 -0.5524
 6403SOL    HW230669   1.053   3.592   7.267 -0.3098  0.3484 -0.1443
 6404SOL     OW30670   1.780   2.679   0.233  0.3106  0.0080 -0.8856
 6404SOL    HW130671   1.751   2.631   0.311  1.7853  0.8468  0.1683
 6404SOL    HW230672   1.709   2.739   0.209 -0.7271 -1.9235 -2.7399
 6405SOL     OW30673   0.480   2.889   3.297 -0.5789 -0.8415 -0.9566
 6405SOL    HW130674   0.481   2.964   3.239  3.9462  0.6955  1.1001
 6405SOL    HW230675   0.555   2.832   3.281  1.1307  1.3752 -0.7303
 6406SOL     OW30676   2.451   2.579   7.813 -0.0977  0.2521 -0.0909
 6406SOL    HW130677   2.396   2.610   7.884 -0.0828 -2.7178  1.2209
 6406SOL    HW230678   2.493   2.663   7.793  1.1800  0.0466  1.7906
 6407SOL     OW30679   4.640   0.659   2.344 -0.2258 -0.4819  0.3598
 6407SOL    HW130680   4.597   0.666   2.259  2.1741  0.3893 -0.7729
 6407SOL    HW230681   0.006   0.641   2.313  0.1627 -1.5030  2.0751
 6408SOL     OW30682   1.665   2.308   0.085 -0.2117 -1.0097  0.5617
 6408SOL    HW130683   1.575   2.277   0.072  0.1453 -1.4665 -0.7792
 6408SOL    HW230684   1.657   2.399   0.113  0.3541 -0.6598 -0.4335
 6409SOL     OW30685   2.027   0.695  17.396  0.1610  0.2257  0.1564
 6409SOL    HW130686   2.090   0.623  17.397  1.6771  1.5141 -1.7865
 6409SOL    HW230687   2.063   0.759  17.334  0.5814 -0.6614 -0.5174
 6410SOL     OW30688   1.886   3.318   7.933  0.1200  0.3168  0.0436
 6410SOL    HW130689   1.831   3.306   8.010  2.6900  0.4108  1.8784
 6410SOL    HW230690   1.969   3.341   7.975  0.3943  2.2687 -1.5094
 6411SOL     OW30691   4.611   4.164   7.133  0.1889  0.0569 -0.3492
 6411SOL    HW130692   4.569   4.249   7.121  1.2472  0.8425  1.6382
 6411SOL    HW230693   4.564   4.107   7.073 -1.9625 -0.2126  1.6219
 6412SOL     OW30694   2.084   3.299   2.341  0.1465 -0.4767  0.1080
 6412SOL    HW130695   2.069   3.394   2.340  0.3467 -0.4379  0.8041
 6412SOL    HW230696   2.028   3.265   2.271  0.2529 -0.5271  0.0471
 6413SOL     OW30697   1.372   3.574   7.410 -0.8377 -0.0162 -0.8758
 6413SOL    HW130698   1.415   3.626   7.478  0.0879  2.5354 -3.4194
 6413SOL    HW230699   1.295   3.533   7.449  0.1908  0.4630  1.6363
 6414SOL     OW30700   4.129   3.778   2.862 -0.2541 -0.0909  0.0444
 6414SOL    HW130701   4.049   3.825   2.884  0.5306  2.1370 -1.8725
 6414SOL    HW230702   4.159   3.818   2.780 -0.5810 -0.2338 -0.1461
 6415SOL     OW30703   0.297   2.367   5.533 -0.9321 -0.3692 -0.1922
 6415SOL    HW130704   0.227   2.395   5.474 -0.3278  2.2667  0.3564
 6415SOL    HW230705   0.370   2.412   5.490 -0.5021 -2.6313 -1.8396
 6416SOL     OW30706   3.561   1.819  11.053  0.1210 -0.1419 -0.1710
 6416SOL    HW130707   3.473   1.853  11.072 -0.9490 -3.2180  0.2938
 6416SOL    HW230708   3.621   1.893  11.066 -1.3914  1.2282 -0.9650
 6417SOL     OW30709   2.233   2.537   7.549  0.1139  0.3572 -0.2057
 6417SOL    HW130710   2.258   2.607   7.609 -1.3360  0.9174 -0.2614
 6417SOL    HW230711   2.314   2.512   7.505 -0.3831 -1.4477 -0.1065
 6418SOL     OW30712   1.685   2.634   9.858  0.0492 -0.6762  0.0316
 6418SOL    HW130713   1.730   2.676   9.931 -2.9319  1.3849  0.7028
 6418SOL    HW230714   1.751   2.566   9.843  1.0957  0.5264 -0.8109
 6419SOL     OW30715   3.830   2.101   3.441  0.0640  0.0330  0.5724
 6419SOL    HW130716   3.818   2.179   3.387 -0.7517 -0.8882 -0.5765
 6419SOL    HW230717   3.826   2.036   3.370 -0.4276 -0.5835  1.1580
 6420SOL     OW30718   1.517   2.106  17.499 -0.8686 -0.0711  0.3687
 6420SOL    HW130719   1.429   2.122  17.466 -1.2477  0.8249  1.8094
 6420SOL    HW230720   1.510   2.081  17.592 -0.2747  0.6716  0.6151
 6421SOL     OW30721   0.313   0.336   8.171 -0.6390  0.6815 -0.0670
 6421SOL    HW130722   0.358   0.334   8.255  0.7207  0.6925 -0.7984
 6421SOL    HW230723   0.389   0.316   8.116 -1.9050 -0.0674 -1.5731
 6422SOL     OW30724   1.888   3.549   6.438 -0.0691 -0.1342 -0.6572
 6422SOL    HW130725   1.938   3.611   6.384 -0.9403  1.7861  0.7544
 6422SOL    HW230726   1.855   3.495   6.366  1.1361  0.9326 -2.0124
 6423SOL     OW30727   1.066   0.187  10.850 -1.1789  1.1999  0.0077
 6423SOL    HW130728   1.146   0.237  10.869 -0.8840  0.6515  0.2206
 6423SOL    HW230729   1.053   0.200  10.756  0.3896 -1.0183 -0.4970
 6424SOL     OW30730   2.383   0.531  10.420  0.0026  0.0103  0.6009
 6424SOL    HW130731   2.348   0.522  10.332 -1.7149  0.2099  1.2686
 6424SOL    HW230732   2.353   0.618  10.447  1.5743  1.8456 -3.4482
 6425SOL     OW30733   2.278   1.223   1.530 -0.5947  0.3200 -0.3840
 6425SOL    HW130734   2.319   1.262   1.607  1.1052  1.0996 -1.7018
 6425SOL    HW230735   2.349   1.234   1.468  1.3988  1.2988  2.0929
 6426SOL     OW30736   2.860   2.430   8.727 -0.1214 -0.0038 -0.0622
 6426SOL    HW130737   2.820   2.358   8.678  1.1104  0.9674 -2.5005
 6426SOL    HW230738   2.930   2.455   8.667 -0.6023  0.7079 -0.3296
 6427SOL     OW30739   3.156   2.782  15.406 -0.1327  0.2526  0.5811
 6427SOL    HW130740   3.128   2.694  15.383  2.7208 -0.5634  0.1986
 6427SOL    HW230741   3.230   2.798  15.346  1.5718  1.9886  3.1690
 6428SOL     OW30742   3.649   3.657  13.681  0.2085  0.0419  0.1819
 6428SOL    HW130743   3.594   3.655  13.759  1.7056  3.4761  1.3148
 6428SOL    HW230744   3.617   3.572  13.649  0.8701  0.0630 -0.5258
 6429SOL     OW30745   1.908   4.297   5.385 -0.0038 -0.2537 -0.2145
 6429SOL    HW130746   1.841   4.351   5.426 -0.7515 -2.5663  1.6248
 6429SOL    HW230747   1.982   4.358   5.382 -1.5550  1.6329 -0.3074
 6430SOL     OW30748   1.407   3.909   3.162 -0.2574 -0.3433 -0.3430
 6430SOL    HW130749   1.366   3.833   3.203 -0.2521  0.5479  1.2833
 6430SOL    HW230750   1.333   3.968   3.152 -2.3736 -2.6784  1.6502
 6431SOL     OW30751   4.682   3.237   8.027  0.1933 -0.4814  0.1028
 6431SOL    HW130752   4.633   3.302   8.078 -1.8670 -1.5078 -0.5903
 6431SOL    HW230753   4.668   3.157   8.077  2.2373 -0.4643  0.6966
 6432SOL     OW30754   3.160   1.138   2.270 -0.5764 -0.6465 -0.9266
 6432SOL    HW130755   3.180   1.118   2.362 -0.2304 -1.8098 -1.2436
 6432SOL    HW230756   3.140   1.054   2.228 -0.1752 -1.4414  0.4331
 6433SOL     OW30757   3.749   0.372   1.313 -0.0692  0.5977 -0.0238
 6433SOL    HW130758   3.820   0.432   1.293 -0.3827  1.4219  1.3440
 6433SOL    HW230759   3.796   0.301   1.359 -0.3014  0.9137  0.7038
 6434SOL     OW30760   1.330   4.201   7.163  0.1768  0.4404 -0.0729
 6434SOL    HW130761   1.326   4.210   7.068 -1.5578 -1.5648 -0.1917
 6434SOL    HW230762   1.322   4.106   7.163  2.6124  0.2458 -1.3147
 6435SOL     OW30763   1.909   1.419   1.650  0.2592  0.3480  0.2091
 6435SOL    HW130764   1.869   1.494   1.693  1.9819  0.6470  1.2783
 6435SOL    HW230765   1.995   1.410   1.691 -0.2671 -3.5017  0.4562
 6436SOL     OW30766   0.559   3.222   2.138 -0.1647  0.0313 -0.1105
 6436SOL    HW130767   0.616   3.289   2.100 -1.4787  0.1146 -1.9628
 6436SOL    HW230768   0.619   3.153   2.166 -1.1661 -0.2144  1.4299
 6437SOL     OW30769   3.219   0.375   2.320  0.5291  0.1469 -0.4039
 6437SOL    HW130770   3.225   0.425   2.239  2.0271  0.1688 -0.2797
 6437SOL    HW230771   3.284   0.428   2.367 -0.3876  2.8689 -2.1705
 6438SOL     OW30772   0.347   2.864  15.390  0.2298 -0.0828 -0.5077
 6438SOL    HW130773   0.420   2.815  15.426  1.3235  1.7801 -0.1850
 6438SOL    HW230774   0.358   2.850  15.296  1.6334  0.1338 -0.3701
 6439SOL     OW30775   0.449   0.207   7.690 -0.5730  0.1991  0.0148
 6439SOL    HW130776   0.391   0.255   7.750  0.7722  1.1281  0.5704
 6439SOL    HW230777   0.444   0.116   7.719  0.5309 -0.0537 -0.6086
 6440SOL     OW30778   3.848   0.592   1.750  0.1855  0.2122 -0.3393
 6440SOL    HW130779   3.872   0.643   1.827 -3.6861  0.9214  0.3810
 6440SOL    HW230780   3.914   0.523   1.758 -0.7441 -0.5855  0.3692
 6441SOL     OW30781   0.271   1.937   0.463  0.1398  0.0645  0.3413
 6441SOL    HW130782   0.351   1.906   0.422 -0.0655  1.5270 -1.1831
 6441SOL    HW230783   0.198   1.909   0.408  0.3770 -0.4200  0.2727
 6442SOL     OW30784   4.008   4.619  14.799 -0.0597  0.4987 -0.1499
 6442SOL    HW130785   3.977   4.705  14.826  0.4716  0.6859 -0.1377
 6442SOL    HW230786   3.937   4.588  14.742 -0.0670  4.1044 -2.1364
 6443SOL     OW30787   0.375   1.539   5.660 -0.0210  0.4177 -0.2744
 6443SOL    HW130788   0.435   1.512   5.590  1.5058  1.6240  0.5547
 6443SOL    HW230789   0.411   1.624   5.684 -1.7864  0.4304  2.3374
 6444SOL     OW30790   2.341   2.474   3.358  0.1185  0.0343  0.1180
 6444SOL    HW130791   2.428   2.453   3.393  2.7344  2.4714 -5.0367
 6444SOL    HW230792   2.333   2.394   3.305 -1.3935  1.2344 -1.4329
 6445SOL     OW30793   1.389   0.690   5.137 -0.4531 -0.5242  0.2488
 6445SOL    HW130794   1.294   0.692   5.126 -0.4201 -0.5331 -0.0351
 6445SOL    HW230795   1.412   0.741   5.059 -0.6028 -1.8305 -0.6514
 6446SOL     OW30796   3.559   4.626   6.554  0.0565  0.7455  0.7097
 6446SOL    HW130797   3.617   4.561   6.514 -1.8934 -0.5206 -0.0406
 6446SOL    HW230798   3.621   4.695   6.576  0.8735  0.3246 -0.2607
 6447SOL     OW30799   1.156   4.403   5.065 -0.7884  0.0706  0.1911
 6447SOL    HW130800   1.065   4.434   5.060 -1.1970 -0.9893  1.2281
 6447SOL    HW230801   1.189   4.481   5.020  1.8488 -0.6068  0.9660
 6448SOL     OW30802   2.449   1.235   1.936 -0.5390  0.3281 -0.2457
 6448SOL    HW130803   2.474   1.273   2.020  1.4593  1.3191 -1.2884
 6448SOL    HW230804   2.528   1.187   1.911 -0.9890 -1.2021  1.3165
 6449SOL     OW30805   0.579   1.681   5.236  0.7463  0.0268 -0.3722
 6449SOL    HW130806   0.516   1.610   5.245 -0.2657  0.6596 -2.6225
 6449SOL    HW230807   0.622   1.667   5.152  0.0255  0.8682 -0.8862
 6450SOL     OW30808   1.909   2.248  17.636  0.1354  0.7630  0.2842
 6450SOL    HW130809   1.842   2.250   0.009  1.3824  3.8662  1.4399
 6450SOL    HW230810   1.909   2.339  17.607 -0.1844  0.5614 -0.3419
 6451SOL     OW30811   3.966   0.724   3.671 -0.4635 -0.5403  0.2050
 6451SOL    HW130812   3.887   0.706   3.621 -0.3242  0.4335 -0.3791
 6451SOL    HW230813   3.957   0.664   3.744 -0.9012  1.7011  1.9954
 6452SOL     OW30814   0.275   3.258   5.666  0.1094  0.2595 -0.1186
 6452SOL    HW130815   0.227   3.182   5.697 -0.5147  1.0627  0.8847
 6452SOL    HW230816   0.308   3.298   5.747  0.1541  2.7725 -1.3610
 6453SOL     OW30817   4.689   3.502  16.844  0.1304  1.1939 -0.0724
 6453SOL    HW130818   4.679   3.518  16.938  1.8863 -1.7914  0.6160
 6453SOL    HW230819   4.606   3.455  16.838  1.0338  0.1084 -3.9625
 6454SOL     OW30820   1.905   3.711   3.888  0.4838  0.0240 -0.1880
 6454SOL    HW130821   1.887   3.689   3.797  0.7305  0.3441 -0.3164
 6454SOL    HW230822   1.982   3.767   3.879  0.4518  0.0153 -0.4997
 6455SOL     OW30823   3.515   0.062   9.127  0.4921  0.1671  0.2658
 6455SOL    HW130824   3.541   0.071   9.219 -0.2329 -0.5540  0.5400
 6455SOL    HW230825   3.497   0.154   9.107 -0.9052 -0.6138 -1.9633
 6456SOL     OW30826   2.863   0.725   6.005 -0.2209  0.1455  0.0757
 6456SOL    HW130827   2.856   0.637   6.042  3.2588 -0.5845 -1.0268
 6456SOL    HW230828   2.858   0.706   5.911 -1.7327 -0.9408  0.3665
 6457SOL     OW30829   1.498   2.684   5.441  0.0882  0.3408 -0.6207
 6457SOL    HW130830   1.497   2.742   5.518  0.1837 -1.4263  0.7090
 6457SOL    HW230831   1.485   2.753   5.376  0.0175  0.8874 -0.0296
 6458SOL     OW30832   1.432   0.276   6.274 -0.2907 -0.1906  0.4316
 6458SOL    HW130833   1.403   0.225   6.350 -1.9924 -0.2379 -0.2495
 6458SOL    HW230834   1.416   0.215   6.202 -2.3088 -2.4207  2.7913
 6459SOL     OW30835   4.715   3.996  11.161 -0.1802 -0.0486  0.2051
 6459SOL    HW130836   0.026   4.083  11.141  0.0575 -0.7778 -2.6579
 6459SOL    HW230837   4.702   3.972  11.069  2.2018 -1.2748  0.1932
 6460SOL     OW30838   4.013   0.834   7.058 -0.3207  0.4087  0.0849
 6460SOL    HW130839   4.100   0.857   7.026 -0.5040  0.0724 -0.6625
 6460SOL    HW230840   4.014   0.739   7.044  0.3311  0.4403 -0.0691
 6461SOL     OW30841   1.030   4.519   2.288  0.2066  0.1218 -0.4479
 6461SOL    HW130842   0.980   4.524   2.370  0.8314 -0.4570 -0.0275
 6461SOL    HW230843   1.007   4.431   2.257 -2.1022  0.3540  0.5712
 6462SOL     OW30844   0.461   1.337   2.955 -0.1810 -0.3894  0.5224
 6462SOL    HW130845   0.531   1.358   3.016  0.3936  1.9517 -0.9385
 6462SOL    HW230846   0.492   1.362   2.868  0.4316 -0.2192  0.7887
 6463SOL     OW30847   1.151   3.846   4.990 -0.0258 -0.2393 -0.1880
 6463SOL    HW130848   1.109   3.932   4.996  2.5619  1.1277 -1.3575
 6463SOL    HW230849   1.143   3.812   5.079 -3.8100  2.2133  0.3762
 6464SOL     OW30850   0.150   2.181   7.843  0.5577 -0.5872 -0.2021
 6464SOL    HW130851   0.237   2.216   7.862 -0.0935  0.9738 -0.0837
 6464SOL    HW230852   0.139   2.188   7.748 -0.0769  1.3492  0.0113
 6465SOL     OW30853   3.512   3.956   8.485 -0.1246  0.1233 -0.8626
 6465SOL    HW130854   3.568   4.028   8.456 -1.2595  0.9698 -0.9869
 6465SOL    HW230855   3.546   3.879   8.440 -0.2667 -0.9288  0.8081
 6466SOL     OW30856   1.008   4.201   3.481 -0.2812  0.5568  0.4111
 6466SOL    HW130857   1.003   4.134   3.550 -0.8187  0.5918  0.4069
 6466SOL    HW230858   1.102   4.216   3.490 -0.2173 -0.8493  2.1623
 6467SOL     OW30859   2.165   1.783  10.471  0.0683  0.0350  0.0338
 6467SOL    HW130860   2.089   1.793  10.414  1.1238  2.0841 -1.0136
 6467SOL    HW230861   2.153   1.847  10.541  1.9741  1.6675 -1.1193
 6468SOL     OW30862   2.272   0.047   4.333 -0.4462 -0.1063 -0.4015
 6468SOL    HW130863   2.248   4.721   4.255 -0.7292  0.6966 -0.8218
 6468SOL    HW230864   2.284   0.139   4.308 -1.2091 -0.1551 -0.9203
 6469SOL     OW30865   0.568   3.760   4.150  0.1214  0.4215 -0.2774
 6469SOL    HW130866   0.628   3.831   4.125  1.8668 -0.5457  1.1638
 6469SOL    HW230867   0.542   3.791   4.237  1.8923  1.8104 -0.2369
 6470SOL     OW30868   0.256   0.309   6.137 -0.3046  0.0692  0.3083
 6470SOL    HW130869   0.295   0.359   6.064  1.4919  2.4133  2.8836
 6470SOL    HW230870   0.210   0.378   6.184 -0.3914 -0.0444  0.3887
 6471SOL     OW30871   0.515   1.117   7.179  0.4092 -0.0621 -0.2460
 6471SOL    HW130872   0.465   1.039   7.204 -1.1405  0.3173 -2.2088
 6471SOL    HW230873   0.531   1.099   7.086 -0.5187  0.3006 -0.4714
 6472SOL     OW30874   2.328   3.688   3.594  0.8164 -0.3865  0.6605
 6472SOL    HW130875   2.262   3.622   3.616 -0.2323 -0.0713 -1.6331
 6472SOL    HW230876   2.272   3.743   3.541  0.0791 -1.4636  0.3165
 6473SOL     OW30877   4.124   0.660   5.558 -0.0649  0.1744 -0.3569
 6473SOL    HW130878   4.119   0.625   5.469  1.7120  1.3816 -0.9342
 6473SOL    HW230879   4.162   0.746   5.538 -0.1146  0.3794  0.4109
 6474SOL     OW30880   3.145   1.955   7.812 -0.2881 -0.1245 -0.3089
 6474SOL    HW130881   3.182   1.931   7.898  0.1607  1.0503 -0.1722
 6474SOL    HW230882   3.224   1.982   7.764 -0.0565  1.7503  1.1591
 6475SOL     OW30883   4.155   4.185  15.486  0.6294 -0.5341  0.0102
 6475SOL    HW130884   4.156   4.089  15.486  2.2376 -0.5254  1.6535
 6475SOL    HW230885   4.143   4.198  15.392  2.0221 -1.7274 -0.3314
 6476SOL     OW30886   3.290   1.531   2.548 -0.3207 -0.0166  0.8606
 6476SOL    HW130887   3.344   1.476   2.492 -0.5968  2.7141 -2.1362
 6476SOL    HW230888   3.232   1.562   2.478  0.0655  0.8922  0.9386
 6477SOL     OW30889   2.447   4.500   4.065 -0.3452 -0.1638 -0.4470
 6477SOL    HW130890   2.466   4.568   4.129  0.1024  0.3043 -1.0891
 6477SOL    HW230891   2.392   4.532   3.993  0.7196 -0.1111 -1.2380
 6478SOL     OW30892   3.443   2.735   0.708 -0.7254  0.1090 -0.1942
 6478SOL    HW130893   3.531   2.712   0.740  0.3293  4.8580  0.2494
 6478SOL    HW230894   3.403   2.648   0.704 -1.3638  0.4609 -1.1812
 6479SOL     OW30895   0.586   3.254  13.804 -0.4096 -0.0544 -0.0564
 6479SOL    HW130896   0.530   3.191  13.758  0.9533  0.1989 -2.0650
 6479SOL    HW230897   0.558   3.334  13.759 -1.9511  0.4572  1.7953
 6480SOL     OW30898   3.957   3.201  10.995  0.6859 -0.4761 -0.0908
 6480SOL    HW130899   3.866   3.181  11.015  0.7933 -1.0166 -0.1464
 6480SOL    HW230900   4.004   3.135  11.046  1.8929 -1.1923 -2.1582
 6481SOL     OW30901   1.295   4.456   3.546 -0.2608  0.2129 -0.0868
 6481SOL    HW130902   1.230   4.485   3.609 -0.3459  1.7275 -0.8550
 6481SOL    HW230903   1.365   4.415   3.596  0.0152  0.9648  0.1501
 6482SOL     OW30904   4.644   4.260   7.723 -0.5263  0.1601 -0.5177
 6482SOL    HW130905   4.699   4.243   7.799  0.2484 -4.3975 -2.1081
 6482SOL    HW230906   4.662   4.354   7.715  1.2788 -0.0380  1.1984
 6483SOL     OW30907   0.480   1.077   6.589  0.0822 -0.3329 -0.5996
 6483SOL    HW130908   0.541   1.134   6.635  0.3753 -0.8691 -0.3243
 6483SOL    HW230909   0.519   0.994   6.617  2.2093  1.1938  0.9424
 6484SOL     OW30910   1.586   2.772   3.960 -0.0684 -0.1252  0.4994
 6484SOL    HW130911   1.640   2.714   4.014 -0.4506 -0.8098  0.1542
 6484SOL    HW230912   1.651   2.798   3.894 -1.0208 -0.6184 -0.6439
 6485SOL     OW30913   0.389   4.472   6.071  0.4032  0.1108 -0.7421
 6485SOL    HW130914   0.422   4.383   6.056  1.7740  1.0470 -3.4426
 6485SOL    HW230915   0.431   4.515   5.996 -0.4594  2.3273  0.0746
 6486SOL     OW30916   1.772   4.308   9.335 -0.1993 -0.3074  0.6660
 6486SOL    HW130917   1.735   4.396   9.330 -1.1688 -0.7065  0.6211
 6486SOL    HW230918   1.816   4.311   9.420  0.0576 -1.5781  0.5783
 6487SOL     OW30919   4.305   4.054   1.517  0.6856  0.2827  0.2367
 6487SOL    HW130920   4.364   3.987   1.551 -0.4051  0.3124  2.2015
 6487SOL    HW230921   4.284   4.094   1.602  1.4416 -2.5344  1.7256
 6488SOL     OW30922   2.331   1.713  10.688  0.1366  0.3214 -0.4692
 6488SOL    HW130923   2.299   1.796  10.724  1.7972  0.4088  0.8276
 6488SOL    HW230924   2.297   1.716  10.599 -0.6874  0.5361 -0.1469
 6489SOL     OW30925   1.854   2.939   5.141  0.4963  0.1360  0.0104
 6489SOL    HW130926   1.875   3.021   5.096 -0.2076  0.2935 -0.0203
 6489SOL    HW230927   1.870   2.970   5.230  2.4990  0.3815 -0.4213
 6490SOL     OW30928   2.531   0.216   4.857 -0.3352  0.1039  0.0643
 6490SOL    HW130929   2.535   0.172   4.772  0.5103 -1.6189  0.9800
 6490SOL    HW230930   2.441   0.200   4.885 -0.0493  0.9989  1.4853
 6491SOL     OW30931   3.628   3.763   0.949  0.1967 -0.4726  0.7144
 6491SOL    HW130932   3.704   3.741   1.003 -0.1645 -1.2781  0.8823
 6491SOL    HW230933   3.664   3.750   0.861 -1.1183 -0.5267  0.1938
 6492SOL     OW30934   0.005   4.653   3.237  0.0052 -0.0402  0.0799
 6492SOL    HW130935   0.019   0.015   3.197 -1.2184  1.2996  2.5111
 6492SOL    HW230936   0.093   4.632   3.269  0.7078  0.2399 -1.6411
 6493SOL     OW30937   0.085   0.900   1.774  0.2955 -0.0812 -0.4720
 6493SOL    HW130938   0.160   0.953   1.801  0.7210  0.1392 -2.1037
 6493SOL    HW230939   0.109   0.813   1.804  0.5187  0.1379 -0.0084
 6494SOL     OW30940   3.193   2.566  11.126  0.4266  0.3526 -0.7292
 6494SOL    HW130941   3.101   2.542  11.135  0.6092  0.1694  0.5343
 6494SOL    HW230942   3.238   2.524  11.199 -0.0735  1.7205  0.3608
 6495SOL     OW30943   3.236   2.152   9.809 -0.0651  0.3864  0.1757
 6495SOL    HW130944   3.281   2.221   9.859 -1.3056  1.7649 -0.6178
 6495SOL    HW230945   3.233   2.083   9.876 -1.2430 -1.2437 -1.5784
 6496SOL     OW30946   4.118   0.756   8.394 -0.1580  0.1725 -0.5124
 6496SOL    HW130947   4.024   0.769   8.405  0.1122  1.8659 -0.1553
 6496SOL    HW230948   4.124   0.735   8.301 -2.8703  1.3020 -0.9540
 6497SOL     OW30949   0.160   4.075   8.795  0.1135  0.3939 -0.0516
 6497SOL    HW130950   0.220   4.103   8.865 -0.4225  1.1759  0.1022
 6497SOL    HW230951   0.179   3.982   8.785  1.9073  0.5065  2.0103
 6498SOL     OW30952   4.066   0.512   0.650  0.0559 -0.2286 -0.2371
 6498SOL    HW130953   4.093   0.601   0.670 -0.8584  0.1114 -0.5152
 6498SOL    HW230954   4.044   0.508   0.557 -0.6121 -0.5297 -0.0634
 6499SOL     OW30955   2.172   3.990   9.983 -0.3478 -0.3170 -0.0044
 6499SOL    HW130956   2.233   4.052   9.944  0.9674 -1.0933  0.7971
 6499SOL    HW230957   2.135   4.041  10.055  0.4140  1.8929 -1.1836
 6500SOL     OW30958   4.462   1.130  14.563  0.1498  0.5302 -0.0081
 6500SOL    HW130959   4.512   1.101  14.639 -2.4899 -0.2071  1.4059
 6500SOL    HW230960   4.535   1.161  14.508 -1.7365 -1.2756 -3.4738
 6501SOL     OW30961   0.444   1.488   4.961 -0.2643 -1.6077  0.2572
 6501SOL    HW130962   0.469   1.452   5.046  0.2510  2.4424  1.7820
 6501SOL    HW230963   0.358   1.525   4.982 -0.2808 -0.6695 -1.5420
 6502SOL     OW30964   3.077   2.339   6.365  0.3393 -0.2412 -0.1537
 6502SOL    HW130965   3.127   2.278   6.311 -0.3961 -1.0990  0.1291
 6502SOL    HW230966   3.075   2.281   6.442 -3.0208  1.4743  1.0193
 6503SOL     OW30967   3.522   4.685   4.521  0.3302 -0.4666 -0.5519
 6503SOL    HW130968   3.523   0.044   4.568 -0.0845 -1.4267  1.1373
 6503SOL    HW230969   3.609   4.682   4.480  0.4579  0.8368 -0.3673
 6504SOL     OW30970   1.633   2.332   3.194  0.7171  0.3257  0.3037
 6504SOL    HW130971   1.611   2.424   3.186  3.6360  0.9574 -0.5667
 6504SOL    HW230972   1.554   2.294   3.231  1.9425 -1.6146  0.9547
 6505SOL     OW30973   1.453   0.361   8.026 -0.0744 -0.3350  0.0757
 6505SOL    HW130974   1.359   0.356   8.043 -0.3893 -0.0828 -1.6081
 6505SOL    HW230975   1.472   0.446   7.988 -1.7842 -1.3914 -3.0722
 6506SOL     OW30976   4.136   0.754   6.659 -0.0681  0.3915  0.3146
 6506SOL    HW130977   4.053   0.786   6.693 -0.5725  0.5768 -1.1056
 6506SOL    HW230978   4.111   0.738   6.568 -0.2472  1.5873  0.1549
 6507SOL     OW30979   4.060   4.488   0.051 -0.2368 -0.1706  0.2321
 6507SOL    HW130980   4.131   4.464  17.688  0.2306 -1.7684  1.4683
 6507SOL    HW230981   4.099   4.478   0.137 -3.2502 -0.8954  1.4972
 6508SOL     OW30982   2.228   3.051  12.304 -0.3690 -0.1082 -0.4674
 6508SOL    HW130983   2.252   3.126  12.359  2.6353 -0.7140 -0.9583
 6508SOL    HW230984   2.187   3.102  12.234  0.1436  3.7774  2.0232
 6509SOL     OW30985   0.202   2.381   8.917 -0.8087 -0.5612  0.1743
 6509SOL    HW130986   0.256   2.315   8.873 -1.1403 -1.2666  0.8145
 6509SOL    HW230987   0.269   2.428   8.966  0.8003 -1.3193 -1.2744
 6510SOL     OW30988   0.936   3.476  14.705  0.2736 -0.2768 -0.1426
 6510SOL    HW130989   0.980   3.418  14.768 -1.0856 -1.4936 -0.3200
 6510SOL    HW230990   0.962   3.560  14.744 -0.0539  0.8820 -2.4221
 6511SOL     OW30991   4.508   1.535  11.798  0.0756  0.0487 -0.4767
 6511SOL    HW130992   4.597   1.505  11.821  0.4105  3.6056  2.8951
 6511SOL    HW230993   4.501   1.605  11.863  0.8344  0.2969 -0.6510
 6512SOL     OW30994   4.164   2.523   4.053 -0.5243 -0.0859  0.4673
 6512SOL    HW130995   4.208   2.438   4.048 -1.5880 -0.7326  2.0603
 6512SOL    HW230996   4.221   2.575   3.997  0.8698 -0.7140  1.3181
 6513SOL     OW30997   2.707   3.669   4.117  0.2477  0.0759  0.0836
 6513SOL    HW130998   2.788   3.661   4.067 -0.3701 -1.2001 -0.7083
 6513SOL    HW230999   2.652   3.716   4.054 -0.3689 -1.6839 -0.6844
 6514SOL     OW31000   4.510   2.951   5.607  0.1227 -0.2003 -0.2286
 6514SOL    HW131001   4.541   2.920   5.692 -3.3499 -1.1177  0.7060
 6514SOL    HW231002   4.471   3.034   5.635 -1.4397  0.8493 -5.6654
 6515SOL     OW31003   2.544   1.581   2.778  0.3645  0.0108 -0.3817
 6515SOL    HW131004   2.535   1.635   2.856 -0.6855 -2.8317  1.4706
 6515SOL    HW231005   2.533   1.493   2.814  0.4025 -0.0564 -0.5337
 6516SOL     OW31006   1.086   1.244  11.712 -0.0019  0.0101  0.0553
 6516SOL    HW131007   1.115   1.224  11.623  0.5755  0.4647  0.1382
 6516SOL    HW231008   1.137   1.322  11.736 -0.2661  0.7329 -1.6738
 6517SOL     OW31009   3.484   1.916  14.781 -0.0880  0.3473 -0.3138
 6517SOL    HW131010   3.563   1.871  14.749  0.1337  1.0614 -0.7909
 6517SOL    HW231011   3.526   2.000  14.801 -2.8337  1.5020  0.5307
 6518SOL     OW31012   2.108   0.677   0.010 -0.3833  0.1629 -0.0904
 6518SOL    HW131013   2.064   0.674  17.621 -1.6651  0.1923  0.5836
 6518SOL    HW231014   2.066   0.614   0.069  0.2218  0.8212  1.0501
 6519SOL     OW31015   3.004   3.560  15.473  0.0749  0.2556 -0.4313
 6519SOL    HW131016   2.922   3.518  15.502  1.4879 -1.5349  1.0389
 6519SOL    HW231017   3.022   3.514  15.391  1.7100 -0.8400  0.5451
 6520SOL     OW31018   0.484   4.199   3.172  0.1290 -0.0828  0.2684
 6520SOL    HW131019   0.403   4.206   3.122  0.9952 -2.1138 -1.3760
 6520SOL    HW231020   0.529   4.125   3.132 -1.1431 -0.0744 -1.1382
 6521SOL     OW31021   1.587   4.268   2.823 -0.0096 -0.1731 -0.1351
 6521SOL    HW131022   1.531   4.327   2.772  0.4174  0.3364 -0.0101
 6521SOL    HW231023   1.671   4.314   2.818 -1.1150  2.0372  1.4049
 6522SOL     OW31024   4.225   1.355   1.267  0.0711 -0.4840 -0.4007
 6522SOL    HW131025   4.311   1.335   1.230  0.5078 -0.6051  0.6998
 6522SOL    HW231026   4.200   1.433   1.218 -0.3390  0.0458  0.6468
 6523SOL     OW31027   1.944   2.640   5.211  0.2331 -0.4564 -0.0412
 6523SOL    HW131028   1.936   2.725   5.168  2.1858  0.1467  0.8281
 6523SOL    HW231029   1.850   2.630   5.226  0.2314  1.8923  1.5265
 6524SOL     OW31030   2.309   3.577  12.466 -0.3188  0.4107 -0.7654
 6524SOL    HW131031   2.223   3.604  12.495 -0.3002 -1.4823  1.0498
 6524SOL    HW231032   2.361   3.641  12.514  3.3637 -2.4953 -0.8173
 6525SOL     OW31033   1.398   1.079   3.165  0.3089 -0.1145 -0.0493
 6525SOL    HW131034   1.409   1.055   3.073 -1.1054  0.2513 -0.3163
 6525SOL    HW231035   1.396   1.173   3.147 -1.5948 -0.4589 -1.6588
 6526SOL     OW31036   2.970   1.323   2.203  0.0680  0.3260 -0.0701
 6526SOL    HW131037   3.052   1.277   2.222 -0.3866  0.0795  1.2790
 6526SOL    HW231038   2.913   1.247   2.212 -0.5511  0.6202 -1.5765
 6527SOL     OW31039   3.326   4.717   4.347 -0.0181  0.1853  0.2906
 6527SOL    HW131040   3.259   4.650   4.356 -1.2222  1.5515  1.5296
 6527SOL    HW231041   3.378   4.678   4.417 -1.9416  0.7808  2.0635
 6528SOL     OW31042   2.224   3.377  17.092  0.7202 -0.4011 -0.3701
 6528SOL    HW131043   2.312   3.343  17.111 -0.3306 -2.4502  0.7702
 6528SOL    HW231044   2.236   3.378  16.997  1.0002  2.2335 -0.3161
 6529SOL     OW31045   1.773   4.071   6.772 -0.0188 -0.4463 -0.6192
 6529SOL    HW131046   1.818   3.987   6.784 -0.5387 -0.6271  0.1541
 6529SOL    HW231047   1.681   4.046   6.782 -0.5106  1.8549  0.4732
 6530SOL     OW31048   3.079   3.158   5.767  0.4258 -0.0789  0.0909
 6530SOL    HW131049   3.110   3.087   5.823  0.7203  0.0865  0.1415
 6530SOL    HW231050   3.024   3.105   5.710  2.0999 -0.2374 -1.3769
 6531SOL     OW31051   0.733   2.455  16.408 -0.2473 -0.4072  0.2377
 6531SOL    HW131052   0.701   2.421  16.325 -1.0722  1.8406 -0.3609
 6531SOL    HW231053   0.733   2.374  16.460 -0.7381 -0.5520  0.0102
 6532SOL     OW31054   1.722   0.860   1.685 -0.3209 -0.0180 -0.7542
 6532SOL    HW131055   1.715   0.890   1.594 -2.7974  0.9627 -0.2396
 6532SOL    HW231056   1.710   0.766   1.673  0.1178  0.0787 -1.9318
 6533SOL     OW31057   2.523   1.872   8.310  0.0701  0.3170 -0.2086
 6533SOL    HW131058   2.590   1.805   8.294  0.0187  0.1108  0.4287
 6533SOL    HW231059   2.446   1.853   8.257 -0.8626 -2.2463  2.0897
 6534SOL     OW31060   4.479   3.405   5.594  0.0825  0.4980  0.5605
 6534SOL    HW131061   4.440   3.346   5.658 -0.7315 -0.0447 -0.4262
 6534SOL    HW231062   4.571   3.381   5.599 -0.4877 -1.8038  0.0841
 6535SOL     OW31063   2.083   4.040   4.614  0.8472 -0.0128  0.4317
 6535SOL    HW131064   2.079   4.012   4.705  2.5425  3.9087  1.7259
 6535SOL    HW231065   2.021   3.976   4.578 -0.4911  1.7977 -0.4512
 6536SOL     OW31066   2.962   3.094   3.658 -0.0293  0.7200 -0.2486
 6536SOL    HW131067   2.902   3.139   3.599 -1.6145 -3.3738 -1.7919
 6536SOL    HW231068   2.942   3.134   3.742  0.5087  0.9267 -0.2183
 6537SOL     OW31069   0.629   4.609   3.861 -0.1273  0.3930  0.4275
 6537SOL    HW131070   0.615   4.555   3.784  1.6613 -0.9712  1.0660
 6537SOL    HW231071   0.544   4.652   3.862  0.2432  1.1723 -0.4169
 6538SOL     OW31072   0.300   1.575  16.868 -0.0774 -0.5505 -0.0242
 6538SOL    HW131073   0.271   1.666  16.864  1.0222 -0.2304 -0.8535
 6538SOL    HW231074   0.251   1.545  16.792  1.0346 -0.0561 -0.9372
 6539SOL     OW31075   1.745   1.602   8.932  0.2756  0.6498 -0.0035
 6539SOL    HW131076   1.803   1.526   8.931 -2.2709 -1.2771  1.3365
 6539SOL    HW231077   1.801   1.664   8.979 -0.2063  1.0379  0.0536
 6540SOL     OW31078   2.643   1.516  16.096 -0.7191  0.1171  0.4370
 6540SOL    HW131079   2.619   1.500  16.005  0.0104 -2.6688  0.7216
 6540SOL    HW231080   2.709   1.585  16.087 -0.7738 -0.0355 -1.0290
 6541SOL     OW31081   3.647   2.240   3.900 -0.4119  0.0728  0.4965
 6541SOL    HW131082   3.693   2.321   3.878 -2.6412  0.7736 -1.5904
 6541SOL    HW231083   3.645   2.196   3.815 -0.9291  0.2561  0.4137
 6542SOL     OW31084   1.866   2.846  12.466  0.2841  0.7032  0.0417
 6542SOL    HW131085   1.887   2.935  12.495  0.9048 -0.7067  3.9139
 6542SOL    HW231086   1.836   2.853  12.375  1.0058  0.9283 -0.1783
 6543SOL     OW31087   2.299   2.548   4.394 -0.3687 -0.0792 -0.1875
 6543SOL    HW131088   2.348   2.588   4.466 -2.8741  1.8406  0.4646
 6543SOL    HW231089   2.339   2.463   4.377 -1.2309 -0.8548  1.5566
 6544SOL     OW31090   3.965   4.099   7.904 -0.6347 -0.1735 -0.2729
 6544SOL    HW131091   3.991   4.114   7.813 -0.2717 -1.6415 -0.4091
 6544SOL    HW231092   4.041   4.127   7.956  0.0489 -1.5827 -0.5276
 6545SOL     OW31093   1.269   3.658   1.647 -0.5205 -0.1380  0.4838
 6545SOL    HW131094   1.266   3.662   1.551 -0.3466 -0.8152  0.4537
 6545SOL    HW231095   1.259   3.565   1.665  2.9865 -0.9839 -2.1402
 6546SOL     OW31096   4.426   2.977   9.702  0.2513 -0.3678  0.1505
 6546SOL    HW131097   4.393   2.893   9.733  0.0500 -0.6138 -0.7254
 6546SOL    HW231098   4.513   2.980   9.740 -0.2743 -1.2039  1.4184
 6547SOL     OW31099   4.472   4.494  15.402  0.2166 -0.0833 -0.1728
 6547SOL    HW131100   4.465   4.404  15.432 -0.5833 -0.1157 -0.4446
 6547SOL    HW231101   4.424   4.477  15.321  2.5114  0.8820 -1.7121
 6548SOL     OW31102   0.825   1.274   0.787  0.1920  0.2143  0.1432
 6548SOL    HW131103   0.849   1.192   0.829  0.2243  0.3844  0.4634
 6548SOL    HW231104   0.889   1.291   0.718  0.1591  1.0000  0.2972
 6549SOL     OW31105   1.830   3.439   3.939 -0.1734 -0.3577 -0.5200
 6549SOL    HW131106   1.841   3.439   4.034  1.3505  0.7262 -0.6873
 6549SOL    HW231107   1.833   3.533   3.920 -0.8472 -0.6660 -2.1727
 6550SOL     OW31108   2.280   0.683   7.529  0.3240 -0.8624  0.1733
 6550SOL    HW131109   2.229   0.759   7.501  1.0594 -0.1487  0.7929
 6550SOL    HW231110   2.279   0.703   7.623  2.6159 -1.5015  0.3317
 6551SOL     OW31111   3.888   3.773  15.838 -0.3549 -0.0415 -0.2543
 6551SOL    HW131112   3.957   3.736  15.783 -1.5129  0.2347 -1.8750
 6551SOL    HW231113   3.930   3.856  15.861 -0.6406 -0.1322  0.6149
 6552SOL     OW31114   0.893   0.240   7.436 -0.2922 -0.1046  0.3420
 6552SOL    HW131115   0.838   0.306   7.395 -0.8781 -1.0437 -0.3710
 6552SOL    HW231116   0.953   0.294   7.488 -2.4861  2.3503  0.2777
 6553SOL     OW31117   0.806   4.452  11.179 -0.0908  0.0336 -0.5215
 6553SOL    HW131118   0.877   4.478  11.120 -1.1547  1.8068 -1.0160
 6553SOL    HW231119   0.753   4.531  11.185 -1.1987 -0.7271 -0.3218
 6554SOL     OW31120   2.015   4.176   6.877  0.7777  0.0148  0.8051
 6554SOL    HW131121   1.925   4.172   6.845  0.5116  2.0568  1.2930
 6554SOL    HW231122   2.006   4.262   6.918  1.1261  1.4890 -2.1740
 6555SOL     OW31123   4.501   4.353   5.557 -0.3534  0.0903  0.7220
 6555SOL    HW131124   4.565   4.326   5.623 -0.1326 -0.3049  0.3492
 6555SOL    HW231125   4.543   4.316   5.479  0.6230 -0.4550  1.4973
 6556SOL     OW31126   3.177   0.164  15.711  0.1145  0.3399  0.8021
 6556SOL    HW131127   3.163   0.148  15.618  0.3566 -0.3267  0.8854
 6556SOL    HW231128   3.195   0.074  15.737  0.6654  0.0242 -0.6987
 6557SOL     OW31129   2.462   3.180   8.698  0.2420 -0.4036 -0.5961
 6557SOL    HW131130   2.422   3.232   8.629  0.4663 -0.5545 -0.8445
 6557SOL    HW231131   2.467   3.244   8.769 -1.6247  0.9745 -1.7378
 6558SOL     OW31132   1.478   1.436   5.490 -0.3402 -0.2119  0.8730
 6558SOL    HW131133   1.386   1.409   5.500 -0.0808 -1.7510 -0.8802
 6558SOL    HW231134   1.505   1.458   5.579  2.0595 -0.3204  0.1744
 6559SOL     OW31135   0.339   1.717   8.234 -0.2023 -0.2377  0.1367
 6559SOL    HW131136   0.355   1.688   8.323 -0.4995 -1.4140 -0.1933
 6559SOL    HW231137   0.424   1.743   8.198  0.1016  1.0173  1.7757
 6560SOL     OW31138   3.519   1.186   7.287 -0.1576 -0.0052 -0.6420
 6560SOL    HW131139   3.509   1.279   7.309 -0.2180 -0.4726  1.2922
 6560SOL    HW231140   3.442   1.170   7.232 -2.6361 -1.1449  3.1152
 6561SOL     OW31141   3.600   3.203   9.611  0.1239  0.4034 -0.1578
 6561SOL    HW131142   3.553   3.132   9.568  0.0221 -0.2234  0.9900
 6561SOL    HW231143   3.689   3.190   9.579 -0.5726 -0.2206 -1.8474
 6562SOL     OW31144   0.828   2.539  12.012  0.2793 -0.2482 -0.1104
 6562SOL    HW131145   0.768   2.607  12.041  1.1815  1.0312 -1.2832
 6562SOL    HW231146   0.843   2.491  12.093 -1.2027  0.5964  0.6595
 6563SOL     OW31147   1.557   1.277   6.464  0.3208  0.1518 -0.4483
 6563SOL    HW131148   1.552   1.307   6.555 -3.4317 -0.7657 -0.3766
 6563SOL    HW231149   1.488   1.211   6.453  1.7879 -1.3046 -0.9688
 6564SOL     OW31150   0.762   0.863   3.999  0.1498 -0.4196 -0.2350
 6564SOL    HW131151   0.692   0.801   3.978  0.1511 -0.7750  0.8034
 6564SOL    HW231152   0.841   0.819   3.966 -0.5960 -1.1327 -1.0580
 6565SOL     OW31153   4.410   2.674  14.414 -0.4256  0.4091 -0.1944
 6565SOL    HW131154   4.448   2.586  14.419  1.5642  1.1107 -3.1150
 6565SOL    HW231155   4.401   2.692  14.321  2.8880  1.2192 -0.3578
 6566SOL     OW31156   4.370   2.509  11.477 -0.4928 -0.1090 -0.4727
 6566SOL    HW131157   4.405   2.539  11.561  0.3011 -2.0295 -0.1155
 6566SOL    HW231158   4.440   2.537  11.418 -0.0823  0.9622  0.5140
 6567SOL     OW31159   3.151   2.600   6.577 -0.3220 -0.8551 -0.0618
 6567SOL    HW131160   3.177   2.688   6.604 -0.0155 -1.0036  0.1304
 6567SOL    HW231161   3.092   2.575   6.648  2.3482 -0.3054  2.3474
 6568SOL     OW31162   3.401   2.577   4.470  0.2325 -0.1776 -0.1443
 6568SOL    HW131163   3.369   2.640   4.534  1.8251  1.7055 -1.1929
 6568SOL    HW231164   3.410   2.496   4.521  0.6992 -0.0841 -0.0776
 6569SOL     OW31165   3.681   2.304  14.491  0.0977  0.6184  0.2787
 6569SOL    HW131166   3.764   2.303  14.539 -0.3191 -0.0676  0.9885
 6569SOL    HW231167   3.620   2.299  14.565 -0.7093  0.0817 -0.4175
 6570SOL     OW31168   0.639   3.252  13.324 -0.1499 -0.0991 -0.0184
 6570SOL    HW131169   0.610   3.309  13.396  1.2792  1.3512 -0.6010
 6570SOL    HW231170   0.667   3.315  13.257 -0.5350 -0.8469 -0.8730
 6571SOL     OW31171   1.095   4.593   5.679  0.2928  0.3057  0.1524
 6571SOL    HW131172   1.067   4.683   5.695  1.4540  0.7277 -0.2099
 6571SOL    HW231173   1.177   4.588   5.728  1.1025 -3.1829 -1.5120
 6572SOL     OW31174   1.284   4.698   3.877 -0.0529 -0.0938 -0.0916
 6572SOL    HW131175   1.306   0.034   3.948  3.1898 -1.3992 -0.0305
 6572SOL    HW231176   1.328   4.619   3.906 -0.9538 -0.5806 -0.0396
 6573SOL     OW31177   3.644   4.712  15.010  0.4120 -0.2880  0.4150
 6573SOL    HW131178   3.711   4.691  15.075  0.2641  0.2501  0.7417
 6573SOL    HW231179   3.688   0.072  14.991  2.0174 -0.6599  2.4786
 6574SOL     OW31180   4.492   3.929  10.619 -0.5415 -0.4727 -0.7385
 6574SOL    HW131181   4.509   3.933  10.714 -1.0145  1.5017 -0.7292
 6574SOL    HW231182   4.570   3.879  10.594 -0.5917 -0.4483 -0.9428
 6575SOL     OW31183   1.788   3.692   8.750 -0.1941 -0.0815 -0.3413
 6575SOL    HW131184   1.735   3.764   8.716 -0.6474  0.5131  1.6225
 6575SOL    HW231185   1.833   3.736   8.822 -0.6790 -0.8584  0.4357
 6576SOL     OW31186   0.547   0.381   2.503  0.3419 -0.7819  0.4220
 6576SOL    HW131187   0.457   0.411   2.516  0.5398 -0.0956  0.2015
 6576SOL    HW231188   0.545   0.296   2.547 -1.0962 -2.5528 -3.0589
 6577SOL     OW31189   1.329   1.821   4.321  0.0361 -0.1871 -0.0384
 6577SOL    HW131190   1.306   1.896   4.265 -0.5554 -1.4309 -1.4471
 6577SOL    HW231191   1.254   1.821   4.380  0.5941  1.2168  0.6837
 6578SOL     OW31192   3.833   0.704   4.950  0.2058 -0.0155 -0.0925
 6578SOL    HW131193   3.825   0.613   4.977 -1.5845  0.3029  0.4137
 6578SOL    HW231194   3.795   0.701   4.862  2.3649  1.3803 -1.0788
 6579SOL     OW31195   3.284   4.494  13.822 -0.1304  0.3255  0.1746
 6579SOL    HW131196   3.293   4.407  13.785 -3.2935  0.5259 -1.0822
 6579SOL    HW231197   3.290   4.471  13.915 -1.1268 -0.4709  0.0383
 6580SOL     OW31198   3.481   0.149  14.273 -0.3772  0.1411  0.4692
 6580SOL    HW131199   3.445   0.088  14.337  2.1151 -0.7159  1.0358
 6580SOL    HW231200   3.575   0.137  14.289 -0.8345 -0.1730  2.9891
 6581SOL     OW31201   1.627   3.173   6.100  0.4546  0.1681 -0.0404
 6581SOL    HW131202   1.575   3.209   6.028  0.0928 -0.6776 -0.1973
 6581SOL    HW231203   1.619   3.081   6.077 -0.4649  0.9518 -2.8928
 6582SOL     OW31204   0.711   1.111  14.811  0.4951 -0.1874 -0.9208
 6582SOL    HW131205   0.708   1.205  14.829 -2.8429 -0.0502 -2.3439
 6582SOL    HW231206   0.795   1.073  14.838 -0.2388 -0.9524  0.2763
 6583SOL     OW31207   3.557   3.090  16.379 -0.5605 -0.7506 -0.0092
 6583SOL    HW131208   3.547   3.045  16.295 -1.8258  0.3008 -0.4290
 6583SOL    HW231209   3.598   3.028  16.439 -0.5342 -0.8752 -0.1567
 6584SOL     OW31210   4.243   4.697   9.283  0.6657  0.5066  0.3304
 6584SOL    HW131211   4.255   4.675   9.375 -0.3665 -1.1012  0.0787
 6584SOL    HW231212   4.194   0.056   9.288 -0.0244  0.2616 -2.0180
 6585SOL     OW31213   4.344   2.854  10.955 -0.3375  0.6644  0.2591
 6585SOL    HW131214   4.305   2.845  11.042  1.1393  0.2462  0.8865
 6585SOL    HW231215   4.290   2.916  10.905  1.9696  2.4951 -0.0052
 6586SOL     OW31216   0.828   0.072   1.842 -0.0080 -0.4316  0.3898
 6586SOL    HW131217   0.886   0.125   1.896  0.1432  1.3920 -1.5678
 6586SOL    HW231218   0.835   4.707   1.878  2.4134 -0.9658 -1.4154
 6587SOL     OW31219   3.300   2.658  12.874 -0.1549  0.0058  0.5689
 6587SOL    HW131220   3.367   2.612  12.825 -0.8218 -1.4643  1.0341
 6587SOL    HW231221   3.234   2.595  12.903 -1.3589  0.3113 -1.4941
 6588SOL     OW31222   2.236   3.222   5.432 -0.2779  0.3964 -0.3591
 6588SOL    HW131223   2.224   3.129   5.412  2.9379 -0.5089  1.8931
 6588SOL    HW231224   2.307   3.242   5.371  1.4830  0.1312  1.5818
 6589SOL     OW31225   2.845   0.250  13.828 -0.6542 -0.8144 -0.1581
 6589SOL    HW131226   2.885   0.205  13.754 -0.8802  0.1271 -0.8530
 6589SOL    HW231227   2.904   0.324  13.835 -1.5376  0.0513 -1.7284
 6590SOL     OW31228   0.382   3.758   3.070 -0.4197 -0.2798  1.1195
 6590SOL    HW131229   0.314   3.818   3.040 -0.8589 -0.1431  2.3794
 6590SOL    HW231230   0.397   3.787   3.160 -0.9613  0.8560  0.8479
 6591SOL     OW31231   1.103   0.865   4.123 -0.3289  0.0735  0.0922
 6591SOL    HW131232   1.081   0.792   4.181  0.3711 -1.2738 -1.3492
 6591SOL    HW231233   1.194   0.883   4.143 -0.6704  0.5427  1.2175
 6592SOL     OW31234   1.400   3.715  15.652  1.0114 -1.0230 -0.3089
 6592SOL    HW131235   1.362   3.732  15.566  1.3083 -0.1162 -0.2624
 6592SOL    HW231236   1.454   3.792  15.668  3.8584 -2.7579 -1.3857
 6593SOL     OW31237   4.504   2.331  13.124 -0.2410 -0.7745 -0.5031
 6593SOL    HW131238   4.508   2.274  13.201 -0.6962 -0.5891 -0.3364
 6593SOL    HW231239   4.485   2.267  13.056  0.3989 -0.6695 -0.7776
 6594SOL     OW31240   2.298   1.466   9.440  0.5048 -0.4978  0.4279
 6594SOL    HW131241   2.248   1.499   9.514 -2.9911 -1.4752 -1.5280
 6594SOL    HW231242   2.381   1.514   9.437  0.0823  0.0980 -1.4648
 6595SOL     OW31243   2.161   3.242   8.803  0.0745 -0.3115 -0.0863
 6595SOL    HW131244   2.088   3.202   8.755  0.0260  0.4041 -0.5982
 6595SOL    HW231245   2.204   3.159   8.824  3.8663  1.6655 -0.1016
 6596SOL     OW31246   2.949   4.457   5.778 -0.4304  0.0810 -0.3402
 6596SOL    HW131247   2.977   4.547   5.768  1.6652 -0.2423  2.4513
 6596SOL    HW231248   3.003   4.411   5.714  0.9787  0.2908  0.6859
 6597SOL     OW31249   2.578   0.680   5.853  0.3783  0.4924 -1.1254
 6597SOL    HW131250   2.548   0.603   5.804 -0.6109  0.5471 -0.5941
 6597SOL    HW231251   2.524   0.750   5.815  0.5250  1.4001  0.3174
 6598SOL     OW31252   4.232   4.562   9.539 -0.2939  0.1027 -0.7109
 6598SOL    HW131253   4.206   4.646   9.577 -0.7709 -0.6807  0.6943
 6598SOL    HW231254   4.199   4.503   9.607  0.9044 -0.7294 -0.8557
 6599SOL     OW31255   0.473   0.988   8.522 -0.0432  0.7085 -0.5142
 6599SOL    HW131256   0.489   1.056   8.458 -0.8428 -1.5124 -3.0531
 6599SOL    HW231257   0.547   0.927   8.515  0.5631  1.1632  1.8864
 6600SOL     OW31258   1.989   3.563   2.266  0.3146  0.1389 -0.4026
 6600SOL    HW131259   1.921   3.624   2.240 -1.9396 -2.3175 -0.3413
 6600SOL    HW231260   2.047   3.620   2.316 -1.6821 -0.1957  2.3224
 6601SOL     OW31261   4.231   2.649   3.342 -0.2694 -0.1257  0.2502
 6601SOL    HW131262   4.298   2.710   3.374 -1.5069  0.4683  1.7117
 6601SOL    HW231263   4.184   2.630   3.423  0.0262  2.4279  1.0201
 6602SOL     OW31264   4.494   3.882   6.737 -0.0813  0.4952 -0.6350
 6602SOL    HW131265   4.590   3.890   6.736 -0.1802  1.4701 -2.2581
 6602SOL    HW231266   4.485   3.881   6.642 -1.2654 -1.4084 -0.5059
 6603SOL     OW31267   3.882   0.999   8.234  0.1529 -0.3771 -0.1675
 6603SOL    HW131268   3.962   1.036   8.196  0.8539 -0.9119  0.7780
 6603SOL    HW231269   3.834   1.077   8.263 -1.6127 -1.1555 -1.0056
 6604SOL     OW31270   3.330   1.438   5.425 -0.2397  0.2460 -0.4050
 6604SOL    HW131271   3.358   1.515   5.375  2.5738  0.2804  1.2144
 6604SOL    HW231272   3.364   1.454   5.514  0.4004 -0.2885 -0.5614
 6605SOL     OW31273   0.180   1.588   4.086  0.4201  0.2145  0.1564
 6605SOL    HW131274   0.240   1.580   4.011  0.7418 -0.6663  0.5003
 6605SOL    HW231275   0.148   1.678   4.088  0.3690  0.1884  0.5383
 6606SOL     OW31276   3.949   0.140   3.275 -0.6035 -0.0149  0.4652
 6606SOL    HW131277   3.857   0.162   3.262 -0.9176 -0.0356  2.6461
 6606SOL    HW231278   3.987   0.211   3.326 -0.6798 -0.6778  1.4496
 6607SOL     OW31279   1.857   1.262   4.452  0.0034 -0.6982 -0.2404
 6607SOL    HW131280   1.870   1.173   4.486 -0.4969  0.1454  2.1746
 6607SOL    HW231281   1.847   1.308   4.535 -0.6391 -0.2212 -0.5864
 6608SOL     OW31282   0.341   2.681   3.029  0.3480 -0.2208  0.5201
 6608SOL    HW131283   0.270   2.673   3.094 -0.1959 -1.0723 -0.1798
 6608SOL    HW231284   0.327   2.771   2.998  1.0373 -0.6842 -1.0707
 6609SOL     OW31285   2.830   0.018  11.580 -0.0321  0.2567 -0.2637
 6609SOL    HW131286   2.840   4.700  11.494  1.3048 -1.2946  0.6347
 6609SOL    HW231287   2.901   0.081  11.590 -0.3673  0.5902 -0.0045
 6610SOL     OW31288   3.923   0.204  16.815 -0.2062 -0.3857 -0.0226
 6610SOL    HW131289   3.933   0.234  16.905 -0.1557  2.4523 -0.9760
 6610SOL    HW231290   3.829   0.220  16.813 -0.3139 -1.1239 -0.9362
 6611SOL     OW31291   1.835   3.125   4.552  0.0019  0.3111  0.2357
 6611SOL    HW131292   1.789   3.169   4.481 -0.0321 -0.8164 -0.4327
 6611SOL    HW231293   1.873   3.053   4.503 -1.1206 -0.6827  0.8241
 6612SOL     OW31294   3.383   4.365   5.479 -0.1520  0.0810 -0.0842
 6612SOL    HW131295   3.384   4.458   5.502  0.7987  0.5579 -2.0615
 6612SOL    HW231296   3.423   4.367   5.392 -1.7892  1.0691 -0.8231
 6613SOL     OW31297   4.248   0.335   8.399 -0.0121 -0.3862 -0.4521
 6613SOL    HW131298   4.249   0.240   8.390 -0.4122 -0.4421  0.0371
 6613SOL    HW231299   4.183   0.345   8.469  0.5752 -1.8852  0.3177
 6614SOL     OW31300   0.866   0.368   1.275  0.1509 -0.6077  0.4029
 6614SOL    HW131301   0.865   0.321   1.358  1.5589 -3.1606 -1.0141
 6614SOL    HW231302   0.955   0.356   1.242  0.2015  0.8324  0.0091
 6615SOL     OW31303   2.545   0.940   1.292 -0.2907 -0.0272 -0.1702
 6615SOL    HW131304   2.502   1.013   1.249  0.4863  0.2325 -0.5070
 6615SOL    HW231305   2.478   0.919   1.357  0.0116 -1.0069 -0.1773
 6616SOL     OW31306   1.747   0.585  10.215 -0.2924  0.2695  0.2520
 6616SOL    HW131307   1.661   0.574  10.172 -0.5891  1.0265  0.6554
 6616SOL    HW231308   1.766   0.496  10.246 -0.2408  0.0387 -0.4271
 6617SOL     OW31309   1.228   4.378   2.870 -0.1941 -0.4248 -0.2512
 6617SOL    HW131310   1.309   4.424   2.848  0.3605 -0.9503  0.6729
 6617SOL    HW231311   1.267   4.290   2.869 -1.8689 -1.1644 -0.2672
 6618SOL     OW31312   0.624   3.351   7.989 -0.1430  0.3845 -0.0682
 6618SOL    HW131313   0.585   3.426   7.944 -3.5163 -1.2644  0.0866
 6618SOL    HW231314   0.547   3.297   8.009 -0.4135  0.5117 -0.7637
 6619SOL     OW31315   0.189   2.298   0.417  0.8377 -0.3724 -0.2118
 6619SOL    HW131316   0.176   2.392   0.420 -0.3561 -0.6259  2.1712
 6619SOL    HW231317   0.242   2.284   0.338  1.5972  1.5068 -0.0137
 6620SOL     OW31318   1.546   0.549   2.253  0.4905 -0.1673  0.2885
 6620SOL    HW131319   1.487   0.568   2.180  1.4131 -3.6902 -1.4007
 6620SOL    HW231320   1.593   0.632   2.262 -0.0773  0.0165  1.4740
 6621SOL     OW31321   2.953   4.456  17.593 -0.0394 -0.0549 -0.0398
 6621SOL    HW131322   2.884   4.405  17.636 -1.0232  1.6859  0.4474
 6621SOL    HW231323   2.915   4.468  17.506  0.1606 -0.8196 -0.2322
 6622SOL     OW31324   1.034   2.959   5.378 -0.1623  0.0957 -0.1532
 6622SOL    HW131325   0.957   2.913   5.411  0.8712  0.4723  2.7311
 6622SOL    HW231326   1.004   3.049   5.378 -0.0942  0.1192 -0.4186
 6623SOL     OW31327   2.560   3.594   2.012 -0.4550 -0.6072  0.1383
 6623SOL    HW131328   2.524   3.562   2.095  0.3455 -0.7883  0.4118
 6623SOL    HW231329   2.512   3.537   1.951 -1.1907 -0.6535  0.7528
 6624SOL     OW31330   1.415   2.821   4.828 -0.1186  0.1584  0.1541
 6624SOL    HW131331   1.393   2.914   4.836 -0.0691  0.3260 -1.6656
 6624SOL    HW231332   1.475   2.799   4.899 -0.1377 -0.9039 -0.1461
 6625SOL     OW31333   4.479   1.329  16.871  0.3377  0.1229 -0.0811
 6625SOL    HW131334   4.519   1.416  16.878  0.3961 -0.0235  1.3807
 6625SOL    HW231335   4.503   1.299  16.783 -1.1927  0.8037 -0.7411
 6626SOL     OW31336   4.159   2.467   8.548 -0.0163 -1.0040  0.3984
 6626SOL    HW131337   4.065   2.481   8.560  0.1076 -1.4696  1.9167
 6626SOL    HW231338   4.185   2.438   8.635  3.2831  0.6874 -0.0293
 6627SOL     OW31339   3.699   4.366   5.351  0.8902  0.7335  0.0289
 6627SOL    HW131340   3.752   4.305   5.299  0.1036 -0.7115  0.9203
 6627SOL    HW231341   3.659   4.424   5.286 -2.6690 -0.2846  1.3118
 6628SOL     OW31342   4.508   1.116   7.032  0.6387 -0.1377  0.2307
 6628SOL    HW131343   4.580   1.157   6.986  1.8894 -3.4376 -0.7483
 6628SOL    HW231344   4.441   1.100   6.965  2.5987  2.6584 -2.3606
 6629SOL     OW31345   1.834   2.932   6.213  0.3608  0.2865 -0.3629
 6629SOL    HW131346   1.855   2.838   6.217  2.2819  0.6937 -0.8397
 6629SOL    HW231347   1.740   2.934   6.197 -0.0155  2.4142  2.2675
 6630SOL     OW31348   1.678   1.949  10.123 -0.7968  0.1735  0.3697
 6630SOL    HW131349   1.630   1.984  10.198 -0.4267  0.2666  0.5651
 6630SOL    HW231350   1.643   1.995  10.047  1.0246 -3.3412 -2.5990
 6631SOL     OW31351   0.447   3.231  11.024 -0.4062 -0.0906 -0.4094
 6631SOL    HW131352   0.418   3.316  10.989 -1.6311  0.0644  0.9747
 6631SOL    HW231353   0.372   3.201  11.075  0.6294  0.0417  1.1850
 6632SOL     OW31354   2.719   1.719  16.857  0.5295 -0.5859 -0.1234
 6632SOL    HW131355   2.794   1.684  16.904 -0.3838 -1.0200  1.0198
 6632SOL    HW231356   2.715   1.655  16.787 -0.0416 -1.9631  1.1614
 6633SOL     OW31357   2.338   4.673   6.282 -0.3172  0.2061 -0.0885
 6633SOL    HW131358   2.245   4.678   6.264 -0.5376 -2.6729  0.2629
 6633SOL    HW231359   2.344   0.021   6.346  0.0989 -1.9102  2.2465
 6634SOL     OW31360   2.915   0.183   1.477 -0.2180 -0.0959 -0.9819
 6634SOL    HW131361   2.873   0.170   1.393  2.2669  1.9529 -2.5320
 6634SOL    HW231362   2.835   0.180   1.530 -1.1667  0.3102 -2.3845
 6635SOL     OW31363   4.191   0.662   8.143 -0.0091  0.5819  0.2505
 6635SOL    HW131364   4.148   0.579   8.128  0.4640  0.3213  0.3391
 6635SOL    HW231365   4.150   0.727   8.085 -1.1526 -1.5062 -1.2465
 6636SOL     OW31366   3.292   4.273   5.800 -0.2573 -0.3965 -0.2112
 6636SOL    HW131367   3.262   4.322   5.877 -2.6451 -2.1291 -0.0409
 6636SOL    HW231368   3.216   4.280   5.742 -0.9290  0.3989  0.7652
 6637SOL     OW31369   1.224   3.387   1.749  0.0447 -0.2889  0.0174
 6637SOL    HW131370   1.130   3.397   1.735  0.1647  1.4064  0.3822
 6637SOL    HW231371   1.241   3.295   1.728 -0.2331 -0.2832 -0.2225
 6638SOL     OW31372   3.211   3.503   0.317  0.0186 -0.6501 -0.3398
 6638SOL    HW131373   3.268   3.560   0.265 -0.0888 -1.6097 -1.5214
 6638SOL    HW231374   3.158   3.461   0.249  0.2746  0.8277 -1.4591
 6639SOL     OW31375   3.063   4.407   3.900  0.9529  0.1449  0.1915
 6639SOL    HW131376   3.115   4.464   3.842 -1.4508  1.2906 -0.8353
 6639SOL    HW231377   3.069   4.320   3.861  1.3280  0.3364 -0.1860
 6640SOL     OW31378   2.878   2.829   7.997 -0.5866  0.3057 -0.0741
 6640SOL    HW131379   2.939   2.846   8.069 -2.0273 -1.2130  1.4959
 6640SOL    HW231380   2.892   2.914   7.955 -0.2808  1.0188  1.4663
 6641SOL     OW31381   2.766   1.048   7.532 -1.0586 -0.2507  0.5614
 6641SOL    HW131382   2.715   1.096   7.467  0.0609 -1.5873 -1.3095
 6641SOL    HW231383   2.814   0.994   7.468  0.4854  0.7096  0.9266
 6642SOL     OW31384   2.716   3.228   2.760  0.5616  0.2175 -0.2303
 6642SOL    HW131385   2.713   3.175   2.680 -0.8921 -0.4766  0.2903
 6642SOL    HW231386   2.714   3.316   2.723 -0.6320 -0.1736 -1.0949
 6643SOL     OW31387   1.982   3.432   2.694  0.3263  0.2179  0.0900
 6643SOL    HW131388   1.901   3.476   2.668 -1.3320 -2.6741  0.4505
 6643SOL    HW231389   2.047   3.490   2.653  1.1369  0.9874  2.4812
 6644SOL     OW31390   2.309   2.030   2.988 -0.6244 -0.4954 -0.2713
 6644SOL    HW131391   2.239   1.981   2.945 -1.1840 -0.2430  0.3431
 6644SOL    HW231392   2.311   1.973   3.065 -1.7512 -2.1827 -1.4904
 6645SOL     OW31393   1.225   4.686   5.383  0.5041 -0.0794  0.2381
 6645SOL    HW131394   1.147   4.693   5.327  1.0078 -1.6363 -0.6610
 6645SOL    HW231395   1.213   0.041   5.437  0.7246  0.1369 -0.0311
 6646SOL     OW31396   1.549   1.929   4.757  0.4703  0.4554 -0.0169
 6646SOL    HW131397   1.626   1.886   4.721  0.3456  1.3940 -1.4153
 6646SOL    HW231398   1.596   1.988   4.817  1.9022  0.4537 -1.1445
 6647SOL     OW31399   3.899   3.923  12.075  0.0218 -0.1738 -0.0484
 6647SOL    HW131400   3.839   3.984  12.033 -1.0532 -1.7811 -0.8216
 6647SOL    HW231401   3.835   3.856  12.096 -0.3101  0.9070  2.3451
 6648SOL     OW31402   3.819   3.077   5.370 -0.2229 -0.3262 -0.4335
 6648SOL    HW131403   3.909   3.045   5.375  0.7664  2.8670  2.2266
 6648SOL    HW231404   3.790   3.091   5.460 -0.8349 -3.1873 -0.2178
 6649SOL     OW31405   1.862   2.718  14.198 -0.2269 -0.0948 -0.0610
 6649SOL    HW131406   1.934   2.729  14.135  0.2177  1.1199  0.6551
 6649SOL    HW231407   1.866   2.800  14.248  0.4278 -0.0683 -0.1598
 6650SOL     OW31408   1.679   3.933   5.118 -0.2350 -0.2260 -0.6650
 6650SOL    HW131409   1.600   3.951   5.167  0.7480  0.3389  0.6988
 6650SOL    HW231410   1.643   3.913   5.031  0.5748 -0.6598 -0.9128
 6651SOL     OW31411   4.599   0.769  15.543  0.1833  0.0929  0.5908
 6651SOL    HW131412   4.622   0.862  15.537  1.1334 -0.1166  0.9970
 6651SOL    HW231413   4.689   0.740  15.556 -0.0199 -0.1269  1.5001
 6652SOL     OW31414   4.465   3.211   5.326 -0.2147 -0.1305 -0.4355
 6652SOL    HW131415   4.456   3.280   5.261  0.1392 -1.7866 -2.2433
 6652SOL    HW231416   4.457   3.136   5.267  0.8124 -0.3971 -0.2266
 6653SOL     OW31417   2.494   3.091   8.027  0.1003 -0.1636  0.1389
 6653SOL    HW131418   2.477   3.064   7.937  3.3766 -0.5723 -0.3509
 6653SOL    HW231419   2.570   3.150   8.026  0.4217 -0.5910 -0.7040
 6654SOL     OW31420   1.087   1.680  15.506  0.4444 -0.1863  0.3272
 6654SOL    HW131421   1.087   1.769  15.472 -1.1868 -0.4411 -0.3301
 6654SOL    HW231422   1.059   1.624  15.433 -0.6080  1.0817 -0.2363
 6655SOL     OW31423   4.146   2.905   1.572 -0.1111 -0.6733 -0.3488
 6655SOL    HW131424   4.143   2.831   1.512  1.1872 -0.5150 -0.6063
 6655SOL    HW231425   4.093   2.875   1.646 -1.1916  0.8413 -0.4882
 6656SOL     OW31426   1.321   0.013   9.005  0.2864  0.1120  0.1903
 6656SOL    HW131427   1.307   4.685   8.926  3.7086  1.0320 -0.9824
 6656SOL    HW231428   1.416   0.009   9.010  0.4158 -0.8319 -2.8883
 6657SOL     OW31429   2.783   0.181   7.504 -0.0543  0.4233 -0.5955
 6657SOL    HW131430   2.831   0.138   7.575 -0.9504 -0.7264 -0.6862
 6657SOL    HW231431   2.705   0.126   7.497 -1.8503  2.8636  0.0632
 6658SOL     OW31432   2.356   2.472   9.349 -0.8484  0.6120  1.2195
 6658SOL    HW131433   2.288   2.464   9.415 -0.3460 -0.6275  1.5942
 6658SOL    HW231434   2.429   2.422   9.385  1.3938  1.9100 -1.4613
 6659SOL     OW31435   0.731   4.180   2.330 -0.2073  0.4247 -0.3806
 6659SOL    HW131436   0.703   4.108   2.274  1.0138 -2.4685  2.7439
 6659SOL    HW231437   0.816   4.208   2.294  0.0621  0.0885 -0.0065
 6660SOL     OW31438   4.210   4.453   0.743 -0.3663 -0.0712 -1.2337
 6660SOL    HW131439   4.220   4.491   0.656  0.3419  3.2430  0.2889
 6660SOL    HW231440   4.278   4.386   0.745  0.2199  0.5379 -1.0482
 6661SOL     OW31441   1.623   1.422   5.960 -0.3865  0.2887  0.5997
 6661SOL    HW131442   1.671   1.348   5.999 -0.2495  0.9892  1.7522
 6661SOL    HW231443   1.693   1.487   5.964 -0.5764  0.6114 -1.4290
 6662SOL     OW31444   0.279   2.923   9.449 -0.2878 -0.1415  0.3930
 6662SOL    HW131445   0.187   2.932   9.474 -0.4602 -3.2621  0.9093
 6662SOL    HW231446   0.289   3.005   9.401  0.0326  0.1031  0.8810
 6663SOL     OW31447   3.725   3.382   2.914  0.3531  0.2621 -0.0394
 6663SOL    HW131448   3.797   3.429   2.873 -0.4370  2.6887  1.3759
 6663SOL    HW231449   3.732   3.303   2.860 -0.2128  0.4893 -0.4465
 6664SOL     OW31450   0.335   1.977   6.830  0.0535 -0.5153 -0.1372
 6664SOL    HW131451   0.288   2.000   6.910 -0.2975  0.6787 -0.6819
 6664SOL    HW231452   0.269   1.937   6.774  1.1355 -2.4329 -0.0701
 6665SOL     OW31453   3.100   0.520   6.166  0.2185 -0.0476 -0.0064
 6665SOL    HW131454   3.061   0.573   6.236  2.1381  1.3284  0.0145
 6665SOL    HW231455   3.095   0.429   6.196 -0.7361  0.4210  1.2993
 6666SOL     OW31456   0.215   3.828  17.049  0.2787 -0.0590 -0.2478
 6666SOL    HW131457   0.246   3.742  17.077  0.2737 -0.1253 -0.4435
 6666SOL    HW231458   0.191   3.813  16.957 -2.5200  2.4817  0.0502
 6667SOL     OW31459   2.209   2.820   6.602  0.0012  0.0095 -0.3041
 6667SOL    HW131460   2.228   2.914   6.605  2.0358 -0.4733  2.1684
 6667SOL    HW231461   2.114   2.810   6.602 -0.0065  0.0845  1.2772
 6668SOL     OW31462   2.522   3.422  15.351  0.3428 -0.1035 -0.4855
 6668SOL    HW131463   2.486   3.366  15.419 -0.3843 -0.4116 -1.1338
 6668SOL    HW231464   2.600   3.455  15.397 -0.3862  0.2484  0.4894
 6669SOL     OW31465   1.674   0.994   6.364  0.0064  0.7640  0.3426
 6669SOL    HW131466   1.666   1.030   6.452  0.7722 -0.8142  1.0689
 6669SOL    HW231467   1.682   0.900   6.384  3.1163  1.1243  0.7776
 6670SOL     OW31468   1.315   2.280   6.903 -0.5265  0.0691 -0.1433
 6670SOL    HW131469   1.386   2.266   6.965 -0.9685 -0.2197  0.2964
 6670SOL    HW231470   1.284   2.190   6.897 -2.4452  0.6219  1.6891
 6671SOL     OW31471   3.655   0.722  13.946 -0.7408  0.0569  0.0823
 6671SOL    HW131472   3.747   0.735  13.970 -1.1714  0.4141  1.5238
 6671SOL    HW231473   3.624   0.682  14.027 -0.0794  0.3544  0.4844
 6672SOL     OW31474   4.529   2.881  10.638 -0.3148 -0.3231  0.2294
 6672SOL    HW131475   4.475   2.960  10.625 -0.0024  0.1509  1.8033
 6672SOL    HW231476   4.587   2.908  10.709  0.5754 -3.6615  0.7619
 6673SOL     OW31477   2.609   1.746   0.768 -0.3300  0.3006 -0.3050
 6673SOL    HW131478   2.694   1.740   0.812 -0.0023  1.4031 -0.7987
 6673SOL    HW231479   2.544   1.779   0.830  0.1887  0.4287  0.1671
 6674SOL     OW31480   1.480   3.128   6.814 -0.0029 -0.1663 -0.0847
 6674SOL    HW131481   1.497   3.132   6.908  1.8399 -1.5006 -0.3547
 6674SOL    HW231482   1.480   3.222   6.792 -0.4803 -0.3727 -0.9517
 6675SOL     OW31483   2.553   1.158   4.639  0.2647  0.0892  0.1373
 6675SOL    HW131484   2.484   1.212   4.599 -1.0038 -0.8772  1.0469
 6675SOL    HW231485   2.537   1.072   4.601 -2.8414 -0.1214  1.9042
 6676SOL     OW31486   0.900   2.240  11.982  0.5489 -0.1702  0.4085
 6676SOL    HW131487   0.856   2.248  12.066 -0.9838 -2.1995 -0.2130
 6676SOL    HW231488   0.829   2.270  11.926  0.4974  2.9817  2.1571
 6677SOL     OW31489   3.525   4.570   3.817 -0.0458 -0.0399 -0.1686
 6677SOL    HW131490   3.504   4.533   3.903 -0.0761  0.2157 -0.0686
 6677SOL    HW231491   3.601   4.518   3.791  1.1478  2.7806 -2.1896
 6678SOL     OW31492   4.204   3.256  16.706 -0.0422 -0.4600  0.2034
 6678SOL    HW131493   4.228   3.165  16.694 -0.5705 -0.6351  0.4943
 6678SOL    HW231494   4.114   3.260  16.672  0.0139 -3.8382 -0.3342
 6679SOL     OW31495   3.295   1.781   1.061  0.3899  0.2216  0.0385
 6679SOL    HW131496   3.252   1.710   1.108  0.6639  2.3019  3.5062
 6679SOL    HW231497   3.367   1.736   1.019  2.9318  1.6732  2.7779
 6680SOL     OW31498   0.137   4.280  12.632  0.5752 -0.7128 -0.1915
 6680SOL    HW131499   0.203   4.253  12.695  0.9807  1.7161  0.4268
 6680SOL    HW231500   0.100   4.194  12.613 -1.5540  0.0401  0.4968
 6681SOL     OW31501   0.282   2.985   4.043  0.0197  0.3240 -0.4504
 6681SOL    HW131502   0.238   3.069   4.032 -1.1083 -0.5001 -2.1256
 6681SOL    HW231503   0.307   2.962   3.954  2.0613  0.5642  0.0592
 6682SOL     OW31504   4.109   2.927   2.441 -0.1775  0.2208  0.1349
 6682SOL    HW131505   4.073   3.014   2.459  0.1359  0.4836 -0.5218
 6682SOL    HW231506   4.197   2.956   2.419  0.3006 -1.5592 -0.2996
 6683SOL     OW31507   2.278   1.771   0.494 -0.2705 -0.0598 -0.7038
 6683SOL    HW131508   2.226   1.820   0.431 -1.1207 -1.3342 -0.9927
 6683SOL    HW231509   2.220   1.752   0.568 -1.7542  1.2850 -1.5313
 6684SOL     OW31510   4.052   0.491   8.964 -0.0106 -0.1011 -0.3762
 6684SOL    HW131511   4.076   0.398   8.965  3.3163  0.7428 -0.9366
 6684SOL    HW231512   4.039   0.512   8.872 -1.3378  1.5701  0.1892
 6685SOL     OW31513   1.996   3.667   1.191  0.4104  0.0765  0.4355
 6685SOL    HW131514   1.973   3.716   1.111  0.7273  1.6468  1.3143
 6685SOL    HW231515   2.045   3.739   1.230  1.6696  0.0197 -1.0514
 6686SOL     OW31516   1.698   2.908  12.693  0.1316 -0.2676  0.5456
 6686SOL    HW131517   1.770   2.967  12.671  0.4639 -0.5443  0.8807
 6686SOL    HW231518   1.705   2.858  12.612 -1.0359  0.1348  0.1848
 6687SOL     OW31519   2.880   4.400   8.903 -0.2911 -0.4520  0.3323
 6687SOL    HW131520   2.967   4.366   8.885  0.2738  0.5995  1.0247
 6687SOL    HW231521   2.884   4.445   8.988 -0.4481 -0.8892  0.5717
 6688SOL     OW31522   2.297   0.028   2.164  0.4600  0.2602 -0.8179
 6688SOL    HW131523   2.363   0.095   2.145 -1.3090  1.4832 -2.5338
 6688SOL    HW231524   2.342   4.674   2.132  0.9842 -0.0102  0.5500
 6689SOL     OW31525   1.967   0.685  11.712  0.2676  0.1554 -0.0410
 6689SOL    HW131526   2.012   0.624  11.654 -0.8922 -1.7732  1.0799
 6689SOL    HW231527   1.912   0.736  11.652 -0.7358 -0.9906 -0.0788
 6690SOL     OW31528   3.122   2.523  16.376 -0.0300 -0.6618 -0.1776
 6690SOL    HW131529   3.194   2.502  16.316 -0.9967 -1.0041 -1.2286
 6690SOL    HW231530   3.088   2.602  16.333  1.0414  0.5045  1.1383
 6691SOL     OW31531   2.809   2.700   0.071  0.0870  0.0753  0.0191
 6691SOL    HW131532   2.804   2.666   0.160  0.9786 -0.2526 -0.0617
 6691SOL    HW231533   2.872   2.772   0.079 -0.9089  1.0570 -0.8825
 6692SOL     OW31534   4.639   3.588   3.124 -0.3710  0.1443  0.0303
 6692SOL    HW131535   4.569   3.621   3.067  0.5490  1.8641 -0.1149
 6692SOL    HW231536   4.716   3.588   3.067 -0.0694 -0.6974  0.4359
 6693SOL     OW31537   1.363   4.621   5.926  0.4880  0.0005  0.3471
 6693SOL    HW131538   1.442   4.592   5.971  0.1710  0.1091  0.9846
 6693SOL    HW231539   1.341   4.688   5.991 -2.0612 -2.2377  1.8106
 6694SOL     OW31540   2.514   0.340   8.628  0.1715 -0.5570  0.2782
 6694SOL    HW131541   2.456   0.414   8.646 -1.2157 -1.6673  0.4599
 6694SOL    HW231542   2.579   0.344   8.698 -0.4435  0.1995  0.8013
 6695SOL     OW31543   3.558   0.192  15.689  0.3272 -0.8109  0.0245
 6695SOL    HW131544   3.492   0.128  15.712 -0.0274 -0.5064 -0.1476
 6695SOL    HW231545   3.584   0.160  15.602  0.1753  2.0721 -1.1056
 6696SOL     OW31546   0.708   3.952   6.214  0.3529 -0.4223 -0.2939
 6696SOL    HW131547   0.627   3.904   6.196  0.8730 -0.8262 -1.5588
 6696SOL    HW231548   0.727   3.980   6.125 -3.3333 -0.2955 -1.0428
 6697SOL     OW31549   1.356   2.041   8.821 -0.3575 -0.6000  0.2723
 6697SOL    HW131550   1.394   2.033   8.909  0.5447  0.5772 -0.0055
 6697SOL    HW231551   1.262   2.041   8.835 -0.5038  1.9943 -0.7131
 6698SOL     OW31552   2.391   3.414   8.030 -0.3873 -0.0806  0.7532
 6698SOL    HW131553   2.420   3.329   8.063  0.7746 -1.3675 -3.5260
 6698SOL    HW231554   2.343   3.455   8.101  0.8647 -1.5199  2.4148
 6699SOL     OW31555   0.925   1.232  16.260 -0.4890 -0.0084  0.4174
 6699SOL    HW131556   0.916   1.148  16.215  1.2608 -1.2007  2.2991
 6699SOL    HW231557   0.968   1.212  16.343 -1.3961  2.3243  1.4386
 6700SOL     OW31558   2.465   3.722  14.951  0.4868 -0.3209 -0.0204
 6700SOL    HW131559   2.399   3.777  14.908 -1.8035 -1.5424  1.8880
 6700SOL    HW231560   2.493   3.772  15.027  2.2477  0.4437 -1.1776
 6701SOL     OW31561   0.128   3.737   4.019  0.1276 -0.2262  0.1803
 6701SOL    HW131562   0.180   3.740   3.938 -1.1291  0.2331 -0.5964
 6701SOL    HW231563   0.156   3.817   4.064  0.9747  0.9601 -2.4572
 6702SOL     OW31564   3.857   2.405  11.261  0.0249 -0.2305 -0.0523
 6702SOL    HW131565   3.816   2.339  11.206  0.8116 -1.0744  0.3831
 6702SOL    HW231566   3.927   2.360  11.309 -0.5571 -1.4450 -0.3529
 6703SOL     OW31567   4.523   3.902  11.491  1.1474  0.5408 -0.2100
 6703SOL    HW131568   4.497   3.843  11.562  1.5080 -0.2549 -0.7439
 6703SOL    HW231569   4.616   3.898  11.512  0.1622  1.0064  4.2942
 6704SOL     OW31570   0.840   2.320   4.059  0.5611 -0.0047 -0.5120
 6704SOL    HW131571   0.930   2.309   4.090  0.3561 -1.3842 -0.3960
 6704SOL    HW231572   0.800   2.238   4.090  0.0390  0.0079 -1.1345
 6705SOL     OW31573   2.417   4.313   0.371  0.0382  0.2765  0.2359
 6705SOL    HW131574   2.363   4.273   0.440  1.9022 -1.2709  0.8005
 6705SOL    HW231575   2.417   4.241   0.307 -0.2541 -0.4478  1.0477
 6706SOL     OW31576   2.119   2.184  11.826 -0.1246 -0.2137 -0.0334
 6706SOL    HW131577   2.067   2.264  11.830  1.3133  0.7326  0.0236
 6706SOL    HW231578   2.134   2.176  11.920 -1.4361  2.8772  0.4652
 6707SOL     OW31579   4.384   1.244   2.784 -0.0788  0.0138  0.1715
 6707SOL    HW131580   4.314   1.224   2.846  0.9883 -1.4368  0.8898
 6707SOL    HW231581   4.430   1.313   2.832 -2.0116 -0.3839  2.5598
 6708SOL     OW31582   1.938   4.593   4.475 -0.1282 -0.0834 -0.1054
 6708SOL    HW131583   1.952   4.581   4.381  1.7601  1.8938 -0.0820
 6708SOL    HW231584   1.898   4.511   4.503  0.6979 -1.4513 -3.0048
 6709SOL     OW31585   4.006   0.940  14.570  0.4294  0.1878 -0.2836
 6709SOL    HW131586   4.014   0.973  14.481  0.5155  0.0751 -0.3176
 6709SOL    HW231587   4.097   0.937  14.601  0.4921  0.5640 -0.4356
 6710SOL     OW31588   2.047   3.069  15.504 -0.1190  0.0150  0.1002
 6710SOL    HW131589   2.036   3.017  15.425 -1.1059 -1.3375  1.1142
 6710SOL    HW231590   2.068   3.150  15.458  0.3978 -1.1802 -1.7826
 6711SOL     OW31591   0.810   0.631  16.710 -0.5141 -0.5773  0.1958
 6711SOL    HW131592   0.716   0.629  16.695 -0.3660 -1.9634 -0.6189
 6711SOL    HW231593   0.818   0.545  16.753  0.0764 -1.2970 -1.3503
 6712SOL     OW31594   2.370   3.589   2.955 -0.3987 -0.0340  0.0273
 6712SOL    HW131595   2.371   3.634   2.870 -0.1384 -1.9552 -0.9734
 6712SOL    HW231596   2.292   3.630   2.992  0.9783  3.3780 -0.7741
 6713SOL     OW31597   0.669   2.733   8.689 -0.0435  0.3582  0.0312
 6713SOL    HW131598   0.699   2.789   8.760  2.7701 -1.9196  0.5997
 6713SOL    HW231599   0.671   2.645   8.727  3.0616  0.2562 -0.3940
 6714SOL     OW31600   3.905   2.648   5.383  0.2704  0.4535 -0.4577
 6714SOL    HW131601   3.884   2.621   5.294  0.4346  0.3470 -0.4651
 6714SOL    HW231602   3.819   2.681   5.410 -0.6049 -1.2317 -1.1781
 6715SOL     OW31603   2.171   1.373   7.410  0.3099 -0.4380  0.7838
 6715SOL    HW131604   2.160   1.307   7.478 -1.0777 -0.4499  0.5439
 6715SOL    HW231605   2.265   1.367   7.394  0.0297 -1.5315 -0.4000
 6716SOL     OW31606   4.594   0.889   6.683  0.3916  0.6829  0.3276
 6716SOL    HW131607   4.613   0.872   6.775 -0.0623  1.3248  0.5382
 6716SOL    HW231608   4.669   0.946   6.664  0.7575  0.4444  1.0536
 6717SOL     OW31609   2.433   4.403  11.464 -0.0800 -0.1817 -0.0538
 6717SOL    HW131610   2.385   4.403  11.382  1.0649  0.0464 -0.7257
 6717SOL    HW231611   2.367   4.428  11.528 -0.3452  0.3506 -0.5346
 6718SOL     OW31612   1.963   3.638   5.601  0.4000 -0.3515  0.4153
 6718SOL    HW131613   1.939   3.551   5.572 -0.6016  0.3948 -1.0022
 6718SOL    HW231614   1.906   3.660   5.675  0.0211 -2.6183  0.7686
 6719SOL     OW31615   1.117   4.720  12.790  0.0421 -0.0691 -0.1468
 6719SOL    HW131616   1.088   0.002  12.699 -0.6104 -0.6042  0.0274
 6719SOL    HW231617   1.208   4.693  12.779 -0.1172  1.3912 -5.1408
 6720SOL     OW31618   3.203   3.752   6.085 -0.1827 -0.1776  0.1068
 6720SOL    HW131619   3.247   3.680   6.039  3.0940  1.8575  0.0461
 6720SOL    HW231620   3.197   3.714   6.173  0.1811 -1.8892 -0.5919
 6721SOL     OW31621   1.116   2.444   8.554 -0.1130 -0.1015 -0.9394
 6721SOL    HW131622   1.041   2.503   8.554  1.7359  2.2837  0.4851
 6721SOL    HW231623   1.163   2.493   8.622  0.7446 -1.4321 -0.5797
 6722SOL     OW31624   3.945   2.706   0.745 -0.1931 -0.4073 -0.2895
 6722SOL    HW131625   4.024   2.675   0.792 -0.6640  2.2910  2.2833
 6722SOL    HW231626   3.986   2.774   0.693  2.4506 -1.0345  0.9402
 6723SOL     OW31627   1.296   1.550  13.002  0.0856 -0.6072  0.5170
 6723SOL    HW131628   1.212   1.548  13.048  0.2095 -1.4577  0.7106
 6723SOL    HW231629   1.362   1.585  13.062  2.0249 -1.1132 -1.3138
 6724SOL     OW31630   2.874   0.914  13.841  0.1466  0.3438  0.2721
 6724SOL    HW131631   2.958   0.945  13.807 -0.8122 -0.0017 -2.4079
 6724SOL    HW231632   2.856   0.859  13.765 -0.5963  1.1410 -0.1300
 6725SOL     OW31633   3.925   2.739   2.204 -0.6842 -0.3262  0.3075
 6725SOL    HW131634   3.970   2.811   2.160 -1.0768 -0.0749  0.3193
 6725SOL    HW231635   3.975   2.731   2.285  1.7151 -1.2212 -1.2377
 6726SOL     OW31636   0.573   3.292   5.804  1.2619  0.2095  0.0431
 6726SOL    HW131637   0.630   3.311   5.730  0.7211 -0.4189 -0.5356
 6726SOL    HW231638   0.593   3.199   5.821  1.2024  0.3104  0.6752
 6727SOL     OW31639   3.115   0.489  14.362 -0.3872  0.3971 -0.6510
 6727SOL    HW131640   3.193   0.434  14.366  0.2175  1.3572  0.4781
 6727SOL    HW231641   3.070   0.464  14.281 -0.9612 -0.1053 -0.1864
 6728SOL     OW31642   2.504   0.685   7.388  0.5032  0.4269  0.1378
 6728SOL    HW131643   2.417   0.675   7.425 -0.0778  0.4696 -1.2110
 6728SOL    HW231644   2.513   0.607   7.333 -0.1139  0.9783 -0.7290
 6729SOL     OW31645   1.494   2.228   3.800  0.0121 -0.1930 -0.5787
 6729SOL    HW131646   1.574   2.211   3.849 -1.1515 -2.5114  0.4929
 6729SOL    HW231647   1.528   2.299   3.745 -2.5630  0.9919 -0.6353
 6730SOL     OW31648   4.624   0.188   5.369 -0.4106 -0.0913  0.4204
 6730SOL    HW131649   4.603   0.104   5.409 -2.4691  1.0369  1.6858
 6730SOL    HW231650   4.638   0.238   5.449 -0.0939  1.3521 -0.5375
 6731SOL     OW31651   4.667   2.430   5.812 -0.4119  0.2800  0.8212
 6731SOL    HW131652   4.707   2.380   5.883  0.9795  1.1011  0.6225
 6731SOL    HW231653   4.617   2.494   5.862 -0.5605  0.5038  0.3868
 6732SOL     OW31654   4.323   3.215   2.095  0.0011  0.2318 -0.2112
 6732SOL    HW131655   4.372   3.161   2.033 -2.0272 -2.5635  0.6201
 6732SOL    HW231656   4.338   3.308   2.075  0.1996 -0.3094 -2.5534
 6733SOL     OW31657   3.415   2.145   5.136 -0.0759 -0.6400 -0.1523
 6733SOL    HW131658   3.342   2.204   5.115  1.8345  0.7699 -2.9214
 6733SOL    HW231659   3.499   2.183   5.111  1.4776 -3.2945  1.0806
 6734SOL     OW31660   3.212   4.189   4.905 -0.3411 -0.2280 -0.2086
 6734SOL    HW131661   3.182   4.149   4.824  1.7522  1.2772 -1.7481
 6734SOL    HW231662   3.195   4.118   4.967  0.5116 -1.0424 -0.9190
 6735SOL     OW31663   1.249   3.697   9.011  0.3875 -0.0065 -0.0894
 6735SOL    HW131664   1.161   3.717   8.978  0.6411  0.3940 -0.5201
 6735SOL    HW231665   1.306   3.764   8.973 -0.5057  0.2920 -0.9058
 6736SOL     OW31666   2.072   2.544   7.781 -0.5271 -0.3608  0.1007
 6736SOL    HW131667   2.146   2.486   7.764 -0.1120 -0.0192  0.7237
 6736SOL    HW231668   2.123   2.624   7.766 -0.9722  0.1091  1.0297
 6737SOL     OW31669   4.275   1.878   4.840 -0.8764 -0.7590 -0.6142
 6737SOL    HW131670   4.260   1.832   4.757  0.4731 -0.8341 -0.8206
 6737SOL    HW231671   4.196   1.933   4.840 -1.5933 -1.7842  0.7370
 6738SOL     OW31672   2.134   1.787   1.794  0.7070  0.1998  0.3739
 6738SOL    HW131673   2.132   1.701   1.753  0.1892 -0.0580  0.9414
 6738SOL    HW231674   2.218   1.781   1.840  0.9116 -0.4501 -0.0826
 6739SOL     OW31675   4.523   4.475   2.719 -0.0965 -0.6993 -0.0347
 6739SOL    HW131676   4.519   4.402   2.780  0.1996  0.8872  1.8640
 6739SOL    HW231677   4.512   4.437   2.631  1.9031 -0.3398 -0.4453
 6740SOL     OW31678   0.862   3.741   2.946 -0.3001 -0.3922 -0.4005
 6740SOL    HW131679   0.829   3.656   2.916 -0.3663 -1.0517  1.5431
 6740SOL    HW231680   0.924   3.710   3.013  0.4855 -0.1583 -1.0225
 6741SOL     OW31681   3.731   4.430   8.629 -0.5083 -0.4051  0.2430
 6741SOL    HW131682   3.769   4.383   8.704 -1.2504  0.5231  1.1866
 6741SOL    HW231683   3.756   4.520   8.648 -1.8460  0.1597 -0.6860
 6742SOL     OW31684   2.127   0.722   4.402 -1.0814 -0.1444 -0.4820
 6742SOL    HW131685   2.205   0.695   4.451 -1.5119 -2.4223 -1.0565
 6742SOL    HW231686   2.098   0.636   4.372 -1.7751 -0.9323  2.4841
 6743SOL     OW31687   1.076   4.343   7.686 -0.1721  0.0530 -0.1462
 6743SOL    HW131688   1.023   4.283   7.633 -0.5571 -1.8012  2.3381
 6743SOL    HW231689   1.148   4.352   7.624  0.2119 -1.6802  0.0502
 6744SOL     OW31690   2.377   3.400   8.849  0.5351  0.6147  0.9917
 6744SOL    HW131691   2.336   3.406   8.935 -0.1925 -0.1929  0.7012
 6744SOL    HW231692   2.303   3.371   8.795  1.8806 -0.7589 -0.1024
 6745SOL     OW31693   2.634   1.195   7.786 -0.0342 -0.6923 -1.0909
 6745SOL    HW131694   2.718   1.221   7.750 -0.0542  1.4058  0.3986
 6745SOL    HW231695   2.592   1.281   7.778 -1.4383 -1.3560 -0.9558
 6746SOL     OW31696   2.569   0.773  17.561  0.2091  0.3967 -0.0993
 6746SOL    HW131697   2.634   0.815  17.505 -1.2810  1.3439 -1.0987
 6746SOL    HW231698   2.498   0.836  17.556 -0.8243 -0.7731 -0.1425
 6747SOL     OW31699   2.824   2.412   3.869 -0.6257 -0.2418 -0.3643
 6747SOL    HW131700   2.763   2.385   3.938 -0.4560 -0.6659 -0.3797
 6747SOL    HW231701   2.876   2.332   3.863  0.3344  0.3464  0.1039
 6748SOL     OW31702   1.571   3.936  12.633 -0.0793  0.1598 -0.0013
 6748SOL    HW131703   1.486   3.949  12.589 -0.1691 -0.5438 -0.0279
 6748SOL    HW231704   1.610   4.009  12.585 -1.9374  0.0795 -1.6523
 6749SOL     OW31705   1.283   0.583   6.636  0.0715 -0.2473  0.8218
 6749SOL    HW131706   1.350   0.597   6.568  0.4894  0.7257  1.4384
 6749SOL    HW231707   1.204   0.581   6.582  1.2765 -2.4294 -0.8994
 6750SOL     OW31708   0.921   0.921   8.882  0.0968  0.3235 -0.0365
 6750SOL    HW131709   0.910   0.877   8.798  0.4963  0.8067 -0.3419
 6750SOL    HW231710   0.835   0.933   8.922  0.3589  0.6653  0.4222
 6751SOL     OW31711   1.916   3.227   2.841  0.7006 -0.0274  0.4962
 6751SOL    HW131712   1.957   3.275   2.769 -1.6611  0.0680 -0.7869
 6751SOL    HW231713   1.835   3.198   2.799  0.2092  1.9963  0.0427
 6752SOL     OW31714   2.191   3.453  16.814 -0.6661  0.3977 -0.0852
 6752SOL    HW131715   2.179   3.399  16.736 -2.3726 -0.1533  0.5652
 6752SOL    HW231716   2.114   3.509  16.813  0.0129  1.3503  0.6058
 6753SOL     OW31717   3.745   2.011   5.113 -0.2927 -0.6050 -0.1412
 6753SOL    HW131718   3.744   2.074   5.186 -1.8106 -1.4301  0.5513
 6753SOL    HW231719   3.831   1.968   5.113  0.1407  0.2653  2.5497
 6754SOL     OW31720   0.620   1.230  13.745 -0.5688 -0.0697 -0.3900
 6754SOL    HW131721   0.582   1.308  13.788 -1.0800  0.2177 -1.3676
 6754SOL    HW231722   0.637   1.267  13.658  0.7118 -1.4240 -0.6985
 6755SOL     OW31723   1.013   2.963   2.220  0.2384  0.5404 -0.1375
 6755SOL    HW131724   1.085   2.998   2.273  2.1588 -2.7416 -0.5435
 6755SOL    HW231725   0.990   2.876   2.253 -1.8114  1.2692  0.3595
 6756SOL     OW31726   3.371   3.473   4.877  0.2221  0.5602  0.4192
 6756SOL    HW131727   3.420   3.415   4.819 -3.3177 -0.8214 -1.1467
 6756SOL    HW231728   3.283   3.436   4.875  0.0596  0.9911 -0.2831
 6757SOL     OW31729   2.834   1.679   0.919  0.1231  0.3649  0.0029
 6757SOL    HW131730   2.905   1.738   0.892 -0.9389  1.0748 -1.2189
 6757SOL    HW231731   2.880   1.595   0.915  0.5735  0.5994  0.2650
 6758SOL     OW31732   1.223   1.210   5.239  0.2098  0.1351  0.1001
 6758SOL    HW131733   1.137   1.200   5.197  1.1896 -0.3593 -1.7771
 6758SOL    HW231734   1.273   1.259   5.174 -0.9717 -0.3225 -1.1623
 6759SOL     OW31735   0.248   3.673   0.924  0.0242 -0.4265 -0.0494
 6759SOL    HW131736   0.289   3.757   0.944 -1.0843  0.1662 -0.2687
 6759SOL    HW231737   0.185   3.708   0.861 -0.7853  1.2150  1.6429
 6760SOL     OW31738   4.200   3.736   1.768  0.1130 -0.1302  0.2273
 6760SOL    HW131739   4.267   3.671   1.747 -0.3874 -1.1033  1.6284
 6760SOL    HW231740   4.226   3.764   1.855 -0.8319 -2.0141  1.1112
 6761SOL     OW31741   2.616   0.758  10.286 -0.1196 -0.3115  0.0078
 6761SOL    HW131742   2.549   0.823  10.264  0.7483  0.7856  0.5571
 6761SOL    HW231743   2.648   0.729  10.201 -0.1895  1.3229 -0.5753
 6762SOL     OW31744   2.038   0.576   3.399 -0.7253  0.3711 -0.0014
 6762SOL    HW131745   1.990   0.634   3.458  1.4552  0.3099  1.8549
 6762SOL    HW231746   2.082   0.516   3.460 -1.2008  2.2342  2.1729
 6763SOL     OW31747   3.989   1.555   6.823 -0.4311 -0.1736  0.1732
 6763SOL    HW131748   3.989   1.634   6.768  0.6716  0.4371  1.0465
 6763SOL    HW231749   3.940   1.588   6.899 -1.3799 -0.7605 -0.1795
 6764SOL     OW31750   4.022   2.173  16.166 -0.0592  0.2026 -0.2067
 6764SOL    HW131751   3.932   2.145  16.177 -0.5421  2.3993  1.3638
 6764SOL    HW231752   4.048   2.201  16.254 -0.3630 -0.7719  0.1969
 6765SOL     OW31753   1.653   1.986   5.086 -0.1374 -0.1635 -0.2228
 6765SOL    HW131754   1.669   1.973   5.179 -2.0882  0.4988  0.1970
 6765SOL    HW231755   1.722   1.927   5.056  1.6849  2.1982 -0.6495
 6766SOL     OW31756   1.341   4.561   8.796 -0.7977 -0.7556  0.2077
 6766SOL    HW131757   1.288   4.491   8.834  1.1023 -1.6830  1.1632
 6766SOL    HW231758   1.416   4.509   8.767 -0.8506 -1.3594  1.1664
 6767SOL     OW31759   1.773   4.008  13.821 -0.2754  0.1035 -0.0461
 6767SOL    HW131760   1.832   4.049  13.758  0.5904 -1.8865 -0.5245
 6767SOL    HW231761   1.837   4.006  13.892  1.0113  1.6348 -1.1776
 6768SOL     OW31762   1.156   1.597   0.368  0.1213 -0.6093 -0.3792
 6768SOL    HW131763   1.234   1.645   0.343 -1.5990  1.4425 -1.8042
 6768SOL    HW231764   1.093   1.622   0.300  0.1057 -1.3690 -0.6373
 6769SOL     OW31765   0.900   2.239   9.201 -0.6677  0.4327 -0.0210
 6769SOL    HW131766   0.933   2.175   9.139 -0.7731  0.0163  0.3567
 6769SOL    HW231767   0.938   2.205   9.282 -1.2583 -0.2752 -0.0390
 6770SOL     OW31768   2.238   2.087   8.497 -0.0866  0.6933 -0.0960
 6770SOL    HW131769   2.218   2.059   8.587 -0.3156  0.4027 -0.2373
 6770SOL    HW231770   2.204   2.017   8.442 -1.6146  1.2465  0.1224
 6771SOL     OW31771   3.370   0.287  11.406  0.1962  0.2664 -0.2411
 6771SOL    HW131772   3.421   0.214  11.439 -0.6079 -0.5289 -0.7417
 6771SOL    HW231773   3.401   0.362  11.456 -1.4921  1.1040 -0.4250
 6772SOL     OW31774   3.045   3.083   2.688  0.3387  0.0911  0.1246
 6772SOL    HW131775   3.091   3.098   2.770  0.5865  2.0104 -0.3783
 6772SOL    HW231776   3.115   3.080   2.623 -0.1749 -0.1879 -0.4293
 6773SOL     OW31777   0.708   0.422   7.409  0.7551 -0.1641 -0.5965
 6773SOL    HW131778   0.653   0.344   7.407  1.1076 -0.4270 -0.0194
 6773SOL    HW231779   0.660   0.479   7.468 -0.9975  0.0096 -2.1962
 6774SOL     OW31780   3.875   3.585   2.800 -0.2429  0.0597 -0.1186
 6774SOL    HW131781   3.946   3.584   2.736 -0.8660  1.7843 -0.8375
 6774SOL    HW231782   3.827   3.657   2.757 -3.3143  0.2907  3.6639
 6775SOL     OW31783   2.882   0.067   7.775  0.0297 -0.0257 -0.0439
 6775SOL    HW131784   2.817   0.007   7.738 -0.5509  0.4107  0.2665
 6775SOL    HW231785   2.849   0.092   7.861 -0.9318  0.0136 -0.4178
 6776SOL     OW31786   0.792   2.113   4.682 -0.1972 -0.0005 -0.5478
 6776SOL    HW131787   0.776   2.200   4.719 -1.6785 -1.1657  1.5529
 6776SOL    HW231788   0.803   2.132   4.589 -2.5607  1.5320 -0.5364
 6777SOL     OW31789   2.256   0.208   1.072  0.0952  0.4785 -0.0928
 6777SOL    HW131790   2.198   0.224   1.147  0.2593  2.3873 -0.3812
 6777SOL    HW231791   2.332   0.173   1.120  0.0297 -0.3353 -0.5862
 6778SOL     OW31792   2.498   1.724   3.016  0.6785  0.1080 -0.3503
 6778SOL    HW131793   2.452   1.784   3.074  0.4811 -0.4156  0.0307
 6778SOL    HW231794   2.546   1.677   3.084 -0.1229  1.0944  0.8954
 6779SOL     OW31795   3.848   0.161   5.301  0.3032 -0.2221 -0.0824
 6779SOL    HW131796   3.755   0.183   5.308 -0.0684 -0.8412 -2.8885
 6779SOL    HW231797   3.871   0.125   5.387  0.3150 -0.7317 -0.2970
 6780SOL     OW31798   1.554   1.594   0.775 -0.1509 -0.0189 -0.2776
 6780SOL    HW131799   1.641   1.555   0.772 -0.9412 -1.7609 -0.5523
 6780SOL    HW231800   1.560   1.687   0.793 -2.6561  0.1864 -0.4257
 6781SOL     OW31801   0.578   3.828   4.942  0.0001  0.5566  0.3122
 6781SOL    HW131802   0.663   3.853   4.907  0.6829 -3.0521 -0.5934
 6781SOL    HW231803   0.565   3.748   4.891  0.7594  1.6841 -1.6616
 6782SOL     OW31804   3.203   1.756   6.401  0.7590  0.2098  0.1167
 6782SOL    HW131805   3.149   1.828   6.368  0.5535 -0.8178 -1.8407
 6782SOL    HW231806   3.151   1.676   6.392  0.6612  0.1740  1.0800
 6783SOL     OW31807   1.455   2.940  16.327 -0.0427 -0.4313 -0.0818
 6783SOL    HW131808   1.500   2.968  16.247  2.7061  1.1085  2.0109
 6783SOL    HW231809   1.371   2.984  16.318  0.4767  0.4410 -0.6272
 6784SOL     OW31810   4.372   2.349   6.056  0.2597 -0.1775  0.0068
 6784SOL    HW131811   4.354   2.406   6.131  1.6758 -0.4262  0.5372
 6784SOL    HW231812   4.467   2.346   6.052  0.3410  0.9288  0.9824
 6785SOL     OW31813   2.838   1.548   7.613  0.2662 -0.1680  0.4228
 6785SOL    HW131814   2.872   1.634   7.639 -0.2040  1.0836 -3.1756
 6785SOL    HW231815   2.927   1.524   7.588  0.3554  0.3717  0.2202
 6786SOL     OW31816   0.847   2.569   2.134  0.4045 -0.1929  0.6588
 6786SOL    HW131817   0.846   2.495   2.074 -0.6198 -1.0451  1.7344
 6786SOL    HW231818   0.760   2.609   2.131  0.3155 -0.4306  0.0085
 6787SOL     OW31819   2.594   1.565   6.317 -0.6722  0.0995 -0.0217
 6787SOL    HW131820   2.651   1.528   6.385 -2.8734 -1.9851  0.7032
 6787SOL    HW231821   2.653   1.565   6.242 -2.5884  2.8644 -1.4829
 6788SOL     OW31822   0.536   3.408  13.509  0.0818  0.1445  0.1851
 6788SOL    HW131823   0.561   3.493  13.544  2.5098 -0.8154  0.7851
 6788SOL    HW231824   0.464   3.385  13.568 -0.6860  2.1622  0.0096
 6789SOL     OW31825   3.074   0.851   7.935  0.0652  0.0955  0.6472
 6789SOL    HW131826   3.068   0.870   8.029  2.6311  0.2526  0.7864
 6789SOL    HW231827   3.076   0.940   7.901  0.2052  1.1088  3.2673
 6790SOL     OW31828   3.707   0.696   7.251  0.3007  0.1678 -0.3586
 6790SOL    HW131829   3.685   0.684   7.343 -0.0094  1.8590 -0.2093
 6790SOL    HW231830   3.629   0.735   7.211 -1.3992 -1.7553  1.0721
 6791SOL     OW31831   1.546   3.517   3.607 -0.3716 -0.3189 -0.3187
 6791SOL    HW131832   1.506   3.579   3.545  0.9514 -1.3372 -2.2004
 6791SOL    HW231833   1.511   3.433   3.580 -0.7270 -1.4301  3.6244
 6792SOL     OW31834   2.696   1.762   5.753 -0.3409  0.1999 -0.1905
 6792SOL    HW131835   2.769   1.699   5.752 -0.4302  0.0885  0.0935
 6792SOL    HW231836   2.741   1.843   5.730 -2.1516  0.9043 -1.2249
 6793SOL     OW31837   1.277   4.459   7.258 -0.3894  0.2334  0.4101
 6793SOL    HW131838   1.276   4.367   7.233  1.3714  0.3767 -0.1955
 6793SOL    HW231839   1.276   4.454   7.354 -0.0036 -0.4239  0.3792
 6794SOL     OW31840   2.332   0.957   3.342  0.2344 -0.1110 -0.4025
 6794SOL    HW131841   2.259   0.966   3.403  0.4827 -2.6825  0.2469
 6794SOL    HW231842   2.293   0.894   3.282 -1.3193 -2.3229  2.9479
 6795SOL     OW31843   1.900   2.239  14.852  0.4534 -0.5320 -0.1692
 6795SOL    HW131844   1.978   2.196  14.816 -0.1790 -1.9744  0.1865
 6795SOL    HW231845   1.871   2.168  14.910  1.2694 -0.1474  0.7015
 6796SOL     OW31846   1.546   0.721   1.367 -0.3728 -0.4134  0.8817
 6796SOL    HW131847   1.451   0.712   1.362 -0.2983 -2.7427  3.2218
 6796SOL    HW231848   1.562   0.809   1.399  0.3269 -0.3070  0.2338
 6797SOL     OW31849   0.450   3.541   2.898 -0.5664  0.9981  0.2548
 6797SOL    HW131850   0.432   3.632   2.920 -2.1343  0.8733 -0.4896
 6797SOL    HW231851   0.423   3.548   2.806  3.2870 -0.7384 -1.0084
 6798SOL     OW31852   4.250   2.376   7.743 -0.2851  0.0170  0.4535
 6798SOL    HW131853   4.278   2.300   7.795 -2.7628  0.5442  2.5878
 6798SOL    HW231854   4.180   2.403   7.803 -1.3354 -1.3945 -0.1551
 6799SOL     OW31855   2.104   1.091   1.715  0.0242  0.5084 -0.2186
 6799SOL    HW131856   2.144   1.146   1.647  0.3965 -0.5812 -0.8728
 6799SOL    HW231857   2.074   1.022   1.656 -2.1685  0.3677  1.0787
 6800SOL     OW31858   2.104   0.468  14.015 -1.0057  0.2808  0.0036
 6800SOL    HW131859   2.053   0.527  14.072  0.3035  0.9610  0.4850
 6800SOL    HW231860   2.055   0.386  14.018  0.0345 -0.3062  1.0852
 6801SOL     OW31861   4.529   3.298   3.686 -0.7324 -0.7544 -0.4446
 6801SOL    HW131862   4.448   3.279   3.640 -1.8749 -0.7288  1.5194
 6801SOL    HW231863   4.536   3.222   3.744  3.7781  0.4547  0.5523
 6802SOL     OW31864   2.546   3.702   5.627  0.3271  0.3837  0.5752
 6802SOL    HW131865   2.482   3.773   5.630  1.1001  1.0382  1.4520
 6802SOL    HW231866   2.593   3.702   5.544 -1.6352 -1.4431 -0.5639
 6803SOL     OW31867   3.121   2.381   3.202 -0.0741 -0.2643 -0.3078
 6803SOL    HW131868   3.145   2.293   3.230  0.7203  0.0664  0.0586
 6803SOL    HW231869   3.175   2.386   3.123 -1.3829  1.1467 -1.1227
 6804SOL     OW31870   4.318   0.691   6.060  0.0714 -0.5266 -0.0075
 6804SOL    HW131871   4.289   0.602   6.081 -1.2180  0.0164  0.5150
 6804SOL    HW231872   4.401   0.706   6.105 -0.5362 -0.0007  0.9433
 6805SOL     OW31873   0.373   4.578   9.529 -0.1692  0.5559 -0.3690
 6805SOL    HW131874   0.331   4.654   9.489 -1.8332 -0.6262 -0.8556
 6805SOL    HW231875   0.304   4.558   9.593  0.8123  1.7151  1.0513
 6806SOL     OW31876   2.151   3.820   3.871  0.1317  0.2700  0.3556
 6806SOL    HW131877   2.202   3.794   3.947 -0.7469 -2.1121  0.1606
 6806SOL    HW231878   2.227   3.834   3.814  1.0466 -0.7526  1.3188
 6807SOL     OW31879   2.089   0.007   9.622  0.3966 -0.3698  0.3309
 6807SOL    HW131880   2.040   0.052   9.692  1.8960  0.9290  0.5522
 6807SOL    HW231881   2.143   4.678   9.681 -0.2056 -1.4096 -0.0575
 6808SOL     OW31882   3.027   2.825   2.806  0.2511  0.2468  0.1324
 6808SOL    HW131883   3.071   2.769   2.741  0.0812 -2.7492  2.5829
 6808SOL    HW231884   3.009   2.895   2.743  3.3367 -0.2967 -1.3825
 6809SOL     OW31885   2.022   3.331   0.738  0.6744  0.4829 -0.1342
 6809SOL    HW131886   2.031   3.412   0.689 -0.3287  0.2741 -0.6551
 6809SOL    HW231887   2.095   3.280   0.702 -0.1896  0.1429 -1.4057
 6810SOL     OW31888   3.774   0.448   8.890  0.4183 -0.1102  0.3018
 6810SOL    HW131889   3.739   0.532   8.920 -2.9445 -0.9474 -1.3261
 6810SOL    HW231890   3.817   0.415   8.969 -1.1631 -0.1497  1.1375
 6811SOL     OW31891   2.734   4.602  15.943 -0.4333 -0.1138  0.4518
 6811SOL    HW131892   2.807   4.664  15.945  1.4914 -2.3249 -1.6232
 6811SOL    HW231893   2.738   4.587  15.849 -0.0520  1.7725  0.1677
 6812SOL     OW31894   0.757   4.043   5.663 -0.2973 -0.4903  0.5043
 6812SOL    HW131895   0.836   3.995   5.689  0.1759 -0.9366 -1.7397
 6812SOL    HW231896   0.799   4.109   5.608  1.8099 -2.1517  0.1134
 6813SOL     OW31897   3.269   0.430   5.677 -0.4558  0.1534 -0.2684
 6813SOL    HW131898   3.308   0.494   5.618  0.9368 -0.1115  0.3803
 6813SOL    HW231899   3.194   0.405   5.623 -0.3966 -0.3181 -0.1332
 6814SOL     OW31900   2.315   3.426  16.434  0.4883  0.7066  0.2413
 6814SOL    HW131901   2.249   3.483  16.394 -1.0766 -0.4359  1.1909
 6814SOL    HW231902   2.302   3.431  16.529  1.1330  1.3934  0.2916
 6815SOL     OW31903   3.877   0.341   7.883 -0.6020 -0.3075  0.0273
 6815SOL    HW131904   3.908   0.260   7.923  0.8648  0.9260  1.3535
 6815SOL    HW231905   3.795   0.312   7.843  0.0291 -1.7096 -0.2572
 6816SOL     OW31906   2.748   2.625  12.683 -1.0402 -0.0182  0.1887
 6816SOL    HW131907   2.829   2.578  12.699 -1.4658 -0.8645 -0.1405
 6816SOL    HW231908   2.677   2.566  12.708 -2.2137  1.4824  0.4179
 6817SOL     OW31909   1.634   0.928   2.520 -0.2981  0.3024  0.2823
 6817SOL    HW131910   1.593   1.014   2.521  0.7145  0.7986 -0.9191
 6817SOL    HW231911   1.676   0.931   2.434  0.1029 -0.6487  0.4377
 6818SOL     OW31912   3.797   2.287   9.303  0.0144 -0.7047 -0.3769
 6818SOL    HW131913   3.734   2.340   9.255  2.5923  0.8368 -2.0618
 6818SOL    HW231914   3.745   2.275   9.383  0.5078  1.3329  0.2401
 6819SOL     OW31915   3.680   1.338   4.495  0.0973 -0.0389 -0.2945
 6819SOL    HW131916   3.613   1.376   4.438  0.7317 -0.5152 -1.3698
 6819SOL    HW231917   3.729   1.417   4.515 -0.4214 -0.0869  1.1424
 6820SOL     OW31918   1.302   0.211  12.682 -0.4732 -0.2210 -0.0199
 6820SOL    HW131919   1.208   0.217  12.700 -0.2511  1.7778  0.4025
 6820SOL    HW231920   1.321   0.136  12.739  0.0719  0.0387  0.1493
 6821SOL     OW31921   3.859   2.290   5.223  0.4147 -0.0806 -0.2061
 6821SOL    HW131922   3.871   2.273   5.129  2.2918  0.0833  0.0108
 6821SOL    HW231923   3.789   2.356   5.225  0.0641 -0.4306 -0.9829
 6822SOL     OW31924   3.752   4.445   3.620  0.1119  0.1276 -0.8386
 6822SOL    HW131925   3.841   4.474   3.639  0.2068 -0.6602 -0.1266
 6822SOL    HW231926   3.768   4.424   3.528  2.4134  0.0939 -0.4433
 6823SOL     OW31927   3.051   4.195   9.140 -0.7027  0.8472  0.1213
 6823SOL    HW131928   3.044   4.180   9.045 -1.5468  3.2160 -0.1815
 6823SOL    HW231929   3.041   4.114   9.190  2.2309  2.1801  2.8801
 6824SOL     OW31930   0.474   2.076   4.124  0.1660  0.4381  0.1931
 6824SOL    HW131931   0.430   2.018   4.186  0.0388  0.7779  0.4180
 6824SOL    HW231932   0.415   2.151   4.122 -2.7166 -1.8531 -1.1014
 6825SOL     OW31933   4.484   1.518  17.256 -0.3801  0.3217  0.1427
 6825SOL    HW131934   4.506   1.544  17.345  1.7613 -0.4717 -0.1458
 6825SOL    HW231935   4.562   1.473  17.223  0.2054  1.6358 -0.2566
 6826SOL     OW31936   2.815   3.969   3.948 -0.4399 -0.1093 -0.1424
 6826SOL    HW131937   2.911   3.964   3.942 -0.4216  1.7823 -1.5395
 6826SOL    HW231938   2.801   4.056   3.984 -2.1109  0.0070 -1.0655
 6827SOL     OW31939   2.491   1.818   5.934  0.3063  0.0993 -0.4506
 6827SOL    HW131940   2.505   1.909   5.960 -2.0329  0.2011  0.3702
 6827SOL    HW231941   2.568   1.797   5.880  1.8023  3.0735  0.5258
 6828SOL     OW31942   2.974   3.990  11.665  0.0484 -0.7819 -0.0610
 6828SOL    HW131943   2.953   3.967  11.756 -1.7903 -4.5825 -1.4581
 6828SOL    HW231944   2.907   4.055  11.644  0.5088 -0.1451  0.4196
 6829SOL     OW31945   4.553   4.431   7.442  0.3022  0.2402 -0.0160
 6829SOL    HW131946   4.622   4.452   7.504  0.5958  1.1951 -0.6734
 6829SOL    HW231947   4.516   4.519   7.442 -1.5727 -0.5434 -0.7613
 6830SOL     OW31948   1.222   3.368   6.301  0.0003  0.0724 -0.2267
 6830SOL    HW131949   1.272   3.439   6.261 -0.2531  0.8699  0.8710
 6830SOL    HW231950   1.157   3.348   6.234 -0.2607  0.3753 -0.0624
 6831SOL     OW31951   0.366   3.482   0.528 -0.3029 -0.0121  0.1489
 6831SOL    HW131952   0.279   3.523   0.536  0.4048  0.9190  3.2393
 6831SOL    HW231953   0.375   3.459   0.621  1.0209  0.3539  0.1097
 6832SOL     OW31954   3.219   3.232   7.055  0.0474 -0.8507  0.1703
 6832SOL    HW131955   3.244   3.217   7.146  0.9566 -0.0169  0.0601
 6832SOL    HW231956   3.160   3.305   7.071 -0.4101 -0.4640 -3.3082
 6833SOL     OW31957   0.774   4.231   1.388 -0.6885  0.4266 -0.5888
 6833SOL    HW131958   0.688   4.224   1.429  0.0668  0.8122  1.0634
 6833SOL    HW231959   0.758   4.312   1.339 -3.7561 -0.0643 -0.3730
 6834SOL     OW31960   3.698   4.100  16.931 -0.1140 -0.5618  0.3282
 6834SOL    HW131961   3.733   4.188  16.915 -0.7254 -0.7736 -2.2356
 6834SOL    HW231962   3.721   4.068  16.844  0.3056  2.3292 -0.6318
 6835SOL     OW31963   3.938   1.482  16.089  0.1586  0.3479  0.0833
 6835SOL    HW131964   3.914   1.469  16.181  1.1501 -0.2834  0.2515
 6835SOL    HW231965   3.848   1.479  16.055  0.3452 -1.6170 -0.2235
 6836SOL     OW31966   3.390   0.941   1.709 -0.5956  0.9099  0.0770
 6836SOL    HW131967   3.393   1.036   1.697  0.8686  1.0244  1.3819
 6836SOL    HW231968   3.457   0.909   1.648 -0.3939  1.4458  0.0124
 6837SOL     OW31969   3.229   0.188   5.337  0.6838  0.1060 -0.7540
 6837SOL    HW131970   3.288   0.263   5.334  1.1710 -0.2920 -1.1812
 6837SOL    HW231971   3.169   0.212   5.266  0.7327 -0.5085 -1.0011
 6838SOL     OW31972   0.143   0.796   2.973 -0.3802 -0.3106  0.3244
 6838SOL    HW131973   0.122   0.875   3.023 -1.5742 -0.1912 -0.3601
 6838SOL    HW231974   0.071   0.738   2.997 -0.8807 -0.0849 -0.6249
 6839SOL     OW31975   2.190   2.153   4.378 -0.2340  0.0043  0.2546
 6839SOL    HW131976   2.267   2.171   4.432  0.2421 -1.6140  0.1211
 6839SOL    HW231977   2.153   2.241   4.372 -1.1224 -0.4513 -0.9961
 6840SOL     OW31978   2.788   1.730   8.548  0.5082 -0.3438  0.3092
 6840SOL    HW131979   2.811   1.818   8.516  1.2968 -1.2858 -1.7441
 6840SOL    HW231980   2.865   1.681   8.518  0.7088  1.0361 -1.4704
 6841SOL     OW31981   3.374   0.245   4.909 -0.1692 -0.1511  0.7291
 6841SOL    HW131982   3.359   0.339   4.920 -3.2497 -0.4553 -0.8218
 6841SOL    HW231983   3.286   0.217   4.883 -1.1684  1.9367  1.8670
 6842SOL     OW31984   4.563   1.735   3.121 -0.2872  0.0774  0.3370
 6842SOL    HW131985   4.584   1.797   3.190 -1.1030 -1.1451  1.6887
 6842SOL    HW231986   4.580   1.649   3.159 -0.4072  0.6921  1.7769
 6843SOL     OW31987   1.713   2.611   7.594  0.5023  0.1437  0.4717
 6843SOL    HW131988   1.680   2.581   7.679  0.8838 -1.1117  0.1742
 6843SOL    HW231989   1.691   2.543   7.531 -3.0818  1.7958 -0.0442
 6844SOL     OW31990   3.078   4.688   6.886 -0.4015  1.0958  0.4187
 6844SOL    HW131991   3.137   0.037   6.862 -0.2063  0.5309 -0.8072
 6844SOL    HW231992   3.010   4.718   6.826 -0.0400 -2.2912 -1.6925
 6845SOL     OW31993   2.988   0.013   1.810 -0.2742  0.5254  0.2235
 6845SOL    HW131994   2.900   4.702   1.825 -0.0388  0.0297  0.4589
 6845SOL    HW231995   2.966   0.105   1.795 -1.0634  0.5775  1.7273
 6846SOL     OW31996   0.751   4.720  15.984  0.3402  0.3805 -0.0129
 6846SOL    HW131997   0.762   4.642  16.039 -1.0425 -0.4114 -0.8530
 6846SOL    HW231998   0.707   0.046  16.053  0.6551 -2.7448  2.4250
 6847SOL     OW31999   0.361   3.968   2.409 -0.0929 -0.2109  0.1784
 6847SOL    HW132000   0.438   3.991   2.358 -0.8468 -3.1318 -2.2218
 6847SOL    HW232001   0.311   3.915   2.347  0.8474 -0.5859 -0.2695
 6848SOL     OW32002   3.636   3.342  16.103 -0.2901 -0.3537  0.4435
 6848SOL    HW132003   3.610   3.418  16.155  1.8374  1.0084 -0.4968
 6848SOL    HW232004   3.552   3.302  16.083 -0.4547 -0.2374  0.8952
 6849SOL     OW32005   2.803   3.871   8.311 -0.0009  0.1201 -0.7503
 6849SOL    HW132006   2.855   3.791   8.320 -2.0209 -1.0871  0.3494
 6849SOL    HW232007   2.768   3.870   8.222 -0.3182 -0.2295 -0.6242
 6850SOL     OW32008   0.577   1.848   0.065  0.1064  0.1329  0.0027
 6850SOL    HW132009   0.616   1.927   0.104  0.1175 -0.1777  0.6320
 6850SOL    HW232010   0.490   1.851   0.107  0.3457  2.0040  0.3778
 6851SOL     OW32011   0.652   0.542   5.315  0.0731  0.2733  0.2996
 6851SOL    HW132012   0.708   0.489   5.372  0.1992  0.9082  0.7636
 6851SOL    HW232013   0.713   0.575   5.249 -0.5746 -0.4814 -0.6680
 6852SOL     OW32014   1.408   3.870   5.708 -0.2124 -0.3001 -0.3242
 6852SOL    HW132015   1.432   3.857   5.616 -1.6552  0.1506 -0.7660
 6852SOL    HW232016   1.480   3.919   5.747  0.9734 -0.2642 -2.5898
 6853SOL     OW32017   3.177   1.028  14.928 -0.2757 -0.5789  0.2276
 6853SOL    HW132018   3.231   0.949  14.925 -1.7846 -1.6322  1.2327
 6853SOL    HW232019   3.087   1.000  14.910 -0.4896 -1.6461  3.0925
 6854SOL     OW32020   3.620   2.312  10.431  0.4914 -0.0697 -0.0318
 6854SOL    HW132021   3.639   2.386  10.372 -0.7848 -1.1080 -1.7317
 6854SOL    HW232022   3.579   2.256  10.365  0.0412  0.1563  0.0584
 6855SOL     OW32023   2.779   2.030   5.397  0.3731 -0.0534  0.0792
 6855SOL    HW132024   2.815   2.114   5.427 -1.5116  1.1612 -1.0449
 6855SOL    HW232025   2.685   2.048   5.393 -0.2899 -3.8523 -1.6695
 6856SOL     OW32026   4.345   2.235   9.998  0.4644  0.3605 -0.5464
 6856SOL    HW132027   4.311   2.176   9.930  0.1637 -1.3073  1.0537
 6856SOL    HW232028   4.430   2.194  10.010  0.2599  0.5686  1.5832
 6857SOL     OW32029   1.595   1.230  14.721  0.6335  0.3438  0.0897
 6857SOL    HW132030   1.593   1.264  14.810 -0.6557  1.0986 -0.2271
 6857SOL    HW232031   1.543   1.150  14.731 -1.6996  1.3723 -3.9659
 6858SOL     OW32032   4.530   3.765   5.596 -0.4022  0.0449  0.5007
 6858SOL    HW132033   4.487   3.726   5.520  0.3472  0.9015 -0.3599
 6858SOL    HW232034   4.609   3.713   5.605  0.0983  0.3763 -2.1588
 6859SOL     OW32035   4.523   1.242   3.685  0.3001  0.1361 -0.2188
 6859SOL    HW132036   4.605   1.205   3.654  0.6522 -0.4676  1.4336
 6859SOL    HW232037   4.502   1.175   3.750 -1.6229  1.2333  0.2999
 6860SOL     OW32038   3.134   1.062   4.772 -0.1095  0.0410  0.3472
 6860SOL    HW132039   3.101   0.975   4.795 -1.0661 -0.3505 -2.5308
 6860SOL    HW232040   3.222   1.054   4.809  0.6638  0.8331 -1.3536
 6861SOL     OW32041   3.122   4.336   8.381 -0.1535 -0.3992  0.2589
 6861SOL    HW132042   3.055   4.296   8.326  1.3014 -1.5489 -0.6952
 6861SOL    HW232043   3.192   4.271   8.365 -0.0719 -0.1992 -0.1935
 6862SOL     OW32044   3.542   2.094   6.726 -0.0412  0.2435  0.6710
 6862SOL    HW132045   3.482   2.101   6.652  1.5013  0.2756 -0.5650
 6862SOL    HW232046   3.575   2.004   6.722 -0.1981  0.2689 -1.1720
 6863SOL     OW32047   1.907   2.318   8.738  0.3915 -0.4351 -0.7523
 6863SOL    HW132048   1.981   2.271   8.776  1.6487  2.0537 -0.1918
 6863SOL    HW232049   1.892   2.276   8.653  0.5325  0.9534 -1.4504
 6864SOL     OW32050   4.470   3.936   6.460  0.1893 -0.3684  0.3117
 6864SOL    HW132051   4.395   3.889   6.425  0.0377 -0.0397  0.2000
 6864SOL    HW232052   4.453   4.027   6.436 -1.6587 -0.2781  1.9668
 6865SOL     OW32053   3.513   1.072   3.724  0.4118 -0.4309  0.3371
 6865SOL    HW132054   3.552   1.104   3.806 -1.3586  1.4284  0.4746
 6865SOL    HW232055   3.589   1.060   3.667  0.2616  0.1285  0.0174
 6866SOL     OW32056   3.560   2.441   2.866 -0.0817  0.6937 -0.5528
 6866SOL    HW132057   3.642   2.481   2.840  0.1363  0.7293  0.1888
 6866SOL    HW232058   3.495   2.504   2.833 -1.4821 -1.0934 -1.2050
 6867SOL     OW32059   4.701   0.274  17.534  0.3078 -0.0645  0.2938
 6867SOL    HW132060   0.012   0.224  17.460  0.3413 -0.1375  0.3596
 6867SOL    HW232061   4.675   0.201  17.591  0.5981 -1.8852 -1.9188
 6868SOL     OW32062   2.089   0.801   2.475  0.5551  0.2233 -0.1631
 6868SOL    HW132063   2.107   0.889   2.509 -0.7511  0.9997 -1.4527
 6868SOL    HW232064   2.085   0.815   2.381 -3.3801  0.6765  0.0590
 6869SOL     OW32065   3.447   3.965  15.468  0.2778 -0.0486 -0.1581
 6869SOL    HW132066   3.445   3.882  15.517  2.2572 -1.7452 -2.9679
 6869SOL    HW232067   3.378   4.018  15.510 -1.4032 -2.0363 -0.3856
 6870SOL     OW32068   1.499   0.357   9.138 -0.1132  0.2195 -0.0358
 6870SOL    HW132069   1.505   0.446   9.171 -1.0842  0.0965  0.4746
 6870SOL    HW232070   1.426   0.366   9.077 -1.4871  1.9475  1.8761
 6871SOL     OW32071   3.746   4.367  12.891  0.6797  0.0533  0.0926
 6871SOL    HW132072   3.723   4.407  12.807  0.8398  0.0486  0.0479
 6871SOL    HW232073   3.706   4.432  12.948 -0.0822 -0.1953 -0.1554
 6872SOL     OW32074   0.897   4.055  16.342  0.6722 -0.0842  0.3038
 6872SOL    HW132075   0.934   4.119  16.280 -0.7379 -1.2719 -1.7502
 6872SOL    HW232076   0.961   4.055  16.414  2.3816 -0.7490 -1.2032
 6873SOL     OW32077   2.068   2.971   6.344  0.4904  0.4920  0.2855
 6873SOL    HW132078   2.058   3.028   6.420 -0.2784  0.8597 -0.0877
 6873SOL    HW232079   1.977   2.965   6.314  0.8504 -2.1536 -0.3341
 6874SOL     OW32080   0.229   4.406  14.413 -0.3110  0.0820 -0.2566
 6874SOL    HW132081   0.193   4.444  14.494 -0.1785 -1.0469  0.3299
 6874SOL    HW232082   0.185   4.322  14.402 -2.0994  1.2760 -2.2122
 6875SOL     OW32083   3.926   2.571   3.775  0.1860 -0.0030 -0.2940
 6875SOL    HW132084   3.926   2.480   3.745  2.6656 -0.8663  2.3421
 6875SOL    HW232085   3.911   2.621   3.695 -1.1555  0.9338  0.5261
 6876SOL     OW32086   3.088   1.378  10.938  0.6871 -0.7616 -0.5349
 6876SOL    HW132087   3.149   1.411  10.872 -0.5430  2.4674 -0.0651
 6876SOL    HW232088   3.006   1.390  10.891  0.6722 -1.3960 -0.6735
 6877SOL     OW32089   2.678   0.430  10.075  0.2328 -0.3981 -0.3894
 6877SOL    HW132090   2.601   0.375  10.063  0.1529  0.0437 -1.9429
 6877SOL    HW232091   2.721   0.378  10.143  1.5037  0.3256 -0.6254
 6878SOL     OW32092   0.364   0.402   7.115 -0.1098 -0.4796 -0.0999
 6878SOL    HW132093   0.271   0.407   7.094 -0.2763 -0.6484  0.5894
 6878SOL    HW232094   0.360   0.368   7.205  0.0274  2.0246  0.8552
 6879SOL     OW32095   2.585   0.270  12.054 -0.4704 -0.1159  0.2564
 6879SOL    HW132096   2.562   0.333  11.987 -1.5732 -0.7109  0.0809
 6879SOL    HW232097   2.600   0.328  12.129 -1.1300  0.7613 -0.3015
 6880SOL     OW32098   4.369   0.727   5.007  0.1210  0.1675 -0.9678
 6880SOL    HW132099   4.446   0.757   5.056 -0.2224  0.8536 -0.8517
 6880SOL    HW232100   4.306   0.721   5.080  1.6580  1.5270  0.4727
 6881SOL     OW32101   2.317   0.385   6.622 -0.4789  0.0798  0.0051
 6881SOL    HW132102   2.351   0.348   6.703 -0.6270 -1.1973 -0.5183
 6881SOL    HW232103   2.273   0.461   6.660  0.7861 -0.6854  2.9913
 6882SOL     OW32104   4.239   1.714   3.030 -0.2357  0.8886  0.5932
 6882SOL    HW132105   4.230   1.806   3.055 -0.5805  1.2716 -0.9583
 6882SOL    HW232106   4.334   1.703   3.040 -0.5668 -0.4249  2.3782
 6883SOL     OW32107   0.127   4.424   7.344  0.1781  0.5123 -0.0731
 6883SOL    HW132108   0.089   4.507   7.315  0.3033  0.7751  0.5050
 6883SOL    HW232109   0.081   4.423   7.429 -1.3105  2.2066 -0.8579
 6884SOL     OW32110   2.624   0.617   0.387 -0.0368 -0.0377 -0.0677
 6884SOL    HW132111   2.709   0.659   0.401 -0.0563 -0.1052  0.2478
 6884SOL    HW232112   2.587   0.679   0.323 -1.1821  0.3675  0.9947
 6885SOL     OW32113   4.715   3.586   7.789 -0.2840 -0.4769 -0.3348
 6885SOL    HW132114   0.007   3.492   7.776 -1.1341 -0.6177 -0.3360
 6885SOL    HW232115   4.701   3.598   7.883  0.9258 -0.8690 -0.1086
 6886SOL     OW32116   2.679   3.440   5.137  0.3776 -0.0934  0.0430
 6886SOL    HW132117   2.730   3.521   5.143 -1.2919  0.8310  1.6770
 6886SOL    HW232118   2.612   3.461   5.071 -1.6287 -1.2351  1.7010
 6887SOL     OW32119   0.353   4.438  11.395  0.3030 -0.2836 -0.1953
 6887SOL    HW132120   0.393   4.443  11.482 -1.8998  1.6510  0.7196
 6887SOL    HW232121   0.373   4.526  11.363 -1.3637  0.1105 -0.1916
 6888SOL     OW32122   0.789   0.519   2.242  0.0489 -0.0104  0.2361
 6888SOL    HW132123   0.758   0.442   2.290  1.2823 -1.2352 -0.9536
 6888SOL    HW232124   0.875   0.483   2.222 -0.4429 -0.6165 -0.8123
 6889SOL     OW32125   3.576   3.643  14.409 -0.0377 -0.0743 -0.2580
 6889SOL    HW132126   3.484   3.661  14.390 -0.0242  0.9862  0.6704
 6889SOL    HW232127   3.611   3.636  14.320  0.8409  1.0378  0.0142
 6890SOL     OW32128   0.993   4.435   9.937  0.7077 -0.0156  0.2703
 6890SOL    HW132129   1.053   4.508   9.950 -0.0018  1.0070 -2.1401
 6890SOL    HW232130   0.950   4.461   9.855 -3.5479 -0.5138  2.3489
 6891SOL     OW32131   3.030   1.295   3.328 -0.4869 -0.0167 -0.0051
 6891SOL    HW132132   3.107   1.264   3.280 -0.7035  1.3502 -1.2217
 6891SOL    HW232133   2.984   1.211   3.335  2.1216 -1.3299  1.4178
 6892SOL     OW32134   0.877   3.993   6.573 -0.0165  0.1790 -0.0192
 6892SOL    HW132135   0.848   4.084   6.581 -0.9324 -0.2463  1.4984
 6892SOL    HW232136   0.816   3.960   6.507  1.6305  0.6190 -1.7711
 6893SOL     OW32137   2.696   1.305  12.614  0.0048  0.1815  0.3291
 6893SOL    HW132138   2.612   1.259  12.617  0.4481 -0.5509  1.4163
 6893SOL    HW232139   2.665   1.383  12.568 -1.2150  0.0054  0.8541
 6894SOL     OW32140   4.474   1.634   4.915  0.1716  0.4777  0.2393
 6894SOL    HW132141   4.532   1.663   4.845 -1.5293 -1.8689 -2.0841
 6894SOL    HW232142   4.386   1.616   4.885  0.3004  2.0030 -1.0563
 6895SOL     OW32143   4.146   2.811   8.655 -0.1540  0.2497 -0.7140
 6895SOL    HW132144   4.227   2.824   8.705  0.0401 -2.4626 -0.2760
 6895SOL    HW232145   4.174   2.818   8.563  0.8655  2.1784 -0.2338
 6896SOL     OW32146   0.409   2.948   8.603 -0.0443 -0.9210  0.7661
 6896SOL    HW132147   0.384   2.961   8.512  0.8568 -2.0098  0.3739
 6896SOL    HW232148   0.384   3.037   8.631  0.7509 -0.3165 -0.4634
 6897SOL     OW32149   2.892   2.333  16.140 -0.4460 -0.4702 -0.5087
 6897SOL    HW132150   2.891   2.382  16.058 -0.8127  0.9073  0.3352
 6897SOL    HW232151   2.981   2.350  16.173  0.1434 -0.3310 -2.1558
 6898SOL     OW32152   3.040   3.227  11.987  0.8785  0.3193 -0.2661
 6898SOL    HW132153   3.071   3.219  12.077  0.1111 -1.8989 -0.2096
 6898SOL    HW232154   3.071   3.316  11.970  0.7671  0.5048  0.5271
 6899SOL     OW32155   0.368   0.996  14.268 -0.1859 -0.2841  0.0896
 6899SOL    HW132156   0.334   0.910  14.293 -0.6432 -0.7316 -2.0148
 6899SOL    HW232157   0.456   0.964  14.246  1.0904  3.0358  0.3829
 6900SOL     OW32158   3.685   3.063   4.417 -0.3451 -0.1127 -0.0369
 6900SOL    HW132159   3.665   3.034   4.506  0.2110  2.2104  0.8411
 6900SOL    HW232160   3.616   3.127   4.403 -0.4605 -0.0642  0.7630
 6901SOL     OW32161   1.910   0.537   4.930 -0.0864 -0.1117  0.4092
 6901SOL    HW132162   1.942   0.577   5.010 -0.5708  0.3566  0.3685
 6901SOL    HW232163   1.929   0.598   4.859  0.6001  0.6435  1.2556
 6902SOL     OW32164   4.651   0.762  15.065 -0.6280  0.2603 -0.0971
 6902SOL    HW132165   4.601   0.681  15.067  1.0697 -0.7664  0.3924
 6902SOL    HW232166   4.700   0.737  14.986  1.4685  2.0876  0.5984
 6903SOL     OW32167   3.488   0.531   9.771 -0.0480 -0.2829  0.2206
 6903SOL    HW132168   3.458   0.441   9.768 -0.6604 -0.0934  0.9231
 6903SOL    HW232169   3.413   0.574   9.810 -0.1375 -1.4697  1.3227
 6904SOL     OW32170   4.644   2.763   6.942 -0.3369  0.6297 -0.2853
 6904SOL    HW132171   4.688   2.696   6.890 -1.2963 -0.9253  0.9360
 6904SOL    HW232172   4.698   2.766   7.021  1.7103  0.0395 -1.6523
 6905SOL     OW32173   2.199   1.146  12.148 -0.1258  0.0698  0.5055
 6905SOL    HW132174   2.118   1.194  12.130  0.3592  0.8598  0.4215
 6905SOL    HW232175   2.227   1.138  12.057 -1.4232  1.5608 -0.0399
 6906SOL     OW32176   3.001   2.625   8.573  0.8094  0.3299  0.2561
 6906SOL    HW132177   3.002   2.712   8.533  1.6920  2.0260  3.9977
 6906SOL    HW232178   3.080   2.629   8.627  0.2110  3.3644  0.9111
 6907SOL     OW32179   3.244   1.798   9.928  0.6462 -0.0375  0.0784
 6907SOL    HW132180   3.166   1.848   9.901  1.6093  1.1487 -0.5353
 6907SOL    HW232181   3.218   1.749  10.006  0.8592  2.1508  1.5407
 6908SOL     OW32182   3.409   2.481   2.154 -0.3362 -0.5604  0.1285
 6908SOL    HW132183   3.502   2.493   2.136 -0.7698  2.1352 -0.3071
 6908SOL    HW232184   3.406   2.387   2.136  2.6995 -0.8543  1.1519
 6909SOL     OW32185   1.681   2.876   6.910  0.3817  0.5052 -0.4707
 6909SOL    HW132186   1.666   2.850   6.819 -0.9551  1.0314 -0.4004
 6909SOL    HW232187   1.679   2.971   6.898  0.1003  0.6717  0.8150
 6910SOL     OW32188   4.374   0.057   0.603  0.2667  0.0639 -0.0436
 6910SOL    HW132189   4.358   0.151   0.617  0.6518  0.1409 -0.1004
 6910SOL    HW232190   4.284   0.030   0.588  0.6587 -0.1974 -1.9168
 6911SOL     OW32191   0.107   2.889   4.677  0.0988  0.2554 -0.0917
 6911SOL    HW132192   0.139   2.972   4.641 -0.2135  0.1160 -0.6982
 6911SOL    HW232193   0.189   2.842   4.691  0.2482  1.2117  2.3326
 6912SOL     OW32194   2.740   0.652   4.873 -0.2171  0.0242  0.2293
 6912SOL    HW132195   2.713   0.742   4.859 -0.9844 -0.4494 -1.3233
 6912SOL    HW232196   2.660   0.629   4.921 -0.3467  0.9057  0.4264
 6913SOL     OW32197   3.139   3.796  11.837  0.2427 -0.1196 -0.0325
 6913SOL    HW132198   3.184   3.729  11.890 -2.7309 -2.2171 -0.1424
 6913SOL    HW232199   3.072   3.830  11.896 -1.2882 -0.6547 -1.4879
 6914SOL     OW32200   2.856   2.796   6.921  0.1504  0.9062  0.1687
 6914SOL    HW132201   2.846   2.882   6.880 -0.5988 -0.7167 -3.0717
 6914SOL    HW232202   2.783   2.796   6.982  1.1876 -2.0245  1.3932
 6915SOL     OW32203   3.536   3.104   3.187 -0.3726  0.2326 -0.0595
 6915SOL    HW132204   3.442   3.097   3.200 -0.0718 -0.4415  1.8183
 6915SOL    HW232205   3.534   3.199   3.181  2.6288  0.4142  1.8476
 6916SOL     OW32206   1.892   4.340  17.130  0.3755 -0.7792  0.3895
 6916SOL    HW132207   1.927   4.394  17.201  0.4307 -0.1088 -0.1445
 6916SOL    HW232208   1.971   4.287  17.114  1.3857  0.3448  1.5825
 6917SOL     OW32209   3.627   0.275   9.581 -0.4179 -0.4148 -0.2793
 6917SOL    HW132210   3.545   0.265   9.629 -0.3583  1.1119  0.1529
 6917SOL    HW232211   3.591   0.310   9.500 -1.9858 -3.1043 -0.7237
 6918SOL     OW32212   1.192   0.033   4.482  0.0708 -0.2478 -0.0945
 6918SOL    HW132213   1.105   4.722   4.461  0.5457 -0.9005 -0.9979
 6918SOL    HW232214   1.181   0.057   4.574  1.1645  0.0374 -0.0415
 6919SOL     OW32215   0.078   1.050   6.699  0.0255 -0.6013 -0.2661
 6919SOL    HW132216   0.138   1.044   6.773  0.6183  0.6208 -0.6614
 6919SOL    HW232217   0.130   0.993   6.643  1.8229 -2.8552  3.6452
 6920SOL     OW32218   3.830   2.519   7.404 -0.2155 -0.1783 -0.0881
 6920SOL    HW132219   3.855   2.506   7.495  0.3914 -1.3592 -0.4251
 6920SOL    HW232220   3.895   2.468   7.355 -0.0424  2.2859 -2.4350
 6921SOL     OW32221   2.532   3.865   8.158 -0.0614 -0.4263 -0.0826
 6921SOL    HW132222   2.445   3.839   8.130 -0.1297  1.1522 -1.3544
 6921SOL    HW232223   2.514   3.909   8.242 -2.8477 -1.5470 -0.1022
 6922SOL     OW32224   2.022   2.208  16.741  0.0284  0.0995 -0.2326
 6922SOL    HW132225   2.011   2.113  16.738 -1.5224  0.2540  0.8843
 6922SOL    HW232226   2.082   2.215  16.666 -0.1132 -0.5287 -0.4092
 6923SOL     OW32227   1.414   4.276  12.719 -0.4966 -0.2402  0.6572
 6923SOL    HW132228   1.407   4.297  12.626  0.8041  1.1246  0.8774
 6923SOL    HW232229   1.323   4.255  12.742 -0.5610  0.4626  1.0369
 6924SOL     OW32230   3.583   2.365   1.914  0.5292 -0.1538  0.0419
 6924SOL    HW132231   3.677   2.384   1.916  0.4618  0.1290  0.5524
 6924SOL    HW232232   3.572   2.304   1.987  1.8819  0.3500  0.6725
 6925SOL     OW32233   0.527   3.516  14.654 -0.4982  0.2534  0.2379
 6925SOL    HW132234   0.488   3.430  14.668 -0.6820  0.4058  0.6621
 6925SOL    HW232235   0.609   3.505  14.606 -0.4624  2.9838 -0.3234
 6926SOL     OW32236   2.496   3.150   3.956 -0.4690  0.1766  0.1015
 6926SOL    HW132237   2.409   3.160   3.994 -0.2388  1.2113  0.3624
 6926SOL    HW232238   2.478   3.148   3.862  1.9968  1.4058 -0.4106
 6927SOL     OW32239   0.741   2.087   3.329 -0.4692  0.0751 -0.3401
 6927SOL    HW132240   0.735   2.128   3.415  1.7035 -0.8650  0.2741
 6927SOL    HW232241   0.780   2.162   3.284  1.1741  0.0226  0.9778
 6928SOL     OW32242   4.445   2.284   5.716  0.2849 -0.2147  0.5963
 6928SOL    HW132243   4.430   2.335   5.796 -0.5830 -0.7549  0.7742
 6928SOL    HW232244   4.383   2.329   5.659 -0.8743 -1.1666  1.0914
 6929SOL     OW32245   1.787   2.025   3.054 -0.3300  0.5318  0.2497
 6929SOL    HW132246   1.879   2.009   3.031  0.2468  0.8116  2.3806
 6929SOL    HW232247   1.770   2.100   2.996  3.0645  0.0099 -1.4325
 6930SOL     OW32248   1.076   1.278  10.038 -0.1662  0.4817  0.2893
 6930SOL    HW132249   1.064   1.184  10.023  0.1237  0.5935 -0.5783
 6930SOL    HW232250   1.132   1.296   9.963  0.7445  0.4439  0.9540
 6931SOL     OW32251   3.263   1.173   6.084  0.2406  0.2547  0.0489
 6931SOL    HW132252   3.254   1.097   6.026  0.5786 -0.1117  0.4815
 6931SOL    HW232253   3.254   1.131   6.169 -3.9751  0.9911 -0.0422
 6932SOL     OW32254   0.173   2.562   0.386  0.6482  0.3599  0.1816
 6932SOL    HW132255   0.136   2.648   0.409 -1.5552  0.1385 -2.4293
 6932SOL    HW232256   0.265   2.586   0.391  0.4441  1.2094  0.0396
 6933SOL     OW32257   2.415   4.105   2.799  0.1354 -0.3169 -0.1160
 6933SOL    HW132258   2.371   4.043   2.857  1.1392 -0.3444  0.6382
 6933SOL    HW232259   2.346   4.133   2.740  1.2696 -0.5394 -1.5599
 6934SOL     OW32260   4.329   2.851   7.261 -0.0763  0.7539  0.6452
 6934SOL    HW132261   4.279   2.917   7.213  0.9232  0.3676 -0.9177
 6934SOL    HW232262   4.409   2.900   7.278  3.0564 -3.9597 -0.5996
 6935SOL     OW32263   1.941   2.704   3.814  0.1408 -0.3057 -0.9398
 6935SOL    HW132264   2.024   2.727   3.857 -1.1931  0.8513  1.0081
 6935SOL    HW232265   1.946   2.735   3.723 -1.4319  1.0435 -0.5583
 6936SOL     OW32266   2.002   1.555   2.298  0.3265  0.3697  0.6760
 6936SOL    HW132267   1.907   1.566   2.303  0.3235 -0.1735  1.7414
 6936SOL    HW232268   2.016   1.494   2.225 -3.0189 -1.4578  1.5543
 6937SOL     OW32269   3.437   0.066  15.197  0.0319 -0.1461 -0.0377
 6937SOL    HW132270   3.363   0.060  15.136  1.7227 -1.6188 -1.9197
 6937SOL    HW232271   3.508   0.078  15.134  0.2771 -0.5932  0.1532
 6938SOL     OW32272   3.650   4.018   7.100 -0.1791  0.2639 -0.3858
 6938SOL    HW132273   3.620   3.990   7.014  0.2395 -0.0128 -0.4415
 6938SOL    HW232274   3.740   4.039   7.077  0.5317 -2.0749  0.2421
 6939SOL     OW32275   4.034   1.607   7.223  0.2575  0.0329 -0.1479
 6939SOL    HW132276   4.104   1.620   7.159 -0.2797  1.9687 -0.3625
 6939SOL    HW232277   3.958   1.606   7.164 -1.0559 -2.5726  1.6012
 6940SOL     OW32278   4.270   0.418   2.539 -0.0551  0.7129  0.2690
 6940SOL    HW132279   4.201   0.356   2.514  1.1216 -1.0797  1.4606
 6940SOL    HW232280   4.349   0.382   2.500  1.1135  0.5875  2.7664
 6941SOL     OW32281   2.866   4.267   2.159  0.2215 -0.1126  0.2513
 6941SOL    HW132282   2.890   4.221   2.240  1.0988  1.4564  0.8997
 6941SOL    HW232283   2.927   4.340   2.169 -0.5227  0.5444  0.0231
 6942SOL     OW32284   2.586   2.643   6.449 -0.0629 -0.2163 -0.1299
 6942SOL    HW132285   2.615   2.702   6.518 -0.4619  0.8575 -0.8905
 6942SOL    HW232286   2.645   2.666   6.378 -2.9827 -0.8055 -2.7724
 6943SOL     OW32287   0.759   4.064  15.081  0.1941  0.1469  0.5323
 6943SOL    HW132288   0.700   3.989  15.092  1.7334 -0.8587  1.9533
 6943SOL    HW232289   0.804   4.072  15.165 -1.1530 -1.4951  1.4054
 6944SOL     OW32290   4.338   0.599   6.438  0.3416 -0.2876 -0.3545
 6944SOL    HW132291   4.414   0.638   6.482 -0.0476  0.8493 -0.6819
 6944SOL    HW232292   4.290   0.682   6.432  1.1121  0.2228  0.3770
 6945SOL     OW32293   2.532   0.710   2.636  0.4063  0.2345 -0.1513
 6945SOL    HW132294   2.494   0.627   2.608  0.0960 -0.4892  2.3896
 6945SOL    HW232295   2.595   0.674   2.699 -0.1729  1.8219  1.3610
 6946SOL     OW32296   2.908   2.539   1.323  0.3284 -0.1011  0.0509
 6946SOL    HW132297   2.828   2.552   1.272  0.3145 -2.3854 -0.4705
 6946SOL    HW232298   2.964   2.595   1.270 -0.5779 -0.7706 -1.6140
 6947SOL     OW32299   3.820   2.417   6.638 -0.5072  0.5350 -0.0124
 6947SOL    HW132300   3.813   2.350   6.570  0.1059 -1.3481  1.7701
 6947SOL    HW232301   3.855   2.488   6.585 -2.6174  0.7142 -1.1521
 6948SOL     OW32302   2.076   2.415   4.385  0.2160 -0.0017  0.8401
 6948SOL    HW132303   2.016   2.461   4.326 -0.1876 -0.3308  0.9993
 6948SOL    HW232304   2.140   2.481   4.411  1.0943 -0.9622  1.1146
 6949SOL     OW32305   2.311   0.502   1.721 -0.2939  0.7194 -0.6560
 6949SOL    HW132306   2.377   0.434   1.708 -0.5521  0.4261 -0.4134
 6949SOL    HW232307   2.239   0.469   1.667  1.6454  1.4773 -3.7219
 6950SOL     OW32308   3.064   4.663  13.813  0.2345 -0.3883 -0.3198
 6950SOL    HW132309   3.030   4.634  13.898  1.8404 -1.0405  0.0994
 6950SOL    HW232310   3.133   4.598  13.798  1.5309  1.1423 -0.9939
 6951SOL     OW32311   4.347   4.204   0.527  0.0218  0.2983 -0.1582
 6951SOL    HW132312   4.360   4.112   0.549  0.3684  0.2731 -0.4815
 6951SOL    HW232313   4.401   4.252   0.590  1.6923  0.6853 -1.8771
 6952SOL     OW32314   4.271   0.249   2.902  0.2883  0.1559  0.2429
 6952SOL    HW132315   4.307   0.176   2.852  0.6812  0.0899  0.6178
 6952SOL    HW232316   4.214   0.199   2.961 -2.1082 -0.0577 -2.2385
 6953SOL     OW32317   1.998   1.065  10.700  0.2680 -0.2342 -0.0040
 6953SOL    HW132318   2.035   1.083  10.786  1.4741  0.1357 -0.6004
 6953SOL    HW232319   1.927   1.007  10.728  0.3459  0.7548  2.2405
 6954SOL     OW32320   1.825   0.036  12.226 -0.7831 -0.2323 -0.2628
 6954SOL    HW132321   1.747   0.022  12.173 -0.3524  3.2366 -1.7859
 6954SOL    HW232322   1.825   4.696  12.298 -0.1517 -0.6440 -0.6160
 6955SOL     OW32323   2.513   0.894   4.556 -0.6917  0.3380  0.5671
 6955SOL    HW132324   2.603   0.863   4.543 -0.4540  1.6045 -0.7352
 6955SOL    HW232325   2.481   0.832   4.622  0.5612  1.1240  1.9288
 6956SOL     OW32326   1.779   1.596  16.534  0.0937  0.3159 -0.0671
 6956SOL    HW132327   1.778   1.560  16.445 -1.0893  1.1127 -0.3879
 6956SOL    HW232328   1.709   1.547  16.577 -0.2995  0.3615 -0.6490
 6957SOL     OW32329   3.825   2.104   9.579  0.2236  0.1422 -0.3626
 6957SOL    HW132330   3.901   2.156   9.604  0.0854  0.0806  0.1809
 6957SOL    HW232331   3.760   2.137   9.641  0.3309 -2.0222  0.8988
 6958SOL     OW32332   0.405   3.725  15.526 -0.5948 -0.3465  0.0342
 6958SOL    HW132333   0.468   3.734  15.598 -0.8809  1.6063  0.0570
 6958SOL    HW232334   0.459   3.675  15.467  1.4099  1.5849  0.2391
 6959SOL     OW32335   3.234   2.186  11.058  0.2440  0.1492  0.4119
 6959SOL    HW132336   3.227   2.247  11.131 -1.1388 -0.2406  0.6100
 6959SOL    HW232337   3.271   2.242  10.990 -1.3805  1.7962  0.9015
 6960SOL     OW32338   2.483   0.903  15.308 -0.1156 -0.2834 -0.5137
 6960SOL    HW132339   2.520   0.926  15.393 -0.1062  1.4764 -0.9907
 6960SOL    HW232340   2.546   0.832  15.295 -1.2435 -1.3360 -0.1444
 6961SOL     OW32341   1.262   2.276   2.851 -0.2149 -0.3761  0.4022
 6961SOL    HW132342   1.322   2.226   2.796  0.8822  1.9491 -0.5448
 6961SOL    HW232343   1.323   2.329   2.904  0.3505  1.2266 -1.8321
 6962SOL     OW32344   4.688   1.158   7.240 -0.3381 -0.1705 -0.0688
 6962SOL    HW132345   4.630   1.112   7.180  0.1443 -2.2178  1.0579
 6962SOL    HW232346   4.623   1.209   7.288 -0.3682 -1.4903  1.2775
 6963SOL     OW32347   1.010   2.022   1.654 -0.2718  0.0009 -0.1099
 6963SOL    HW132348   1.056   2.094   1.698 -1.9535  1.1125 -0.1730
 6963SOL    HW232349   1.020   2.057   1.565 -1.8386  0.7211 -0.0038
 6964SOL     OW32350   1.267   1.870   6.532  0.3532 -0.2252  0.0401
 6964SOL    HW132351   1.225   1.838   6.612 -0.7857  1.3492  0.0836
 6964SOL    HW232352   1.318   1.793   6.506 -0.9794 -1.0137 -0.2592
 6965SOL     OW32353   1.157   3.120   1.706  0.0663 -0.2029  0.4941
 6965SOL    HW132354   1.170   3.100   1.799 -0.7457  1.6707  1.0023
 6965SOL    HW232355   1.062   3.112   1.696  0.1059  1.7687 -1.4116
 6966SOL     OW32356   4.411   2.907   8.780  0.3966  0.0918 -0.0877
 6966SOL    HW132357   4.479   2.859   8.828 -0.2079  0.3038  0.9694
 6966SOL    HW232358   4.337   2.905   8.841  0.5808 -0.2650  0.1264
 6967SOL     OW32359   0.607   3.454   3.709  0.1547 -0.1405  0.3183
 6967SOL    HW132360   0.595   3.416   3.796  1.8141  1.8959  1.4112
 6967SOL    HW232361   0.658   3.532   3.728 -0.7398 -0.0161  2.2474
 6968SOL     OW32362   3.005   0.427   5.489 -0.6207 -0.1210 -0.4410
 6968SOL    HW132363   3.058   0.465   5.419  0.9713 -0.6038  0.4888
 6968SOL    HW232364   2.936   0.401   5.427  0.1928 -4.1368  0.3413
 6969SOL     OW32365   3.286   2.296  14.622 -0.0100 -0.6073 -0.0199
 6969SOL    HW132366   3.369   2.268  14.659 -0.3595 -2.0146 -0.2758
 6969SOL    HW232367   3.314   2.376  14.578 -2.0396 -0.0874 -0.3678
 6970SOL     OW32368   0.817   0.895   4.289  0.2340  0.4404 -0.0658
 6970SOL    HW132369   0.813   0.991   4.282  0.6904  0.3687 -1.3686
 6970SOL    HW232370   0.794   0.876   4.198 -0.4292  1.8448 -0.1912
 6971SOL     OW32371   3.581   3.166   8.230 -0.0949 -0.2307  0.5898
 6971SOL    HW132372   3.510   3.146   8.290  0.2505  3.7081  2.3193
 6971SOL    HW232373   3.607   3.245   8.277 -0.7658  0.0492  0.4870
 6972SOL     OW32374   4.723   3.060   8.424  0.0857 -0.5075 -0.1761
 6972SOL    HW132375   4.666   3.092   8.494  0.1929 -0.4967 -0.0943
 6972SOL    HW232376   4.679   3.091   8.345 -2.4079 -1.1370  0.9548
 6973SOL     OW32377   4.406   4.384   2.270  0.3244  0.7353  0.4654
 6973SOL    HW132378   4.463   4.351   2.200  0.9127 -1.3583  1.9325
 6973SOL    HW232379   4.322   4.394   2.226  1.2467 -0.7117 -1.6405
 6974SOL     OW32380   0.838   0.275  14.022 -0.1463  0.2473 -0.6254
 6974SOL    HW132381   0.901   0.244  13.957 -0.8749  1.2089 -1.8027
 6974SOL    HW232382   0.888   0.272  14.103  0.9514  1.2468 -1.2669
 6975SOL     OW32383   4.532   1.915  10.037  0.1853 -0.0982  0.0746
 6975SOL    HW132384   4.559   2.004  10.015 -3.0135  0.8860  0.1262
 6975SOL    HW232385   4.580   1.873   9.966  1.8863  0.9811  0.5872
 6976SOL     OW32386   1.018   1.800   2.768 -0.0246  0.5921 -0.2073
 6976SOL    HW132387   1.004   1.800   2.862  1.0333  1.3141 -0.0493
 6976SOL    HW232388   0.954   1.861   2.732  0.3104  0.5287 -0.9301
 6977SOL     OW32389   0.986   1.632  15.808  0.1654 -0.1854  0.3258
 6977SOL    HW132390   0.928   1.704  15.785 -1.9855 -1.3915  1.9597
 6977SOL    HW232391   1.028   1.626  15.722  0.4813  0.9078  0.4008
 6978SOL     OW32392   3.903   0.866   5.164 -0.2486  0.3255  0.0590
 6978SOL    HW132393   3.837   0.861   5.233  0.4422 -0.7296  0.6426
 6978SOL    HW232394   3.867   0.813   5.093  0.3327 -0.2886  0.2191
 6979SOL     OW32395   0.178   1.180  14.818 -0.3969 -0.1291 -0.1121
 6979SOL    HW132396   0.204   1.265  14.783 -1.4611 -0.2287 -1.1474
 6979SOL    HW232397   0.262   1.139  14.842 -1.0151 -1.0137  0.5267
 6980SOL     OW32398   3.784   3.961  12.934  0.6246  0.3313 -0.2547
 6980SOL    HW132399   3.844   3.998  12.870  1.8370 -1.3871 -0.0978
 6980SOL    HW232400   3.755   4.036  12.986 -0.3146  0.0696 -0.3917
 6981SOL     OW32401   0.304   4.542   4.657  0.4656 -0.1432 -0.5629
 6981SOL    HW132402   0.325   4.481   4.727 -0.2515 -0.7417 -0.8767
 6981SOL    HW232403   0.212   4.518   4.644  0.1576 -0.1862  1.6065
 6982SOL     OW32404   0.691   3.205  17.079  0.0603  0.1036  0.0403
 6982SOL    HW132405   0.677   3.150  17.156  0.1107  1.3237  0.9098
 6982SOL    HW232406   0.610   3.191  17.031 -1.0279  1.3657  1.5361
 6983SOL     OW32407   1.026   3.364   4.845  0.0510 -0.2511 -0.0649
 6983SOL    HW132408   0.959   3.347   4.779 -1.0248 -0.1017  0.9990
 6983SOL    HW232409   1.106   3.337   4.800  0.6032 -1.2055  1.5073
 6984SOL     OW32410   0.153   3.279  17.576  0.7065  0.4323  0.0415
 6984SOL    HW132411   0.213   3.232  17.636  1.9129  3.4733  1.2292
 6984SOL    HW232412   0.125   3.207  17.520 -0.6074 -0.4373  1.8058
 6985SOL     OW32413   3.569   0.501   7.110 -0.3423 -0.2438  0.0850
 6985SOL    HW132414   3.618   0.420   7.098 -0.9552 -0.5025 -0.6015
 6985SOL    HW232415   3.643   0.551   7.145 -0.0792  0.1092 -0.9667
 6986SOL     OW32416   3.688   4.593   5.156  0.7840  0.1349 -0.5721
 6986SOL    HW132417   3.761   4.653   5.143 -0.7567  1.9588 -0.6923
 6986SOL    HW232418   3.614   4.654   5.151  2.0457  1.6933 -0.1351
 6987SOL     OW32419   3.374   0.881   7.709  0.0822  0.3259  0.0556
 6987SOL    HW132420   3.436   0.893   7.781 -0.9110 -0.0655  0.9727
 6987SOL    HW232421   3.309   0.825   7.751 -1.1414 -1.6796 -4.4381
 6988SOL     OW32422   3.454   2.043   3.939 -0.2537  0.2392  0.1162
 6988SOL    HW132423   3.482   2.093   3.862  1.7249  0.3419  0.8731
 6988SOL    HW232424   3.444   2.118   3.998  1.2812  0.4209  0.1465
 6989SOL     OW32425   3.586   0.110  15.424 -0.0895  0.0960 -0.2493
 6989SOL    HW132426   3.636   0.181  15.382 -0.2341 -0.0913 -0.7270
 6989SOL    HW232427   3.527   0.089  15.352 -2.4323 -0.3268  1.8135
 6990SOL     OW32428   4.490   3.004  13.170  0.1713 -0.4954 -0.7458
 6990SOL    HW132429   4.542   2.925  13.182 -1.4336 -1.1916  1.6508
 6990SOL    HW232430   4.438   3.012  13.250 -1.9514  0.9228 -2.2744
 6991SOL     OW32431   3.430   0.507  11.596 -0.2626 -0.4480  0.7185
 6991SOL    HW132432   3.400   0.583  11.547  1.7488 -0.2773 -0.2444
 6991SOL    HW232433   3.482   0.552  11.662  0.5827 -1.8088  0.9829
 6992SOL     OW32434   4.260   0.316   0.666  0.0055  0.3105 -0.0406
 6992SOL    HW132435   4.182   0.372   0.670  0.9201  1.7763 -2.6501
 6992SOL    HW232436   4.321   0.374   0.712 -1.1157  0.3713  1.3600
 6993SOL     OW32437   2.827   1.595   6.191  0.0268  0.0611  0.3476
 6993SOL    HW132438   2.907   1.551   6.222 -0.5011 -1.6132 -0.6896
 6993SOL    HW232439   2.844   1.665   6.253  1.2032 -0.1879  0.3145
 6994SOL     OW32440   0.963   1.484   0.511 -0.1492  0.7349 -0.3722
 6994SOL    HW132441   1.040   1.520   0.467  1.6991 -1.7247  0.8543
 6994SOL    HW232442   0.959   1.543   0.586  2.5192 -0.4099  0.6485
 6995SOL     OW32443   1.369   4.361   6.205 -0.6212 -0.5114  0.2623
 6995SOL    HW132444   1.447   4.398   6.164  0.8757 -2.2374  1.5918
 6995SOL    HW232445   1.323   4.445   6.205  0.4322  0.0576  0.0998
 6996SOL     OW32446   0.321   4.055   6.310  0.5691  0.2934  0.1421
 6996SOL    HW132447   0.383   4.127   6.322  0.6854  0.0318  1.0600
 6996SOL    HW232448   0.327   4.000   6.388 -3.3923 -0.3478  0.0043
 6997SOL     OW32449   2.021   3.913   9.140 -0.9715  0.1146 -0.2054
 6997SOL    HW132450   2.115   3.922   9.126 -0.9591 -0.8456 -0.7761
 6997SOL    HW232451   1.981   3.998   9.118 -0.1874 -0.1711 -2.7884
 6998SOL     OW32452   2.516   2.073   0.422 -0.1167  0.0199 -0.1620
 6998SOL    HW132453   2.608   2.047   0.427 -0.1707 -0.2071 -0.3108
 6998SOL    HW232454   2.497   2.055   0.514  0.9957  1.1230  0.2685
 6999SOL     OW32455   3.512   0.980   6.849 -0.0644 -0.5312  0.0353
 6999SOL    HW132456   3.437   0.927   6.875  0.7077 -0.5362  2.1950
 6999SOL    HW232457   3.581   0.914   6.860 -1.3135 -2.1750 -1.8943
 7000SOL     OW32458   2.880   4.203  11.904 -0.0921  0.0587 -0.1975
 7000SOL    HW132459   2.947   4.154  11.951 -0.7119 -0.0810  0.5458
 7000SOL    HW232460   2.839   4.140  11.844 -0.4728  1.5797 -1.5517
 7001SOL     OW32461   2.702   1.795   4.854 -0.4534  0.4324  0.1501
 7001SOL    HW132462   2.689   1.879   4.898 -0.7238  0.5291 -0.1187
 7001SOL    HW232463   2.623   1.751   4.884 -0.1615  1.6706  2.7469
 7002SOL     OW32464   3.022   0.769  14.080  0.6013  0.1596 -0.1499
 7002SOL    HW132465   2.942   0.803  14.121  1.3388  0.5347  1.0083
 7002SOL    HW232466   3.002   0.787  13.988 -0.3124 -0.8469 -0.1390
 7003SOL     OW32467   2.201   1.155   8.003  0.0423  0.4944  0.1788
 7003SOL    HW132468   2.205   1.141   7.909  2.2164  2.7990 -0.0765
 7003SOL    HW232469   2.199   1.070   8.047  1.1377  0.6699  0.5776
 7004SOL     OW32470   0.533   2.246   9.184 -0.7631 -0.8331 -0.3329
 7004SOL    HW132471   0.472   2.172   9.179 -0.3064 -1.2878  0.9356
 7004SOL    HW232472   0.538   2.269   9.276 -1.6394 -0.1167 -0.4553
 7005SOL     OW32473   2.727   0.501   8.420 -0.1824 -0.2432  0.2379
 7005SOL    HW132474   2.781   0.470   8.492  0.8004  0.1010 -0.3469
 7005SOL    HW232475   2.669   0.427   8.400  1.5940 -2.2085  2.4287
 7006SOL     OW32476   0.717   1.692  10.734 -0.4401 -0.1495  0.0458
 7006SOL    HW132477   0.784   1.760  10.747 -2.4322  1.3313  2.4908
 7006SOL    HW232478   0.644   1.754  10.740 -1.8824 -1.6196 -2.3368
 7007SOL     OW32479   0.343   2.909  17.323 -0.0753 -0.7607 -0.2221
 7007SOL    HW132480   0.363   2.823  17.360  1.8340  1.4744  3.9785
 7007SOL    HW232481   0.402   2.962  17.377 -2.1256 -0.6222  1.8919
 7008SOL     OW32482   3.007   2.445   6.064  0.8689  0.2930  0.6586
 7008SOL    HW132483   3.016   2.355   6.093 -0.4937 -0.2069 -0.4663
 7008SOL    HW232484   2.912   2.439   6.055  0.8458  0.6240  0.6814
 7009SOL     OW32485   3.483   2.985  13.798  0.2245  0.3297  0.5008
 7009SOL    HW132486   3.553   2.937  13.843  1.2670  0.8720 -0.5418
 7009SOL    HW232487   3.520   2.980  13.710  0.1626 -1.3537  0.5669
 7010SOL     OW32488   1.479   1.621   4.725  0.9773  0.3747 -0.1519
 7010SOL    HW132489   1.466   1.680   4.799  1.3304  0.2508  0.0089
 7010SOL    HW232490   1.387   1.600   4.708  0.4295  1.4030  1.5519
 7011SOL     OW32491   1.266   3.037   4.755 -0.2643  0.1729  0.0874
 7011SOL    HW132492   1.182   2.992   4.765 -0.3770  0.1555 -0.9043
 7011SOL    HW232493   1.250   3.066   4.665 -2.1713  0.4116  0.5117
 7012SOL     OW32494   0.258   0.602   6.752 -0.0036 -0.0676 -0.6522
 7012SOL    HW132495   0.315   0.666   6.795 -0.0166  0.9200 -2.1090
 7012SOL    HW232496   0.198   0.590   6.826 -0.2768 -0.8591 -1.0044
 7013SOL     OW32497   0.241   2.705   8.106  0.1237  0.1915  0.3501
 7013SOL    HW132498   0.257   2.638   8.039  1.0812 -0.4523  1.2311
 7013SOL    HW232499   0.295   2.661   8.171  0.6135  0.7553  0.3320
 7014SOL     OW32500   3.705   3.451   4.859 -0.3254  0.6615  0.2494
 7014SOL    HW132501   3.668   3.373   4.899 -0.5359  0.7841  0.2906
 7014SOL    HW232502   3.733   3.423   4.772  0.8943  1.2894  0.4403
 7015SOL     OW32503   1.410   1.590  10.249 -0.3192  0.2397 -0.3932
 7015SOL    HW132504   1.411   1.555  10.160  0.2892  0.9465 -0.6578
 7015SOL    HW232505   1.503   1.602  10.271 -0.6387 -1.2460  1.7708
 7016SOL     OW32506   4.716   1.460  12.940  0.6601 -0.1784 -0.0594
 7016SOL    HW132507   0.064   1.503  12.987 -0.1137 -1.7897  2.6140
 7016SOL    HW232508   0.003   1.366  12.951 -2.0364 -0.4716 -0.1496
 7017SOL     OW32509   0.674   1.686   4.940  0.4912  0.1447  0.1834
 7017SOL    HW132510   0.719   1.609   4.976 -0.9168 -0.8363 -0.1320
 7017SOL    HW232511   0.613   1.632   4.890 -0.2411  1.7880 -0.6893
 7018SOL     OW32512   2.147   1.073   4.146  0.5256  0.3668  0.2611
 7018SOL    HW132513   2.194   1.038   4.221  0.8895 -2.7228 -1.4284
 7018SOL    HW232514   2.100   1.152   4.173 -2.1083 -1.5502  1.2900
 7019SOL     OW32515   3.593   2.276   9.506  0.7349  0.3866 -0.0746
 7019SOL    HW132516   3.536   2.279   9.429 -0.1924  1.9182  0.6689
 7019SOL    HW232517   3.537   2.306   9.577 -0.6379 -0.7608 -0.6779
 7020SOL     OW32518   0.491   1.274   9.029  0.6135  0.0735 -0.1044
 7020SOL    HW132519   0.453   1.316   8.952  0.0040 -2.1343 -1.0039
 7020SOL    HW232520   0.422   1.273   9.095  0.3065 -1.3243 -0.4425
 7021SOL     OW32521   2.284   4.355   3.815  0.2064  0.2269  0.4867
 7021SOL    HW132522   2.190   4.368   3.808  0.1661  1.1544  2.8763
 7021SOL    HW232523   2.289   4.290   3.885 -1.8976 -1.5477 -1.0211
 7022SOL     OW32524   0.546   1.647   2.341 -0.4708  0.5249  0.0558
 7022SOL    HW132525   0.511   1.728   2.379  0.1409  1.0422 -0.4845
 7022SOL    HW232526   0.631   1.650   2.385 -0.1523  0.2435 -0.5513
 7023SOL     OW32527   3.687   4.674   7.965 -0.0609  0.1497 -0.8274
 7023SOL    HW132528   3.669   4.588   7.928  0.6933 -0.0624 -0.7037
 7023SOL    HW232529   3.717   4.644   8.052 -2.0049 -0.6880 -0.4463
 7024SOL     OW32530   2.880   3.678   6.312 -0.1966 -0.6523 -0.0317
 7024SOL    HW132531   2.951   3.619   6.338  0.0794 -0.5092 -0.4523
 7024SOL    HW232532   2.915   3.720   6.233 -0.7070  0.6881  0.4657
 7025SOL     OW32533   0.187   1.196   8.832 -0.5970  0.3470 -0.0782
 7025SOL    HW132534   0.210   1.112   8.872 -1.3493  0.6020  0.8970
 7025SOL    HW232535   0.092   1.206   8.845 -0.1754  2.1956  1.4572
 7026SOL     OW32536   4.099   4.667   2.759  0.7230  0.2706 -0.2111
 7026SOL    HW132537   4.179   4.677   2.810  1.0019  0.7287 -0.7418
 7026SOL    HW232538   4.040   4.660   2.835 -0.1621  0.9879 -0.8343
 7027SOL     OW32539   2.122   1.795  12.463  0.5551  0.8208 -0.2986
 7027SOL    HW132540   2.078   1.838  12.537  1.4756  0.5845  0.3874
 7027SOL    HW232541   2.211   1.807  12.496 -0.1225  1.9211  1.1780
 7028SOL     OW32542   4.277   2.281   3.947  0.4340  0.3777  0.3665
 7028SOL    HW132543   4.197   2.228   3.944  1.6884 -1.4496 -1.1617
 7028SOL    HW232544   4.335   2.239   3.884 -0.2428  0.7453 -0.5136
 7029SOL     OW32545   3.256   2.789   7.656 -0.1535 -0.7534 -0.2475
 7029SOL    HW132546   3.236   2.698   7.636  0.3960 -1.3971  2.1645
 7029SOL    HW232547   3.349   2.777   7.672  0.1193  0.6508 -0.8037
 7030SOL     OW32548   3.412   4.411   8.219  0.1511  0.2175 -0.2076
 7030SOL    HW132549   3.324   4.379   8.201  0.4196 -0.0086 -1.0926
 7030SOL    HW232550   3.404   4.426   8.313  1.1507  1.7068 -0.3662
 7031SOL     OW32551   2.785   0.432   2.331 -0.0516  0.2503  1.2436
 7031SOL    HW132552   2.709   0.491   2.331  0.3297  0.7412  0.1144
 7031SOL    HW232553   2.850   0.479   2.279 -0.9462  0.9501  0.7487
 7032SOL     OW32554   3.714   1.331  12.559 -0.1816 -0.5041 -0.5904
 7032SOL    HW132555   3.757   1.378  12.630  0.5010 -1.8588 -0.0999
 7032SOL    HW232556   3.748   1.242  12.569 -0.8951 -0.4838  2.0921
 7033SOL     OW32557   2.410   1.091   5.768  0.5787  0.2956  0.2376
 7033SOL    HW132558   2.418   1.140   5.686  0.0987 -0.7679 -0.4507
 7033SOL    HW232559   2.502   1.087   5.794  0.7353  0.8876 -0.2201
 7034SOL     OW32560   2.517   0.099   1.830 -0.4948  0.1886  0.2684
 7034SOL    HW132561   2.578   0.042   1.782  0.0261  0.5817  0.4551
 7034SOL    HW232562   2.444   0.037   1.833 -0.8125  0.6308  1.3966
 7035SOL     OW32563   0.122   0.101   0.086  0.1209 -0.3726  0.6909
 7035SOL    HW132564   0.126   0.012   0.121 -2.2124 -0.4055  0.8436
 7035SOL    HW232565   0.040   0.085   0.041  0.6721 -0.8419 -0.1491
 7036SOL     OW32566   0.920   0.779   5.468 -0.4308 -0.5822 -0.1990
 7036SOL    HW132567   0.974   0.714   5.511  1.3558 -0.0166 -1.5995
 7036SOL    HW232568   0.959   0.861   5.498  0.7542 -1.1953 -0.0730
 7037SOL     OW32569   1.270   1.272  17.248 -0.3044  0.8439 -0.0385
 7037SOL    HW132570   1.357   1.295  17.281 -0.3716  0.0760  0.6663
 7037SOL    HW232571   1.223   1.352  17.275  1.7481  1.1747  2.5351
 7038SOL     OW32572   1.179   2.675  12.142 -0.6693 -0.0834  0.0291
 7038SOL    HW132573   1.209   2.609  12.205 -0.5649 -0.1678 -0.1092
 7038SOL    HW232574   1.099   2.692  12.191 -1.1558 -2.6815  0.0971
 7039SOL     OW32575   0.380   1.555   2.127  0.1336  0.2260  0.2718
 7039SOL    HW132576   0.404   1.599   2.208  0.7669  1.1222 -0.3945
 7039SOL    HW232577   0.438   1.478   2.130  0.0342  0.0530 -1.8289
 7040SOL     OW32578   2.524   2.139   5.373 -0.4454 -0.7638  0.1710
 7040SOL    HW132579   2.487   2.208   5.428  0.6572  0.9664 -1.2599
 7040SOL    HW232580   2.527   2.166   5.281  0.3075  1.8451  0.9661
 7041SOL     OW32581   3.897   0.544   9.467  0.2155 -0.2815 -0.6473
 7041SOL    HW132582   3.804   0.543   9.492  0.3736  0.9172 -0.0033
 7041SOL    HW232583   3.901   0.480   9.396 -0.2475 -1.5536  0.4554
 7042SOL     OW32584   1.309   2.459   3.651 -0.0571  0.0224 -0.6142
 7042SOL    HW132585   1.331   2.494   3.738  1.2096 -1.1304 -0.4829
 7042SOL    HW232586   1.389   2.475   3.601  1.5347 -0.8464  1.6687
 7043SOL     OW32587   0.988   4.348  16.464  0.0708 -0.0653 -0.4447
 7043SOL    HW132588   0.910   4.404  16.457 -0.5555 -0.7946  0.6598
 7043SOL    HW232589   0.988   4.302  16.547 -2.0067  0.4812 -0.1252
 7044SOL     OW32590   0.916   0.937   2.100  0.6834 -0.0118 -0.3285
 7044SOL    HW132591   0.882   0.851   2.075 -0.9972  0.2317  1.1720
 7044SOL    HW232592   0.889   0.991   2.026 -0.5839 -2.2132 -1.4553
 7045SOL     OW32593   3.567   2.321  13.079 -0.1123  0.1998 -0.1806
 7045SOL    HW132594   3.532   2.233  13.093  0.3303  0.0128 -0.2233
 7045SOL    HW232595   3.531   2.345  12.994  2.0663 -1.2471 -1.5158
 7046SOL     OW32596   2.309   0.473  17.572  0.2461  0.9649  0.6005
 7046SOL    HW132597   2.272   0.543  17.625 -0.8157  0.5967  0.3456
 7046SOL    HW232598   2.403   0.489  17.573  0.3474  0.4555 -0.4891
 7047SOL     OW32599   4.658   0.418   2.512  0.4014 -0.0265 -0.1099
 7047SOL    HW132600   4.637   0.486   2.449 -0.7525 -0.5880 -0.3300
 7047SOL    HW232601   4.676   0.475   2.586 -2.2283 -1.3395  1.5547
 7048SOL     OW32602   2.999   3.097   3.286  0.1652 -0.3891 -0.6164
 7048SOL    HW132603   2.948   3.124   3.210  1.1562  0.1604 -1.0811
 7048SOL    HW232604   2.997   3.177   3.339 -1.6375  1.3710 -3.3505
 7049SOL     OW32605   1.384   2.777   7.704  0.1799  0.4349  0.1670
 7049SOL    HW132606   1.384   2.704   7.642  0.0742  0.0943  0.5769
 7049SOL    HW232607   1.336   2.838   7.647  0.3318 -1.1657 -1.6841
 7050SOL     OW32608   1.489   2.430   6.719  0.0499 -0.0969 -0.2141
 7050SOL    HW132609   1.541   2.453   6.796  1.9544 -1.3747 -1.1205
 7050SOL    HW232610   1.414   2.386   6.760 -0.2044 -0.5816 -1.2205
 7051SOL     OW32611   0.207   2.441   3.638 -0.5115 -0.5220  0.4152
 7051SOL    HW132612   0.154   2.492   3.700 -1.1103 -0.4169 -0.1913
 7051SOL    HW232613   0.148   2.371   3.609  0.4609 -1.6397  1.1055
 7052SOL     OW32614   0.957   4.490  11.755  0.0608  0.4971 -0.2198
 7052SOL    HW132615   0.877   4.537  11.778  0.3985  1.6997 -1.5218
 7052SOL    HW232616   0.957   4.507  11.661 -1.5563 -0.3747 -0.3748
 7053SOL     OW32617   3.370   3.726   1.368  0.1670  0.1295 -0.4310
 7053SOL    HW132618   3.313   3.654   1.394 -0.2154  0.6668  0.2092
 7053SOL    HW232619   3.439   3.682   1.317  0.0960  0.0390 -0.4493
 7054SOL     OW32620   4.354   4.159   6.339 -0.3112 -0.0524 -0.4669
 7054SOL    HW132621   4.343   4.161   6.244  1.1342 -0.8473 -0.6490
 7054SOL    HW232622   4.350   4.252   6.360  0.8126 -0.5057  1.7937
 7055SOL     OW32623   2.392   1.195   3.233  0.0668 -0.4465 -0.8146
 7055SOL    HW132624   2.380   1.109   3.274  0.2154 -0.5863 -1.0616
 7055SOL    HW232625   2.385   1.169   3.141 -1.0557 -1.2133 -0.5119
 7056SOL     OW32626   3.223   1.558   1.199  0.1008  0.2482  0.2080
 7056SOL    HW132627   3.148   1.513   1.161 -0.1298  0.8845 -0.0968
 7056SOL    HW232628   3.299   1.505   1.176  0.4067  1.2116 -1.0258
 7057SOL     OW32629   3.054   0.577   8.180 -0.2330  0.1981 -0.4413
 7057SOL    HW132630   3.145   0.567   8.208 -0.2836  0.4681 -0.1819
 7057SOL    HW232631   3.053   0.560   8.086  0.1018 -1.8365 -0.0749
 7058SOL     OW32632   3.002   3.668   3.597  0.5333 -0.3180  0.0106
 7058SOL    HW132633   3.055   3.722   3.656 -0.2009 -2.9783  3.1336
 7058SOL    HW232634   2.970   3.601   3.657  0.3192  1.0797  1.4591
 7059SOL     OW32635   2.409   0.401   6.189 -0.8738  0.4930  0.5425
 7059SOL    HW132636   2.351   0.432   6.120  0.3573  0.8019 -0.3386
 7059SOL    HW232637   2.369   0.319   6.218 -1.2883  0.4750 -0.0820
 7060SOL     OW32638   1.151   2.335  11.924 -0.4700 -0.3446 -0.5363
 7060SOL    HW132639   1.086   2.298  11.984 -0.9060  1.2139 -0.0613
 7060SOL    HW232640   1.102   2.392  11.865  1.0086  0.7759 -0.6825
 7061SOL     OW32641   1.467   4.594   9.587  0.0434 -0.5087 -0.2233
 7061SOL    HW132642   1.423   4.670   9.626  1.8464 -0.1051  0.9726
 7061SOL    HW232643   1.459   4.624   9.496 -2.2579 -0.5165 -0.0360
 7062SOL     OW32644   3.040   0.925   8.224 -0.6327 -0.2093  0.5689
 7062SOL    HW132645   3.008   1.008   8.259  0.8942 -0.5221  2.6730
 7062SOL    HW232646   2.973   0.867   8.262 -1.0151 -0.5644 -0.6388
 7063SOL     OW32647   2.899   4.128   0.111 -0.4329  0.3817  0.0023
 7063SOL    HW132648   2.891   4.034   0.092 -0.5975  0.6038 -1.0427
 7063SOL    HW232649   2.994   4.139   0.116 -0.3316 -1.0802  1.3496
 7064SOL     OW32650   1.131   1.761   2.454 -0.2414 -0.1967  0.2423
 7064SOL    HW132651   1.087   1.738   2.373 -0.8523 -1.3265  0.8952
 7064SOL    HW232652   1.105   1.691   2.514  0.1972 -0.2322  0.3902
 7065SOL     OW32653   4.387   2.656   1.387  0.2318 -0.1411 -0.8391
 7065SOL    HW132654   4.295   2.677   1.399  0.5027 -0.5045  1.9060
 7065SOL    HW232655   4.375   2.587   1.321  1.9368  1.0395 -2.3715
 7066SOL     OW32656   2.461   3.264  15.550  0.2322  0.1523 -0.4974
 7066SOL    HW132657   2.505   3.229  15.627 -0.7937  0.0876  0.0713
 7066SOL    HW232658   2.458   3.181  15.502 -0.7515 -0.2924  0.3269
 7067SOL     OW32659   3.584   2.481  12.180 -0.1713 -0.0083  0.4428
 7067SOL    HW132660   3.520   2.462  12.111 -0.5138 -1.4206  1.1462
 7067SOL    HW232661   3.603   2.389  12.198  1.0762  0.1086 -0.3545
 7068SOL     OW32662   1.207   1.251  10.936 -0.3609 -0.1445  0.0894
 7068SOL    HW132663   1.142   1.185  10.913  1.4300 -1.8135 -0.1972
 7068SOL    HW232664   1.270   1.197  10.984 -0.4084  0.8887  1.3030
 7069SOL     OW32665   0.449   3.940   0.894 -0.0702  0.1220 -0.3954
 7069SOL    HW132666   0.459   3.986   0.977  2.3482 -1.6449  0.3150
 7069SOL    HW232667   0.361   3.966   0.869  0.9457  2.0312 -1.9575
 7070SOL     OW32668   2.176   1.443   8.629 -0.6031  0.6407 -0.4495
 7070SOL    HW132669   2.167   1.422   8.536  0.1500 -2.2399  0.1301
 7070SOL    HW232670   2.171   1.538   8.628  0.1805  0.6688 -1.7784
 7071SOL     OW32671   3.645   1.380  16.783  0.2629 -0.2427 -0.4602
 7071SOL    HW132672   3.710   1.337  16.838  2.0445  2.1238 -0.7068
 7071SOL    HW232673   3.565   1.341  16.821  0.1107 -0.2340 -0.7759
 7072SOL     OW32674   0.746   0.197   8.484  0.0111 -0.5666  0.5427
 7072SOL    HW132675   0.787   0.126   8.435 -0.3938 -1.6873  1.8309
 7072SOL    HW232676   0.712   0.136   8.548  1.3552 -3.6708 -1.6966
 7073SOL     OW32677   2.933   3.442   1.476 -0.6605 -0.0846 -0.4246
 7073SOL    HW132678   2.843   3.473   1.470 -0.9466 -0.6889  0.7359
 7073SOL    HW232679   2.937   3.390   1.556 -0.3483 -0.2558 -0.5514
 7074SOL     OW32680   4.223   0.113   9.611  0.7299 -0.3356 -0.3840
 7074SOL    HW132681   4.264   0.197   9.589 -0.4184  0.5468  0.7988
 7074SOL    HW232682   4.149   0.120   9.550 -1.2431 -0.7513  1.9443
 7075SOL     OW32683   0.876   4.068  12.888  0.1095  0.5196 -0.3110
 7075SOL    HW132684   0.852   4.160  12.897  2.8845  1.3144 -1.1324
 7075SOL    HW232685   0.803   4.027  12.935  0.2798  1.5988  0.8969
 7076SOL     OW32686   0.523   3.607  14.337  0.2778 -0.0279 -0.1901
 7076SOL    HW132687   0.559   3.633  14.422  0.1765 -0.6243  0.0397
 7076SOL    HW232688   0.461   3.676  14.315  0.7280 -0.1017 -1.6918
 7077SOL     OW32689   1.821   0.732   4.632  0.3373 -0.1628  0.1352
 7077SOL    HW132690   1.731   0.700   4.619  0.7122 -0.9986 -0.4520
 7077SOL    HW232691   1.810   0.818   4.592 -1.2384 -0.7663 -0.7441
 7078SOL     OW32692   1.539   3.797  10.661  0.5386  0.2533  0.2978
 7078SOL    HW132693   1.476   3.808  10.591 -0.3169 -2.0935  0.7014
 7078SOL    HW232694   1.591   3.875  10.639  1.2960  0.5926  3.1769
 7079SOL     OW32695   0.730   3.785  15.493 -0.1734  0.5319  0.5592
 7079SOL    HW132696   0.777   3.733  15.559  1.9394 -0.2757 -1.5492
 7079SOL    HW232697   0.701   3.720  15.428 -0.2293 -2.0084  3.1274
 7080SOL     OW32698   2.808   4.354   3.988 -0.2483  0.4059 -0.3863
 7080SOL    HW132699   2.732   4.336   3.932  0.9442 -1.6074 -1.3639
 7080SOL    HW232700   2.873   4.381   3.923  0.2369  1.1246  0.3956
 7081SOL     OW32701   3.050   0.153  13.669 -0.6516  0.4455 -0.4550
 7081SOL    HW132702   3.046   0.132  13.575  0.8726 -1.3367 -0.1214
 7081SOL    HW232703   3.040   0.064  13.704  3.1428 -0.1211 -0.8496
 7082SOL     OW32704   2.726   2.322   5.214 -0.5423 -0.2599  0.5488
 7082SOL    HW132705   2.698   2.404   5.253 -1.5952  0.7635 -2.3092
 7082SOL    HW232706   2.775   2.283   5.286 -0.2533 -1.4992 -0.3116
 7083SOL     OW32707   4.223   3.588   3.421 -0.2534 -0.2652 -0.1018
 7083SOL    HW132708   4.145   3.543   3.388 -0.2572  0.3541 -0.9383
 7083SOL    HW232709   4.189   3.676   3.433  2.6769  0.8201  0.1681
 7084SOL     OW32710   2.426   2.829  17.431 -0.0733 -0.5291 -0.7206
 7084SOL    HW132711   2.382   2.748  17.405 -0.0169 -1.0250  0.7643
 7084SOL    HW232712   2.495   2.803  17.492 -0.4126 -2.0625 -0.9862
 7085SOL     OW32713   3.559   2.279   4.189 -0.2524 -0.2169 -0.4893
 7085SOL    HW132714   3.575   2.256   4.098 -1.0189  0.8554 -0.8963
 7085SOL    HW232715   3.586   2.371   4.185  0.9529 -0.4786  1.9960
 7086SOL     OW32716   3.778   3.018   1.924  0.1869  0.4144 -0.6914
 7086SOL    HW132717   3.758   3.111   1.936 -2.2957  0.1924 -2.9468
 7086SOL    HW232718   3.699   2.993   1.875 -0.4817  0.7445  0.2052
 7087SOL     OW32719   1.373   1.789   5.412  0.1891 -0.3823 -0.0603
 7087SOL    HW132720   1.376   1.738   5.492 -0.3113 -2.0263 -1.0883
 7087SOL    HW232721   1.339   1.721   5.353  0.3787  0.3089 -0.9723
 7088SOL     OW32722   1.729   0.862   0.665 -0.1533  0.1994 -0.2475
 7088SOL    HW132723   1.741   0.769   0.687  0.9020  0.2306 -0.6836
 7088SOL    HW232724   1.710   0.895   0.752 -1.7884  1.0318 -0.9241
 7089SOL     OW32725   3.157   3.824  11.334 -0.6556 -0.7471 -0.4327
 7089SOL    HW132726   3.065   3.824  11.360 -0.8757 -1.7475 -1.1856
 7089SOL    HW232727   3.150   3.772  11.253  2.2542 -0.2617 -0.9859
 7090SOL     OW32728   1.014   1.420  17.219  0.2351  0.0554 -0.3958
 7090SOL    HW132729   0.929   1.385  17.245 -0.1011  1.5151  0.4803
 7090SOL    HW232730   0.993   1.513  17.213 -0.4989 -0.1768 -1.4143
 7091SOL     OW32731   2.066   2.844  16.010  0.5316  0.3588  0.8950
 7091SOL    HW132732   2.140   2.784  16.005  0.4948  0.2777  1.2776
 7091SOL    HW232733   2.094   2.911  15.948 -0.3523  1.8655  2.1079
 7092SOL     OW32734   3.187   4.603  12.327 -0.4703 -0.0218 -0.2138
 7092SOL    HW132735   3.206   4.641  12.413  1.2406 -1.8369  0.2070
 7092SOL    HW232736   3.165   4.516  12.360  0.3451  0.4350  1.5420
 7093SOL     OW32737   1.908   0.969  14.310 -0.0224 -0.4662  0.0123
 7093SOL    HW132738   1.993   0.948  14.346 -0.2742 -1.1198  0.2244
 7093SOL    HW232739   1.917   1.024  14.232  1.2423 -1.1243 -0.3049
 7094SOL     OW32740   0.582   0.092   3.185 -0.1925 -0.2515 -0.1649
 7094SOL    HW132741   0.560   4.722   3.195  1.3442 -0.5443  0.5103
 7094SOL    HW232742   0.669   0.103   3.224  0.3491  1.1216 -1.8234
 7095SOL     OW32743   2.487   1.729  14.399 -0.4518 -0.0087 -0.5255
 7095SOL    HW132744   2.566   1.712  14.347 -0.3513 -0.0946 -0.3470
 7095SOL    HW232745   2.495   1.824  14.405 -1.5380  0.1058 -0.8590
 7096SOL     OW32746   0.326   4.124  11.312 -0.3133 -0.0120  0.3302
 7096SOL    HW132747   0.247   4.135  11.365 -2.0249 -1.7286 -1.8834
 7096SOL    HW232748   0.390   4.186  11.349  0.9907 -0.0167 -1.9478
 7097SOL     OW32749   1.098   2.860   8.937  0.1538 -0.0827  0.6717
 7097SOL    HW132750   1.077   2.953   8.927 -0.0733 -0.1817  0.2435
 7097SOL    HW232751   1.012   2.819   8.927 -0.8411  1.5279  2.7254
 7098SOL     OW32752   3.961   3.731  14.734  0.2590  0.1902  0.0548
 7098SOL    HW132753   3.877   3.730  14.780  1.3006  0.5479  2.0089
 7098SOL    HW232754   3.933   3.703  14.647 -0.9009  0.7234  0.2629
 7099SOL     OW32755   1.237   1.785   0.971  0.5371  0.2080 -0.9450
 7099SOL    HW132756   1.239   1.876   0.943 -2.2141 -0.2594 -2.7455
 7099SOL    HW232757   1.308   1.781   1.035 -0.4940  0.5869  0.2171
 7100SOL     OW32758   2.409   2.226   0.861 -0.0845  0.0394 -0.1372
 7100SOL    HW132759   2.418   2.167   0.786  2.9511  0.5001 -0.1474
 7100SOL    HW232760   2.429   2.314   0.829 -0.6328 -0.0792 -0.7866
 7101SOL     OW32761   1.208   3.096   6.329  0.4391  0.3118  0.4437
 7101SOL    HW132762   1.138   3.084   6.394  1.0551  0.3033  1.1058
 7101SOL    HW232763   1.227   3.190   6.332 -0.3510  0.4818  0.1917
 7102SOL     OW32764   2.255   3.206   0.627 -0.2232 -0.5563  0.5471
 7102SOL    HW132765   2.327   3.249   0.580 -0.7137 -0.6946 -0.3335
 7102SOL    HW232766   2.219   3.144   0.564  1.4683 -2.5351  1.5296
 7103SOL     OW32767   1.074   4.080   9.272 -0.1297  0.6425  0.4356
 7103SOL    HW132768   1.056   3.995   9.311 -0.4252  1.4353  2.0217
 7103SOL    HW232769   1.103   4.127   9.351 -1.3851  1.3354  0.4810
 7104SOL     OW32770   4.563   2.821   1.514  0.7365  0.1077  0.3244
 7104SOL    HW132771   4.604   2.859   1.437  0.9547 -1.6202 -0.4141
 7104SOL    HW232772   4.483   2.777   1.483  0.5133  1.4970 -1.0344
 7105SOL     OW32773   4.613   3.649   2.638  0.6831  0.6957  0.3249
 7105SOL    HW132774   4.577   3.602   2.714  2.4422 -0.6240  0.3358
 7105SOL    HW232775   4.648   3.577   2.586  1.8086  0.7638  0.9746
 7106SOL     OW32776   2.938   0.262   2.129  0.4262 -0.0684 -0.4568
 7106SOL    HW132777   2.953   0.330   2.195  1.8875 -0.7419 -0.1131
 7106SOL    HW232778   2.864   0.294   2.077  1.0498 -0.9657 -1.8784
 7107SOL     OW32779   2.732   0.109   2.227  0.5822 -0.2666  0.4032
 7107SOL    HW132780   2.816   0.153   2.218 -0.0232  0.5188 -1.3378
 7107SOL    HW232781   2.735   0.055   2.306 -2.3085 -0.7526  0.2042
 7108SOL     OW32782   0.519   3.758  11.427  0.3147  0.8047  0.7950
 7108SOL    HW132783   0.519   3.683  11.367 -0.6780  1.2910  0.1771
 7108SOL    HW232784   0.487   3.705  11.499  1.8187 -2.8869 -1.2772
 7109SOL     OW32785   4.262   3.464  11.467  0.2706 -0.5966  0.0384
 7109SOL    HW132786   4.341   3.505  11.433  1.2025 -0.9661  1.7882
 7109SOL    HW232787   4.195   3.515  11.420 -1.6540 -1.4552  1.8592
 7110SOL     OW32788   4.248   0.044   8.369 -0.7000 -0.0595  0.3111
 7110SOL    HW132789   4.199   0.024   8.290 -1.1424 -0.9453  0.8020
 7110SOL    HW232790   4.189   0.026   8.442  0.9545 -1.0829  1.4026
 7111SOL     OW32791   3.993   4.627   7.629  0.6271 -0.7050 -0.0728
 7111SOL    HW132792   3.915   4.680   7.647  0.9483  0.1162 -1.1153
 7111SOL    HW232793   3.989   4.624   7.534  0.0365  0.9260 -0.1071
 7112SOL     OW32794   1.067   2.072   3.592 -0.1432 -0.2396 -0.1942
 7112SOL    HW132795   1.036   2.160   3.574  2.3379  0.1971 -2.3425
 7112SOL    HW232796   1.081   2.081   3.686 -1.6335  1.3534 -0.1299
 7113SOL     OW32797   3.587   2.593  14.406 -0.5652  0.1033 -0.6675
 7113SOL    HW132798   3.655   2.573  14.342 -0.4252  0.1021 -0.5193
 7113SOL    HW232799   3.549   2.506  14.415  2.5020 -1.1083  0.5805
 7114SOL     OW32800   3.720   0.832   7.606 -0.2678  0.3032 -0.2745
 7114SOL    HW132801   3.683   0.748   7.582  1.0294 -0.4560  0.3577
 7114SOL    HW232802   3.688   0.888   7.535 -1.0823  0.3759  0.1584
 7115SOL     OW32803   1.291   3.769   3.519  0.8165 -0.8695  0.5254
 7115SOL    HW132804   1.247   3.830   3.459 -1.7924 -0.5176  2.8012
 7115SOL    HW232805   1.277   3.821   3.599  2.2634  1.2743 -0.6145
 7116SOL     OW32806   0.856   1.503  16.214  0.0590  0.1187 -0.2930
 7116SOL    HW132807   0.908   1.451  16.152 -1.5483 -0.8231 -0.8433
 7116SOL    HW232808   0.884   1.595  16.212 -0.1990  0.2394  1.7293
 7117SOL     OW32809   3.392   2.615   5.154  0.4262  0.1991  0.3927
 7117SOL    HW132810   3.353   2.685   5.206 -0.6518 -0.5843  0.6246
 7117SOL    HW232811   3.424   2.662   5.076  1.4449 -0.1335  0.6165
 7118SOL     OW32812   3.518   1.318  14.878  0.1171  0.0330  0.2888
 7118SOL    HW132813   3.502   1.334  14.971 -0.9043 -0.9469  0.2927
 7118SOL    HW232814   3.446   1.256  14.866 -1.0976  1.6334 -0.6957
 7119SOL     OW32815   0.431   3.512   1.921  0.4770  0.7454 -0.1605
 7119SOL    HW132816   0.462   3.487   1.834 -0.7367 -0.3853 -0.2604
 7119SOL    HW232817   0.361   3.449   1.935 -0.1503  0.4596 -4.8008
 7120SOL     OW32818   0.747   1.275   8.847 -0.1605 -0.2105 -0.2924
 7120SOL    HW132819   0.831   1.251   8.886  0.7795  0.2552 -2.0320
 7120SOL    HW232820   0.733   1.356   8.897  1.8859 -1.3072  2.0513
 7121SOL     OW32821   2.388   3.005  13.128  0.4721  0.2032  0.1753
 7121SOL    HW132822   2.320   3.048  13.180 -0.8348  0.1711 -1.5088
 7121SOL    HW232823   2.426   3.079  13.081  0.7771  0.4153  0.7521
 7122SOL     OW32824   1.966   1.434   1.209  0.9722 -0.7637 -0.0602
 7122SOL    HW132825   2.004   1.347   1.218 -0.7671 -1.6562 -1.2812
 7122SOL    HW232826   1.973   1.438   1.113 -2.6620 -0.0738 -0.2802
 7123SOL     OW32827   3.968   3.593  14.195 -0.1269  0.4907 -0.5977
 7123SOL    HW132828   3.936   3.507  14.167  1.9521  0.2233 -2.1571
 7123SOL    HW232829   3.887   3.642  14.183 -0.3208  0.0371 -1.1519
 7124SOL     OW32830   1.676   4.687   3.333  0.2399 -0.0363 -0.7442
 7124SOL    HW132831   1.741   4.668   3.265 -0.9522 -1.3378 -1.5293
 7124SOL    HW232832   1.616   0.022   3.287  1.0250  0.8551 -0.6351
 7125SOL     OW32833   3.813   3.908   0.494 -0.0756 -0.4579 -0.2403
 7125SOL    HW132834   3.885   3.855   0.462 -0.2026 -1.7539  1.6095
 7125SOL    HW232835   3.835   3.989   0.448  2.7948  0.0178  1.9718
 7126SOL     OW32836   4.688   3.010   4.142  0.0973  0.0089 -0.1717
 7126SOL    HW132837   4.692   2.966   4.226  0.0010  0.0732 -0.1332
 7126SOL    HW232838   4.627   3.081   4.164  0.1694 -0.3268  1.1059
 7127SOL     OW32839   1.151   2.185   5.095 -0.0951  0.0992 -0.0158
 7127SOL    HW132840   1.118   2.237   5.022  0.7806  1.3488  0.4751
 7127SOL    HW232841   1.226   2.135   5.065 -0.5622 -1.5411  1.5487
 7128SOL     OW32842   3.139   0.852   5.374  0.1216  0.1152  0.0554
 7128SOL    HW132843   3.197   0.872   5.447  1.0926  0.1406 -0.7239
 7128SOL    HW232844   3.105   0.940   5.356 -1.3178 -0.6588 -0.9570
 7129SOL     OW32845   3.626   0.395   8.324  0.0920  0.3131 -0.2997
 7129SOL    HW132846   3.534   0.420   8.309 -0.5084 -1.0234  1.1599
 7129SOL    HW232847   3.632   0.445   8.405  0.8337 -0.1941 -0.0409
 7130SOL     OW32848   2.203   3.994   3.202  0.0713  0.2250  0.1058
 7130SOL    HW132849   2.250   4.026   3.278 -2.2788  2.4876  0.5833
 7130SOL    HW232850   2.273   4.015   3.140  0.6699 -4.3948 -0.7998
 7131SOL     OW32851   2.292   0.528   8.462  0.2915  0.1085 -0.0611
 7131SOL    HW132852   2.256   0.542   8.550 -1.9288  0.9930 -1.1105
 7131SOL    HW232853   2.371   0.580   8.454  1.0889 -0.9891  0.6160
 7132SOL     OW32854   3.864   2.243   6.403 -0.2734  0.1929 -0.4227
 7132SOL    HW132855   3.878   2.322   6.352  1.2898  0.2924  0.1389
 7132SOL    HW232856   3.955   2.214   6.396  0.3385  1.3893  2.4256
 7133SOL     OW32857   4.567   2.583   5.226 -0.3178  0.1195  0.5773
 7133SOL    HW132858   4.582   2.649   5.295 -3.5247  1.7326 -0.2312
 7133SOL    HW232859   4.578   2.501   5.275 -1.0278 -0.0334  0.4808
 7134SOL     OW32860   1.673   4.527   3.881 -0.2130  0.5429 -0.1512
 7134SOL    HW132861   1.702   4.591   3.947  0.0942  0.7727 -0.5119
 7134SOL    HW232862   1.695   4.576   3.802 -2.7021  1.7252 -0.1169
 7135SOL     OW32863   2.249   1.456   7.073 -0.2712 -0.2489 -0.4666
 7135SOL    HW132864   2.321   1.491   7.020  0.7773 -2.9004 -0.7899
 7135SOL    HW232865   2.288   1.373   7.099  1.5382  0.9516  0.7090
 7136SOL     OW32866   3.690   3.164   7.079 -0.1365 -1.1452 -0.1376
 7136SOL    HW132867   3.694   3.075   7.044  2.0575 -1.0685 -0.1141
 7136SOL    HW232868   3.759   3.142   7.143  1.5534 -0.0911 -1.6109
 7137SOL     OW32869   1.781   1.683   7.368  0.1561 -0.7235 -0.2706
 7137SOL    HW132870   1.857   1.742   7.359 -0.1510 -0.4176 -0.8289
 7137SOL    HW232871   1.779   1.689   7.464  1.9033  0.3448 -0.2810
 7138SOL     OW32872   1.325   2.386   2.514 -0.4080 -0.1228  0.3846
 7138SOL    HW132873   1.298   2.333   2.439 -1.3419 -0.7140  1.1401
 7138SOL    HW232874   1.279   2.466   2.489 -3.2966 -0.5979  4.1376
 7139SOL     OW32875   1.009   4.079   2.562 -0.2158 -0.0106 -0.9086
 7139SOL    HW132876   0.986   4.048   2.650 -0.4695 -1.9732 -1.6512
 7139SOL    HW232877   1.100   4.054   2.544  0.1708  2.5031 -2.3167
 7140SOL     OW32878   1.477   0.811  15.977 -0.2020 -0.0238 -0.3158
 7140SOL    HW132879   1.424   0.739  15.943 -0.4604 -0.6280  1.3708
 7140SOL    HW232880   1.429   0.824  16.059  0.7343 -1.3687  0.4524
 7141SOL     OW32881   3.911   0.629   1.278  0.0742 -0.0949 -0.4090
 7141SOL    HW132882   3.990   0.599   1.232 -0.6026 -1.6999 -0.5133
 7141SOL    HW232883   3.913   0.723   1.261 -2.6832 -0.0971 -0.6586
 7142SOL     OW32884   0.106   2.761  10.436  0.3755 -0.1986  0.0232
 7142SOL    HW132885   0.134   2.813  10.511 -0.6455 -0.9637  0.9439
 7142SOL    HW232886   0.019   2.798  10.421  0.8240  0.6309 -0.5086
 7143SOL     OW32887   0.954   2.389  13.783 -0.3192 -0.0801  0.0400
 7143SOL    HW132888   0.966   2.382  13.688 -3.0991  0.8819 -0.3958
 7143SOL    HW232889   0.879   2.331  13.799  0.5521 -1.5930 -1.3746
 7144SOL     OW32890   1.490   1.712   5.018  0.2758 -0.0870 -0.0511
 7144SOL    HW132891   1.573   1.753   4.996  0.0109  1.5788  2.0850
 7144SOL    HW232892   1.523   1.658   5.090 -1.4419  0.0532  0.8629
 7145SOL     OW32893   2.025   0.887   6.263 -0.4726  0.3268 -0.2088
 7145SOL    HW132894   2.026   0.948   6.190 -0.1089 -0.4626 -0.8585
 7145SOL    HW232895   2.033   0.952   6.333  1.8430 -0.7009  0.4625
 7146SOL     OW32896   2.903   0.854   2.268 -0.1253 -0.1652 -0.7838
 7146SOL    HW132897   2.891   0.766   2.234 -0.4785 -0.8764  1.2264
 7146SOL    HW232898   2.999   0.859   2.258  0.0635  0.4892  1.5212
 7147SOL     OW32899   2.896   1.057   3.315  0.1438  0.2458 -0.3685
 7147SOL    HW132900   2.852   0.995   3.372 -0.8454  2.3959  1.2340
 7147SOL    HW232901   2.908   1.004   3.237 -1.4074  1.3049 -1.3208
 7148SOL     OW32902   1.277   2.370   5.876  0.3874 -0.2775 -0.1851
 7148SOL    HW132903   1.310   2.418   5.800  1.3122 -1.4251 -0.5076
 7148SOL    HW232904   1.236   2.446   5.916 -0.1520  1.1382 -3.4457
 7149SOL     OW32905   1.604   3.973   6.063 -0.2148  0.0833 -0.2254
 7149SOL    HW132906   1.686   3.947   6.105 -0.4361 -2.0693 -1.1169
 7149SOL    HW232907   1.542   3.922   6.116  1.0418  0.3759  1.5116
 7150SOL     OW32908   1.110   0.335  11.436 -0.2932  0.1879 -0.7406
 7150SOL    HW132909   1.114   0.396  11.363  0.6580 -0.4269 -1.1975
 7150SOL    HW232910   1.016   0.316  11.437 -0.0663 -0.9579 -1.0105
 7151SOL     OW32911   0.943   3.990   3.647  0.6998  0.1173 -0.0738
 7151SOL    HW132912   1.025   4.009   3.691  0.2704 -1.0361  1.2404
 7151SOL    HW232913   0.936   3.895   3.656  0.2292  0.0852 -0.8120
 7152SOL     OW32914   3.528   4.011  16.556 -0.0362 -0.0180 -0.0489
 7152SOL    HW132915   3.621   3.994  16.571 -0.1702 -0.4486  0.2798
 7152SOL    HW232916   3.522   4.009  16.460  0.4690  1.7007 -0.1082
 7153SOL     OW32917   0.055   1.111   7.901  0.2740  0.0146 -0.1041
 7153SOL    HW132918   0.120   1.053   7.862  2.6595  1.9990  0.8632
 7153SOL    HW232919   0.067   1.084   7.992  0.8051 -0.9223 -0.4591
 7154SOL     OW32920   2.015   4.519   9.019 -0.7987  0.3841  0.0787
 7154SOL    HW132921   2.050   4.554   8.937  1.1048  1.4232  1.3351
 7154SOL    HW232922   2.094   4.500   9.070  1.1048  0.4523 -2.8430
 7155SOL     OW32923   1.746   0.548   7.788 -0.2014 -0.3283 -0.5560
 7155SOL    HW132924   1.821   0.600   7.762  0.0002  0.1444  0.9527
 7155SOL    HW232925   1.794   0.503   7.858 -0.5015 -0.3934 -0.3911
 7156SOL     OW32926   1.931   3.136   4.095 -0.1668  0.1164  0.4375
 7156SOL    HW132927   1.967   3.048   4.092 -0.1478  0.2030 -2.0048
 7156SOL    HW232928   1.890   3.142   4.009 -2.7600  0.5812  1.6917
 7157SOL     OW32929   2.626   2.919   5.125 -0.3910  0.1924 -0.3524
 7157SOL    HW132930   2.611   3.003   5.081  2.5802 -0.6336 -2.9371
 7157SOL    HW232931   2.670   2.959   5.200 -0.5500  0.3058 -0.3195
 7158SOL     OW32932   2.186   3.355   4.580  0.6661 -0.3535 -0.7960
 7158SOL    HW132933   2.117   3.322   4.638  1.0736 -1.1712 -0.7870
 7158SOL    HW232934   2.187   3.447   4.608  0.7729 -0.7355  0.4309
 7159SOL     OW32935   3.449   0.873  16.705 -0.5574  0.2904  0.1840
 7159SOL    HW132936   3.461   0.967  16.687  1.1481  0.2030  0.7790
 7159SOL    HW232937   3.481   0.867  16.795 -0.6666  1.2908  0.2987
 7160SOL     OW32938   4.272   0.417  12.813 -0.4949 -0.1135 -0.2681
 7160SOL    HW132939   4.367   0.409  12.821 -0.5552  1.6822  2.4381
 7160SOL    HW232940   4.269   0.511  12.796 -0.0999  0.2791  1.8044
 7161SOL     OW32941   1.587   4.136   7.290  0.1221  0.1442  0.0659
 7161SOL    HW132942   1.582   4.054   7.242  1.1807  0.1594 -0.0697
 7161SOL    HW232943   1.510   4.176   7.249  1.0634 -1.5138 -3.3117
 7162SOL     OW32944   2.175   0.396   7.999 -0.1855  0.1704  0.1940
 7162SOL    HW132945   2.270   0.387   8.009  0.0291  1.9644 -0.2752
 7162SOL    HW232946   2.156   0.313   7.955  1.5582  0.3936 -0.9737
 7163SOL     OW32947   1.055   0.665   1.047  0.0893  0.3736  0.1917
 7163SOL    HW132948   1.106   0.631   0.973  0.0317 -3.1343  1.7700
 7163SOL    HW232949   1.096   0.611   1.115  2.1729  2.6919  0.7800
 7164SOL     OW32950   2.825   1.980   8.424 -0.6782  0.8634  0.4887
 7164SOL    HW132951   2.793   1.958   8.336  1.1994 -2.2438  0.5915
 7164SOL    HW232952   2.896   2.038   8.396 -1.7910  1.5335 -0.9289
 7165SOL     OW32953   4.638   2.006  12.187  0.5850  0.4360 -0.2590
 7165SOL    HW132954   4.594   2.031  12.106  0.6770  0.6325 -0.2490
 7165SOL    HW232955   0.000   2.046  12.172  0.5527  0.0289 -1.5123
 7166SOL     OW32956   4.607   1.684   6.221 -0.0032  0.2202  0.0902
 7166SOL    HW132957   4.619   1.593   6.246  0.6024  0.3504  0.2763
 7166SOL    HW232958   4.695   1.714   6.197  0.1620 -0.1946  0.1757
 7167SOL     OW32959   1.550   0.093  16.996  0.2050 -0.5955 -0.8139
 7167SOL    HW132960   1.639   0.062  17.013 -0.3449 -2.0502 -0.6114
 7167SOL    HW232961   1.531   0.080  16.904  2.2924 -0.4410 -1.2725
 7168SOL     OW32962   4.611   1.039  15.575 -0.6923  0.1837  0.6373
 7168SOL    HW132963   4.565   1.064  15.496  0.5926 -0.4090 -0.3077
 7168SOL    HW232964   4.600   1.118  15.627 -0.3303  0.4745  0.2704
 7169SOL     OW32965   2.324   1.017   0.278  0.6403  0.0379  0.0090
 7169SOL    HW132966   2.357   1.099   0.242 -0.4708 -0.0926 -1.2982
 7169SOL    HW232967   2.318   0.956   0.204  0.1013 -1.2504  1.1093
 7170SOL     OW32968   3.819   4.481   5.613 -0.5893 -0.4797 -0.1318
 7170SOL    HW132969   3.823   4.443   5.525 -0.9752  1.5920 -1.0542
 7170SOL    HW232970   3.728   4.457   5.634 -0.3822 -1.6189 -0.5424
 7171SOL     OW32971   0.816   1.532   6.909 -0.7564 -0.6787 -0.9406
 7171SOL    HW132972   0.735   1.485   6.926 -1.5629  1.1259  0.1808
 7171SOL    HW232973   0.885   1.471   6.937  1.2852  0.9083 -2.5251
 7172SOL     OW32974   4.423   1.299  14.858  0.3663  0.5898  0.4023
 7172SOL    HW132975   4.509   1.263  14.878 -0.8986 -2.0347  1.1279
 7172SOL    HW232976   4.393   1.356  14.929 -0.1801  0.1543  0.5250
 7173SOL     OW32977   3.409   4.268  13.725 -0.4387  0.0359  0.7821
 7173SOL    HW132978   3.360   4.219  13.791 -1.0326  0.8635  0.9503
 7173SOL    HW232979   3.491   4.277  13.773 -0.4912 -0.2921  0.9371
 7174SOL     OW32980   1.765   4.571   6.717 -0.6801 -0.3163 -0.6806
 7174SOL    HW132981   1.700   4.589   6.785  0.0101 -0.5901  0.0445
 7174SOL    HW232982   1.754   4.649   6.662 -3.7169  0.3297  0.8282
 7175SOL     OW32983   1.821   2.211   3.349  0.5466 -0.0099  0.0143
 7175SOL    HW132984   1.746   2.223   3.290  1.9229  0.8095 -1.5661
 7175SOL    HW232985   1.853   2.300   3.365  0.1777 -0.0920  1.1819
 7176SOL     OW32986   3.828   0.428   5.573 -0.0873 -0.1078 -0.5076
 7176SOL    HW132987   3.900   0.440   5.634  2.2518  0.9026 -3.4880
 7176SOL    HW232988   3.750   0.414   5.626 -0.1884  0.0101 -0.6244
 7177SOL     OW32989   4.575   4.420   0.003 -0.1469 -0.0564 -0.1695
 7177SOL    HW132990   4.666   4.420   0.033 -0.1100  0.4516 -0.2832
 7177SOL    HW232991   4.530   4.364   0.066  0.4097  1.0950  1.2543
 7178SOL     OW32992   3.936   2.472   6.274  0.4766 -0.3554 -0.2870
 7178SOL    HW132993   3.987   2.463   6.194  0.5682  1.2450 -0.4100
 7178SOL    HW232994   3.859   2.517   6.240 -1.7121 -2.8043  1.4452
 7179SOL     OW32995   1.707   1.484   1.395  0.3526  0.4282  0.6864
 7179SOL    HW132996   1.793   1.502   1.432  0.6738 -0.3212  0.3045
 7179SOL    HW232997   1.679   1.405   1.442  0.5692  0.5661  1.0479
 7180SOL     OW32998   4.601   3.017   8.995 -0.4131 -0.4410 -0.2376
 7180SOL    HW132999   4.666   2.959   9.034  0.4043  0.0041 -0.9435
 7180SOL    HW233000   4.652   3.036   8.917  0.3521  0.4450  0.4754
 7181SOL     OW33001   0.383   4.304  14.702  0.6310  0.0034 -0.0705
 7181SOL    HW133002   0.369   4.397  14.722 -3.4882 -0.8158  0.8488
 7181SOL    HW233003   0.380   4.324  14.609  0.8977 -0.3153 -0.1461
 7182SOL     OW33004   1.145   3.474   8.567 -0.2783 -0.8036  0.2613
 7182SOL    HW133005   1.158   3.458   8.474 -1.9221 -0.0023 -0.1136
 7182SOL    HW233006   1.234   3.477   8.601  0.1603 -1.8001 -0.8269
 7183SOL     OW33007   2.790   2.475  10.242  0.5118  0.0823  0.0276
 7183SOL    HW133008   2.750   2.519  10.317 -0.0704 -1.9511  0.9091
 7183SOL    HW233009   2.845   2.405  10.278  0.7567  0.0449 -0.4097
 7184SOL     OW33010   2.213   0.104  17.246  0.4817  0.3181 -0.0586
 7184SOL    HW133011   2.125   0.129  17.272  0.5287  0.5519 -0.1221
 7184SOL    HW233012   2.221   0.118  17.151 -0.6331  3.2460  0.2765
 7185SOL     OW33013   4.061   0.867   7.340  0.2765 -0.2028 -0.7865
 7185SOL    HW133014   4.098   0.811   7.408  3.9949  3.1954 -0.0251
 7185SOL    HW233015   4.092   0.833   7.257  0.1128 -1.0367 -0.5076
 7186SOL     OW33016   2.921   2.193  10.266 -0.2510 -0.3230 -0.5478
 7186SOL    HW133017   2.835   2.196  10.307 -0.3660  0.2584 -0.8239
 7186SOL    HW233018   2.976   2.211  10.342 -1.3237 -1.1199  0.4136
 7187SOL     OW33019   0.599   0.391  17.636  0.1692  0.8228  0.4995
 7187SOL    HW133020   0.606   0.487  17.639  1.7259  0.7860 -2.2817
 7187SOL    HW233021   0.520   0.371  17.686 -0.2959  1.7361  0.1329
 7188SOL     OW33022   2.889   0.782   3.463  0.3975 -0.2177 -0.4435
 7188SOL    HW133023   2.949   0.736   3.405 -1.5756 -3.9985  0.5461
 7188SOL    HW233024   2.842   0.705   3.494  1.5560 -0.6642  0.2143
 7189SOL     OW33025   3.839   1.864   5.914 -0.0278  0.0313 -0.5946
 7189SOL    HW133026   3.930   1.881   5.939 -0.3117  1.5561 -0.5876
 7189SOL    HW233027   3.814   1.950   5.880 -1.6517  0.3428  1.4291
 7190SOL     OW33028   2.120   2.021  10.224 -0.5780 -0.1977  0.5945
 7190SOL    HW133029   2.186   1.976  10.171 -1.6928  0.8668 -1.7239
 7190SOL    HW233030   2.041   1.969  10.210  0.2666 -0.9493 -1.3397
 7191SOL     OW33031   3.488   2.262   5.419  0.2037 -0.0123  0.7718
 7191SOL    HW133032   3.434   2.262   5.497 -0.5297  1.3647  0.2699
 7191SOL    HW233033   3.440   2.216   5.350 -1.5787  1.8474  0.7813
 7192SOL     OW33034   3.787   0.433  14.134  0.0357  0.2060 -0.2451
 7192SOL    HW133035   3.836   0.515  14.136  0.3113  0.0268  0.3046
 7192SOL    HW233036   3.794   0.386  14.217 -0.5369  2.5359  1.1188
 7193SOL     OW33037   2.846   0.223  10.170  0.2236 -0.2723 -0.2959
 7193SOL    HW133038   2.899   0.146  10.150  1.0095 -0.3679  2.2064
 7193SOL    HW233039   2.916   0.288  10.159 -1.4488  1.6778  0.6424
 7194SOL     OW33040   3.440   0.563   1.452 -0.6659  0.0805 -0.1003
 7194SOL    HW133041   3.451   0.492   1.389 -0.5710  1.8612 -2.1088
 7194SOL    HW233042   3.498   0.544   1.526  1.4334 -0.1262 -1.7793
 7195SOL     OW33043   1.152   3.352   4.273  0.1874 -0.0525 -0.4313
 7195SOL    HW133044   1.233   3.383   4.314  0.3502 -2.4270  1.0953
 7195SOL    HW233045   1.188   3.282   4.218 -0.8495 -0.3451 -0.7408
 7196SOL     OW33046   4.400   3.516   6.762  0.2043 -0.2548 -0.1247
 7196SOL    HW133047   4.328   3.564   6.721  1.0022 -0.1416 -1.3929
 7196SOL    HW233048   4.443   3.589   6.806  0.6527 -0.9357  0.5553
 7197SOL     OW33049   3.562   0.772   0.156  0.0349 -0.0354 -0.5560
 7197SOL    HW133050   3.524   0.808   0.076  4.5775  1.1024 -2.2044
 7197SOL    HW233051   3.633   0.830   0.185  1.7864 -2.5773  0.2113
 7198SOL     OW33052   3.233   2.359   8.261  0.2484  0.2315 -0.2263
 7198SOL    HW133053   3.249   2.316   8.177  0.5747  1.4132 -0.7645
 7198SOL    HW233054   3.291   2.318   8.325  0.4006  3.1822  1.5231
 7199SOL     OW33055   0.636   4.508   5.888  0.2089  0.0699 -0.1462
 7199SOL    HW133056   0.610   4.450   5.960 -1.8945  0.6816 -0.4406
 7199SOL    HW233057   0.719   4.473   5.855  0.5316 -0.6753  1.3891
 7200SOL     OW33058   1.556   2.696   2.011  0.1296 -0.0709 -0.1267
 7200SOL    HW133059   1.635   2.719   1.962 -1.1313  2.9100 -0.7418
 7200SOL    HW233060   1.541   2.602   2.000 -0.8509  0.2160 -1.3056
 7201SOL     OW33061   0.593   4.139   2.552 -0.0213  0.0121  0.2675
 7201SOL    HW133062   0.645   4.136   2.472  2.8650 -1.4210  2.1642
 7201SOL    HW233063   0.641   4.079   2.610  1.9201  0.8686 -0.4503
 7202SOL     OW33064   0.935   1.283   5.543  0.4699 -0.0976 -0.1522
 7202SOL    HW133065   0.925   1.276   5.638 -2.7781 -1.3839 -0.5697
 7202SOL    HW233066   0.889   1.202   5.523  0.6383  0.3807 -2.4812
 7203SOL     OW33067   2.628   3.183   1.923 -0.4548  0.4100 -0.1228
 7203SOL    HW133068   2.695   3.116   1.941  1.3852  1.8035 -1.7963
 7203SOL    HW233069   2.692   3.249   1.896  1.5594 -1.2097  0.6363
 7204SOL     OW33070   2.995   0.329   2.522  0.1234  0.4568 -0.3304
 7204SOL    HW133071   3.070   0.368   2.478  0.1078  0.8350 -0.0151
 7204SOL    HW233072   2.928   0.328   2.454 -0.9876 -0.6751  0.7852
 7205SOL     OW33073   0.942   1.775   3.399  0.7307  0.1293  0.0495
 7205SOL    HW133074   0.902   1.802   3.316  1.5136 -0.3297 -0.4723
 7205SOL    HW233075   1.016   1.836   3.402 -0.0722  1.1107 -0.1212
 7206SOL     OW33076   0.007   3.512   1.172 -0.0834  0.1239  0.6727
 7206SOL    HW133077   0.098   3.514   1.141 -0.4894 -1.1357 -0.6174
 7206SOL    HW233078   4.675   3.478   1.102  1.6181  0.9137 -1.0926
 7207SOL     OW33079   4.583   1.126   2.461  0.9106 -0.8406  0.7034
 7207SOL    HW133080   4.550   1.096   2.377  0.6463  2.1423 -0.2624
 7207SOL    HW233081   4.655   1.065   2.474  1.3833 -0.2687  0.7595
 7208SOL     OW33082   0.360   3.369   5.959  0.5214 -0.1685  0.4087
 7208SOL    HW133083   0.369   3.459   5.927 -1.2039 -0.3564 -0.6085
 7208SOL    HW233084   0.428   3.320   5.911  0.0029  1.1298 -1.6572
 7209SOL     OW33085   2.052   2.810   6.066 -0.2270  0.0829 -0.2868
 7209SOL    HW133086   1.996   2.880   6.099 -0.1855  1.1741 -2.5518
 7209SOL    HW233087   2.107   2.860   6.006 -0.0871  0.4510  0.1481
 7210SOL     OW33088   3.590   2.599  13.889  0.2922  0.5474 -0.1937
 7210SOL    HW133089   3.610   2.520  13.840 -3.0118  0.6877 -1.7280
 7210SOL    HW233090   3.505   2.623  13.853 -0.2922 -0.2965  0.6190
 7211SOL     OW33091   4.499   0.658   4.113  0.0479  0.2897  0.0120
 7211SOL    HW133092   4.465   0.626   4.196 -1.1688 -0.8227 -0.9212
 7211SOL    HW233093   4.416   0.668   4.066 -0.0410  0.1433  0.1377
 7212SOL     OW33094   2.892   1.195  13.968  0.3213 -0.4980  0.0931
 7212SOL    HW133095   2.863   1.227  13.882 -1.6931 -1.2439  0.4962
 7212SOL    HW233096   2.900   1.100  13.961  0.4167 -0.4232 -0.8143
 7213SOL     OW33097   1.968   0.286   6.813 -0.0783 -0.2836 -0.5207
 7213SOL    HW133098   2.026   0.360   6.832 -0.9645  0.8930 -2.2875
 7213SOL    HW233099   1.945   0.255   6.901  3.2631 -0.5677  0.2284
 7214SOL     OW33100   0.045   3.599  10.815 -0.6964 -0.2583  0.7656
 7214SOL    HW133101   0.020   3.543  10.741  3.4435  0.7454 -1.3667
 7214SOL    HW233102   0.084   3.535  10.875  0.1680 -0.2871  0.1614
 7215SOL     OW33103   4.444   3.897  11.233  0.5619  0.0778 -0.0576
 7215SOL    HW133104   4.462   3.896  11.327 -0.5955  0.3187  0.1703
 7215SOL    HW233105   4.526   3.930  11.196  0.0547  1.0537 -0.2963
 7216SOL     OW33106   1.926   1.528   4.851 -0.3028  0.0962 -0.7325
 7216SOL    HW133107   1.964   1.595   4.794  0.9402 -0.2998 -0.3745
 7216SOL    HW233108   1.837   1.516   4.820  0.2704 -2.4932 -1.3789
 7217SOL     OW33109   1.857   1.543   5.980  0.4243 -0.2968 -0.1076
 7217SOL    HW133110   1.911   1.466   5.993 -0.9379 -1.1672  0.3613
 7217SOL    HW233111   1.903   1.582   5.906 -1.4101 -0.2457 -1.2338
 7218SOL     OW33112   0.898   1.782   5.977 -0.0357 -0.0145  0.2002
 7218SOL    HW133113   0.840   1.746   6.044  0.8212  0.4977  1.2178
 7218SOL    HW233114   0.842   1.754   5.904 -1.9075 -3.0030  2.7601
 7219SOL     OW33115   0.179   2.664   5.590  0.1207  0.4090  0.0276
 7219SOL    HW133116   0.223   2.646   5.672  0.5395  1.7184  0.0874
 7219SOL    HW233117   0.101   2.609   5.597  0.4924  0.1368  1.9342
 7220SOL     OW33118   3.172   4.183   2.051 -0.1298  0.7268 -0.1787
 7220SOL    HW133119   3.198   4.130   1.975  1.4273 -0.1087  0.9472
 7220SOL    HW233120   3.196   4.270   2.017  0.3950  0.4271 -0.5760
 7221SOL     OW33121   2.959   1.807  16.309  0.4897  0.3713  0.4148
 7221SOL    HW133122   3.011   1.855  16.245 -0.0665  0.0828 -0.2504
 7221SOL    HW233123   2.902   1.763  16.246 -2.2697  3.8015  0.4855
 7222SOL     OW33124   0.439   2.203   4.835  0.4527  0.4177  0.6513
 7222SOL    HW133125   0.488   2.127   4.866 -0.2162  0.2583  1.3272
 7222SOL    HW233126   0.371   2.167   4.777  0.3486 -1.2115  1.7725
 7223SOL     OW33127   3.584   0.665   6.479 -0.5909  0.2491  0.2941
 7223SOL    HW133128   3.609   0.733   6.417  0.7682 -0.6198 -0.1175
 7223SOL    HW233129   3.627   0.584   6.453  0.1087  0.6103  0.3250
 7224SOL     OW33130   2.470   3.822  12.534  0.2276  0.3705  0.4984
 7224SOL    HW133131   2.553   3.782  12.558 -0.8688 -1.3407  1.4648
 7224SOL    HW233132   2.463   3.901  12.588  0.0198  0.1980  0.7276
 7225SOL     OW33133   3.094   1.238   2.948  0.5052  0.0416 -0.1061
 7225SOL    HW133134   3.025   1.270   2.891 -1.0422  0.8142  2.1939
 7225SOL    HW233135   3.103   1.317   3.002 -0.1120  0.1982 -0.2416
 7226SOL     OW33136   3.846   4.160  11.489 -0.3311 -0.3882 -0.7944
 7226SOL    HW133137   3.867   4.199  11.574 -1.7590 -0.6774 -0.3080
 7226SOL    HW233138   3.825   4.236  11.435  0.9629  1.3138  1.0863
 7227SOL     OW33139   2.385   1.983   7.230 -0.2626 -0.0434  0.2142
 7227SOL    HW133140   2.446   1.918   7.262 -1.2244 -1.6700 -1.2839
 7227SOL    HW233141   2.334   1.928   7.170 -0.6242 -1.6014  1.9603
 7228SOL     OW33142   0.878   3.099  13.397  0.2877 -0.5574  0.2687
 7228SOL    HW133143   0.805   3.156  13.372 -0.5151 -1.1452  1.2540
 7228SOL    HW233144   0.935   3.116  13.322  1.4877 -1.3461  1.0068
 7229SOL     OW33145   0.800   2.757   4.656  0.3060 -0.2196  0.2428
 7229SOL    HW133146   0.718   2.791   4.620  1.0909  0.7639 -0.6397
 7229SOL    HW233147   0.812   2.679   4.602  0.5355  0.2152 -0.3394
 7230SOL     OW33148   0.780   2.941   7.940 -0.2249  0.2207 -0.4845
 7230SOL    HW133149   0.720   2.917   7.870  0.2814 -0.9747 -0.4966
 7230SOL    HW233150   0.721   2.928   8.014  0.4583  0.6400  0.1392
 7231SOL     OW33151   1.461   0.769   4.715 -0.2940  0.3535  0.5913
 7231SOL    HW133152   1.505   0.685   4.702 -1.8365 -0.1676 -1.3480
 7231SOL    HW233153   1.489   0.820   4.639  1.8635 -4.0961 -1.6098
 7232SOL     OW33154   1.147   1.960   6.830  0.0176 -0.2485 -0.1840
 7232SOL    HW133155   1.240   1.969   6.852  1.2144 -2.1271 -4.4937
 7232SOL    HW233156   1.117   1.925   6.914 -0.9685  0.4458 -0.2433
 7233SOL     OW33157   0.051   0.124  16.911  0.3280 -0.6080 -0.4027
 7233SOL    HW133158   0.139   0.086  16.908  0.7009  0.2567 -0.4260
 7233SOL    HW233159   0.077   0.216  16.900 -1.1830  0.2841  3.2267
 7234SOL     OW33160   3.626   1.513   0.146 -0.0058 -0.4979 -0.3437
 7234SOL    HW133161   3.637   1.607   0.160  1.9668 -0.7378 -0.3644
 7234SOL    HW233162   3.687   1.506   0.073 -0.5605  0.8637 -0.9519
 7235SOL     OW33163   2.885   0.627   1.864 -0.3465  0.0145  0.1224
 7235SOL    HW133164   2.815   0.682   1.899  0.3271  0.9548 -0.0376
 7235SOL    HW233165   2.897   0.663   1.776  0.9001 -0.5375  0.0710
 7236SOL     OW33166   4.187   3.869   4.900  0.3486  0.3217  0.1959
 7236SOL    HW133167   4.099   3.855   4.934  0.7117  0.2424  1.0978
 7236SOL    HW233168   4.247   3.833   4.965  1.0880  1.9368  0.4114
 7237SOL     OW33169   0.310   1.745   7.207  0.0891 -0.0586  0.6771
 7237SOL    HW133170   0.367   1.673   7.181  1.3647  1.4989 -0.8030
 7237SOL    HW233171   0.373   1.814   7.227  0.5758 -0.9255  2.1735
 7238SOL     OW33172   2.448   1.081   8.176 -0.0254 -0.2822  0.0648
 7238SOL    HW133173   2.400   1.001   8.154 -1.9270  1.4382 -2.0692
 7238SOL    HW233174   2.384   1.152   8.167 -0.5878 -0.7514  0.2967
 7239SOL     OW33175   2.910   0.728   1.601  0.0835  0.3514 -0.2076
 7239SOL    HW133176   2.854   0.727   1.524 -0.5880 -1.4719  0.3063
 7239SOL    HW233177   2.997   0.714   1.563 -0.2183  0.2198 -0.8485
 7240SOL     OW33178   4.424   4.264   4.808 -0.4849 -0.5571 -0.0725
 7240SOL    HW133179   4.358   4.332   4.791  1.6644  1.0939 -1.8365
 7240SOL    HW233180   4.496   4.327   4.807 -1.7531  0.9331  0.9845
 7241SOL     OW33181   1.996   4.518  16.949 -0.4975 -0.3084  0.0161
 7241SOL    HW133182   1.935   4.522  17.023 -0.5550  1.7474 -0.1358
 7241SOL    HW233183   1.935   4.495  16.880 -0.1240 -0.8873 -0.1213
 7242SOL     OW33184   1.933   1.730   1.249 -0.2132  0.3396 -0.2285
 7242SOL    HW133185   1.940   1.635   1.249  0.3169  0.3831 -0.1804
 7242SOL    HW233186   1.946   1.731   1.344  2.1186 -0.0516 -0.5470
 7243SOL     OW33187   2.590   2.534   9.970  0.5577  0.4120  0.1662
 7243SOL    HW133188   2.548   2.585   9.901  0.0498 -0.4815 -0.1885
 7243SOL    HW233189   2.553   2.573  10.049 -1.3125 -1.8393  0.4087
 7244SOL     OW33190   2.365   0.878   1.500 -0.1002  0.3211 -0.3266
 7244SOL    HW133191   2.270   0.892   1.501 -0.1418 -0.1023  1.5238
 7244SOL    HW233192   2.386   0.826   1.577  0.9145  3.1050  1.2694
 7245SOL     OW33193   1.957   0.106   4.965 -0.3008 -0.4475  0.3570
 7245SOL    HW133194   1.987   0.018   4.990  2.1003  0.8021  1.8252
 7245SOL    HW233195   1.984   0.113   4.874 -0.3886 -1.5139  0.2410
 7246SOL     OW33196   0.573   0.709  16.314 -0.1669  0.5623  0.8073
 7246SOL    HW133197   0.583   0.791  16.264 -0.1657  0.4239  0.5815
 7246SOL    HW233198   0.481   0.698  16.338  0.1755 -0.1799  1.7636
 7247SOL     OW33199   0.296   0.758  10.426 -0.5930  0.6833  0.3009
 7247SOL    HW133200   0.387   0.782  10.446  0.2857 -0.2907 -2.5712
 7247SOL    HW233201   0.311   0.750  10.332  0.8422 -0.1473  0.5870
 7248SOL     OW33202   0.360   2.845   9.048  0.0069  0.3185 -0.1935
 7248SOL    HW133203   0.404   2.781   8.992 -1.7782  0.2143 -1.4500
 7248SOL    HW233204   0.438   2.890   9.082  2.0453 -2.3111 -1.3493
 7249SOL     OW33205   0.020   4.025   3.772  0.8752  0.2631  0.3472
 7249SOL    HW133206   0.080   4.070   3.832  0.3183  0.8145  0.5059
 7249SOL    HW233207   0.040   4.079   3.695  0.8869  1.5956  1.2792
 7250SOL     OW33208   3.466   4.336   0.007 -0.6339 -0.5792  0.0588
 7250SOL    HW133209   3.490   4.388   0.084  1.2780  1.0094 -1.6181
 7250SOL    HW233210   3.409   4.390  17.648 -1.6719 -0.2618  1.4513
 7251SOL     OW33211   0.186   1.343   7.872  0.2061 -0.2864  0.7636
 7251SOL    HW133212   0.128   1.270   7.892 -0.2059 -0.7306 -2.0277
 7251SOL    HW233213   0.269   1.296   7.867 -0.3678 -1.1697 -0.5697
 7252SOL     OW33214   2.372   3.540   2.236 -0.8965  0.4005 -0.5459
 7252SOL    HW133215   2.381   3.631   2.264 -1.6831  0.1999  0.3453
 7252SOL    HW233216   2.282   3.533   2.204  0.0019  0.1485 -3.0567
 7253SOL     OW33217   0.080   2.909   5.030 -0.0615  0.1437  0.6018
 7253SOL    HW133218   0.057   2.952   5.112  2.5613  2.6086  0.0512
 7253SOL    HW233219   0.050   2.971   4.964  1.6886  1.3032  0.8809
 7254SOL     OW33220   4.288   4.607  15.936 -0.2855  0.5431 -0.1285
 7254SOL    HW133221   4.349   4.537  15.961 -0.2720  0.4091 -0.5408
 7254SOL    HW233222   4.314   4.633  15.848  1.5664 -0.1872  0.1936
 7255SOL     OW33223   2.017   3.232   5.240  0.1986  0.2002 -0.1791
 7255SOL    HW133224   2.004   3.199   5.151  1.8290  0.3981 -0.4902
 7255SOL    HW233225   2.104   3.199   5.260  0.9023  0.3630 -3.0504
 7256SOL     OW33226   0.311   0.507  14.064  0.1029 -0.1115 -0.3742
 7256SOL    HW133227   0.246   0.571  14.034 -2.1304 -3.1500 -2.0299
 7256SOL    HW233228   0.344   0.557  14.138  1.0038 -1.0552 -0.1331
 7257SOL     OW33229   0.887   2.520  15.961  0.7786 -0.0038 -0.1297
 7257SOL    HW133230   0.836   2.579  15.905  1.6478 -1.3427 -2.3151
 7257SOL    HW233231   0.938   2.472  15.896 -0.7283  0.0742 -1.3658
 7258SOL     OW33232   4.634   1.993   4.705 -0.1217  0.4202 -0.0395
 7258SOL    HW133233   4.671   1.915   4.747 -0.0816  1.1107  1.2292
 7258SOL    HW233234   4.606   2.051   4.776  0.6431  1.0021 -0.2222
 7259SOL     OW33235   0.081   3.682   5.556  0.5034  0.3792 -0.2816
 7259SOL    HW133236   0.114   3.594   5.543  3.8737  1.7820 -1.0565
 7259SOL    HW233237   0.162   3.709   5.598  0.8919 -1.3039  0.0353
 7260SOL     OW33238   0.981   0.147   4.818 -0.2634  0.0687 -0.1526
 7260SOL    HW133239   1.005   0.214   4.754  3.1047 -1.6374 -0.6759
 7260SOL    HW233240   1.064   0.114   4.853 -0.3237 -1.8576 -1.8017
 7261SOL     OW33241   2.659   0.038  10.239  0.2278 -0.1337  0.4676
 7261SOL    HW133242   2.691   0.127  10.223 -0.9560  0.2450  0.1949
 7261SOL    HW233243   2.641   0.032  10.333  1.2881 -1.2395  0.5943
 7262SOL     OW33244   0.053   3.900   6.284  0.3074  0.1902  0.0918
 7262SOL    HW133245   0.092   3.960   6.219 -0.1024  0.6141  0.2328
 7262SOL    HW233246   0.134   3.870   6.325 -1.7655 -2.5230  2.1475
 7263SOL     OW33247   1.707   3.458   6.657  0.4351  0.3703 -0.0782
 7263SOL    HW133248   1.751   3.373   6.658  1.1272  0.7228  0.0377
 7263SOL    HW233249   1.774   3.512   6.614  0.0211  1.5046  0.6913
 7264SOL     OW33250   1.484   4.640   4.502 -0.1856 -0.5607  0.7040
 7264SOL    HW133251   1.546   4.623   4.573  0.2566 -1.3621  0.1222
 7264SOL    HW233252   1.402   4.665   4.544  0.6234  1.8643  0.8897
 7265SOL     OW33253   0.937   0.377   3.897 -0.1083 -0.0476 -0.6339
 7265SOL    HW133254   0.842   0.381   3.886 -0.2723 -2.6484 -0.0188
 7265SOL    HW233255   0.970   0.422   3.819 -0.4811  2.3978  0.6154
 7266SOL     OW33256   3.083   3.712  12.147  0.2787 -0.1946  0.5141
 7266SOL    HW133257   3.002   3.762  12.159  0.2608 -0.1266  0.1408
 7266SOL    HW233258   3.126   3.751  12.223  0.9697 -1.6062  0.8487
 7267SOL     OW33259   0.686   2.305   6.609 -0.0235  0.2272 -0.3735
 7267SOL    HW133260   0.667   2.212   6.615 -0.5493  0.4131  0.7636
 7267SOL    HW233261   0.606   2.331   6.654 -0.3791  0.5182 -1.1552
 7268SOL     OW33262   2.553   2.477   1.494  0.0918  1.0509 -0.6084
 7268SOL    HW133263   2.459   2.494   1.490 -0.3700 -0.5104  3.6566
 7268SOL    HW233264   2.560   2.404   1.431 -2.0678 -0.4216  0.8681
 7269SOL     OW33265   2.049   1.484   1.914  0.5877 -0.3423  0.3657
 7269SOL    HW133266   2.075   1.396   1.939 -2.7009 -1.1551  0.9431
 7269SOL    HW233267   2.133   1.527   1.928  0.6913  0.3357 -2.2887
 7270SOL     OW33268   0.076   2.133   8.778 -0.0366 -0.1561 -0.0990
 7270SOL    HW133269   0.153   2.140   8.834  0.1331  0.6028 -0.4341
 7270SOL    HW233270   4.719   2.151   8.827  0.2191 -0.3219  0.3801
 7271SOL     OW33271   3.033   4.157  10.551 -0.6358 -0.0110 -0.4252
 7271SOL    HW133272   2.943   4.126  10.540  0.1108 -2.1076 -0.6479
 7271SOL    HW233273   3.085   4.110  10.486 -0.8041  1.0113 -1.2826
 7272SOL     OW33274   0.353   1.768  14.878  0.3388 -0.3589 -0.3303
 7272SOL    HW133275   0.393   1.737  14.960 -0.1515  0.3629  0.1801
 7272SOL    HW233276   0.337   1.687  14.830  2.7815 -1.7408  1.1229
 7273SOL     OW33277   3.271   2.804   5.300 -0.2550 -0.3085  0.0314
 7273SOL    HW133278   3.252   2.735   5.364 -0.4066 -1.5944 -1.4149
 7273SOL    HW233279   3.272   2.886   5.349  1.0594 -1.2522  1.6196
 7274SOL     OW33280   3.184   0.937   3.546  0.0425  0.0002  0.0988
 7274SOL    HW133281   3.200   0.916   3.454  0.0240  0.8538 -0.0966
 7274SOL    HW233282   3.103   0.987   3.550  0.8715  1.3648 -0.2688
 7275SOL     OW33283   3.963   3.406  15.688 -0.0117 -0.2847  0.3076
 7275SOL    HW133284   3.962   3.451  15.603  0.6246 -1.0908 -0.1299
 7275SOL    HW233285   3.886   3.436  15.736  0.3310  2.1100 -0.6426
 7276SOL     OW33286   0.976   2.918   2.612 -0.4725  0.3394  0.1094
 7276SOL    HW133287   0.895   2.908   2.562 -0.2015  1.0113 -0.4546
 7276SOL    HW233288   0.983   2.823   2.618 -1.8585  0.2452  0.2086
 7277SOL     OW33289   3.588   4.382   0.667 -0.1090  0.6109  0.0701
 7277SOL    HW133290   3.642   4.307   0.644  0.1875  1.1676 -1.0520
 7277SOL    HW233291   3.586   4.434   0.586 -1.7043  0.2498 -0.1180
 7278SOL     OW33292   3.495   3.955   1.113  0.9989 -0.6238  0.5519
 7278SOL    HW133293   3.551   3.899   1.059  3.7207  2.7594 -0.1104
 7278SOL    HW233294   3.531   4.043   1.099 -0.4053 -0.1950 -0.3870
 7279SOL     OW33295   0.032   3.385   7.553  0.4474  0.1996  0.0856
 7279SOL    HW133296   4.675   3.377   7.605 -0.5352  0.4880 -1.3822
 7279SOL    HW233297   0.035   3.479   7.536 -1.0853 -0.0316 -1.4814
 7280SOL     OW33298   3.615   4.200   8.426 -0.5675  0.3511 -0.0870
 7280SOL    HW133299   3.678   4.215   8.356 -2.2571  0.9683 -1.4700
 7280SOL    HW233300   3.659   4.246   8.497 -1.9358  0.2888  0.8186
 7281SOL     OW33301   0.454   2.626   6.700 -0.3354  0.1197  0.2159
 7281SOL    HW133302   0.486   2.701   6.650 -0.9222  0.2747  0.0787
 7281SOL    HW233303   0.368   2.615   6.661 -0.5598  1.4686  0.3172
 7282SOL     OW33304   4.605   1.224  15.766  0.4087  0.6787 -0.0624
 7282SOL    HW133305   4.676   1.201  15.825 -0.7748 -4.3790 -0.6683
 7282SOL    HW233306   4.546   1.263  15.830 -1.3124 -0.1241 -1.1613
 7283SOL     OW33307   2.935   1.291  16.704 -0.3772 -0.0615 -0.1665
 7283SOL    HW133308   2.951   1.342  16.625  0.8753  0.6990  0.5832
 7283SOL    HW233309   2.848   1.261  16.677  0.6958 -3.3091 -0.0260
 7284SOL     OW33310   4.087   1.132   4.329 -0.0896 -0.3495 -0.7586
 7284SOL    HW133311   4.088   1.189   4.405  2.0612 -0.1918 -0.8996
 7284SOL    HW233312   4.114   1.044   4.357  0.9788  0.9712  2.3104
 7285SOL     OW33313   0.336   0.350   4.403 -0.4152 -0.7543  1.0241
 7285SOL    HW133314   0.330   0.369   4.497  0.9356  0.5173  0.8376
 7285SOL    HW233315   0.416   0.298   4.409 -0.7692 -1.5237 -0.9137
 7286SOL     OW33316   3.163   4.618   7.529  0.4312  0.3781  0.1875
 7286SOL    HW133317   3.073   4.590   7.544  0.7253 -1.1067 -0.8350
 7286SOL    HW233318   3.198   4.562   7.459  2.6654  2.7508 -0.5979
 7287SOL     OW33319   0.749   3.272   6.112  0.2027 -0.3311 -0.2820
 7287SOL    HW133320   0.764   3.197   6.171  0.1968 -0.0857  0.0332
 7287SOL    HW233321   0.659   3.301   6.123  0.5536  0.5381  0.3798
 7288SOL     OW33322   2.899   3.650  16.642 -0.2918  0.4784  0.0624
 7288SOL    HW133323   2.915   3.744  16.648  1.8302 -0.0405  2.7036
 7288SOL    HW233324   2.990   3.619  16.645 -0.0593  1.3357  1.9812
 7289SOL     OW33325   0.954   1.683   4.753  0.1813  0.1834 -0.1498
 7289SOL    HW133326   0.899   1.671   4.675  0.4414  0.8084 -0.4274
 7289SOL    HW233327   0.898   1.678   4.830  0.5498 -0.8550  0.0434
 7290SOL     OW33328   4.251   4.180   6.066  0.2442  0.5083  0.1356
 7290SOL    HW133329   4.157   4.168   6.078  0.1453  1.1340 -0.0294
 7290SOL    HW233330   4.280   4.109   6.008  0.3133  0.4526  0.2377
 7291SOL     OW33331   0.967   2.639   4.855  0.0041  0.0642 -0.0589
 7291SOL    HW133332   0.912   2.686   4.792 -0.6505  1.1774  1.3504
 7291SOL    HW233333   1.028   2.604   4.790  0.1534 -0.7778  0.5370
 7292SOL     OW33334   3.309   4.521   6.172 -0.0936 -0.3871  0.6037
 7292SOL    HW133335   3.349   4.581   6.109 -0.2919  0.4238  1.2504
 7292SOL    HW233336   3.283   4.447   6.117 -0.7683  1.4169 -1.5225
 7293SOL     OW33337   1.129   0.834   3.027 -0.0735  0.6459  0.4273
 7293SOL    HW133338   1.068   0.814   3.098 -0.7035 -0.3682 -0.4022
 7293SOL    HW233339   1.115   0.928   3.036 -1.2202  0.5505 -0.4226
 7294SOL     OW33340   1.656   0.822   6.778 -0.3480  0.3666  0.8124
 7294SOL    HW133341   1.662   0.863   6.864  1.7711 -0.8735  1.2507
 7294SOL    HW233342   1.717   0.749   6.784  2.4006  2.4983 -0.8140
 7295SOL     OW33343   1.510   0.577   3.695  0.1207 -0.5359 -0.1272
 7295SOL    HW133344   1.602   0.555   3.707 -0.3506 -1.9649  0.9996
 7295SOL    HW233345   1.463   0.538   3.770 -2.5607  0.1156 -1.4483
 7296SOL     OW33346   0.951   4.182   0.338 -0.1152  0.2666  0.3909
 7296SOL    HW133347   0.894   4.147   0.270  0.6067  0.9441 -0.5614
 7296SOL    HW233348   1.025   4.121   0.334 -0.1326  0.5757 -4.0210
 7297SOL     OW33349   1.421   4.503   2.739  0.3167  0.1197  0.3700
 7297SOL    HW133350   1.364   4.573   2.707  0.6856  0.8129  1.2369
 7297SOL    HW233351   1.493   4.563   2.761  0.9833 -0.6099  0.1870
 7298SOL     OW33352   0.455   2.126   5.249  0.1220 -0.2541 -0.0140
 7298SOL    HW133353   0.396   2.189   5.208  2.7103  2.8328  0.9978
 7298SOL    HW233354   0.532   2.173   5.216  0.2303  1.3273  2.4765
 7299SOL     OW33355   1.571   2.055  13.718 -0.3928 -0.5405 -0.3409
 7299SOL    HW133356   1.660   2.031  13.746 -0.1662  0.7030  0.0155
 7299SOL    HW233357   1.557   2.149  13.732 -0.1490 -0.5593  0.0167
 7300SOL     OW33358   2.414   4.563   0.202 -0.2675 -0.0850 -0.0963
 7300SOL    HW133359   2.408   4.482   0.252 -1.6223 -0.5788 -1.0364
 7300SOL    HW233360   2.320   4.578   0.193 -0.3135  0.5809  1.5073
 7301SOL     OW33361   3.483   4.684   2.019 -0.3212 -0.2680  0.1137
 7301SOL    HW133362   3.472   0.024   2.090 -0.2315  0.5490 -0.6005
 7301SOL    HW233363   3.520   4.613   2.072  0.7930 -0.2000 -0.5875
 7302SOL     OW33364   4.118   3.749   4.212 -0.1668  0.5634 -0.5811
 7302SOL    HW133365   4.137   3.683   4.279 -1.8982  0.0401 -0.6177
 7302SOL    HW233366   4.180   3.820   4.230  0.6831 -0.4138  0.3412
 7303SOL     OW33367   3.156   3.282  16.176  0.1047  0.1493  0.3597
 7303SOL    HW133368   3.240   3.272  16.130 -1.7853 -2.4039 -2.5643
 7303SOL    HW233369   3.183   3.315  16.261  0.4917  0.0193  0.2882
 7304SOL     OW33370   3.638   0.351   7.590 -0.4407  0.4952  0.2938
 7304SOL    HW133371   3.643   0.270   7.540 -0.5544 -0.1133  1.2462
 7304SOL    HW233372   3.547   0.358   7.622 -1.0624 -2.5434 -0.8333
 7305SOL     OW33373   2.302   3.061   6.199  0.2138 -0.0056 -0.2520
 7305SOL    HW133374   2.282   3.027   6.112  3.8458 -0.4525 -0.8991
 7305SOL    HW233375   2.248   2.997   6.246  0.5214 -1.0504 -1.3149
 7306SOL     OW33376   0.885   2.584   9.040  1.0129  0.5723  0.0093
 7306SOL    HW133377   0.862   2.533   9.118 -1.1260 -0.4573 -1.3016
 7306SOL    HW233378   0.979   2.570   9.054  0.8244 -0.4449  0.2437
 7307SOL     OW33379   0.120   3.093   9.225  0.2534  0.6298 -0.4694
 7307SOL    HW133380   0.191   3.156   9.239  2.7740 -2.3233 -0.0125
 7307SOL    HW233381   0.050   3.140   9.269  0.7890  1.9987 -1.0962
 7308SOL     OW33382   3.624   4.414  10.473  0.3566 -0.0095  0.3553
 7308SOL    HW133383   3.666   4.407  10.387 -1.0207  0.2529 -0.3460
 7308SOL    HW233384   3.698   4.417  10.534  0.6078 -0.4835  0.0745
 7309SOL     OW33385   2.514   1.028   6.955  0.5762  0.1506 -0.2727
 7309SOL    HW133386   2.512   0.940   6.916  1.7332  0.0261 -0.0375
 7309SOL    HW233387   2.607   1.042   6.969  0.5191 -2.2433  2.4452
 7310SOL     OW33388   2.034   3.293   5.767  0.2113  0.6820 -0.3595
 7310SOL    HW133389   2.024   3.340   5.684 -0.6836  1.1730  0.0196
 7310SOL    HW233390   1.942   3.289   5.793 -0.1369  1.0986 -1.5379
 7311SOL     OW33391   2.431   2.693   2.276  0.3032  0.4834  0.8907
 7311SOL    HW133392   2.479   2.634   2.218 -0.0914  1.2804 -0.2498
 7311SOL    HW233393   2.432   2.776   2.228  0.1224 -1.2310 -2.0734
 7312SOL     OW33394   0.496   1.516   2.699  0.2249  0.0101 -0.3140
 7312SOL    HW133395   0.423   1.557   2.653  0.6503  0.0948 -0.9128
 7312SOL    HW233396   0.507   1.433   2.652 -0.4520  0.7606 -1.8259
 7313SOL     OW33397   2.508   1.556   2.265  0.0870  0.1548 -0.3487
 7313SOL    HW133398   2.578   1.621   2.266  0.2413 -0.0074 -0.4624
 7313SOL    HW233399   2.459   1.577   2.344 -1.6009 -2.2817 -0.7317
 7314SOL     OW33400   1.094   2.219  12.671 -0.0690 -0.4972 -0.1855
 7314SOL    HW133401   1.147   2.299  12.673 -0.4012 -0.2743 -0.2437
 7314SOL    HW233402   1.059   2.223  12.759 -1.2200 -1.9494 -0.5957
 7315SOL     OW33403   1.803   1.657   0.928 -0.7524  0.6884 -0.3381
 7315SOL    HW133404   1.759   1.608   0.997 -0.4981 -1.3221 -1.6159
 7315SOL    HW233405   1.888   1.612   0.933 -0.8864  0.6248  1.2230
 7316SOL     OW33406   4.210   0.019   9.892  0.3473  0.3693 -0.2736
 7316SOL    HW133407   4.254   4.658   9.898  2.5025  1.5344  0.2475
 7316SOL    HW233408   4.239   0.048   9.805 -0.1190  1.6038 -0.0200
 7317SOL     OW33409   3.570   0.622  11.811  0.0359 -0.4888 -0.3932
 7317SOL    HW133410   3.618   0.704  11.820  0.0847 -0.4894 -0.6436
 7317SOL    HW233411   3.624   0.564  11.865 -0.5621  0.7727  1.5469
 7318SOL     OW33412   3.080   3.853   4.035 -0.3627  0.1608 -0.1465
 7318SOL    HW133413   3.085   3.832   3.941  2.6172  1.4337 -0.2886
 7318SOL    HW233414   3.073   3.770   4.081 -0.9814  2.0674  3.1637
 7319SOL     OW33415   4.044   0.561   5.920 -0.3860 -0.3191 -0.2609
 7319SOL    HW133416   4.060   0.468   5.905  2.8670  0.2362 -0.2293
 7319SOL    HW233417   4.132   0.584   5.951 -0.4380 -0.7559  0.2249
 7320SOL     OW33418   4.528   1.803   8.163 -0.2738  0.0375 -0.2845
 7320SOL    HW133419   4.616   1.765   8.157 -0.4736 -0.5261  0.2947
 7320SOL    HW233420   4.553   1.892   8.186  1.0238 -0.8094  1.6487
 7321SOL     OW33421   4.144   0.962   5.718  0.0105 -0.3290 -0.5884
 7321SOL    HW133422   4.207   0.945   5.649  0.3079  0.1891 -0.4406
 7321SOL    HW233423   4.148   1.058   5.714  0.3921 -0.2864  0.8557
 7322SOL     OW33424   2.817   0.553  14.287  0.7538 -0.7661 -0.5386
 7322SOL    HW133425   2.798   0.643  14.312  0.1707 -2.2485  4.3606
 7322SOL    HW233426   2.759   0.503  14.345  0.4873 -1.8076 -1.7023
 7323SOL     OW33427   4.701   2.507  14.641  1.1415  0.1775  0.4068
 7323SOL    HW133428   4.673   2.598  14.651  0.2502 -0.0260 -0.1950
 7323SOL    HW233429   4.658   2.486  14.558  2.0144  0.1652 -0.0484
 7324SOL     OW33430   1.192   3.230   2.644  0.2882 -0.8438 -0.3848
 7324SOL    HW133431   1.210   3.169   2.715 -0.6912 -1.1272 -0.3788
 7324SOL    HW233432   1.214   3.315   2.683 -0.9707 -0.9229  0.4977
 7325SOL     OW33433   0.203   1.951   7.648 -0.4564 -0.0408  0.4629
 7325SOL    HW133434   0.158   2.015   7.593  0.4617  1.8441  1.8981
 7325SOL    HW233435   0.294   1.980   7.642  0.2124 -2.1387  0.2764
 7326SOL     OW33436   3.936   4.613  11.306 -0.4070  0.3590 -0.1098
 7326SOL    HW133437   3.999   4.679  11.279 -0.1459  0.1234 -0.0709
 7326SOL    HW233438   3.992   4.537  11.319  0.1029  0.6425 -0.6751
 7327SOL     OW33439   4.228   0.995   3.483  0.3491 -0.0319 -0.3173
 7327SOL    HW133440   4.226   0.907   3.445  0.3874  0.2941 -1.0847
 7327SOL    HW233441   4.262   1.047   3.410  0.9877 -0.9525 -0.6647
 7328SOL     OW33442   3.262   3.331  16.433  0.2316 -0.0459 -0.0428
 7328SOL    HW133443   3.339   3.376  16.468  0.7718 -1.2258  0.2779
 7328SOL    HW233444   3.194   3.380  16.480 -2.8439 -1.6325 -2.8906
 7329SOL     OW33445   1.477   0.191   5.184 -0.1522  0.5680 -0.2760
 7329SOL    HW133446   1.556   0.204   5.237 -0.0225 -1.8918  0.1365
 7329SOL    HW233447   1.494   0.194   5.090  0.0739  0.2833 -0.2436
 7330SOL     OW33448   0.288   3.659   2.697 -0.2817  0.6279 -0.2355
 7330SOL    HW133449   0.328   3.606   2.628  1.4299  0.9147  0.5473
 7330SOL    HW233450   0.228   3.707   2.641  1.9650  1.0865 -2.2598
 7331SOL     OW33451   3.150   2.857   1.372 -0.2230 -0.1972  0.0754
 7331SOL    HW133452   3.087   2.891   1.435  0.1838  0.7434 -0.0195
 7331SOL    HW233453   3.091   2.804   1.319  1.5467 -1.2324 -0.8828
 7332SOL     OW33454   3.081   0.450  13.920 -0.0441  0.2781 -0.6112
 7332SOL    HW133455   2.998   0.480  13.958 -0.1129 -1.7568  0.7933
 7332SOL    HW233456   3.140   0.479  13.989 -2.8105 -0.3205  1.9831
 7333SOL     OW33457   0.762   0.326   7.874  0.1352  0.0849  0.1976
 7333SOL    HW133458   0.691   0.310   7.936  0.6985 -3.0087  0.0058
 7333SOL    HW233459   0.739   0.270   7.801  1.0593  2.0245 -1.5831
 7334SOL     OW33460   3.582   2.197  12.113  0.4203  1.0760 -0.0580
 7334SOL    HW133461   3.537   2.169  12.034  0.2171  1.2215  0.0065
 7334SOL    HW233462   3.524   2.208  12.189 -2.9798 -0.4786 -2.4152
 7335SOL     OW33463   0.127   4.584   9.065 -0.1666 -0.8533  0.3972
 7335SOL    HW133464   0.123   4.676   9.092  1.2690 -0.6823  0.0570
 7335SOL    HW233465   0.116   4.544   9.151 -1.2862  1.7143  1.4367
 7336SOL     OW33466   3.515   3.934   1.909  0.7287  0.7729 -0.7169
 7336SOL    HW133467   3.520   3.841   1.887 -0.5298 -0.0388  2.3196
 7336SOL    HW233468   3.422   3.947   1.890  0.3398 -0.7049  0.1811
 7337SOL     OW33469   1.334   2.757   5.973  0.4023  0.0078 -0.1192
 7337SOL    HW133470   1.290   2.672   5.973 -4.1253  2.3813  1.5868
 7337SOL    HW233471   1.307   2.786   6.060 -0.4682 -2.2526  0.3628
 7338SOL     OW33472   1.181   2.675  16.696  0.6879 -0.3265 -0.3281
 7338SOL    HW133473   1.120   2.703  16.628  1.3303 -0.2153 -0.8494
 7338SOL    HW233474   1.254   2.729  16.670  1.7061 -1.4685  0.1572
 7339SOL     OW33475   1.804   1.416  13.663 -0.1721 -0.2784  0.2212
 7339SOL    HW133476   1.747   1.342  13.682 -1.2580  0.1727 -1.3555
 7339SOL    HW233477   1.781   1.451  13.577 -1.9946  0.5413  1.0430
 7340SOL     OW33478   3.531   2.057   3.320  0.0095 -0.0433 -0.6306
 7340SOL    HW133479   3.519   2.091   3.232  0.8429  1.3080 -0.2224
 7340SOL    HW233480   3.450   2.085   3.364  0.6869  0.4544  0.3112
 7341SOL     OW33481   2.774   2.644   4.748  0.6304  0.3405  0.1455
 7341SOL    HW133482   2.814   2.574   4.696  0.8326  1.0514 -0.6702
 7341SOL    HW233483   2.832   2.715   4.718 -1.8000  1.7624 -1.2285
 7342SOL     OW33484   3.215   1.953   5.286 -0.6005 -0.1775 -0.0417
 7342SOL    HW133485   3.309   1.951   5.267 -0.1068  1.2742  2.2895
 7342SOL    HW233486   3.205   1.900   5.365  0.4153 -0.3924 -0.0581
 7343SOL     OW33487   4.441   1.982   8.799  0.4562 -0.3866 -0.5140
 7343SOL    HW133488   4.446   1.904   8.744  0.4653 -0.4544 -0.4169
 7343SOL    HW233489   4.431   2.050   8.732  2.4186  0.7367  0.3324
 7344SOL     OW33490   1.056   3.412   2.459  0.1261 -0.2423  0.1818
 7344SOL    HW133491   1.064   3.324   2.496 -3.2620 -0.2946  0.8662
 7344SOL    HW233492   1.146   3.440   2.450  0.0921  0.1447  1.0908
 7345SOL     OW33493   0.709   1.102   9.244  0.3879 -0.5132  0.0422
 7345SOL    HW133494   0.630   1.083   9.193 -0.0808  1.2888  0.1082
 7345SOL    HW233495   0.748   1.015   9.251  0.9404 -0.0737  2.5120
 7346SOL     OW33496   0.127   2.114   7.184  0.1501  0.4922  0.1469
 7346SOL    HW133497   0.095   2.031   7.217  0.1028 -0.0164 -1.1656
 7346SOL    HW233498   0.216   2.119   7.219  1.1486  0.7480 -2.3517
 7347SOL     OW33499   0.813   4.640   7.766 -0.2567  0.1009 -0.1358
 7347SOL    HW133500   0.834   4.722   7.722 -3.9576 -0.5409 -3.0658
 7347SOL    HW233501   0.723   4.663   7.790 -0.0389  0.4838  0.3268
 7348SOL     OW33502   4.512   2.048   9.162 -0.5786  0.2596 -0.0301
 7348SOL    HW133503   4.573   1.988   9.206 -0.4984  0.8463  0.6631
 7348SOL    HW233504   4.487   2.103   9.236 -2.8362 -1.4818  0.4892
 7349SOL     OW33505   3.597   0.367   5.752  0.2055 -0.5369 -0.2985
 7349SOL    HW133506   3.599   0.322   5.837  0.5460  1.0676  0.5441
 7349SOL    HW233507   3.515   0.343   5.710 -0.8564  2.2227  0.2471
 7350SOL     OW33508   3.253   0.403  10.857  0.2294  0.4635 -0.2113
 7350SOL    HW133509   3.176   0.349  10.844  0.1819  0.7431 -1.0592
 7350SOL    HW233510   3.224   0.487  10.822 -0.2846  0.3613 -0.0226
 7351SOL     OW33511   2.919   1.862   5.964  0.1412  0.1791 -0.1657
 7351SOL    HW133512   2.872   1.906   5.893 -1.5090 -0.3558  0.5983
 7351SOL    HW233513   2.849   1.804   5.995 -0.4577  0.0857 -1.6732
 7352SOL     OW33514   3.232   1.069  14.430 -0.0373  0.4872 -0.7488
 7352SOL    HW133515   3.293   1.057  14.357 -1.1849  0.1978 -1.6527
 7352SOL    HW233516   3.228   1.163  14.446 -0.2760  0.3050  0.2756
 7353SOL     OW33517   3.711   3.819  14.557 -0.0549 -0.1833 -0.5436
 7353SOL    HW133518   3.791   3.771  14.534  0.6510  0.0105  1.4636
 7353SOL    HW233519   3.648   3.765  14.509 -0.5815  0.1179 -0.1919
 7354SOL     OW33520   4.291   2.645   5.803  0.1018  0.0712 -0.1524
 7354SOL    HW133521   4.199   2.664   5.823  0.6229  0.4855  1.8354
 7354SOL    HW233522   4.281   2.692   5.720 -1.7617 -0.1675 -0.0777
 7355SOL     OW33523   3.129   2.338  13.273  1.1488  0.1273 -0.4973
 7355SOL    HW133524   3.120   2.392  13.195 -0.0471  1.3761  0.5039
 7355SOL    HW233525   3.207   2.291  13.242  0.8018 -1.1979  0.5997
 7356SOL     OW33526   0.052   4.446  11.607  0.3462  0.1332  0.4640
 7356SOL    HW133527   0.002   4.427  11.686  1.2466  2.5013  1.6093
 7356SOL    HW233528   0.103   4.366  11.592  1.0333  0.1698  2.6133
 7357SOL     OW33529   3.883   0.720   9.764 -0.4980  0.3717 -0.0519
 7357SOL    HW133530   3.956   0.670   9.726 -0.0316  0.5942  0.5499
 7357SOL    HW233531   3.834   0.648   9.802  0.8780  0.7009  2.3170
 7358SOL     OW33532   3.091   1.521   6.276 -0.4002 -0.2129 -0.0595
 7358SOL    HW133533   3.157   1.497   6.212  1.4596  3.0797  0.6582
 7358SOL    HW233534   3.108   1.454   6.342  0.1595 -0.3921 -0.3901
 7359SOL     OW33535   2.735   0.333   2.886 -0.4051  0.5195  0.7088
 7359SOL    HW133536   2.711   0.325   2.978 -0.3672 -1.2944  0.5457
 7359SOL    HW233537   2.709   0.250   2.847  0.5526  0.0188  1.1329
 7360SOL     OW33538   2.125   0.651   3.843  0.0493 -0.3789 -0.4191
 7360SOL    HW133539   2.153   0.717   3.780  2.3219  0.3588  1.3626
 7360SOL    HW233540   2.199   0.650   3.904  0.8558 -1.7498 -1.4449
 7361SOL     OW33541   3.175   3.657   6.345 -0.0562  0.6800 -0.0132
 7361SOL    HW133542   3.211   3.635   6.431 -1.6442 -1.0416  0.2261
 7361SOL    HW233543   3.124   3.734   6.370  0.4643  0.8491  0.5092
 7362SOL     OW33544   0.627   0.961   2.685 -0.2896  0.1213  0.3129
 7362SOL    HW133545   0.683   1.014   2.742 -0.4798  0.5495  0.0962
 7362SOL    HW233546   0.576   0.907   2.746  0.3964 -0.5877  0.2658
 7363SOL     OW33547   2.008   4.608   7.671  0.0148 -0.2903 -0.2101
 7363SOL    HW133548   1.976   4.665   7.602 -0.6732  0.3638  0.6544
 7363SOL    HW233549   2.091   4.649   7.694  0.8740 -0.4493 -3.0387
 7364SOL     OW33550   0.965   0.990  16.163 -0.2476 -0.1413  0.1173
 7364SOL    HW133551   1.044   0.981  16.110  1.4272  0.1650  2.5330
 7364SOL    HW233552   0.903   0.930  16.123 -2.9000  0.5003  3.2899
 7365SOL     OW33553   2.479   3.979  13.610 -0.0275  0.2280  0.0964
 7365SOL    HW133554   2.503   3.999  13.700 -0.3765 -1.1358  0.4880
 7365SOL    HW233555   2.565   3.979  13.568 -0.8613  1.2857 -1.6105
 7366SOL     OW33556   1.523   3.681  14.649 -0.7859 -0.4974 -0.6462
 7366SOL    HW133557   1.550   3.613  14.711 -3.4353  0.9184  2.1233
 7366SOL    HW233558   1.461   3.730  14.704  1.4231 -0.3282  1.6698
 7367SOL     OW33559   0.255   3.111  17.149  0.5905 -0.1343  0.4637
 7367SOL    HW133560   0.264   3.164  17.228 -1.0021 -0.9922  1.2026
 7367SOL    HW233561   0.291   3.034  17.192 -2.1689 -1.1567  0.9395
 7368SOL     OW33562   3.722   0.614   2.313  0.2051  0.6697  0.3102
 7368SOL    HW133563   3.678   0.666   2.380  1.6421  2.1357  0.1145
 7368SOL    HW233564   3.674   0.660   2.244  1.7189  2.0915  0.2064
 7369SOL     OW33565   1.049   3.149  13.216 -0.3241 -0.3005 -0.3298
 7369SOL    HW133566   1.129   3.196  13.237  0.8214 -1.4997 -2.0266
 7369SOL    HW233567   1.067   3.119  13.127  1.8601  0.6832 -0.2201
 7370SOL     OW33568   1.382   3.514   9.418 -0.3539  0.1389  0.7823
 7370SOL    HW133569   1.423   3.467   9.491  3.3168  0.3951 -1.1232
 7370SOL    HW233570   1.335   3.583   9.465 -0.9714 -0.5174  1.1331
 7371SOL     OW33571   2.890   3.053   8.240 -0.3165 -0.1386  0.1057
 7371SOL    HW133572   2.869   3.145   8.221  1.5068  0.1996 -0.3546
 7371SOL    HW233573   2.959   3.017   8.183  1.0477  2.9344 -0.2024
 7372SOL     OW33574   3.063   1.192   4.320 -0.1129 -0.1575 -0.0579
 7372SOL    HW133575   3.116   1.227   4.247  2.1706 -3.9544 -0.2198
 7372SOL    HW233576   3.114   1.228   4.392  0.5226 -1.2141  0.0181
 7373SOL     OW33577   3.856   0.271  12.078  0.0773  0.1022 -0.0386
 7373SOL    HW133578   3.911   0.262  12.000 -0.1469  1.4554 -0.3447
 7373SOL    HW233579   3.847   0.177  12.095 -0.4496  0.5939  2.3706
 7374SOL     OW33580   4.231   1.732  12.019  0.2298  0.1724  0.2765
 7374SOL    HW133581   4.241   1.667  12.088  0.7805 -1.3821 -1.2682
 7374SOL    HW233582   4.322   1.756  11.999  0.8269 -1.3461  1.2339
 7375SOL     OW33583   0.469   1.879   2.496  0.1939  0.7414  0.4135
 7375SOL    HW133584   0.408   1.825   2.547  0.2995  0.4536  0.2385
 7375SOL    HW233585   0.534   1.898   2.564  1.6726 -3.3395  0.1600
 7376SOL     OW33586   1.605   3.862   0.485  0.5480 -0.3479  0.7131
 7376SOL    HW133587   1.538   3.844   0.419  2.0241  2.1725 -1.4840
 7376SOL    HW233588   1.546   3.848   0.559 -1.9976 -0.5074 -1.3574
 7377SOL     OW33589   0.061   0.863   2.580 -0.0531  0.5588 -0.0010
 7377SOL    HW133590   0.139   0.854   2.636  1.2085  1.9024 -1.5405
 7377SOL    HW233591   0.087   0.821   2.498 -2.0114 -0.4840 -0.0882
 7378SOL     OW33592   1.713   3.255   1.858  0.3823  0.2545 -0.3811
 7378SOL    HW133593   1.625   3.227   1.884  0.2179  0.1543 -1.0548
 7378SOL    HW233594   1.764   3.265   1.939  0.6375 -1.0007 -0.3824
 7379SOL     OW33595   1.965   2.495  11.439  0.2636  0.0291 -0.1212
 7379SOL    HW133596   1.922   2.413  11.464  2.4226  0.1155  3.8753
 7379SOL    HW233597   2.009   2.466  11.360  0.1707 -0.0652 -0.1390
 7380SOL     OW33598   3.910   4.123  10.745  0.1827  0.2405  0.0190
 7380SOL    HW133599   3.960   4.198  10.712  0.5797  1.2117  2.8385
 7380SOL    HW233600   3.976   4.057  10.764 -1.0591 -1.0919 -0.2500
 7381SOL     OW33601   2.920   3.873   0.976  0.0760  0.1084 -0.2076
 7381SOL    HW133602   2.958   3.877   1.064 -1.7548 -0.2949  0.6040
 7381SOL    HW233603   2.918   3.967   0.959 -0.7063  0.9695  4.5852
 7382SOL     OW33604   2.301   0.798   4.154  0.3753  0.3392  0.0626
 7382SOL    HW133605   2.264   0.872   4.105  0.9484  0.8993  0.4661
 7382SOL    HW233606   2.277   0.823   4.243  0.7859  2.2928 -0.3604
 7383SOL     OW33607   3.599   2.733   3.620  0.4899  0.2675 -0.7969
 7383SOL    HW133608   3.543   2.660   3.645 -0.3892  1.1334 -0.2178
 7383SOL    HW233609   3.685   2.699   3.596  0.9967 -0.1325  1.5459
 7384SOL     OW33610   4.211   3.894   8.419 -0.1690 -0.8212 -0.5312
 7384SOL    HW133611   4.290   3.937   8.453 -2.1473  0.5540  2.3585
 7384SOL    HW233612   4.181   3.840   8.492 -2.5713  0.7817 -0.3037
 7385SOL     OW33613   3.527   3.001   3.744 -0.0154  0.2781  0.0045
 7385SOL    HW133614   3.519   2.910   3.715  3.6881 -0.5935  1.6548
 7385SOL    HW233615   3.518   3.039   3.657 -1.2523  2.0018  0.8863
 7386SOL     OW33616   1.300   0.766  16.298 -0.9634  0.1892 -0.1868
 7386SOL    HW133617   1.219   0.794  16.339 -0.3506  1.4104  0.1998
 7386SOL    HW233618   1.350   0.848  16.305  0.8869 -0.9216 -0.1835
 7387SOL     OW33619   3.269   3.552   8.537  0.6140 -0.2535  0.0340
 7387SOL    HW133620   3.221   3.483   8.582 -1.4079  0.2567 -1.3544
 7387SOL    HW233621   3.225   3.631   8.569  0.5802 -0.6378  0.9315
 7388SOL     OW33622   0.201   4.188   3.626 -0.3081  0.0170 -0.4596
 7388SOL    HW133623   0.159   4.165   3.543 -1.2496 -0.5171  0.1622
 7388SOL    HW233624   0.176   4.280   3.629 -1.5957 -0.3954  1.1696
 7389SOL     OW33625   4.098   4.346  15.698 -0.0884  0.4755 -0.0674
 7389SOL    HW133626   4.131   4.277  15.641 -0.6975  1.0651 -1.1343
 7389SOL    HW233627   4.136   4.427  15.665 -1.7549  1.8702  1.4218
 7390SOL     OW33628   1.176   1.645   7.558  0.2949 -0.0099 -0.0254
 7390SOL    HW133629   1.262   1.666   7.594 -0.7350  0.8179  1.9793
 7390SOL    HW233630   1.135   1.591   7.626 -2.0281  0.1323 -1.3234
 7391SOL     OW33631   1.978   1.696   1.508  0.3492 -0.7522  0.6873
 7391SOL    HW133632   2.029   1.641   1.568  3.0402 -0.9066 -1.7734
 7391SOL    HW233633   1.894   1.702   1.553 -1.8458 -1.1716 -3.3540
 7392SOL     OW33634   1.818   4.490   3.173  0.1736  0.6819 -0.5660
 7392SOL    HW133635   1.901   4.443   3.181  0.0567  0.7350  0.9874
 7392SOL    HW233636   1.759   4.428   3.217  1.2332  1.5602  2.0793
 7393SOL     OW33637   0.375   2.406  10.263 -0.4378  0.2375 -0.3176
 7393SOL    HW133638   0.318   2.440  10.332 -1.6469  1.5653 -1.9913
 7393SOL    HW233639   0.459   2.419  10.307 -0.6607  0.8756 -0.0784
 7394SOL     OW33640   4.320   0.881   5.240  0.1966 -0.1160  0.3368
 7394SOL    HW133641   4.310   0.951   5.175 -0.7705 -0.1333  0.4622
 7394SOL    HW233642   4.414   0.865   5.247  0.1022 -0.7622  0.1405
 7395SOL     OW33643   2.779   3.103   1.293  0.0306 -0.5332 -0.0714
 7395SOL    HW133644   2.854   3.096   1.353 -0.1171 -0.3890  0.1296
 7395SOL    HW233645   2.823   3.140   1.216 -1.3998  1.3369  0.0172
 7396SOL     OW33646   4.694   0.299   2.211 -0.8102 -0.3016 -0.9951
 7396SOL    HW133647   4.710   0.343   2.128  1.2194  1.7649  0.4667
 7396SOL    HW233648   0.058   0.311   2.249 -1.0071 -0.6885 -0.4067
 7397SOL     OW33649   2.319   4.540   2.352  0.1420 -0.1037 -0.6223
 7397SOL    HW133650   2.243   4.487   2.328 -1.0425  1.7755 -1.0102
 7397SOL    HW233651   2.289   4.626   2.325 -0.5965  0.1417  0.9538
 7398SOL     OW33652   3.810   0.681  14.275  0.5984  0.2657 -0.2961
 7398SOL    HW133653   3.874   0.752  14.271  1.1349 -0.2388 -0.7562
 7398SOL    HW233654   3.807   0.672  14.370  1.2569  2.5988 -0.0502
 7399SOL     OW33655   0.684   1.994  11.044  0.1592 -0.0465 -0.4761
 7399SOL    HW133656   0.766   1.949  11.066 -0.2597 -1.1069 -1.0642
 7399SOL    HW233657   0.629   1.979  11.120  0.6701 -0.3193 -0.1608
 7400SOL     OW33658   2.891   1.093  16.925  0.1272 -0.1475 -0.3048
 7400SOL    HW133659   2.923   1.009  16.890  0.4967  0.1455 -0.6761
 7400SOL    HW233660   2.874   1.138  16.842  2.2955  0.4261 -0.4527
 7401SOL     OW33661   4.281   4.123   1.771 -0.6675 -0.4035 -0.4236
 7401SOL    HW133662   4.188   4.111   1.787 -0.0377  0.7008  4.0143
 7401SOL    HW233663   4.305   4.208   1.808 -1.6930  0.0852 -0.8672
 7402SOL     OW33664   3.358   0.336  13.157  0.9942  0.3197  0.2881
 7402SOL    HW133665   3.438   0.299  13.194  0.5960  1.3939  2.1904
 7402SOL    HW233666   3.336   0.250  13.121 -0.4282  1.1513 -0.8251
 7403SOL     OW33667   2.573   0.050   5.265  0.3341 -0.2581 -0.2106
 7403SOL    HW133668   2.624   4.693   5.276 -1.5128 -1.4272 -0.2859
 7403SOL    HW233669   2.614   0.091   5.189 -1.7189  2.5060  0.1757
 7404SOL     OW33670   1.833   0.046   0.476 -0.3683 -0.1584 -0.0038
 7404SOL    HW133671   1.908   0.091   0.515  0.4369 -0.4728 -1.1824
 7404SOL    HW233672   1.760   0.093   0.515  1.0036  1.1730  0.9968
 7405SOL     OW33673   1.702   1.133   3.668  0.0001 -0.0294 -0.2663
 7405SOL    HW133674   1.710   1.185   3.588 -0.6833 -0.2267 -0.4633
 7405SOL    HW233675   1.726   1.200   3.732  1.4496  1.0062 -1.8920
 7406SOL     OW33676   2.030   0.072   9.191  0.3388  0.0383 -0.2754
 7406SOL    HW133677   2.033   4.711   9.236 -0.4394  0.8518  1.3258
 7406SOL    HW233678   2.040   0.125   9.270 -1.9688 -1.5508  1.0942
 7407SOL     OW33679   0.812   0.152   4.528 -0.9480  0.7151 -0.2638
 7407SOL    HW133680   0.874   0.217   4.562 -1.4640  2.6300 -2.9535
 7407SOL    HW233681   0.865   0.094   4.473  0.0170  2.9973 -1.7653
 7408SOL     OW33682   1.669   0.706   1.105 -0.3463 -0.1359 -0.5488
 7408SOL    HW133683   1.710   0.620   1.092 -4.6996 -2.0991 -1.4614
 7408SOL    HW233684   1.639   0.699   1.196 -0.4570 -3.1676 -0.8036
 7409SOL     OW33685   3.838   4.447   8.895 -0.2148  0.0321 -0.0459
 7409SOL    HW133686   3.761   4.496   8.924  0.2943  1.3105 -0.8391
 7409SOL    HW233687   3.821   4.364   8.940 -1.1046  1.5127  2.3513
 7410SOL     OW33688   0.367   2.521  13.969 -0.3071  0.6060  0.1469
 7410SOL    HW133689   0.414   2.583  14.024 -0.5882  0.8010  0.1644
 7410SOL    HW233690   0.367   2.443  14.026 -2.4726  0.6831  0.2423
 7411SOL     OW33691   3.943   0.265   3.550 -0.1982 -0.0363  0.1118
 7411SOL    HW133692   3.959   0.257   3.644  0.9488 -1.6689 -0.2230
 7411SOL    HW233693   3.859   0.226   3.527 -0.0756 -0.6740  0.7688
 7412SOL     OW33694   4.719   3.031   6.449  0.3045  0.4105 -0.6590
 7412SOL    HW133695   4.708   3.126   6.448 -2.6205  0.0577  1.0963
 7412SOL    HW233696   0.028   3.015   6.538  1.1306  1.2171 -0.8119
 7413SOL     OW33697   3.241   3.281  13.089  0.2176  0.3191  0.4631
 7413SOL    HW133698   3.315   3.221  13.089 -0.8354 -0.9729 -0.3130
 7413SOL    HW233699   3.187   3.239  13.157 -0.6789  0.5681 -0.0950
 7414SOL     OW33700   4.480   4.505  13.540  0.1006  0.0352 -0.1480
 7414SOL    HW133701   4.477   4.536  13.631 -0.9237 -0.5860  0.0303
 7414SOL    HW233702   4.483   4.410  13.552 -1.1032 -0.0097 -0.2025
 7415SOL     OW33703   0.625   0.108   8.698 -0.0494 -0.2193 -0.3756
 7415SOL    HW133704   0.635   0.113   8.793  0.9103  1.1468 -0.5445
 7415SOL    HW233705   0.560   0.173   8.669  0.0542 -0.5344 -1.3109
 7416SOL     OW33706   1.355   4.141   6.020 -0.3878  0.5107 -0.1877
 7416SOL    HW133707   1.439   4.180   6.045  0.4429 -0.2873 -1.7001
 7416SOL    HW233708   1.308   4.190   6.087 -3.2734 -2.3469 -0.1129
 7417SOL     OW33709   2.376   3.420   1.854  0.4033  0.3632 -0.3796
 7417SOL    HW133710   2.390   3.454   1.765  1.6690  1.4645  0.2522
 7417SOL    HW233711   2.300   3.363   1.843  0.3010  0.2993  0.6698
 7418SOL     OW33712   0.111   3.055   6.850  0.5486  0.1133 -0.2516
 7418SOL    HW133713   0.142   3.145   6.843  1.6149 -0.2227  0.1301
 7418SOL    HW233714   0.018   3.048   6.830 -0.0690 -0.2791  2.6204
 7419SOL     OW33715   3.239   0.018   1.683  0.1665 -0.2142  0.1064
 7419SOL    HW133716   3.220   0.108   1.656  1.6422 -0.6173 -2.2699
 7419SOL    HW233717   3.166   0.007   1.744 -0.0780  1.1916  0.0685
 7420SOL     OW33718   2.143   3.936   2.273 -0.2602 -0.2584 -0.5332
 7420SOL    HW133719   2.085   3.880   2.222  0.0605  1.1806 -2.5067
 7420SOL    HW233720   2.231   3.899   2.271 -0.0108  0.2726  0.9443
 7421SOL     OW33721   1.130   2.723   1.340  0.1780 -0.6634  0.2131
 7421SOL    HW133722   1.161   2.810   1.314  0.8805 -0.8610  0.3944
 7421SOL    HW233723   1.217   2.685   1.347  0.8848  1.1699  1.4546
 7422SOL     OW33724   2.054   1.360   6.038  0.0717  0.2936  0.4059
 7422SOL    HW133725   2.041   1.312   6.119  1.4614 -1.7925 -0.5824
 7422SOL    HW233726   2.063   1.290   5.973  1.1516  1.1367 -0.3419
 7423SOL     OW33727   3.159   0.852   2.171  0.1978  0.6695 -0.1871
 7423SOL    HW133728   3.173   0.838   2.077  0.0681 -0.5785 -0.0165
 7423SOL    HW233729   3.240   0.809   2.200 -0.8808  0.3438  2.3218
 7424SOL     OW33730   1.936   2.520   6.492 -0.0588  0.0353 -0.2411
 7424SOL    HW133731   2.015   2.487   6.450  0.0807  2.0857 -1.5683
 7424SOL    HW233732   1.917   2.455   6.560 -1.8673  1.3214  0.4851
 7425SOL     OW33733   0.263   0.899   5.383 -0.1472  0.4619 -0.2652
 7425SOL    HW133734   0.227   0.936   5.303 -0.2512  0.0473 -0.4099
 7425SOL    HW233735   0.334   0.841   5.355  0.0293  0.1160  0.8986
 7426SOL     OW33736   2.978   3.070   1.481  0.0222 -0.3055 -0.1559
 7426SOL    HW133737   2.928   3.062   1.562  0.5150  0.0228  0.1868
 7426SOL    HW233738   3.028   3.144   1.515  0.1175 -0.5659  0.2632
 7427SOL     OW33739   4.075   2.078   3.927  0.0441 -0.1505 -0.0080
 7427SOL    HW133740   4.126   2.005   3.891  2.0088  1.2307 -0.0024
 7427SOL    HW233741   4.012   2.092   3.857  0.4815 -2.8741 -0.9307
 7428SOL     OW33742   0.057   2.466   4.845 -0.7299 -0.0642  0.2990
 7428SOL    HW133743   0.152   2.471   4.854 -0.7619 -0.9601  1.0783
 7428SOL    HW233744   0.053   2.454   4.750  1.6931  1.4416  0.0210
 7429SOL     OW33745   1.991   1.399   7.196  0.4557 -0.4750 -0.3386
 7429SOL    HW133746   2.074   1.436   7.166  0.7993  1.2257  2.8029
 7429SOL    HW233747   2.006   1.375   7.287  2.8411  0.9299 -0.3527
 7430SOL     OW33748   2.157   0.705   6.569  0.1218  0.4492  0.0887
 7430SOL    HW133749   2.086   0.764   6.544  2.1609  2.4748 -0.9442
 7430SOL    HW233750   2.224   0.771   6.587  0.7060 -0.4237  1.0659
 7431SOL     OW33751   0.833   4.349   4.140 -0.6924 -0.5165 -0.8899
 7431SOL    HW133752   0.780   4.302   4.205 -1.1219  0.3739 -0.6025
 7431SOL    HW233753   0.776   4.424   4.127 -0.8843 -0.1756  1.9605
 7432SOL     OW33754   0.309   3.567  12.179 -0.3191 -0.8585  0.1334
 7432SOL    HW133755   0.261   3.583  12.261 -0.4891 -2.1002  0.2783
 7432SOL    HW233756   0.255   3.621  12.121  1.5314 -0.3892 -1.1216
 7433SOL     OW33757   1.960   3.402   9.859  0.0781 -0.1523 -0.3217
 7433SOL    HW133758   1.953   3.421   9.766  1.4968 -0.3448 -0.4707
 7433SOL    HW233759   2.051   3.419   9.881  0.6489 -2.0515 -1.2086
 7434SOL     OW33760   3.606   2.105   3.638  0.1288 -0.0110 -0.4633
 7434SOL    HW133761   3.682   2.100   3.580 -0.5182  0.8643 -1.3928
 7434SOL    HW233762   3.555   2.179   3.604  0.3635  0.9350  1.2127
 7435SOL     OW33763   0.076   0.842   1.261  0.0188 -0.4005  0.1654
 7435SOL    HW133764   0.085   0.753   1.229 -0.3576 -0.0990 -0.7701
 7435SOL    HW233765   0.070   0.822   1.354  2.2777  0.2337  0.4663
 7436SOL     OW33766   1.036   3.001   1.347  0.3814 -0.0739 -0.6004
 7436SOL    HW133767   1.074   3.029   1.431  1.3963 -0.1191 -1.0418
 7436SOL    HW233768   0.984   3.080   1.331 -0.2732 -0.9429 -2.7435
 7437SOL     OW33769   0.170   3.696  15.777  0.2410  0.2640 -0.1893
 7437SOL    HW133770   0.083   3.720  15.809  0.2474  0.4928 -0.3456
 7437SOL    HW233771   0.154   3.601  15.771  2.7485 -0.1388 -0.3811
 7438SOL     OW33772   4.588   1.424  14.267 -0.5615 -0.4923  0.1623
 7438SOL    HW133773   4.653   1.360  14.295 -0.9406 -0.6829  0.6097
 7438SOL    HW233774   4.611   1.503  14.316  0.2408 -1.7967  1.9016
 7439SOL     OW33775   2.745   0.459  13.116  0.1966  0.3867  0.4581
 7439SOL    HW133776   2.695   0.405  13.177 -2.7886  2.4736 -0.1138
 7439SOL    HW233777   2.831   0.418  13.122  0.5350  0.7008 -2.1960
 7440SOL     OW33778   2.793   4.714  13.689  0.7596 -0.2819  0.4126
 7440SOL    HW133779   2.855   4.641  13.693  1.0575 -0.0503 -0.0094
 7440SOL    HW233780   2.791   0.005  13.784 -0.6730  0.1780  0.3074
 7441SOL     OW33781   1.599   4.610   6.048 -0.9997  0.4681  0.1585
 7441SOL    HW133782   1.595   4.629   6.142 -0.0308  0.1662  0.2674
 7441SOL    HW233783   1.633   4.695   6.020 -0.2460  0.3485  0.7059
 7442SOL     OW33784   3.895   1.309   7.033  0.8524  0.2625  0.4017
 7442SOL    HW133785   3.820   1.279   6.983  0.1678  1.9567  0.4407
 7442SOL    HW233786   3.894   1.404   7.030 -0.5387  0.2412  0.3682
 7443SOL     OW33787   1.143   3.418   7.785  0.3413 -0.0438 -0.7844
 7443SOL    HW133788   1.050   3.417   7.806  0.5774  0.8534  0.3096
 7443SOL    HW233789   1.186   3.360   7.848  0.1064 -1.0684 -1.5617
 7444SOL     OW33790   4.123   3.471   4.804 -0.1311  0.6753 -0.1674
 7444SOL    HW133791   4.201   3.439   4.848 -1.4289 -3.1720 -0.6215
 7444SOL    HW233792   4.127   3.566   4.798 -0.4462  0.6344 -0.9810
 7445SOL     OW33793   1.721   0.488   9.547  0.6000 -0.2068  0.3035
 7445SOL    HW133794   1.710   0.449   9.460 -1.2875  0.6459  0.1619
 7445SOL    HW233795   1.653   0.556   9.541 -0.2464 -0.8645  2.5669
 7446SOL     OW33796   3.455   2.265   8.376 -0.4734  0.5239 -0.3385
 7446SOL    HW133797   3.529   2.285   8.320  1.0353  2.4097  2.3172
 7446SOL    HW233798   3.501   2.263   8.460 -0.5466 -0.1771 -0.3211
 7447SOL     OW33799   4.188   4.465   7.981  0.6936 -0.0884 -0.3972
 7447SOL    HW133800   4.187   4.369   7.978 -0.2704 -0.0675 -0.7633
 7447SOL    HW233801   4.281   4.487   7.971  0.2526  1.4431 -1.1450
 7448SOL     OW33802   0.755   4.101   7.757  0.1393 -0.5643  1.1249
 7448SOL    HW133803   0.722   4.183   7.721  2.4731  0.6243  1.7053
 7448SOL    HW233804   0.698   4.080   7.830 -0.0404  0.5895  1.3112
 7449SOL     OW33805   2.436   3.350   2.634  0.1777 -0.2323  0.3645
 7449SOL    HW133806   2.517   3.394   2.660  1.0327 -1.0451 -0.9287
 7449SOL    HW233807   2.448   3.326   2.542 -2.0817  0.8231 -0.2062
 7450SOL     OW33808   1.158   1.654  17.539  0.3872  0.2539 -0.1607
 7450SOL    HW133809   1.129   1.724  17.482  1.3894  0.9447  0.1834
 7450SOL    HW233810   1.080   1.636  17.592  0.8814 -1.3887  0.0389
 7451SOL     OW33811   4.149   2.583   0.908  0.3314 -0.2819  0.1257
 7451SOL    HW133812   4.204   2.648   0.866 -0.2927  0.6435  0.7284
 7451SOL    HW233813   4.150   2.502   0.856  0.2298 -1.3062  1.7049
 7452SOL     OW33814   0.186   2.026   3.592  0.3070  0.4167 -0.3800
 7452SOL    HW133815   0.266   2.074   3.615  1.5461 -2.0250  0.4001
 7452SOL    HW233816   0.146   2.084   3.528 -1.1633 -0.8930 -0.6221
 7453SOL     OW33817   2.371   0.497   7.227 -0.0429 -0.3098 -0.0461
 7453SOL    HW133818   2.431   0.491   7.153 -0.6838  2.9354 -0.8334
 7453SOL    HW233819   2.290   0.493   7.177  0.3914 -2.6191 -0.5749
 7454SOL     OW33820   1.536   3.779   2.057 -0.0534  0.0840  0.0604
 7454SOL    HW133821   1.586   3.721   1.998  2.1227  0.9071  1.1209
 7454SOL    HW233822   1.555   3.865   2.019 -1.4869 -0.7699 -2.6445
 7455SOL     OW33823   3.926   3.710   4.040  0.1330  0.2036  0.2937
 7455SOL    HW133824   3.978   3.716   3.960 -2.5043 -0.7030 -1.5104
 7455SOL    HW233825   3.998   3.735   4.098 -0.6398  1.3858  0.7459
 7456SOL     OW33826   3.372   4.617  11.270  0.7784  0.0236 -0.0223
 7456SOL    HW133827   3.459   4.654  11.254  0.3882  0.6616 -0.6299
 7456SOL    HW233828   3.352   4.647  11.359  0.3662 -1.4264  0.3810
 7457SOL     OW33829   0.593   4.511   3.306  0.1628 -0.5967 -0.0746
 7457SOL    HW133830   0.526   4.450   3.274  0.4028 -1.2867  0.7204
 7457SOL    HW233831   0.671   4.490   3.255 -0.0865 -0.1680 -0.6323
 7458SOL     OW33832   2.246   0.219   4.926  0.0346  0.1678 -0.1896
 7458SOL    HW133833   2.238   0.309   4.956 -3.6685  0.1460 -1.1590
 7458SOL    HW233834   2.210   0.175   5.003 -0.4884 -1.5734 -1.4306
 7459SOL     OW33835   4.551   2.621  10.708  0.4599 -0.4242  0.2357
 7459SOL    HW133836   4.534   2.705  10.665 -0.6530 -0.6884  0.1521
 7459SOL    HW233837   4.539   2.547  10.648 -0.1546  0.3277 -0.5657
 7460SOL     OW33838   3.299   1.429   0.872 -0.1609  0.4733 -0.3302
 7460SOL    HW133839   3.347   1.496   0.920 -0.9983  0.4307  0.5629
 7460SOL    HW233840   3.371   1.366   0.870 -0.1360  0.5343 -1.6584
 7461SOL     OW33841   0.566   4.530   2.136 -0.2368  0.1562 -0.2393
 7461SOL    HW133842   0.632   4.481   2.087 -1.9469 -1.3583 -1.0536
 7461SOL    HW233843   0.630   4.590   2.174 -0.7927  0.5181  0.1216
 7462SOL     OW33844   4.060   1.505   2.970 -0.2529  0.7465 -0.0482
 7462SOL    HW133845   3.988   1.536   3.025  1.0562  0.4677  1.8562
 7462SOL    HW233846   4.108   1.584   2.993 -1.4123  1.8018 -1.2692
 7463SOL     OW33847   1.626   0.874   3.695  0.2220  0.7745 -0.4429
 7463SOL    HW133848   1.654   0.965   3.680  1.1592  0.3695 -1.0973
 7463SOL    HW233849   1.708   0.854   3.741 -1.2216 -0.0674  1.7773
 7464SOL     OW33850   2.925   4.345   5.431 -0.0526  0.4045  0.1274
 7464SOL    HW133851   2.858   4.374   5.493  0.1804  1.3036 -0.0417
 7464SOL    HW233852   2.899   4.386   5.349 -2.1439  2.1922  1.7037
 7465SOL     OW33853   3.277   0.642   3.625  0.0423 -0.2257 -0.2000
 7465SOL    HW133854   3.219   0.646   3.701 -0.7666  1.5416 -0.9184
 7465SOL    HW233855   3.267   0.732   3.592 -0.8063 -0.0990  0.3991
 7466SOL     OW33856   0.993   2.359  17.124  0.3319  0.1010  0.2478
 7466SOL    HW133857   0.937   2.298  17.172 -0.8893  1.8341  1.0182
 7466SOL    HW233858   1.081   2.323  17.131  0.3238  0.2894  1.2552
 7467SOL     OW33859   0.237   1.901   3.958  0.2173  0.0045  0.7472
 7467SOL    HW133860   0.180   1.900   4.035  0.1720 -2.4826  0.6568
 7467SOL    HW233861   0.213   1.988   3.924 -0.0486 -0.2622  0.2560
 7468SOL     OW33862   4.473   1.652   3.489  0.3090 -0.5598  0.1079
 7468SOL    HW133863   4.408   1.643   3.419  0.6103 -0.0448 -0.2418
 7468SOL    HW233864   4.547   1.685   3.438 -0.2185  2.3731  1.2635
 7469SOL     OW33865   4.014   1.134   6.842  0.2890 -0.0521 -0.2851
 7469SOL    HW133866   3.968   1.199   6.895 -1.2715 -2.0242  0.7854
 7469SOL    HW233867   3.950   1.062   6.843  1.1217 -0.7580  1.6643
 7470SOL     OW33868   2.957   0.987  12.189  0.1342 -0.1190 -0.0390
 7470SOL    HW133869   2.971   0.892  12.189 -1.2567 -0.3247 -0.0301
 7470SOL    HW233870   3.015   1.011  12.117 -0.2351 -0.3755 -0.4202
 7471SOL     OW33871   4.246   0.406   9.320  0.3947  0.0134  0.2851
 7471SOL    HW133872   4.210   0.326   9.358  1.7757  1.3571  4.4878
 7471SOL    HW233873   4.341   0.404   9.337  0.3894  0.4780  0.3777
 7472SOL     OW33874   3.204   0.797  10.151  0.5462  0.1030  0.2911
 7472SOL    HW133875   3.247   0.810  10.067  0.4972 -1.2567  0.0473
 7472SOL    HW233876   3.182   0.888  10.171  2.6615  0.8761 -0.8238
 7473SOL     OW33877   2.531   2.601   4.584  0.2169  0.1105 -0.4942
 7473SOL    HW133878   2.575   2.544   4.522 -1.1049  0.4894 -1.7814
 7473SOL    HW233879   2.599   2.643   4.636  0.4572 -1.6140  0.5859
 7474SOL     OW33880   4.125   3.347  15.923  0.1960  0.5521  0.4228
 7474SOL    HW133881   4.085   3.260  15.933  1.9311 -0.5611 -2.3951
 7474SOL    HW233882   4.081   3.380  15.844  2.2887 -0.7868 -1.3052
 7475SOL     OW33883   2.560   1.441   4.513 -0.1478  0.7724  0.9036
 7475SOL    HW133884   2.475   1.483   4.530 -0.4542  0.2201  0.7675
 7475SOL    HW233885   2.582   1.466   4.424  2.0832  0.5785  1.4139
 7476SOL     OW33886   0.127   4.093   6.126 -0.0051  0.1056 -0.2374
 7476SOL    HW133887   0.210   4.108   6.171 -0.6374 -0.8326  1.2260
 7476SOL    HW233888   0.086   4.178   6.144 -0.1855  0.3601 -1.8018
 7477SOL     OW33889   2.155   2.059   5.185  0.6424 -0.0547 -0.0646
 7477SOL    HW133890   2.089   2.122   5.215 -1.8693 -2.1586 -1.1800
 7477SOL    HW233891   2.120   1.981   5.230 -1.9826 -0.8069 -3.4521
 7478SOL     OW33892   1.379   2.351  14.698  0.0523 -0.6743  0.0434
 7478SOL    HW133893   1.360   2.384  14.786 -1.0188 -4.0040  1.1107
 7478SOL    HW233894   1.469   2.319  14.702 -0.1334 -1.2895 -0.5941
 7479SOL     OW33895   3.154   1.825   7.441 -0.2182  0.1998  0.0329
 7479SOL    HW133896   3.241   1.796   7.471 -0.6983  0.9609  2.1676
 7479SOL    HW233897   3.176   1.915   7.419 -0.7442  0.4132  0.3794
 7480SOL     OW33898   2.172   2.974   5.349 -0.0869  0.2143  0.0841
 7480SOL    HW133899   2.192   2.881   5.346 -0.2303  0.0815  3.3589
 7480SOL    HW233900   2.089   2.968   5.396 -0.7949  3.2427 -0.7385
 7481SOL     OW33901   3.262   0.177   3.363  0.0712  0.7838 -0.1967
 7481SOL    HW133902   3.194   0.143   3.421  1.3177 -2.3964 -0.6013
 7481SOL    HW233903   3.259   0.270   3.385  1.1029  0.4692  1.2584
 7482SOL     OW33904   2.463   1.354   8.604  0.0752  0.0009  0.0960
 7482SOL    HW133905   2.450   1.313   8.689 -0.4142  0.6927  0.3559
 7482SOL    HW233906   2.413   1.435   8.618 -0.2341 -0.4329  1.4925
 7483SOL     OW33907   3.440   2.517  12.655 -0.0356 -0.6659 -0.2382
 7483SOL    HW133908   3.528   2.555  12.647 -0.0847 -0.6934 -0.8713
 7483SOL    HW233909   3.393   2.568  12.589  2.2664 -2.2325 -3.0545
 7484SOL     OW33910   0.465   0.958   9.143 -0.1806 -0.7747 -0.1370
 7484SOL    HW133911   0.420   0.893   9.090 -0.6200 -1.7772  1.4633
 7484SOL    HW233912   0.389   1.001   9.183  2.4040  0.0396  3.8897
 7485SOL     OW33913   1.762   0.303   4.916 -0.1824 -0.3355 -0.1882
 7485SOL    HW133914   1.833   0.245   4.943  0.3022 -0.2368 -1.2457
 7485SOL    HW233915   1.818   0.381   4.910 -0.5649 -0.1339 -1.2809
 7486SOL     OW33916   2.098   1.708   5.140 -0.0100  0.4122  0.3139
 7486SOL    HW133917   2.119   1.749   5.224 -3.1007  1.8979  0.3681
 7486SOL    HW233918   2.047   1.630   5.165  0.9736 -0.1838  0.4937
 7487SOL     OW33919   3.995   2.345  15.000  0.1097  0.1507  0.1359
 7487SOL    HW133920   3.954   2.259  15.000 -1.6621  1.0042 -1.2104
 7487SOL    HW233921   3.988   2.369  15.092 -0.6025 -1.3479  0.4647
 7488SOL     OW33922   0.925   2.446   2.432 -0.4105 -0.2000  0.4398
 7488SOL    HW133923   0.840   2.414   2.403  0.9891  0.2063 -4.0629
 7488SOL    HW233924   0.987   2.414   2.367 -1.7930  3.3905 -2.6651
 7489SOL     OW33925   2.246   1.108   9.045 -0.0514 -0.5339  0.3318
 7489SOL    HW133926   2.217   1.161   9.119  0.9016 -0.2014  0.4663
 7489SOL    HW233927   2.162   1.085   9.004  0.0003 -2.2233  1.1982
 7490SOL     OW33928   2.334   0.139  15.848 -0.2977  0.0756 -0.6031
 7490SOL    HW133929   2.322   0.132  15.943 -3.2927 -0.4563 -1.0107
 7490SOL    HW233930   2.412   0.194  15.841 -2.0766  2.5237 -1.2695
 7491SOL     OW33931   2.331   4.651  14.932 -0.5017  0.2672  0.0587
 7491SOL    HW133932   2.337   4.561  14.962  0.4205  0.8464  1.6074
 7491SOL    HW233933   2.322   4.640  14.837  1.8812 -1.0710  0.0169
 7492SOL     OW33934   0.911   3.628   5.504  0.2327 -0.0589  0.2405
 7492SOL    HW133935   0.872   3.697   5.451 -0.9863 -1.8691 -1.2406
 7492SOL    HW233936   0.979   3.593   5.446  0.5533 -0.8269  1.0862
 7493SOL     OW33937   3.094   0.309   5.119  0.1818 -0.0069  0.4228
 7493SOL    HW133938   3.083   0.404   5.116  3.5359  0.3838  0.8069
 7493SOL    HW233939   3.096   0.280   5.028 -0.4429  0.6468  0.1925
 7494SOL     OW33940   3.135   1.716   5.831 -0.5142  0.0371  0.0859
 7494SOL    HW133941   3.155   1.783   5.766  0.5974  1.6315  2.0759
 7494SOL    HW233942   3.067   1.762   5.881  0.1632 -1.7698  2.6581
 7495SOL     OW33943   0.240   0.585   5.506  0.0903 -0.2096 -0.6480
 7495SOL    HW133944   0.306   0.648   5.474  0.8710  0.4279  2.2185
 7495SOL    HW233945   0.267   0.588   5.598  1.4681  0.2992 -1.0576
 7496SOL     OW33946   3.172   1.861   0.084  0.1117 -0.1988  0.4306
 7496SOL    HW133947   3.169   1.847  17.685 -3.2322 -0.6191  0.6201
 7496SOL    HW233948   3.082   1.888   0.101 -0.0729  1.2143 -2.8108
 7497SOL     OW33949   0.551   2.191   5.538  0.4410  0.2045 -0.3644
 7497SOL    HW133950   0.517   2.119   5.484 -0.5939  2.2510 -2.4416
 7497SOL    HW233951   0.468   2.230   5.565  1.2647  0.3904  1.8421
 7498SOL     OW33952   3.728   2.742  15.175 -0.2016 -0.4536  0.5012
 7498SOL    HW133953   3.809   2.760  15.127 -0.2026  0.1318  0.7156
 7498SOL    HW233954   3.660   2.766  15.113 -2.0751 -1.9539  1.9662
 7499SOL     OW33955   3.805   3.454   5.584 -0.3356  0.2194 -0.2434
 7499SOL    HW133956   3.850   3.397   5.647  0.4958  0.4428 -0.6326
 7499SOL    HW233957   3.879   3.508   5.559  1.5300 -2.8453 -1.3869
 7500SOL     OW33958   4.255   1.430   8.523 -0.0530 -0.3400  0.4285
 7500SOL    HW133959   4.216   1.459   8.441  0.5155 -1.0480 -0.1004
 7500SOL    HW233960   4.333   1.486   8.526  1.7901 -2.9215  1.0733
 7501SOL     OW33961   1.320   1.507   2.660 -0.4063 -0.1608 -0.6792
 7501SOL    HW133962   1.319   1.412   2.643 -1.1810 -0.2914  0.1187
 7501SOL    HW233963   1.229   1.528   2.640 -0.3537 -1.1151 -1.9615
 7502SOL     OW33964   4.176   4.423   9.769 -0.3572  0.1340  0.8799
 7502SOL    HW133965   4.205   4.342   9.727  2.1009  1.8076 -0.6594
 7502SOL    HW233966   4.140   4.393   9.853  1.1962  0.4131  1.6527
 7503SOL     OW33967   1.920   0.707   5.474 -0.3778  0.2705  0.8750
 7503SOL    HW133968   1.999   0.658   5.496  0.8229  1.0750 -1.6383
 7503SOL    HW233969   1.948   0.783   5.423 -0.0560 -0.1610  0.4181
 7504SOL     OW33970   0.663   0.292   3.879  0.6609 -0.3725  0.1286
 7504SOL    HW133971   0.701   0.260   3.961  0.1813  0.3149  0.6173
 7504SOL    HW233972   0.568   0.280   3.879  0.9729 -2.8747 -1.9623
 7505SOL     OW33973   1.917   0.408   5.638 -0.0669  0.1589  0.3426
 7505SOL    HW133974   1.835   0.458   5.639 -1.0330 -1.4157  0.7828
 7505SOL    HW233975   1.975   0.458   5.582  0.0036  0.1156  0.3771
 7506SOL     OW33976   0.236   2.061   4.699  0.5583  0.2182  0.5497
 7506SOL    HW133977   0.164   2.052   4.762  0.6066 -0.7170  0.4604
 7506SOL    HW233978   0.196   2.095   4.619 -1.5111 -1.7498  0.7305
 7507SOL     OW33979   4.179   1.700  13.272  0.2040  0.1633 -0.0569
 7507SOL    HW133980   4.163   1.676  13.363  0.8105  0.4194  0.1166
 7507SOL    HW233981   4.092   1.678  13.239 -0.9403  2.1439  1.6458
 7508SOL     OW33982   3.195   1.523  15.199 -0.3467  0.1223 -0.1861
 7508SOL    HW133983   3.112   1.538  15.153 -0.0896  1.7119 -0.1361
 7508SOL    HW233984   3.199   1.608  15.243  0.8468 -0.8381  1.5360
 7509SOL     OW33985   3.281   3.664   7.107 -0.0390  0.4107 -0.1554
 7509SOL    HW133986   3.354   3.643   7.166  2.1609 -0.2526 -3.0795
 7509SOL    HW233987   3.203   3.638   7.156 -0.8560  3.3567  0.0973
 7510SOL     OW33988   2.517   1.621   9.541  0.1319 -0.6448  0.9986
 7510SOL    HW133989   2.602   1.651   9.512 -1.0027  2.5803  1.0727
 7510SOL    HW233990   2.513   1.656   9.630 -0.5908 -2.7334  1.7888
 7511SOL     OW33991   4.020   2.763   6.024 -0.3676  0.1237  0.4289
 7511SOL    HW133992   3.986   2.744   5.936  0.4126  1.5835 -0.1859
 7511SOL    HW233993   4.036   2.857   6.014  3.1193 -0.2747  2.0347
 7512SOL     OW33994   2.867   1.305   1.522 -0.0377 -0.5918 -0.0663
 7512SOL    HW133995   2.944   1.248   1.528 -0.1547 -0.5470  2.1198
 7512SOL    HW233996   2.918   1.385   1.512 -0.1914 -0.5620 -0.6052
 7513SOL     OW33997   4.093   0.526   4.919 -0.1406 -0.1666 -0.2579
 7513SOL    HW133998   4.014   0.497   4.965 -0.4526  3.7427  1.6195
 7513SOL    HW233999   4.096   0.618   4.943  2.3126 -0.2235 -0.3402
 7514SOL     OW34000   2.751   0.437   3.372 -0.0108 -0.1283 -0.4388
 7514SOL    HW134001   2.712   0.506   3.318  1.1946  2.0098  1.4130
 7514SOL    HW234002   2.740   0.473   3.460  1.1502 -0.6321 -0.0884
 7515SOL     OW34003   4.266   3.670   7.176  0.0614  0.3701  0.6384
 7515SOL    HW134004   4.266   3.659   7.081  0.2751  0.2644  0.6499
 7515SOL    HW234005   4.327   3.743   7.187  0.2226  0.2828  0.3283
 7516SOL     OW34006   0.528   3.305   8.651  0.4464 -0.0334 -0.2779
 7516SOL    HW134007   0.572   3.320   8.568 -0.7087 -0.9054 -1.0543
 7516SOL    HW234008   0.445   3.265   8.625  0.4147  0.0385 -0.2906
 7517SOL     OW34009   0.225   3.956  10.292  0.5179 -0.3791  0.5000
 7517SOL    HW134010   0.255   3.882  10.345  2.6918  0.8173  0.9146
 7517SOL    HW234011   0.131   3.939  10.288  0.7439 -1.6733  0.6927
 7518SOL     OW34012   2.136   4.343  14.940  0.0737  0.5987 -0.2547
 7518SOL    HW134013   2.216   4.366  14.891  0.4331 -1.7139 -0.7575
 7518SOL    HW234014   2.072   4.408  14.910  0.2926  1.2361  0.6439
 7519SOL     OW34015   2.976   0.169   4.594 -0.6966  0.0329  0.2969
 7519SOL    HW134016   2.931   0.115   4.529 -0.1995 -0.5467  0.4284
 7519SOL    HW234017   3.053   0.117   4.617 -0.1942 -0.3073 -2.2350
 7520SOL     OW34018   0.095   0.179   3.160  0.1433  0.2066  0.3059
 7520SOL    HW134019   0.187   0.168   3.136 -0.2638  1.1979 -1.6951
 7520SOL    HW234020   0.070   0.247   3.097 -1.8042 -0.7005  0.0852
 7521SOL     OW34021   4.452   4.616   4.454  0.0215 -0.0132  0.1361
 7521SOL    HW134022   4.490   4.530   4.472 -0.1319  0.0062  0.5565
 7521SOL    HW234023   4.521   4.666   4.412  1.1359 -2.0231 -0.4164
 7522SOL     OW34024   0.193   0.674   1.866 -0.1535 -0.6887  0.7224
 7522SOL    HW134025   0.167   0.622   1.942  0.5280  0.1232  1.5109
 7522SOL    HW234026   0.218   0.610   1.799  1.1255 -1.5519  2.0212
 7523SOL     OW34027   1.116   1.861   5.655 -0.3571  0.1585 -0.2463
 7523SOL    HW134028   1.169   1.781   5.646  0.8897  1.0152 -0.5429
 7523SOL    HW234029   1.038   1.839   5.605  0.8042  1.9167 -2.7894
 7524SOL     OW34030   1.905   2.734  15.802  0.5256  0.0914 -0.4000
 7524SOL    HW134031   1.964   2.685  15.744 -0.1175 -2.5400  1.1611
 7524SOL    HW234032   1.971   2.781  15.854 -0.0529 -2.7557  2.9547
 7525SOL     OW34033   0.533   0.972  11.720 -0.4345 -0.4603 -0.2510
 7525SOL    HW134034   0.537   1.020  11.803 -0.7175  0.7962 -0.9647
 7525SOL    HW234035   0.445   0.994  11.689  0.4104  0.2264 -2.1939
 7526SOL     OW34036   1.816   0.485   5.297  0.0706  0.2227 -0.4511
 7526SOL    HW134037   1.877   0.557   5.315 -0.4413  0.5218  0.0819
 7526SOL    HW234038   1.752   0.537   5.248  0.6579 -0.9071 -2.4501
 7527SOL     OW34039   3.374   4.398   9.622 -0.0134 -0.0823 -0.3064
 7527SOL    HW134040   3.404   4.340   9.691 -0.5514 -0.5286 -0.4467
 7527SOL    HW234041   3.289   4.428   9.654  0.6551 -0.3645  1.6812
 7528SOL     OW34042   3.440   2.168   1.492 -0.3419 -0.4467  0.1866
 7528SOL    HW134043   3.423   2.240   1.553 -1.0440 -0.1991 -0.2982
 7528SOL    HW234044   3.518   2.124   1.524  0.7942  2.5648  1.4650
 7529SOL     OW34045   4.458   2.887   3.505 -0.2010 -0.1834 -0.5245
 7529SOL    HW134046   4.514   2.960   3.477  1.0309 -0.8027  0.3115
 7529SOL    HW234047   4.524   2.826   3.539 -1.2897 -0.1697  1.5459
 7530SOL     OW34048   4.492   2.562   1.893 -0.2339  0.2745 -0.2735
 7530SOL    HW134049   4.475   2.549   1.799 -2.4506 -1.3864  0.3601
 7530SOL    HW234050   4.422   2.504   1.922  1.5989 -2.6665 -1.6440
 7531SOL     OW34051   3.966   0.716   0.912  0.3034  0.1666 -0.2078
 7531SOL    HW134052   3.968   0.645   0.976  0.5385 -0.7787 -1.2534
 7531SOL    HW234053   3.934   0.796   0.952  1.5883  0.2650  0.6000
 7532SOL     OW34054   4.062   3.793  12.957  0.3871  0.5238 -0.0079
 7532SOL    HW134055   3.970   3.819  12.964  0.8892  1.8828  1.5912
 7532SOL    HW234056   4.087   3.781  12.866  1.0874 -0.5069  0.3225
 7533SOL     OW34057   0.084   3.596  14.425  0.2735  0.5784  0.6744
 7533SOL    HW134058   0.098   3.501  14.422  0.9068  0.6318  1.9032
 7533SOL    HW234059   0.076   3.605  14.330  0.2968  0.9446  0.7102
 7534SOL     OW34060   3.301   3.091   1.730 -0.5788  0.0980  0.0963
 7534SOL    HW134061   3.232   3.048   1.780  0.9797 -3.3006 -0.6717
 7534SOL    HW234062   3.307   3.176   1.774  1.1153  1.9044 -3.6045
 7535SOL     OW34063   3.677   4.414   7.618 -0.2679  0.2823 -0.0029
 7535SOL    HW134064   3.692   4.508   7.609 -0.2567  0.2700 -0.1081
 7535SOL    HW234065   3.733   4.384   7.546  1.3397  0.0614  1.3295
 7536SOL     OW34066   4.523   0.307   3.825 -0.5689 -0.0835  0.3218
 7536SOL    HW134067   4.495   0.285   3.913 -1.0933 -0.8626 -0.0438
 7536SOL    HW234068   4.565   0.392   3.838  1.2403 -0.9551  0.2396
 7537SOL     OW34069   0.146   3.905   4.413  0.3281  0.0258 -0.5836
 7537SOL    HW134070   0.196   3.890   4.493 -3.5813 -0.1635  1.8247
 7537SOL    HW234071   0.058   3.875   4.436  0.5002 -2.0355 -2.5903
 7538SOL     OW34072   1.133   4.181   4.433 -0.4883  0.2922  0.7931
 7538SOL    HW134073   1.181   4.105   4.466  0.0224  1.6122  3.0231
 7538SOL    HW234074   1.045   4.150   4.414  0.5760 -1.6024 -1.1886
 7539SOL     OW34075   0.531   0.642   8.270  0.0568  0.1009 -0.3333
 7539SOL    HW134076   0.576   0.722   8.297  0.0994  0.5428 -1.7210
 7539SOL    HW234077   0.586   0.574   8.309  0.3904  0.0141 -0.9614
 7540SOL     OW34078   4.566   2.818   2.508  0.2798  0.0048  0.6237
 7540SOL    HW134079   4.592   2.751   2.444 -3.1261 -1.1963  0.4766
 7540SOL    HW234080   4.510   2.874   2.455  0.2561  0.0653  0.7131
 7541SOL     OW34081   3.760   0.146  14.328 -0.4019 -0.1322 -0.1211
 7541SOL    HW134082   3.846   0.188  14.333 -0.0056 -0.9851  0.1324
 7541SOL    HW234083   3.792   0.065  14.290  1.1162 -0.2138  1.3190
 7542SOL     OW34084   2.500   2.968  15.973  0.3784 -0.2125  0.0772
 7542SOL    HW134085   2.421   2.942  15.926 -0.2848  0.6197  0.7462
 7542SOL    HW234086   2.482   2.942  16.063 -1.5847 -1.8478 -0.7832
 7543SOL     OW34087   0.148   1.982   0.815 -0.5947 -0.7239 -0.6104
 7543SOL    HW134088   0.240   2.007   0.814 -0.4545 -1.1515  2.0788
 7543SOL    HW234089   0.116   2.047   0.753 -1.4238 -1.1605 -0.6506
 7544SOL     OW34090   2.949   1.373  14.700 -0.5048  0.3450  0.2485
 7544SOL    HW134091   3.031   1.356  14.653  0.5537 -0.2643  2.3116
 7544SOL    HW234092   2.961   1.467  14.707  0.5376  0.3803 -1.9551
 7545SOL     OW34093   3.130   0.596   5.278  0.1811  0.1025 -0.2348
 7545SOL    HW134094   3.081   0.637   5.207 -0.7334  0.6165  0.6830
 7545SOL    HW234095   3.178   0.672   5.312  0.9773 -0.0488 -1.0228
 7546SOL     OW34096   0.269   4.550   6.527 -0.1298  0.2161  0.4428
 7546SOL    HW134097   0.241   4.570   6.616  0.0275 -0.4017  0.6365
 7546SOL    HW234098   0.358   4.585   6.527 -1.1379  2.7467  0.4393
 7547SOL     OW34099   4.482   4.137   8.004  0.3568  0.2192  0.6921
 7547SOL    HW134100   4.526   4.078   7.943  5.1834  0.7860  3.6538
 7547SOL    HW234101   4.554   4.174   8.055  1.8868 -1.6431 -0.0902
 7548SOL     OW34102   2.068   0.431   0.689 -0.6120  0.5483 -0.6092
 7548SOL    HW134103   2.159   0.419   0.716 -1.2121  1.2165  1.7443
 7548SOL    HW234104   2.019   0.418   0.770  0.4765  0.0633 -0.0232
 7549SOL     OW34105   1.408   1.298  15.117  0.0667  0.2728  0.4667
 7549SOL    HW134106   1.355   1.365  15.073 -0.2501 -0.7096 -0.6333
 7549SOL    HW234107   1.430   1.348  15.196  1.6443  1.8937 -1.0003
 7550SOL     OW34108   1.894   2.379   8.367  0.1448 -0.1226 -0.0383
 7550SOL    HW134109   1.872   2.310   8.429  1.3597 -2.0262 -1.7171
 7550SOL    HW234110   1.853   2.359   8.282  0.5210  0.3837 -0.3393
 7551SOL     OW34111   3.835   4.694  15.200  0.4321  0.5657  0.6170
 7551SOL    HW134112   3.869   4.632  15.264 -0.8423  0.5629  1.2879
 7551SOL    HW234113   3.908   0.022  15.166 -1.0525  1.7623 -0.7806
 7552SOL     OW34114   2.189   2.948   7.920 -0.4336 -0.4183  0.1502
 7552SOL    HW134115   2.197   3.044   7.917  0.5633 -0.6009 -2.9951
 7552SOL    HW234116   2.220   2.934   8.010  1.2143 -0.1477 -0.3803
 7553SOL     OW34117   0.203   0.379   7.427 -0.1275  0.4966  0.2598
 7553SOL    HW134118   0.168   0.379   7.516 -1.6083  0.8858 -0.3234
 7553SOL    HW234119   0.158   0.453   7.387  0.8357  1.8113  1.6499
 7554SOL     OW34120   0.094   0.171   5.162  0.0302 -0.2647  0.0593
 7554SOL    HW134121   0.035   0.192   5.234 -1.3168 -0.3418 -1.0357
 7554SOL    HW234122   0.054   0.218   5.089  0.5253 -2.3231 -1.5431
 7555SOL     OW34123   4.494   2.456   3.545 -0.4124 -0.2961 -0.4852
 7555SOL    HW134124   4.502   2.519   3.473  0.9600 -0.3875 -0.4048
 7555SOL    HW234125   4.437   2.392   3.501  1.1048 -0.8563 -1.6440
 7556SOL     OW34126   0.146   1.456   8.133  0.2769 -0.6260 -0.0672
 7556SOL    HW134127   0.166   1.407   8.054 -0.8835 -0.7338 -0.3027
 7556SOL    HW234128   0.181   1.402   8.204 -1.0877  0.2501  1.2853
 7557SOL     OW34129   0.989   0.398   9.293 -0.4566 -0.5615  0.0423
 7557SOL    HW134130   0.992   0.462   9.223  0.6600  1.0845  1.5909
 7557SOL    HW234131   0.941   0.320   9.265 -1.6826  0.7058 -1.4201
 7558SOL     OW34132   2.708   4.250   5.148  0.3478  0.2122 -0.4220
 7558SOL    HW134133   2.649   4.322   5.171 -0.9368 -0.8754 -0.2857
 7558SOL    HW234134   2.645   4.178   5.151  0.1976  0.4162  1.8756
 7559SOL     OW34135   0.162   0.713   0.000 -0.4071 -0.4650  0.1602
 7559SOL    HW134136   0.232   0.771   0.029 -2.4073  1.0196  2.0341
 7559SOL    HW234137   0.214   0.636  17.673 -0.7888  0.0962 -2.6690
 7560SOL     OW34138   0.895   1.197   1.945  0.0882  0.2780  0.2272
 7560SOL    HW134139   0.870   1.276   1.899  0.6765 -0.4662 -1.3574
 7560SOL    HW234140   0.820   1.178   2.001 -0.2840 -3.2265 -1.4722
 7561SOL     OW34141   3.404   0.524   0.960 -0.6723  0.4218 -0.7126
 7561SOL    HW134142   3.489   0.566   0.943 -0.4388  0.1165 -0.2970
 7561SOL    HW234143   3.411   0.505   1.054 -3.9158 -4.5481 -1.4971
 7562SOL     OW34144   0.995   2.581  16.857  0.3268 -0.5964  0.1062
 7562SOL    HW134145   1.018   2.628  16.937  4.8308  2.9553 -3.2781
 7562SOL    HW234146   1.066   2.606  16.798  0.6975  1.8760  1.5940
 7563SOL     OW34147   0.985   2.728   2.330 -0.0961 -0.1050  0.3554
 7563SOL    HW134148   0.938   2.668   2.272  0.8013  0.2156 -0.7172
 7563SOL    HW234149   0.917   2.758   2.390 -1.7419 -2.5142 -0.2858
 7564SOL     OW34150   0.763   1.022   7.281 -0.1272 -0.0412 -0.2697
 7564SOL    HW134151   0.827   1.084   7.245  0.1570 -0.4095 -0.3975
 7564SOL    HW234152   0.679   1.041   7.239 -2.9765 -2.0023  4.5092
 7565SOL     OW34153   0.067   3.552  17.586  0.2365 -0.2202 -0.3217
 7565SOL    HW134154   0.131   3.481  17.580  1.3922  0.7980 -0.0805
 7565SOL    HW234155   0.123   3.624  17.616  1.6284 -0.6368 -1.9305
 7566SOL     OW34156   0.052   3.221   5.118  0.0606  0.1570 -0.3089
 7566SOL    HW134157   0.142   3.247   5.136 -0.5651  1.4065  1.0030
 7566SOL    HW234158   0.046   3.134   5.157 -0.7961  1.0075  1.4597
 7567SOL     OW34159   1.509   1.143   1.280 -0.3492 -0.6945  1.1914
 7567SOL    HW134160   1.472   1.225   1.247  1.3298 -0.3931  0.0503
 7567SOL    HW234161   1.529   1.099   1.198  1.4506  1.8805  0.2516
 7568SOL     OW34162   3.148   0.716   3.852  0.4357  0.5562  0.0791
 7568SOL    HW134163   3.162   0.685   3.942  1.4005  1.0030  0.0810
 7568SOL    HW234164   3.192   0.801   3.857  0.6893  0.4552 -0.5812
 7569SOL     OW34165   2.178   3.248   9.650  0.4761 -0.0891 -0.2629
 7569SOL    HW134166   2.186   3.285   9.562  1.8791 -2.3705 -1.0839
 7569SOL    HW234167   2.087   3.218   9.656  0.2168  1.0390  1.4055
 7570SOL     OW34168   2.809   1.251   4.455  0.2760  0.1563 -0.2980
 7570SOL    HW134169   2.745   1.211   4.397 -0.1113  0.0762  0.1871
 7570SOL    HW234170   2.889   1.215   4.417 -0.7515 -0.0471 -2.2583
 7571SOL     OW34171   2.658   4.454   6.601  0.1445  0.6268 -0.4667
 7571SOL    HW134172   2.719   4.429   6.670  0.7181  3.1231 -0.0661
 7571SOL    HW234173   2.619   4.369   6.578  0.9394  0.1530 -0.0681
 7572SOL     OW34174   1.488   1.751   1.182 -0.1507  0.1333  0.1529
 7572SOL    HW134175   1.551   1.688   1.148 -0.7230  1.2464 -2.9896
 7572SOL    HW234176   1.468   1.694   1.257  0.8339 -0.6938 -0.2210
 7573SOL     OW34177   0.837   4.233   6.900 -0.1077 -0.0562 -0.1743
 7573SOL    HW134178   0.837   4.258   6.808  2.4620 -0.0123 -0.1755
 7573SOL    HW234179   0.924   4.264   6.925  0.4565 -1.4987 -0.3186
 7574SOL     OW34180   3.903   0.295   1.663 -0.3602 -0.4208 -0.2985
 7574SOL    HW134181   3.921   0.279   1.570  0.0958  1.6733 -0.5649
 7574SOL    HW234182   3.986   0.314   1.706 -0.7890 -1.8190  1.1395
 7575SOL     OW34183   0.729   3.858  16.283  0.0586  0.7069  0.0655
 7575SOL    HW134184   0.781   3.789  16.241  1.1816  0.2946  2.1130
 7575SOL    HW234185   0.800   3.915  16.312  0.2442 -0.2941  1.5554
 7576SOL     OW34186   0.769   4.055  11.487  0.6088 -0.4971  0.5059
 7576SOL    HW134187   0.695   4.040  11.428  0.6468  1.6378 -0.0829
 7576SOL    HW234188   0.790   4.146  11.466 -0.9546 -0.5062 -1.1760
 7577SOL     OW34189   1.609   3.574  11.475 -0.3524 -0.1956  0.1693
 7577SOL    HW134190   1.594   3.540  11.387 -0.9387  0.9189 -0.1641
 7577SOL    HW234191   1.675   3.644  11.469 -0.1981 -0.3549  0.0191
 7578SOL     OW34192   3.101   4.200  16.944  0.2031  0.2590 -0.4162
 7578SOL    HW134193   3.190   4.190  16.909  1.1251 -3.3023  2.8933
 7578SOL    HW234194   3.063   4.121  16.905 -0.6362  0.6694 -0.4225
 7579SOL     OW34195   3.124   1.412  16.867  0.0792  0.3741  0.0597
 7579SOL    HW134196   3.039   1.371  16.858  1.5460 -2.4863 -0.6065
 7579SOL    HW234197   3.119   1.493  16.816 -0.1010  0.1793 -0.2317
 7580SOL     OW34198   0.572   0.297  12.185  0.2088 -0.3429  0.8340
 7580SOL    HW134199   0.635   0.225  12.177  1.3250  0.6330  0.7943
 7580SOL    HW234200   0.616   0.370  12.143  2.2282 -1.4391  1.0564
 7581SOL     OW34201   1.177   3.560  16.031  0.2313 -0.4657 -0.2629
 7581SOL    HW134202   1.122   3.483  16.015 -1.2083  0.4062  0.4464
 7581SOL    HW234203   1.258   3.512  16.047 -0.4663 -1.1726  1.0944
 7582SOL     OW34204   4.703   0.047   0.514  0.1691  0.0648  0.4431
 7582SOL    HW134205   0.012   4.713   0.445  0.4225  3.5297 -2.2915
 7582SOL    HW234206   4.713   0.126   0.461  0.7506 -0.9456 -0.9622
 7583SOL     OW34207   3.843   4.461  13.275  0.3589 -0.1982 -0.0578
 7583SOL    HW134208   3.876   4.499  13.193  1.5681  0.1764  0.5932
 7583SOL    HW234209   3.756   4.428  13.252 -0.0232 -0.6339  2.0829
 7584SOL     OW34210   2.363   3.678   9.040 -0.3232  0.2289 -0.4323
 7584SOL    HW134211   2.362   3.684   9.135  2.6889 -1.8559 -0.2747
 7584SOL    HW234212   2.300   3.609   9.023 -2.1126  1.4079  1.4336
 7585SOL     OW34213   3.256   3.972   1.240 -0.1507  0.0312  0.2936
 7585SOL    HW134214   3.279   3.898   1.296  0.6670  0.2172  0.2055
 7585SOL    HW234215   3.342   3.993   1.205 -0.7516  0.8281 -0.7205
 7586SOL     OW34216   4.522   2.437  14.436  0.2868  0.4565  0.1220
 7586SOL    HW134217   4.474   2.368  14.481 -0.7419  0.6001 -0.7624
 7586SOL    HW234218   4.551   2.389  14.359 -0.8586 -0.3436  0.1912
 7587SOL     OW34219   2.420   1.872   9.030  0.2789 -0.7467  0.0395
 7587SOL    HW134220   2.484   1.814   8.991 -1.3240 -1.8317 -0.9824
 7587SOL    HW234221   2.422   1.848   9.123 -2.1997 -1.5192 -0.1067
 7588SOL     OW34222   3.684   3.709  11.327 -0.5447 -0.1668  0.2943
 7588SOL    HW134223   3.663   3.802  11.324  0.4558  0.0096 -1.4388
 7588SOL    HW234224   3.778   3.700  11.343 -1.0454 -2.0869  2.1936
 7589SOL     OW34225   3.024   0.783   0.014  0.2012  0.1492 -0.2200
 7589SOL    HW134226   2.930   0.767   0.015  0.2840 -0.3108  0.2013
 7589SOL    HW234227   3.019   0.814   0.104  0.3968 -0.4979  0.0119
 7590SOL     OW34228   2.630   0.334   5.844  0.8949 -0.6324 -0.1516
 7590SOL    HW134229   2.658   0.375   5.763  0.6417 -2.5371 -1.1878
 7590SOL    HW234230   2.564   0.271   5.818 -0.0231  1.7513 -3.5423
 7591SOL     OW34231   3.557   3.997   8.740  0.1909 -0.4687 -0.6316
 7591SOL    HW134232   3.493   3.940   8.782  0.7471  1.0111  2.2683
 7591SOL    HW234233   3.533   3.989   8.648 -3.0726 -2.1777  0.3664
 7592SOL     OW34234   2.037   2.699   9.769 -0.0068 -0.3488  0.2073
 7592SOL    HW134235   1.992   2.615   9.782  0.1722 -0.9488 -3.1356
 7592SOL    HW234236   2.025   2.735   9.857  1.6147  2.0148 -0.5605
 7593SOL     OW34237   0.972   4.723  11.001  0.0751 -0.3537 -0.1753
 7593SOL    HW134238   0.882   0.023  10.979 -0.1248 -0.1478  0.8327
 7593SOL    HW234239   1.015   0.065  10.945  1.5433  1.2123  2.7501
 7594SOL     OW34240   4.469   3.084   7.810 -0.3952 -0.0425  0.9286
 7594SOL    HW134241   4.530   3.010   7.813 -0.8000 -0.3373  1.7246
 7594SOL    HW234242   4.535   3.154   7.815  0.7673 -1.1316  0.7363
 7595SOL     OW34243   4.637   4.322   3.560 -0.0185  0.2792 -0.5041
 7595SOL    HW134244   4.705   4.366   3.611 -0.4294 -0.6924  0.8588
 7595SOL    HW234245   4.685   4.283   3.487  0.5674 -0.9198  0.5494
 7596SOL     OW34246   4.721   0.514   1.442 -0.6053 -0.2553  0.7839
 7596SOL    HW134247   0.093   0.520   1.438 -0.7414 -0.0448 -2.1750
 7596SOL    HW234248   4.709   0.549   1.531 -0.1155  1.3516  0.2323
 7597SOL     OW34249   4.476   0.785   3.764  0.2462  0.2437  0.0531
 7597SOL    HW134250   4.390   0.753   3.737  1.1527 -1.0322 -1.3022
 7597SOL    HW234251   4.503   0.834   3.687  1.0174 -0.4726 -0.1353
 7598SOL     OW34252   0.813   1.008   6.121 -0.2003  0.5355 -0.0770
 7598SOL    HW134253   0.806   1.080   6.184  1.5774  0.3751  0.3086
 7598SOL    HW234254   0.728   1.016   6.077  0.0204 -0.5440 -0.6883
 7599SOL     OW34255   1.245   0.355   7.058 -0.0411  0.0100 -0.4710
 7599SOL    HW134256   1.225   0.267   7.026 -0.7659  0.2261 -0.6127
 7599SOL    HW234257   1.309   0.384   6.994 -0.3603  2.3398  0.2439
 7600SOL     OW34258   1.262   2.242  15.948  0.8904  0.1135 -0.2229
 7600SOL    HW134259   1.318   2.316  15.928 -0.9162  1.7986  0.9613
 7600SOL    HW234260   1.300   2.233  16.036  0.0676 -0.1543  0.1068
 7601SOL     OW34261   2.853   2.263  13.105  0.4141 -0.3169  0.1488
 7601SOL    HW134262   2.896   2.290  13.186 -0.6745  1.3402  0.1639
 7601SOL    HW234263   2.791   2.197  13.137  1.1625 -1.8298 -1.4964
 7602SOL     OW34264   2.375   1.001   3.784 -0.0641  0.0899  0.0161
 7602SOL    HW134265   2.381   1.089   3.822 -0.6543  0.1683 -0.0772
 7602SOL    HW234266   2.419   0.948   3.850  1.6624  0.5742 -0.7514
 7603SOL     OW34267   4.637   0.127   5.755  0.3041  0.3818 -0.0385
 7603SOL    HW134268   4.614   0.093   5.842 -0.9676  0.4766 -0.3330
 7603SOL    HW234269   0.008   0.111   5.753  0.2503 -0.1296  1.4154
 7604SOL     OW34270   0.896   1.737  14.163 -0.1694  0.2371 -0.3184
 7604SOL    HW134271   0.909   1.693  14.080  0.1071  1.0053 -0.6887
 7604SOL    HW234272   0.982   1.735  14.206 -0.4073 -1.8737  0.0525
 7605SOL     OW34273   3.504   4.096   5.751 -0.0366  0.1521  0.1305
 7605SOL    HW134274   3.428   4.150   5.730  1.1045  1.4396 -0.6024
 7605SOL    HW234275   3.555   4.112   5.672 -0.8667 -0.5078 -0.5510
 7606SOL     OW34276   4.327   1.734  10.058  0.0807 -0.4818 -0.0302
 7606SOL    HW134277   4.255   1.771  10.007  1.2341  1.4864 -0.2361
 7606SOL    HW234278   4.402   1.775  10.016 -0.5855  1.5423  0.7429
 7607SOL     OW34279   4.204   0.385  15.284 -0.2606 -0.3537 -0.1704
 7607SOL    HW134280   4.286   0.359  15.328  0.3288  1.6276 -0.0909
 7607SOL    HW234281   4.140   0.373  15.354  1.2930 -0.7577  1.1916
 7608SOL     OW34282   2.058   3.026   7.601 -0.7690  0.0648  0.3929
 7608SOL    HW134283   2.010   3.050   7.681 -0.9532 -0.6224  0.4960
 7608SOL    HW234284   1.980   2.997   7.553 -0.2908 -0.2841 -0.1660
 7609SOL     OW34285   4.154   2.144   5.035  0.2698 -0.4989  0.2161
 7609SOL    HW134286   4.245   2.125   5.061  0.6617  1.6878  0.3962
 7609SOL    HW234287   4.133   2.174   5.124 -0.7718 -0.7999  0.0651
 7610SOL     OW34288   2.739   1.242   1.768 -0.2198 -0.1446  0.7092
 7610SOL    HW134289   2.707   1.327   1.800  1.3919  0.9904 -0.6777
 7610SOL    HW234290   2.783   1.261   1.685 -0.4168 -2.2185  0.1410
 7611SOL     OW34291   2.647   2.134   6.641 -0.2285  0.3269 -0.0207
 7611SOL    HW134292   2.723   2.081   6.665 -0.2391 -0.4561 -1.7148
 7611SOL    HW234293   2.686   2.215   6.610  1.8710 -0.4049  0.6889
 7612SOL     OW34294   4.441   4.478   1.637 -0.2542  0.2591 -0.5225
 7612SOL    HW134295   4.495   4.400   1.624 -2.6493 -1.4425 -0.1685
 7612SOL    HW234296   4.399   4.455   1.719  1.0529 -0.2761 -0.0132
 7613SOL     OW34297   4.110   0.566   7.843  0.6573  0.0818  0.1428
 7613SOL    HW134298   4.158   0.521   7.775 -0.6612  0.7986 -1.2633
 7613SOL    HW234299   4.055   0.503   7.890  0.7046 -0.6191 -0.7619
 7614SOL     OW34300   0.358   0.069   8.991 -0.2148 -0.2529  0.7358
 7614SOL    HW134301   0.436   0.124   8.981  0.1319 -0.5581  1.7589
 7614SOL    HW234302   0.390   0.006   9.055  0.5267 -2.1514 -1.4940
 7615SOL     OW34303   2.882   0.751   0.736 -0.0739 -0.1472 -0.0368
 7615SOL    HW134304   2.924   0.721   0.817 -0.7129 -1.8906 -0.3355
 7615SOL    HW234305   2.805   0.695   0.721  0.2631 -1.2428  2.2573
 7616SOL     OW34306   0.562   0.136   5.414  0.9419 -0.2093 -0.5142
 7616SOL    HW134307   0.478   0.147   5.457  1.1121  1.0512 -0.5042
 7616SOL    HW234308   0.533   0.147   5.324 -2.6287  2.1947  0.9485
 7617SOL     OW34309   4.236   1.157  11.586  0.2565 -0.1838 -0.7799
 7617SOL    HW134310   4.319   1.202  11.600  0.3960 -0.4250 -0.8396
 7617SOL    HW234311   4.222   1.214  11.510  2.7141 -1.1581 -1.9310
 7618SOL     OW34312   4.548   4.506   0.634  0.3248  0.3290  0.0655
 7618SOL    HW134313   4.502   4.451   0.697 -1.7925 -0.6057 -2.3256
 7618SOL    HW234314   4.609   4.450   0.586  0.9316 -0.9556  2.3796
 7619SOL     OW34315   1.504   4.516   6.510  0.3457  0.1480  0.9445
 7619SOL    HW134316   1.556   4.568   6.450 -1.0979 -0.0531 -0.4834
 7619SOL    HW234317   1.422   4.564   6.496 -0.4658 -1.6414 -0.4017
 7620SOL     OW34318   2.672   2.808   3.840 -0.2632  0.1049  0.2299
 7620SOL    HW134319   2.755   2.849   3.864  1.8034 -3.8625 -0.1585
 7620SOL    HW234320   2.676   2.723   3.884 -0.6686  0.3953  0.8298
 7621SOL     OW34321   2.060   0.389   3.935  0.0651  0.2978 -0.9635
 7621SOL    HW134322   2.122   0.440   3.987  1.4290 -1.9375 -0.4054
 7621SOL    HW234323   2.048   0.456   3.867 -2.7657 -0.0998 -0.8500
 7622SOL     OW34324   2.493   3.434   8.334 -0.2432 -0.3061  0.0977
 7622SOL    HW134325   2.503   3.500   8.403 -1.7359  0.4974 -0.4501
 7622SOL    HW234326   2.531   3.481   8.260 -0.1966  0.1784  0.4297
 7623SOL     OW34327   0.658   0.787   8.607  0.2748  0.4229 -0.4456
 7623SOL    HW134328   0.751   0.806   8.616  0.6413 -0.5980 -2.0714
 7623SOL    HW234329   0.627   0.783   8.697  0.5352  2.4804 -0.2695
 7624SOL     OW34330   4.198   3.777  15.996  0.1705  0.2035 -0.5084
 7624SOL    HW134331   4.178   3.696  16.044 -2.9751  0.6470 -1.0537
 7624SOL    HW234332   4.168   3.750  15.909  1.0777  0.1425 -0.8073
 7625SOL     OW34333   4.334   3.836   8.773  0.3792 -0.3134 -0.1855
 7625SOL    HW134334   4.409   3.895   8.772  1.3839 -1.6000 -0.6629
 7625SOL    HW234335   4.335   3.818   8.867  2.6188  0.4846 -0.0542
 7626SOL     OW34336   3.403   0.509   3.200 -0.0736 -0.1243 -0.2157
 7626SOL    HW134337   3.349   0.497   3.278  1.7334 -2.0385  0.7579
 7626SOL    HW234338   3.417   0.603   3.197  1.7612 -0.4172 -1.0371
 7627SOL     OW34339   1.531   1.992   1.070 -0.2189 -0.1217  0.2245
 7627SOL    HW134340   1.486   1.926   1.122  0.5560 -0.1707  0.8372
 7627SOL    HW234341   1.623   1.965   1.070 -0.3658 -0.6222 -1.4956
 7628SOL     OW34342   3.080   0.172  10.857  0.9400  0.2020  0.6804
 7628SOL    HW134343   3.036   0.172  10.772  1.1246 -0.1101  0.5825
 7628SOL    HW234344   3.007   0.132  10.905  1.2763  1.0250  1.8843
 7629SOL     OW34345   3.447   4.713  10.722 -0.1823 -0.0622 -0.0058
 7629SOL    HW134346   3.465   0.074  10.763  1.4883 -0.4178  0.0013
 7629SOL    HW234347   3.454   4.671  10.808 -1.7974 -2.1283 -0.8887
 7630SOL     OW34348   0.953   1.481   6.273 -0.1680  0.5497 -0.0890
 7630SOL    HW134349   1.027   1.528   6.235  1.2408 -1.0839  0.6287
 7630SOL    HW234350   0.949   1.523   6.359 -1.1163  0.3915 -0.0501
 7631SOL     OW34351   3.806   3.921  13.992 -0.2041  0.1398  0.3302
 7631SOL    HW134352   3.715   3.923  13.963 -0.3486  2.2370  0.9534
 7631SOL    HW234353   3.849   3.951  13.912  0.0743  2.5374  1.3804
 7632SOL     OW34354   4.692   4.216   5.399  0.1561 -0.5576  0.2319
 7632SOL    HW134355   0.057   4.228   5.433  0.1001  0.2072  0.0976
 7632SOL    HW234356   4.677   4.123   5.418  0.3053 -0.7786 -0.7020
 7633SOL     OW34357   1.229   4.291   3.907 -0.1799 -0.2714  0.2915
 7633SOL    HW134358   1.282   4.371   3.916  1.6139 -1.5896  1.3793
 7633SOL    HW234359   1.215   4.271   3.999 -0.6608  0.3029  0.3426
 7634SOL     OW34360   3.981   2.250  14.290 -0.3999  0.2994 -0.6101
 7634SOL    HW134361   4.063   2.251  14.241  0.1131  2.5278  0.2744
 7634SOL    HW234362   3.998   2.194  14.366 -0.4941  1.4953  0.3060
 7635SOL     OW34363   2.926   1.028   5.880  0.0921  0.2715  0.0657
 7635SOL    HW134364   2.964   0.957   5.828 -0.8440 -1.2435  1.4696
 7635SOL    HW234365   2.990   1.061   5.942  0.9317  0.0141 -0.6775
 7636SOL     OW34366   1.921   4.170   9.132 -0.6923 -0.3996  0.1526
 7636SOL    HW134367   1.874   4.221   9.198 -2.1167  0.4744 -1.5136
 7636SOL    HW234368   1.972   4.239   9.088 -0.9948 -1.4504 -1.8288
 7637SOL     OW34369   3.138   4.103   7.020  0.0995  0.1292  0.0866
 7637SOL    HW134370   3.117   4.195   7.010  1.2732  0.4193  0.2608
 7637SOL    HW234371   3.156   4.080   6.929  2.3817  0.5947  0.4166
 7638SOL     OW34372   4.272   4.692  10.845 -0.1177 -0.5193 -0.0014
 7638SOL    HW134373   4.334   0.023  10.797 -0.3298 -0.3905 -0.1263
 7638SOL    HW234374   4.318   4.679  10.928 -0.3378 -0.2006  0.1728
 7639SOL     OW34375   3.034   0.227  11.175 -0.2126  0.3223  0.4503
 7639SOL    HW134376   2.969   0.248  11.107  1.8985  0.8288 -1.4134
 7639SOL    HW234377   3.054   0.138  11.147  0.9868  1.2828 -1.7142
 7640SOL     OW34378   0.579   1.921   6.717  0.0521 -0.4719  0.2932
 7640SOL    HW134379   0.491   1.939   6.750  0.4480  2.0953 -0.0651
 7640SOL    HW234380   0.633   1.985   6.763 -1.8105  2.6646 -1.8566
 7641SOL     OW34381   0.948   4.605   6.897 -0.0255 -1.0690 -0.2991
 7641SOL    HW134382   0.901   4.567   6.972 -1.2959  3.5637  1.2601
 7641SOL    HW234383   1.015   4.539   6.880  1.0497 -0.1720  0.4568
 7642SOL     OW34384   4.079   2.333   9.316  0.0016  0.3460 -0.0365
 7642SOL    HW134385   3.987   2.339   9.342  0.4522  0.8293  1.4596
 7642SOL    HW234386   4.129   2.386   9.378 -1.1315  1.4053 -0.0166
 7643SOL     OW34387   3.648   0.333  11.736  0.5424  0.1284  0.0277
 7643SOL    HW134388   3.557   0.363  11.733  0.0996 -1.3789 -1.4943
 7643SOL    HW234389   3.664   0.344  11.830  1.4439  0.5828 -0.1835
 7644SOL     OW34390   3.619   2.883   2.124  0.2018 -0.1064  0.0757
 7644SOL    HW134391   3.564   2.829   2.067  0.8754  0.1011 -0.7658
 7644SOL    HW234392   3.689   2.922   2.071 -0.0837 -1.0629 -1.0045
 7645SOL     OW34393   3.291   4.369  14.785  0.2047 -0.4047 -0.0561
 7645SOL    HW134394   3.237   4.441  14.752 -0.8583 -1.0026  0.3600
 7645SOL    HW234395   3.378   4.403  14.803  1.0957 -0.8830 -3.4645
 7646SOL     OW34396   1.249   2.172   7.508 -0.6144  0.1190  0.1988
 7646SOL    HW134397   1.187   2.243   7.488  1.9064  2.6354  1.3737
 7646SOL    HW234398   1.184   2.101   7.504  0.8018 -1.1197 -0.9761
 7647SOL     OW34399   4.095   3.190   4.064 -0.1935  0.2073  0.1886
 7647SOL    HW134400   4.151   3.248   4.013 -1.5383  2.1040  0.8766
 7647SOL    HW234401   4.092   3.241   4.145  0.2551 -1.7417  1.4402
 7648SOL     OW34402   3.147   0.714   7.309  0.2431 -0.1651 -0.0114
 7648SOL    HW134403   3.119   0.635   7.356  0.6195 -0.5652 -0.4624
 7648SOL    HW234404   3.237   0.724   7.338  0.2587 -0.0144 -0.1130
 7649SOL     OW34405   3.242   0.834   1.918  0.4773  0.2964 -0.1305
 7649SOL    HW134406   3.281   0.884   1.846  0.6019 -0.4906 -0.6127
 7649SOL    HW234407   3.280   0.747   1.904  0.4478  0.5187 -1.5511
 7650SOL     OW34408   1.597   4.589   3.043  0.1762  0.0635  0.2856
 7650SOL    HW134409   1.675   4.542   3.073 -0.0111 -1.2415 -1.2666
 7650SOL    HW234410   1.644   4.658   2.995 -0.9220  0.8995  0.4072
 7651SOL     OW34411   3.741   3.996   5.935 -0.4735 -0.0923  0.2952
 7651SOL    HW134412   3.774   4.076   5.894 -0.3573  0.4875  1.5284
 7651SOL    HW234413   3.672   3.965   5.876  0.6772  1.2148 -1.7512
 7652SOL     OW34414   0.324   0.802   4.732 -0.3147  0.4809 -0.3091
 7652SOL    HW134415   0.383   0.878   4.729 -0.5024  0.5541 -2.2296
 7652SOL    HW234416   0.259   0.824   4.666 -1.0343 -2.5003 -0.5826
 7653SOL     OW34417   4.639   2.525   5.548  0.2717  0.5625 -0.1502
 7653SOL    HW134418   4.640   2.506   5.642  0.6088 -0.7502 -0.4170
 7653SOL    HW234419   4.623   2.433   5.526 -1.1325  1.1096 -1.4567
 7654SOL     OW34420   2.426   4.198  14.029 -0.6532 -0.1774 -0.5719
 7654SOL    HW134421   2.490   4.138  13.990  1.3669  0.1683  2.1926
 7654SOL    HW234422   2.388   4.227  13.946  1.1345 -0.3783 -1.4770
 7655SOL     OW34423   1.027   1.704   1.932  0.5174 -0.1640 -0.0437
 7655SOL    HW134424   0.990   1.706   1.844 -0.6259  0.5182  0.4509
 7655SOL    HW234425   1.120   1.716   1.911  0.3666  0.5922 -0.2707
 7656SOL     OW34426   3.850   3.243   3.247  0.0030 -0.5014 -0.0698
 7656SOL    HW134427   3.857   3.195   3.330 -0.8881  0.8894  0.8125
 7656SOL    HW234428   3.840   3.163   3.197  1.7185 -2.8458  3.3395
 7657SOL     OW34429   4.144   2.649   5.551 -0.5013 -0.0932 -0.1212
 7657SOL    HW134430   4.196   2.718   5.509 -0.8641  0.9192  1.1091
 7657SOL    HW234431   4.067   2.644   5.494 -1.4056 -1.9662  1.2864
 7658SOL     OW34432   1.528   0.015  10.132  0.7661 -0.0630  1.2363
 7658SOL    HW134433   1.544   4.723  10.039 -1.3434 -1.1594  1.0586
 7658SOL    HW234434   1.553   4.654  10.168  1.9807  0.1904  0.9705
 7659SOL     OW34435   4.007   4.654   4.639  0.1118  0.1032 -0.4273
 7659SOL    HW134436   4.082   4.658   4.580 -0.6948  2.0303 -1.3091
 7659SOL    HW234437   3.984   4.564   4.617  0.6455 -0.4438  1.2353
 7660SOL     OW34438   3.877   0.209   9.579  0.4857  0.1259 -0.2392
 7660SOL    HW134439   3.788   0.235   9.600  0.9266 -1.2256  3.3067
 7660SOL    HW234440   3.926   0.204   9.661  0.3762 -0.9575 -0.2422
 7661SOL     OW34441   3.980   2.518   3.099 -0.2737  0.2181 -0.2583
 7661SOL    HW134442   3.965   2.467   3.019 -1.2041 -0.6578  0.4755
 7661SOL    HW234443   4.075   2.521   3.091 -0.5564  2.4811 -2.6279
 7662SOL     OW34444   1.631   3.052   7.959 -0.2841 -0.1571 -1.0013
 7662SOL    HW134445   1.664   2.963   7.973 -0.7152  0.0174  1.1132
 7662SOL    HW234446   1.566   3.036   7.890  0.4569 -0.6173 -1.6016
 7663SOL     OW34447   3.063   1.452   5.758  0.5406  0.2163  0.4102
 7663SOL    HW134448   3.098   1.540   5.770 -0.6298  1.0919 -2.6065
 7663SOL    HW234449   2.988   1.443   5.817  0.5273  0.8726  0.4916
 7664SOL     OW34450   0.243   4.670   5.299  0.2520  0.4471 -0.0655
 7664SOL    HW134451   0.180   0.005   5.257 -0.4709 -0.8308 -0.7566
 7664SOL    HW234452   0.214   4.585   5.266 -0.0575 -0.5512  2.7356
 7665SOL     OW34453   0.316   0.182  17.384 -0.0397  0.0520 -0.2364
 7665SOL    HW134454   0.337   0.153  17.472 -2.3918 -3.3854 -0.8114
 7665SOL    HW234455   0.401   0.208  17.349  0.3841 -1.2000 -0.1299
 7666SOL     OW34456   2.291   2.211   7.360  0.1698 -0.2152 -0.5448
 7666SOL    HW134457   2.376   2.254   7.351  0.1393 -0.3687 -1.4905
 7666SOL    HW234458   2.304   2.137   7.301  1.0604 -0.1060 -0.4834
 7667SOL     OW34459   0.216   4.320   5.532  0.5986 -0.1013  0.8315
 7667SOL    HW134460   0.224   4.230   5.563 -0.4068  0.4424  2.6532
 7667SOL    HW234461   0.255   4.319   5.445 -1.8055  0.2561 -0.2511
 7668SOL     OW34462   0.766   3.540  14.504 -0.2535 -0.3188  0.0456
 7668SOL    HW134463   0.801   3.526  14.592 -0.4341 -1.6963 -0.0974
 7668SOL    HW234464   0.843   3.533  14.448  1.3903 -0.4601  2.3159
 7669SOL     OW34465   3.381   0.492  14.031  0.4058 -0.0657  0.0059
 7669SOL    HW134466   3.445   0.443  13.979  0.4257  2.8163 -2.6558
 7669SOL    HW234467   3.432   0.523  14.106  1.3858  0.2834 -0.8005
 7670SOL     OW34468   3.744   4.344   2.674 -0.0131 -0.2943  0.0608
 7670SOL    HW134469   3.828   4.354   2.629  0.2660  1.4611  0.9827
 7670SOL    HW234470   3.741   4.416   2.737  0.4197  0.2036 -0.4751
 7671SOL     OW34471   1.250   4.415  14.770  0.1936  0.5305 -0.3344
 7671SOL    HW134472   1.297   4.493  14.800 -0.0540  1.1755 -1.5852
 7671SOL    HW234473   1.270   4.357  14.843  0.0754 -1.0391 -1.5396
 7672SOL     OW34474   0.418   0.290  12.425  0.6432 -0.5220  0.2827
 7672SOL    HW134475   0.331   0.276  12.389  0.2515  1.1790  0.5985
 7672SOL    HW234476   0.467   0.307  12.344  1.1308 -0.0983  0.6643
 7673SOL     OW34477   3.977   2.830   4.012 -0.3801 -0.6988 -0.1189
 7673SOL    HW134478   3.921   2.908   4.004  0.8310  0.1968  0.0333
 7673SOL    HW234479   4.051   2.861   3.958 -0.6988 -0.2757 -0.3082
 7674SOL     OW34480   4.452   1.460  14.014  0.0523 -0.3071  0.2239
 7674SOL    HW134481   4.423   1.548  13.991 -0.2579 -0.5672 -0.3939
 7674SOL    HW234482   4.498   1.465  14.097  0.7511 -1.2808 -0.0993
 7675SOL     OW34483   1.948   3.665   1.661  0.5570 -0.0009  0.1335
 7675SOL    HW134484   1.905   3.580   1.662 -0.8395  0.7380  2.2668
 7675SOL    HW234485   1.901   3.697   1.584  0.7944 -0.7659 -0.3210
 7676SOL     OW34486   3.662   0.406   2.959  0.6525 -0.0665 -0.0690
 7676SOL    HW134487   3.740   0.444   3.000  0.2919  0.4413  0.1402
 7676SOL    HW234488   3.705   0.345   2.899  0.2076 -0.5110  0.0625
 7677SOL     OW34489   4.619   4.485   8.896 -0.0929  0.5685  0.5077
 7677SOL    HW134490   4.610   4.427   8.972 -0.7085 -1.1388 -0.8533
 7677SOL    HW234491   4.612   4.570   8.938 -1.2535  0.3618  0.7274
 7678SOL     OW34492   2.096   3.820   7.874  0.0660 -0.1886 -0.1987
 7678SOL    HW134493   2.055   3.897   7.833  0.0136 -0.0902  0.0384
 7678SOL    HW234494   2.163   3.860   7.929  1.1428 -0.7224 -1.1379
 7679SOL     OW34495   2.609   3.846   2.865 -0.4902 -0.1276 -0.9129
 7679SOL    HW134496   2.633   3.837   2.773  1.3502 -0.5984 -0.3721
 7679SOL    HW234497   2.591   3.940   2.861 -2.9603 -0.5562 -0.2634
 7680SOL     OW34498   1.202   4.007   5.793  0.0639 -0.1941 -0.0129
 7680SOL    HW134499   1.266   3.944   5.760  1.3458  0.3693  1.3627
 7680SOL    HW234500   1.251   4.028   5.872  0.6120 -1.0450 -0.1209
 7681SOL     OW34501   1.689   2.378   7.429 -0.9277  0.7245 -0.2569
 7681SOL    HW134502   1.711   2.364   7.337 -3.7913 -3.4689 -0.3105
 7681SOL    HW234503   1.652   2.293   7.453 -1.7759  1.5464  1.3583
 7682SOL     OW34504   1.834   2.234   2.523  0.4759  0.1231  0.4487
 7682SOL    HW134505   1.847   2.326   2.546 -4.8800  0.9603  0.0968
 7682SOL    HW234506   1.877   2.231   2.437 -1.6303 -0.9930 -0.5468
 7683SOL     OW34507   1.437   2.187   5.463 -0.2679 -0.7188 -0.3599
 7683SOL    HW134508   1.414   2.126   5.533  2.4144  0.1992  1.3251
 7683SOL    HW234509   1.465   2.264   5.511 -1.6840  0.4887 -1.4674
 7684SOL     OW34510   4.435   0.450   2.758  0.0406  0.0784 -0.0702
 7684SOL    HW134511   4.372   0.476   2.691 -0.5833 -0.9197  0.1428
 7684SOL    HW234512   4.384   0.380   2.798  1.0428 -0.4637  0.2452
 7685SOL     OW34513   1.003   1.428  15.987 -0.3134 -0.0871  1.2885
 7685SOL    HW134514   0.983   1.393  15.900  1.0926  0.6818  0.6429
 7685SOL    HW234515   1.005   1.520  15.960  1.2708 -0.5727 -0.2643
 7686SOL     OW34516   2.132   2.036   2.143 -0.3470  1.0970  0.1651
 7686SOL    HW134517   2.159   2.051   2.052 -0.9457 -2.1397 -0.5406
 7686SOL    HW234518   2.134   1.941   2.151 -2.6821  1.0070 -0.3831
 7687SOL     OW34519   2.242   1.103  12.420  0.1184  0.7485  0.4961
 7687SOL    HW134520   2.153   1.117  12.452 -0.0185 -0.0573  0.4730
 7687SOL    HW234521   2.233   1.115  12.325  1.7429  0.7715  0.3438
 7688SOL     OW34522   0.940   1.582  10.922  0.6321 -0.2424 -0.6163
 7688SOL    HW134523   0.919   1.501  10.969 -1.1008  0.0814 -0.8093
 7688SOL    HW234524   0.869   1.600  10.860  0.7340 -2.8906 -1.5019
 7689SOL     OW34525   1.389   2.885   2.078  0.3799  0.6431  0.1168
 7689SOL    HW134526   1.444   2.809   2.059 -0.4579  0.4043 -1.3343
 7689SOL    HW234527   1.391   2.881   2.173 -1.5467 -0.1963  0.1154
 7690SOL     OW34528   4.099   0.515   9.646 -0.4214  0.1092 -0.1379
 7690SOL    HW134529   4.028   0.517   9.583  0.2200 -1.5652 -0.9113
 7690SOL    HW234530   4.173   0.561   9.607  0.8678 -1.2682  0.6767
 7691SOL     OW34531   1.516   0.691  14.048  0.0662 -0.2827 -0.8511
 7691SOL    HW134532   1.421   0.689  14.060  0.3342 -2.0668  1.0480
 7691SOL    HW234533   1.540   0.783  14.052 -1.2300 -0.0629  1.8932
 7692SOL     OW34534   0.701   3.029   9.572 -0.4899 -0.0829  0.1323
 7692SOL    HW134535   0.664   2.945   9.545  1.6102 -0.9436 -0.1230
 7692SOL    HW234536   0.716   3.071   9.488  1.0922 -0.7009  0.0994
 7693SOL     OW34537   0.817   3.480   2.876 -0.4076 -0.1907  0.5337
 7693SOL    HW134538   0.876   3.404   2.870  1.5043  1.4410 -0.9991
 7693SOL    HW234539   0.807   3.502   2.784  2.2633 -0.1523  0.2367
 7694SOL     OW34540   3.877   0.825   8.439 -0.2424  0.0728  0.5560
 7694SOL    HW134541   3.863   0.885   8.366  2.0119  1.4936  1.2925
 7694SOL    HW234542   3.824   0.861   8.510 -0.0118 -0.2134  0.8726
 7695SOL     OW34543   4.481   1.378   3.471  0.1286 -0.1902 -0.4662
 7695SOL    HW134544   4.493   1.468   3.500  0.5955 -0.4821  0.2632
 7695SOL    HW234545   4.475   1.334   3.556  0.9766  2.0303  0.7512
 7696SOL     OW34546   2.844   0.863   5.177  0.1666  0.3426 -0.4980
 7696SOL    HW134547   2.773   0.876   5.115 -0.6478 -1.6014  0.0111
 7696SOL    HW234548   2.923   0.869   5.124  1.4901  0.0612  1.4294
 7697SOL     OW34549   4.457   1.382  11.359  0.6409 -0.3077  0.3737
 7697SOL    HW134550   4.366   1.378  11.331  0.4221 -0.1528  1.0701
 7697SOL    HW234551   4.496   1.337  11.284 -0.3632 -1.3955  0.5008
 7698SOL     OW34552   0.472   3.824   8.565 -0.0639  0.4113 -0.1963
 7698SOL    HW134553   0.561   3.805   8.537  0.4284 -1.3221  2.5607
 7698SOL    HW234554   0.430   3.743   8.595 -0.9117  2.2265  3.4260
 7699SOL     OW34555   0.860   3.677  10.231  0.3900  0.0189 -0.6142
 7699SOL    HW134556   0.885   3.634  10.149  0.2570 -1.0295 -0.1073
 7699SOL    HW234557   0.768   3.697  10.216  0.0029 -0.0601  1.6860
 7700SOL     OW34558   2.774   4.508   1.527 -0.9454  0.0755 -0.3921
 7700SOL    HW134559   2.737   4.477   1.445 -0.4299 -0.0769 -0.5687
 7700SOL    HW234560   2.855   4.545   1.492 -0.0032 -0.8183  0.8076
 7701SOL     OW34561   2.577   0.094  17.564  0.6378 -0.0688  0.1213
 7701SOL    HW134562   2.598   0.008  17.601 -0.8402 -0.8820 -0.9631
 7701SOL    HW234563   2.623   0.081  17.481  0.5679  0.4710  0.0007
 7702SOL     OW34564   1.056   2.897   6.774  0.1429  0.4340  0.1660
 7702SOL    HW134565   1.125   2.849   6.728 -1.2698  1.0173 -2.5735
 7702SOL    HW234566   1.115   2.958   6.819  1.0572 -1.3088  1.3160
 7703SOL     OW34567   2.106   0.975   3.482  0.2583  0.0521 -0.2854
 7703SOL    HW134568   2.098   1.058   3.529 -1.0950 -0.2252 -0.0268
 7703SOL    HW234569   2.037   0.979   3.416  0.5476  1.3699 -0.5210
 7704SOL     OW34570   3.353   1.802   6.618  0.7800 -0.0440 -0.1830
 7704SOL    HW134571   3.314   1.798   6.705  0.7378  1.6826 -0.1269
 7704SOL    HW234572   3.277   1.789   6.560 -0.5202 -0.6492  1.6581
 7705SOL     OW34573   2.664   0.431   5.553 -0.0014  0.3075 -0.0451
 7705SOL    HW134574   2.727   0.502   5.556 -0.7985  1.0210 -0.2810
 7705SOL    HW234575   2.721   0.358   5.529  0.2837  0.7079 -0.5674
 7706SOL     OW34576   0.335   1.663   1.111  0.6577 -0.0832 -0.1380
 7706SOL    HW134577   0.399   1.592   1.109 -0.6350 -1.2657  0.5584
 7706SOL    HW234578   0.395   1.733   1.085  1.5090 -0.4057  0.9502
 7707SOL     OW34579   2.308   0.552  10.771  0.2886 -0.1362 -0.2689
 7707SOL    HW134580   2.344   0.626  10.723  0.7345 -1.8558 -2.6237
 7707SOL    HW234581   2.284   0.595  10.853 -0.0598  0.1210 -0.5062
 7708SOL     OW34582   0.324   3.791  14.269  0.6335 -0.0719 -0.1263
 7708SOL    HW134583   0.338   3.870  14.217  3.0049 -0.1250  0.4042
 7708SOL    HW234584   0.254   3.747  14.221  2.4166 -1.8224 -1.1509
 7709SOL     OW34585   0.224   0.164   9.296  0.2395 -0.7109 -0.1666
 7709SOL    HW134586   0.316   0.152   9.273  0.8299  3.5157  0.0133
 7709SOL    HW234587   0.226   0.201   9.385 -2.6016 -1.4176  0.1710
 7710SOL     OW34588   4.454   0.528  15.071  0.2134 -0.0697 -0.0898
 7710SOL    HW134589   4.374   0.580  15.064  0.3811  0.0322 -1.3323
 7710SOL    HW234590   4.440   0.473  15.147  2.0273  0.9174  0.9601
 7711SOL     OW34591   0.056   2.068   5.197 -0.2899  0.3070 -0.3316
 7711SOL    HW134592   0.022   2.158   5.192 -2.3769 -0.5305 -1.5485
 7711SOL    HW234593   0.059   2.055   5.291 -0.9590 -1.0216 -0.4854
 7712SOL     OW34594   0.555   1.479   1.098  0.4179  0.1304 -0.1220
 7712SOL    HW134595   0.555   1.474   1.194  1.2589  0.7971 -0.0945
 7712SOL    HW234596   0.646   1.457   1.079  0.4062 -0.6427  0.6775
 7713SOL     OW34597   4.091   0.129   6.577  0.6749 -0.5875  0.3865
 7713SOL    HW134598   4.129   0.206   6.535 -0.1176  0.0651  0.8700
 7713SOL    HW234599   4.015   0.169   6.619  0.8987  0.5757 -0.2977
 7714SOL     OW34600   1.845   3.258   3.430 -0.3750 -0.0430  0.1462
 7714SOL    HW134601   1.806   3.287   3.347 -1.1313 -2.6587 -0.4371
 7714SOL    HW234602   1.883   3.172   3.409  0.8929  0.8859 -1.3576
 7715SOL     OW34603   3.515   1.338  13.567  0.1208  0.0318  0.0225
 7715SOL    HW134604   3.443   1.306  13.513 -0.4035  1.8644 -0.3869
 7715SOL    HW234605   3.573   1.264  13.585 -0.3942  0.2509  2.5542
 7716SOL     OW34606   2.268   4.547  17.290  0.1577  0.7871  0.0123
 7716SOL    HW134607   2.297   4.630  17.253 -1.9176  1.5890  0.2562
 7716SOL    HW234608   2.346   4.512  17.335 -0.2045  2.8740  2.2330
 7717SOL     OW34609   4.680   2.100   7.460 -0.0462  0.7343 -0.8212
 7717SOL    HW134610   4.651   2.029   7.516  2.3930  1.1345  0.9524
 7717SOL    HW234611   4.627   2.172   7.495  1.1859  0.6890  1.1066
 7718SOL     OW34612   1.719   3.946   4.718  0.2176 -0.4715 -0.8749
 7718SOL    HW134613   1.628   3.972   4.708  0.0882  0.3009  2.4149
 7718SOL    HW234614   1.759   4.033   4.713 -0.4110 -0.1562 -0.3099
 7719SOL     OW34615   2.101   0.311   3.479  0.7742  0.0196  0.3109
 7719SOL    HW134616   2.058   0.244   3.425  1.2947 -0.4587  0.4997
 7719SOL    HW234617   2.108   0.265   3.562 -1.1710 -0.9974 -0.0874
 7720SOL     OW34618   1.467   3.913   4.926 -0.3683  0.5179  0.1207
 7720SOL    HW134619   1.454   3.848   4.995 -2.0054  0.7066 -0.0019
 7720SOL    HW234620   1.444   3.869   4.844  1.1751 -0.3817  0.1825
 7721SOL     OW34621   0.960   2.088  13.615  0.2644  0.2670  0.4499
 7721SOL    HW134622   0.874   2.128  13.601 -0.2241 -0.2299  2.0302
 7721SOL    HW234623   1.017   2.152  13.572  0.2763  0.1133  0.2364
 7722SOL     OW34624   0.154   2.671   5.118  0.1960 -0.1741  0.5368
 7722SOL    HW134625   0.119   2.755   5.088  0.0480 -0.5047 -0.2352
 7722SOL    HW234626   0.195   2.647   5.034  1.4253  0.2853  1.0051
 7723SOL     OW34627   2.607   0.675  14.057  0.3936 -0.8134  0.3423
 7723SOL    HW134628   2.517   0.646  14.075 -0.1405  0.8176  0.2606
 7723SOL    HW234629   2.605   0.668  13.962 -0.2467  2.1185  0.1445
 7724SOL     OW34630   4.258   4.125   7.602 -0.3179 -0.1621 -0.6337
 7724SOL    HW134631   4.322   4.134   7.532 -0.1396  0.3173 -0.4127
 7724SOL    HW234632   4.222   4.213   7.610 -0.6473 -0.3815  0.2697
 7725SOL     OW34633   1.770   0.531  11.519  0.2202 -0.4923 -0.3111
 7725SOL    HW134634   1.733   0.463  11.462 -2.2142 -0.6378  1.4445
 7725SOL    HW234635   1.842   0.479  11.557  1.0259  0.1860 -0.9209
 7726SOL     OW34636   2.193   2.225   7.839 -0.2003 -0.2841  0.2063
 7726SOL    HW134637   2.173   2.133   7.822  0.1622 -0.3014 -0.1239
 7726SOL    HW234638   2.120   2.269   7.795  0.5618  0.0256 -0.7324
 7727SOL     OW34639   0.283   4.718   8.365 -0.0215  0.2821  0.0169
 7727SOL    HW134640   0.198   4.680   8.343 -0.1233  0.6847 -0.2687
 7727SOL    HW234641   0.303   4.666   8.443 -2.1288 -1.9329 -0.8990
 7728SOL     OW34642   3.528   1.760  13.192  0.0988 -0.1974  0.3689
 7728SOL    HW134643   3.527   1.706  13.271  3.1577 -0.2689  0.3545
 7728SOL    HW234644   3.601   1.715  13.150 -0.9786  0.0315 -1.7560
 7729SOL     OW34645   1.168   4.390   4.748  0.4021  0.4899 -0.5791
 7729SOL    HW134646   1.235   4.326   4.776 -1.9532 -1.5962  0.3072
 7729SOL    HW234647   1.208   4.470   4.781  1.3498 -0.2237  0.0264
 7730SOL     OW34648   0.394   0.792   6.897  0.0432 -0.4241  0.0630
 7730SOL    HW134649   0.364   0.728   6.962 -0.3958 -0.3490 -0.0685
 7730SOL    HW234650   0.448   0.844   6.958 -0.0682 -0.6121  0.3205
 7731SOL     OW34651   4.309   0.095   3.301 -0.2728  0.1411  0.2098
 7731SOL    HW134652   4.309   0.055   3.214  1.5992  2.2907 -0.7677
 7731SOL    HW234653   4.396   0.134   3.305  0.5900 -1.7644  0.1965
 7732SOL     OW34654   1.986   4.439  12.147  0.0346 -0.2820 -0.1817
 7732SOL    HW134655   2.016   4.363  12.097  0.3929 -0.2505 -0.0142
 7732SOL    HW234656   1.912   4.456  12.089  0.5628  2.2127 -0.0995
 7733SOL     OW34657   2.639   0.594   0.707  0.1707  0.1343  0.4751
 7733SOL    HW134658   2.628   0.600   0.612 -1.3234 -0.9306  0.5741
 7733SOL    HW234659   2.605   0.506   0.723 -0.1049 -0.0411 -1.1265
 7734SOL     OW34660   2.234   2.722   5.760  0.0674  0.5354  0.1020
 7734SOL    HW134661   2.318   2.752   5.795 -0.4769  1.5691  0.5401
 7734SOL    HW234662   2.211   2.773   5.682 -0.0065  0.3102 -0.0229
 7735SOL     OW34663   4.435   2.004   8.497  0.1999  0.2774  0.3789
 7735SOL    HW134664   4.524   1.978   8.477  0.1657 -1.3761  2.3401
 7735SOL    HW234665   4.429   2.095   8.468  4.5768 -0.2697 -2.1141
 7736SOL     OW34666   1.936   3.785   0.950  0.8732  0.2182 -0.2129
 7736SOL    HW134667   1.874   3.743   0.890  0.0179  1.0700  0.0779
 7736SOL    HW234668   1.980   3.850   0.895 -3.7815  1.5197 -2.3829
 7737SOL     OW34669   2.042   2.937   4.800  0.1320  0.2329  0.6908
 7737SOL    HW134670   2.129   2.901   4.812  0.3319  0.2977 -0.6024
 7737SOL    HW234671   2.027   2.899   4.713  0.3027 -2.5589  1.8698
 7738SOL     OW34672   3.641   4.671   8.422  0.3823 -0.0471  0.1752
 7738SOL    HW134673   3.582   4.597   8.431  0.3900 -0.2213 -1.2994
 7738SOL    HW234674   3.594   0.008   8.364 -1.1572 -1.1123  0.3393
 7739SOL     OW34675   2.950   3.184   2.370 -0.3671 -0.5106 -0.3975
 7739SOL    HW134676   2.890   3.122   2.412 -0.1592 -0.1394  0.4439
 7739SOL    HW234677   2.983   3.229   2.448 -1.7775  1.1666 -0.7735
 7740SOL     OW34678   4.231   0.019   7.444  0.8121  0.6002  1.2475
 7740SOL    HW134679   4.319   0.030   7.406  0.2684  1.2980  0.2073
 7740SOL    HW234680   4.240   4.721   7.537 -0.5779 -2.1115  0.7691
 7741SOL     OW34681   2.504   4.261   5.589  0.1297  0.3172  0.0761
 7741SOL    HW134682   2.431   4.238   5.647 -0.6855  0.5113 -0.8734
 7741SOL    HW234683   2.567   4.308   5.644 -0.9727  1.8347  0.0205
 7742SOL     OW34684   2.307   3.462   1.579  0.0102 -0.2762 -0.4098
 7742SOL    HW134685   2.349   3.425   1.502  0.3576 -0.8220  0.0452
 7742SOL    HW234686   2.267   3.538   1.537 -0.0241 -0.3509 -0.5119
 7743SOL     OW34687   1.291   2.191  15.662 -0.2311  0.0637 -0.5060
 7743SOL    HW134688   1.342   2.110  15.661  0.9566  0.7184  3.2518
 7743SOL    HW234689   1.298   2.205  15.757 -1.8632 -2.3460 -0.0528
 7744SOL     OW34690   0.017   3.833   6.663 -0.5515 -0.0754  0.0280
 7744SOL    HW134691   0.065   3.916   6.664 -0.6404 -0.0285  0.3008
 7744SOL    HW234692   0.024   3.802   6.573 -1.0751  0.7041 -0.2895
 7745SOL     OW34693   3.819   2.370  13.212 -0.1568  0.3149  0.4484
 7745SOL    HW134694   3.746   2.333  13.164  0.9818 -2.5181  0.8561
 7745SOL    HW234695   3.817   2.331  13.300  4.2212 -1.6684 -0.3122
 7746SOL     OW34696   0.451   3.888   9.608  0.6777  0.2007 -0.1837
 7746SOL    HW134697   0.475   3.969   9.564  0.6793 -0.8891 -2.1550
 7746SOL    HW234698   0.537   3.859   9.637  0.0920 -0.7245  0.6663
 7747SOL     OW34699   0.774   1.709   9.545  0.2862  0.1646  0.6419
 7747SOL    HW134700   0.856   1.750   9.520 -0.4307  1.2234  0.0113
 7747SOL    HW234701   0.747   1.675   9.459  3.1642 -2.0840  0.6562
 7748SOL     OW34702   3.871   3.062   2.525 -0.2056 -0.1808  0.2675
 7748SOL    HW134703   3.827   2.982   2.554  2.2329 -1.4231  0.5498
 7748SOL    HW234704   3.810   3.089   2.456 -0.6818 -1.7361  0.0712
 7749SOL     OW34705   1.717   1.290   5.494  0.1005  0.1210  0.2885
 7749SOL    HW134706   1.722   1.217   5.432  0.1237 -0.1353  0.5921
 7749SOL    HW234707   1.630   1.321   5.468 -0.1404 -0.8473 -0.0591
 7750SOL     OW34708   1.870   1.989   6.353  0.2529  0.7923  0.4081
 7750SOL    HW134709   1.903   1.919   6.297 -0.1276  1.1332 -0.2423
 7750SOL    HW234710   1.854   1.939   6.433 -0.1448 -0.2957 -0.3563
 7751SOL     OW34711   0.713   4.293   8.502 -0.1601 -0.2511  0.3821
 7751SOL    HW134712   0.759   4.210   8.493  1.1561  0.7721 -2.3412
 7751SOL    HW234713   0.715   4.308   8.597 -1.9646  0.9435  0.2353
 7752SOL     OW34714   0.278   1.114   2.939  0.0334  0.2769 -0.8084
 7752SOL    HW134715   0.314   1.202   2.922  2.4388 -0.3417  1.0575
 7752SOL    HW234716   0.358   1.075   2.975  0.7136  2.6534  0.2750
 7753SOL     OW34717   1.003   1.362   1.208  0.0648  0.1093 -0.1659
 7753SOL    HW134718   1.080   1.415   1.191  0.3647 -0.8879 -1.9035
 7753SOL    HW234719   0.957   1.384   1.127 -0.6729 -0.1464  0.1786
 7754SOL     OW34720   1.542   3.579   3.879  0.4942  0.6380  0.2362
 7754SOL    HW134721   1.542   3.502   3.935 -0.3531  1.0524  0.8012
 7754SOL    HW234722   1.543   3.529   3.797  0.6927  0.3854  0.3929
 7755SOL     OW34723   0.853   2.702   7.667 -0.1638 -0.2082  0.0213
 7755SOL    HW134724   0.814   2.789   7.679 -3.1236 -1.0636 -3.6226
 7755SOL    HW234725   0.884   2.703   7.577 -1.2763  1.7184 -0.3297
 7756SOL     OW34726   2.088   2.284   5.589  0.4793 -0.3307 -0.3897
 7756SOL    HW134727   2.049   2.333   5.515  0.4746  2.2073  1.2808
 7756SOL    HW234728   2.019   2.224   5.615  0.6615 -1.3157 -2.1676
 7757SOL     OW34729   1.059   1.194   2.159  0.1770 -0.6049 -0.1229
 7757SOL    HW134730   1.018   1.157   2.081 -0.3579  0.7826 -0.4980
 7757SOL    HW234731   1.014   1.278   2.149 -0.5362 -0.8579  0.9716
 7758SOL     OW34732   4.053   2.557   1.155 -0.0636  0.7421  0.2364
 7758SOL    HW134733   4.128   2.508   1.189 -0.8362 -0.2521  0.4854
 7758SOL    HW234734   4.089   2.567   1.066  2.2631 -0.5603  1.0282
 7759SOL     OW34735   0.718   0.151   7.641  0.0234 -0.7881 -0.4418
 7759SOL    HW134736   0.628   0.185   7.651  0.7524  1.5674 -1.7138
 7759SOL    HW234737   0.754   0.188   7.560  0.1651 -2.2093 -1.0151
 7760SOL     OW34738   1.788   1.786   0.671  0.2264 -0.3816  0.2507
 7760SOL    HW134739   1.714   1.847   0.674 -0.3287 -1.1104  1.1422
 7760SOL    HW234740   1.791   1.770   0.765  0.5112  0.4422  0.3884
 7761SOL     OW34741   2.367   1.656   7.869 -0.1618  0.6622 -0.2705
 7761SOL    HW134742   2.429   1.636   7.940 -1.6659  1.5532  1.2750
 7761SOL    HW234743   2.410   1.731   7.828  0.8229 -0.4372 -1.2603
 7762SOL     OW34744   1.742   0.892   4.951  0.0124 -0.0336  0.0564
 7762SOL    HW134745   1.736   0.851   4.865 -0.9335 -0.6517  0.4068
 7762SOL    HW234746   1.686   0.967   4.931  0.7579  0.3315 -0.6362
 7763SOL     OW34747   2.039   3.473   8.162 -0.3777 -0.0385 -0.1252
 7763SOL    HW134748   2.064   3.499   8.073  0.9196 -0.4430  0.1233
 7763SOL    HW234749   1.962   3.525   8.185  0.2608  0.4343  0.9509
 7764SOL     OW34750   4.194   4.310   3.521  0.6132  0.7802  0.0397
 7764SOL    HW134751   4.283   4.308   3.556  1.3434  0.1039 -1.8088
 7764SOL    HW234752   4.213   4.322   3.428 -1.1013 -1.0594 -0.5435
 7765SOL     OW34753   0.334   4.121   8.992  0.6275 -0.1290  0.4393
 7765SOL    HW134754   0.304   4.201   9.035 -1.0831 -2.7957  4.1862
 7765SOL    HW234755   0.406   4.149   8.936 -0.5619 -1.4441 -1.7884
 7766SOL     OW34756   2.539   2.251   7.230  0.4546 -0.2792 -0.0202
 7766SOL    HW134757   2.532   2.296   7.145  1.5795  0.7040  0.4016
 7766SOL    HW234758   2.515   2.161   7.211  0.9397  0.0733 -2.3041
 7767SOL     OW34759   1.303   4.116   2.854  0.3615  0.7667  0.7492
 7767SOL    HW134760   1.263   4.097   2.769 -0.4531 -2.5640  1.8760
 7767SOL    HW234761   1.393   4.093   2.833  0.0257 -0.2087  0.4068
 7768SOL     OW34762   0.406   3.338   0.017 -0.1849  0.2307 -0.5174
 7768SOL    HW134763   0.390   3.431   0.003 -1.2207  0.1705  0.2763
 7768SOL    HW234764   0.494   3.336  17.676 -0.6135  0.9510 -1.5832
 7769SOL     OW34765   1.301   0.443  14.547 -0.2536 -0.4418 -0.0848
 7769SOL    HW134766   1.306   0.433  14.642  0.5497 -1.5421 -0.2425
 7769SOL    HW234767   1.348   0.361  14.537  2.3855  0.8721  1.5753
 7770SOL     OW34768   2.753   1.159  17.255 -0.2222 -0.1656 -0.4393
 7770SOL    HW134769   2.660   1.183  17.251 -0.3989 -0.8960 -0.7256
 7770SOL    HW234770   2.748   1.073  17.214 -0.6462  0.5387 -1.8367
 7771SOL     OW34771   0.446   2.259   6.688 -0.4578 -0.1546 -0.4800
 7771SOL    HW134772   0.403   2.191   6.740  1.7718 -0.8698  0.4421
 7771SOL    HW234773   0.425   2.235   6.598  1.4425  0.8290 -1.1820
 7772SOL     OW34774   3.080   3.435  11.199 -0.1546 -0.2239  1.1168
 7772SOL    HW134775   3.062   3.411  11.108 -0.0379 -1.4536  1.4201
 7772SOL    HW234776   3.148   3.372  11.224 -0.4904 -0.9091  0.3074
 7773SOL     OW34777   0.567   2.285  16.247 -0.1482 -0.0867 -0.1395
 7773SOL    HW134778   0.565   2.248  16.336  0.4955 -0.0656 -0.1151
 7773SOL    HW234779   0.489   2.251  16.202  0.4938 -0.2880 -1.0941
 7774SOL     OW34780   3.958   0.557  15.381  0.0141 -0.4737 -0.0932
 7774SOL    HW134781   3.932   0.529  15.469 -0.3393 -0.5480 -0.2248
 7774SOL    HW234782   4.033   0.612  15.405 -1.4867  1.0572  1.1132
 7775SOL     OW34783   3.162   0.530  15.126  0.0061 -0.4441 -0.0859
 7775SOL    HW134784   3.220   0.603  15.149  1.8472 -1.0064 -2.9417
 7775SOL    HW234785   3.179   0.469  15.199  2.4084 -1.1304 -1.1977
 7776SOL     OW34786   3.311   2.383   0.152  0.7456  0.0100 -0.2201
 7776SOL    HW134787   3.337   2.403   0.062 -1.2738 -0.1398 -0.8376
 7776SOL    HW234788   3.233   2.436   0.166  0.0879 -0.4656 -2.0153
 7777SOL     OW34789   3.676   1.771   6.449 -0.1392 -0.8255 -0.0730
 7777SOL    HW134790   3.740   1.748   6.381  0.2646 -1.1032  0.3995
 7777SOL    HW234791   3.595   1.742   6.407 -1.1530  2.7241 -0.5986
 7778SOL     OW34792   1.785   4.112   8.084  0.0061  0.1277  0.3584
 7778SOL    HW134793   1.821   4.023   8.083 -2.0096 -0.6507 -1.6915
 7778SOL    HW234794   1.702   4.091   8.126  0.0605  0.7974  0.7915
 7779SOL     OW34795   4.664   0.408   7.856  0.1836  0.1540  0.6520
 7779SOL    HW134796   0.007   0.450   7.910  0.5601 -0.2855  0.5332
 7779SOL    HW234797   4.609   0.366   7.922 -0.4335  1.6661  1.0904
 7780SOL     OW34798   1.669   3.943   9.288  0.0585 -0.0043 -0.1936
 7780SOL    HW134799   1.610   3.868   9.294 -1.1156  0.9524  0.1668
 7780SOL    HW234800   1.613   3.993   9.347 -1.6741  1.7464 -3.3634
 7781SOL     OW34801   4.364   4.690  15.699  0.4628 -0.1376  0.1330
 7781SOL    HW134802   4.379   0.061  15.695  1.9407 -0.3882 -0.4278
 7781SOL    HW234803   4.453   4.655  15.707  1.0407  1.0639 -0.9833
 7782SOL     OW34804   0.015   2.018  10.495 -0.3078  0.2712 -1.1012
 7782SOL    HW134805   4.719   1.924  10.499 -1.0229  0.5710  2.5823
 7782SOL    HW234806   0.027   2.044  10.586  0.3637  1.1225 -1.4295
 7783SOL     OW34807   3.787   2.125  15.804 -0.0226  0.5086 -0.1675
 7783SOL    HW134808   3.781   2.142  15.710  1.0204  0.3065 -0.2658
 7783SOL    HW234809   3.773   2.030  15.807  2.2689  0.1672 -0.4859
 7784SOL     OW34810   0.596   3.913   3.690 -0.5833 -0.6490  0.1339
 7784SOL    HW134811   0.646   3.832   3.704  1.5089  0.3195 -1.7842
 7784SOL    HW234812   0.624   3.934   3.601  1.1312  0.4214  0.9372
 7785SOL     OW34813   1.111   2.106   3.863 -0.0629  0.3567  0.5394
 7785SOL    HW134814   1.054   2.045   3.910  1.3326 -2.8255 -1.9285
 7785SOL    HW234815   1.153   2.155   3.935 -0.9286  2.4869 -0.4085
 7786SOL     OW34816   3.705   0.649   3.586 -0.1922  0.0843  0.3673
 7786SOL    HW134817   3.714   0.589   3.660  1.2612 -3.2142 -2.4886
 7786SOL    HW234818   3.683   0.587   3.517  2.7297  0.4996 -0.9436
 7787SOL     OW34819   1.117   0.697  16.076 -0.1697 -0.6229 -0.5024
 7787SOL    HW134820   1.179   0.716  16.146 -1.5011 -0.1243  0.5320
 7787SOL    HW234821   1.039   0.673  16.125  1.0857 -1.2616  1.1868
 7788SOL     OW34822   3.308   3.804  14.645 -0.3762 -0.5317  0.7083
 7788SOL    HW134823   3.339   3.792  14.555  0.2052  0.6053  0.7550
 7788SOL    HW234824   3.342   3.890  14.670 -2.0106  0.0408  0.9850
 7789SOL     OW34825   4.677   1.876   3.378 -0.4016 -0.0943 -0.4208
 7789SOL    HW134826   0.045   1.875   3.349 -0.7040 -3.0037 -1.1856
 7789SOL    HW234827   4.694   1.909   3.467 -2.6419  2.4100 -0.9189
 7790SOL     OW34828   3.971   1.295   9.554  0.5283  0.5951  0.5299
 7790SOL    HW134829   3.994   1.304   9.462 -1.3645 -2.0046 -0.2114
 7790SOL    HW234830   4.003   1.206   9.568  1.3579  0.6663 -0.9957
 7791SOL     OW34831   0.813   0.977   7.865 -0.3670  0.4131 -0.4967
 7791SOL    HW134832   0.826   0.891   7.907  1.0555  1.7139  1.7642
 7791SOL    HW234833   0.754   0.961   7.792  0.7659 -1.4368 -1.0094
 7792SOL     OW34834   1.637   4.427   3.401 -0.4897  0.0350 -0.0676
 7792SOL    HW134835   1.599   4.418   3.489 -1.6753 -0.3457 -0.6148
 7792SOL    HW234836   1.634   4.522   3.387  2.2635  0.2325  0.8037
 7793SOL     OW34837   4.289   1.463  16.193  0.1283  0.8101  0.0314
 7793SOL    HW134838   4.349   1.501  16.128 -0.3198 -0.0393 -0.8745
 7793SOL    HW234839   4.209   1.488  16.148 -0.8724  0.5809  1.7116
 7794SOL     OW34840   3.344   4.522   7.740 -0.8427  0.0905 -0.0864
 7794SOL    HW134841   3.325   4.613   7.762  0.3259  0.0820  0.9467
 7794SOL    HW234842   3.333   4.518   7.645 -2.9050 -1.1105  0.1938
 7795SOL     OW34843   0.164   3.569  12.654  0.0191  0.2039 -0.5426
 7795SOL    HW134844   0.115   3.486  12.650  1.0556 -0.4409  0.1982
 7795SOL    HW234845   0.129   3.598  12.739  1.5434  0.4734 -0.0045
 7796SOL     OW34846   1.941   3.896   4.372  0.3637  0.0857 -0.2121
 7796SOL    HW134847   1.972   3.871   4.285 -0.6947  0.6315 -0.7405
 7796SOL    HW234848   1.916   3.809   4.405 -0.3819  0.3100 -0.1980
 7797SOL     OW34849   2.776   0.835   4.356  0.0426 -0.2797  0.4643
 7797SOL    HW134850   2.837   0.851   4.428 -1.5832  2.6652  1.1914
 7797SOL    HW234851   2.789   0.917   4.307 -0.2134 -0.7801 -0.4300
 7798SOL     OW34852   0.857   2.456   7.256 -0.4016  0.5614 -0.1681
 7798SOL    HW134853   0.863   2.382   7.196  0.3955  1.7723 -1.5791
 7798SOL    HW234854   0.813   2.416   7.331  0.4711  2.4583  1.3304
 7799SOL     OW34855   3.664   3.638   8.576  0.1837  0.2376 -1.0225
 7799SOL    HW134856   3.758   3.623   8.561  0.2573  0.7338 -1.0461
 7799SOL    HW234857   3.661   3.669   8.666  4.8538  0.8385 -1.0445
 7800SOL     OW34858   0.257   2.318  13.739 -0.4227 -0.2656  0.0274
 7800SOL    HW134859   0.237   2.400  13.784  1.8891  0.8333 -0.8996
 7800SOL    HW234860   0.343   2.329  13.696 -1.8287  0.7067 -2.5638
 7801SOL     OW34861   1.919   4.119  12.902 -0.3592  0.1325  0.6957
 7801SOL    HW134862   1.915   4.023  12.911 -0.8821  0.3410  2.6938
 7801SOL    HW234863   1.840   4.142  12.854 -1.5112 -1.3013  1.8668
 7802SOL     OW34864   4.358   4.683   2.839  0.1708 -0.5407  0.4476
 7802SOL    HW134865   4.415   4.612   2.808 -1.6011 -1.8851  0.2598
 7802SOL    HW234866   4.416   4.706   2.912 -1.6905  0.8849  1.4487
 7803SOL     OW34867   0.834   2.882   6.573  0.5806 -0.1601 -0.7158
 7803SOL    HW134868   0.743   2.852   6.582  0.4335  0.9603  1.4717
 7803SOL    HW234869   0.859   2.904   6.662  0.8608 -1.4109 -0.4850
 7804SOL     OW34870   0.744   2.805   2.464 -0.1179 -0.0034  0.0044
 7804SOL    HW134871   0.748   2.722   2.511 -2.6441 -0.0284  0.1589
 7804SOL    HW234872   0.650   2.805   2.447 -0.0729 -0.8364 -0.2512
 7805SOL     OW34873   1.547   0.289  12.319  0.0518  0.3116  0.2676
 7805SOL    HW134874   1.461   0.328  12.327  0.8913  2.5443 -1.6091
 7805SOL    HW234875   1.537   0.196  12.338  0.5456  0.5403  1.6927
 7806SOL     OW34876   0.358   4.680   5.803  0.6594 -0.4450  0.2150
 7806SOL    HW134877   0.440   4.715   5.769  1.2071 -0.6279  1.3654
 7806SOL    HW234878   0.320   4.656   5.718 -0.8278  0.3047  0.6563
 7807SOL     OW34879   0.026   2.744   7.203 -0.3225  0.2389  0.1242
 7807SOL    HW134880   4.686   2.749   7.274 -1.7699  0.4372 -1.1944
 7807SOL    HW234881   0.078   2.821   7.227 -1.4146  0.4065  1.9491
 7808SOL     OW34882   0.515   2.679   5.662 -0.2478  0.3424  0.4912
 7808SOL    HW134883   0.553   2.679   5.750  0.7045  0.1980  0.0802
 7808SOL    HW234884   0.455   2.753   5.672  0.3154  0.8755 -0.1151
 7809SOL     OW34885   2.331   1.153   2.971  0.4265 -0.6489  0.2260
 7809SOL    HW134886   2.246   1.176   2.934  0.3055  0.0061  0.8953
 7809SOL    HW234887   2.315   1.064   3.001 -0.6331 -0.2605  0.8227
 7810SOL     OW34888   0.745   0.574   7.169  0.1294 -0.0396 -0.2751
 7810SOL    HW134889   0.715   0.537   7.252 -0.1993  1.5976  0.3262
 7810SOL    HW234890   0.816   0.515   7.142  1.5914  2.6640 -2.3377
 7811SOL     OW34891   1.226   0.366   3.476  0.0618 -0.0379 -0.5990
 7811SOL    HW134892   1.153   0.317   3.514  0.9167 -1.5047 -0.8551
 7811SOL    HW234893   1.232   0.322   3.391 -2.3695 -1.2760 -0.1128
 7812SOL     OW34894   4.525   0.639   7.393 -0.2707  0.1679  0.3146
 7812SOL    HW134895   4.539   0.680   7.478 -1.5904 -2.4164  1.7441
 7812SOL    HW234896   4.458   0.573   7.403 -0.7967  0.6371 -0.0767
 7813SOL     OW34897   1.334   3.498   6.084  0.5586 -0.1188  0.2451
 7813SOL    HW134898   1.309   3.427   6.026  2.0441  0.6592 -1.3433
 7813SOL    HW234899   1.316   3.576   6.032  2.3687 -0.1728 -0.4926
 7814SOL     OW34900   3.768   4.122  11.923  0.4924  0.1842  0.1340
 7814SOL    HW134901   3.749   4.216  11.930  1.1401  0.2980  0.3281
 7814SOL    HW234902   3.691   4.092  11.875  0.7208  0.9518 -0.7214
 7815SOL     OW34903   1.469   0.653   2.546 -0.2484 -0.6721 -0.5540
 7815SOL    HW134904   1.531   0.698   2.604 -0.7754 -1.0034  0.2737
 7815SOL    HW234905   1.500   0.564   2.532 -2.3187 -1.1783 -1.9443
 7816SOL     OW34906   2.752   1.274   7.329 -0.3518  0.0687 -0.3113
 7816SOL    HW134907   2.793   1.356   7.356  1.1079  0.1442 -2.6903
 7816SOL    HW234908   2.701   1.297   7.251 -0.9844 -1.8277 -0.4696
 7817SOL     OW34909   4.582   0.185   2.641  0.0705 -0.3360 -0.0340
 7817SOL    HW134910   4.539   0.241   2.705 -1.1990 -0.8797 -0.3918
 7817SOL    HW234911   4.595   0.246   2.569  0.5986 -2.6255 -1.8990
 7818SOL     OW34912   1.965   2.471   0.155 -0.0507  0.2392  0.0849
 7818SOL    HW134913   1.893   2.530   0.177 -0.6895 -0.8975  1.0339
 7818SOL    HW234914   1.967   2.478   0.060 -0.4305  0.2592  0.0768
 7819SOL     OW34915   2.623   3.123   4.952  0.8687  0.5181  0.0866
 7819SOL    HW134916   2.552   3.150   4.894 -0.3727 -0.7055  1.0450
 7819SOL    HW234917   2.657   3.210   4.974 -0.5448  0.6553  1.7580
 7820SOL     OW34918   1.145   3.088   1.982  0.5296  0.0940 -0.3163
 7820SOL    HW134919   1.091   3.019   2.019 -0.3086  0.4788 -0.8321
 7820SOL    HW234920   1.159   3.145   2.058 -1.0727  0.1031 -0.0312
 7821SOL     OW34921   1.525   1.508  16.557  0.1903 -0.0818 -0.5321
 7821SOL    HW134922   1.479   1.584  16.592  1.4874 -0.5224  2.1622
 7821SOL    HW234923   1.481   1.505  16.473 -0.6082 -0.0767 -0.1073
 7822SOL     OW34924   3.168   2.042  13.013 -0.0381 -0.3080 -0.0729
 7822SOL    HW134925   3.125   1.984  13.076 -0.9480 -0.5832 -0.9512
 7822SOL    HW234926   3.220   2.106  13.062 -1.2211  1.2572 -0.8675
 7823SOL     OW34927   4.337   4.164  13.925 -0.8105 -0.2604 -0.2121
 7823SOL    HW134928   4.362   4.189  14.014  0.4049 -2.3386  0.0185
 7823SOL    HW234929   4.243   4.180  13.919 -0.7937 -0.8323 -2.0453
 7824SOL     OW34930   4.611   4.257   1.640 -0.5181 -0.3081 -0.1833
 7824SOL    HW134931   4.580   4.177   1.681 -2.4645 -0.4581 -1.9353
 7824SOL    HW234932   4.609   4.235   1.547 -1.2164  0.4352 -0.3496
 7825SOL     OW34933   2.360   1.735  10.295  0.4484  0.5594 -0.2270
 7825SOL    HW134934   2.297   1.753  10.364  0.5371 -1.4662  0.3658
 7825SOL    HW234935   2.400   1.660  10.339 -0.3425  0.1044 -0.3006
 7826SOL     OW34936   0.247   1.709  16.565 -0.4146  0.1195  0.0132
 7826SOL    HW134937   0.299   1.736  16.641 -0.5394  2.4251 -0.6978
 7826SOL    HW234938   0.217   1.624  16.596  3.7908 -1.7057 -0.8236
 7827SOL     OW34939   1.281   0.736   7.835 -0.2327  0.6399  0.5189
 7827SOL    HW134940   1.370   0.702   7.840 -0.6699 -0.6627 -0.5630
 7827SOL    HW234941   1.277   0.785   7.917 -1.0907  0.4768  0.5785
 7828SOL     OW34942   2.287   0.689   5.338 -0.3966 -0.6557 -0.5202
 7828SOL    HW134943   2.342   0.758   5.300 -0.8210  0.2222  0.4477
 7828SOL    HW234944   2.345   0.615   5.355  2.3120  1.4859 -0.4259
 7829SOL     OW34945   1.605   2.140   7.692  0.1979  0.4684  0.3251
 7829SOL    HW134946   1.668   2.071   7.711 -0.9182 -1.1655 -1.9536
 7829SOL    HW234947   1.604   2.130   7.597  1.4144 -3.5155  0.7238
 7830SOL     OW34948   4.363   2.077   5.189 -0.0682  0.1274  0.7649
 7830SOL    HW134949   4.413   2.014   5.136  0.6763  1.4532 -0.1097
 7830SOL    HW234950   4.357   2.044   5.279 -1.4279  0.5376  0.8244
 7831SOL     OW34951   3.018   2.673   7.214 -0.1615  1.1374 -0.9309
 7831SOL    HW134952   3.042   2.734   7.144 -1.8438  0.6924 -1.8961
 7831SOL    HW234953   2.994   2.592   7.169 -0.6692 -0.4407  2.1544
 7832SOL     OW34954   0.309   3.342   6.458 -0.3099 -0.3354  0.0732
 7832SOL    HW134955   0.318   3.399   6.535 -0.2438  0.1613 -0.3057
 7832SOL    HW234956   0.220   3.375   6.444 -0.4040 -0.0404  1.3663
 7833SOL     OW34957   1.784   1.708   7.641 -0.7643  0.3111 -0.0394
 7833SOL    HW134958   1.769   1.637   7.704  1.1064 -0.9308 -0.9643
 7833SOL    HW234959   1.801   1.788   7.691  0.2759 -0.5799  1.0641
 7834SOL     OW34960   3.919   3.606   2.101  0.4169  0.4205 -0.4002
 7834SOL    HW134961   3.906   3.598   2.006  0.4337  1.4490 -0.4889
 7834SOL    HW234962   4.012   3.631   2.104  0.4487  0.2725 -0.1831
 7835SOL     OW34963   0.501   3.096   7.313 -0.6578 -0.1973 -0.0356
 7835SOL    HW134964   0.549   3.126   7.390 -2.0072 -0.0603  0.7684
 7835SOL    HW234965   0.465   3.016   7.353  0.1254 -0.2224  0.6228
 7836SOL     OW34966   3.586   4.630  11.696  0.0774  0.0612  0.0454
 7836SOL    HW134967   3.666   4.582  11.674  0.4185  0.9944 -0.7921
 7836SOL    HW234968   3.518   4.574  11.658  2.6539 -0.2850 -4.1290
 7837SOL     OW34969   0.153   3.164   0.853  0.0707 -0.1886  0.0974
 7837SOL    HW134970   0.137   3.255   0.827  1.0644  0.2931  1.1823
 7837SOL    HW234971   0.069   3.119   0.856 -0.9039  1.5116 -1.4109
 7838SOL     OW34972   3.361   2.897   2.642 -0.3833 -0.3364  0.2511
 7838SOL    HW134973   3.350   2.823   2.582 -0.6459  0.9935 -1.3366
 7838SOL    HW234974   3.351   2.969   2.579 -0.4951 -1.8229 -1.4534
 7839SOL     OW34975   0.990   0.928   6.944 -0.3541 -0.3866  0.2707
 7839SOL    HW134976   0.920   0.864   6.940 -1.0347  0.2702  1.6026
 7839SOL    HW234977   1.068   0.876   6.923  0.4002  0.8969 -0.1167
 7840SOL     OW34978   2.985   2.347   4.969  0.0764  0.0340 -0.6600
 7840SOL    HW134979   2.964   2.427   5.017 -3.5342 -2.1427  1.3795
 7840SOL    HW234980   2.944   2.277   5.019  0.7787  0.0629 -0.0463
 7841SOL     OW34981   4.141   4.073   6.532 -0.0771 -0.0121  0.8182
 7841SOL    HW134982   4.194   4.093   6.455 -0.2262 -0.3128  0.6391
 7841SOL    HW234983   4.098   3.993   6.501 -0.2920  0.1411  0.7118
 7842SOL     OW34984   0.201   4.544  17.601 -0.5252 -0.1059 -0.0377
 7842SOL    HW134985   0.266   4.477  17.577  0.0237  0.1200  0.8091
 7842SOL    HW234986   0.188   4.538   0.000 -2.5106 -0.1254 -0.3277
 7843SOL     OW34987   2.719   3.116   7.779  0.0262 -0.1459 -0.3548
 7843SOL    HW134988   2.747   3.050   7.716  1.0778  0.4351 -0.5010
 7843SOL    HW234989   2.799   3.118   7.833  1.2241  1.8943 -2.2023
 7844SOL     OW34990   1.267   2.874   6.208  0.5861 -0.2697 -0.7567
 7844SOL    HW134991   1.228   2.950   6.251  1.3143 -0.6992  0.6658
 7844SOL    HW234992   1.293   2.825   6.286  2.0118 -0.8139 -1.5722
 7845SOL     OW34993   3.852   0.507  16.681  0.0414  0.0796  0.0097
 7845SOL    HW134994   3.883   0.570  16.616 -1.5239  1.0133  0.1793
 7845SOL    HW234995   3.770   0.486  16.636  0.1968  1.1980 -0.7925
 7846SOL     OW34996   0.887   3.310   6.613  0.0269 -0.2020  0.2105
 7846SOL    HW134997   0.833   3.351   6.545  1.4037  0.5702 -0.4315
 7846SOL    HW234998   0.841   3.329   6.695 -1.7929 -0.5798 -0.7286
 7847SOL     OW34999   1.072   4.183   1.382  0.4313  0.1003  0.0741
 7847SOL    HW135000   0.977   4.177   1.391  0.3081 -0.3066 -1.4961
 7847SOL    HW235001   1.099   4.091   1.378  0.8560  0.3121 -1.5984
 7848SOL     OW35002   1.358   3.351   2.900  0.2812 -0.4136  0.1716
 7848SOL    HW135003   1.328   3.373   2.988  0.7677  0.9797 -0.0084
 7848SOL    HW235004   1.319   3.265   2.890 -1.0200  0.2334 -0.3107
 7849SOL     OW35005   2.023   3.363   8.417  0.2667 -0.5643 -0.0775
 7849SOL    HW135006   2.027   3.438   8.476 -0.2607 -0.5734 -0.0355
 7849SOL    HW235007   2.032   3.387   8.325 -0.7098  1.9825  0.5002
 7850SOL     OW35008   0.228   1.393   0.782 -0.6529 -0.1157 -0.1619
 7850SOL    HW135009   0.188   1.360   0.701  0.0813  1.3870 -1.1430
 7850SOL    HW235010   0.310   1.347   0.799 -0.1801  1.2354  1.2579
 7851SOL     OW35011   2.777   3.859   7.953 -0.8124 -0.6290  0.4030
 7851SOL    HW135012   2.871   3.841   7.957 -0.5999 -0.3377 -3.5097
 7851SOL    HW235013   2.737   3.775   7.931 -1.0978  0.0555 -1.6615
 7852SOL     OW35014   3.153   3.503  11.988  1.0443  0.4087 -0.3228
 7852SOL    HW135015   3.215   3.471  12.053  0.2115  1.3883  0.9385
 7852SOL    HW235016   3.115   3.577  12.035  1.3305  0.4933 -0.2265
 7853SOL     OW35017   0.912   3.418  14.197 -0.2420 -0.4666  0.7902
 7853SOL    HW135018   0.945   3.505  14.175 -0.3892 -0.4060  0.8082
 7853SOL    HW235019   0.886   3.394  14.108  0.2374  1.2563  0.1802
 7854SOL     OW35020   2.769   4.044  10.464  0.0336 -0.1184  0.2931
 7854SOL    HW135021   2.684   4.009  10.489  0.5582 -1.9704 -0.5276
 7854SOL    HW235022   2.746   4.102  10.391 -0.2351 -2.0404 -1.1276
 7855SOL     OW35023   3.459   3.649   7.315 -0.0178  0.0014 -0.0587
 7855SOL    HW135024   3.508   3.569   7.336 -0.2874 -0.3769 -0.8544
 7855SOL    HW235025   3.528   3.708   7.283 -1.3021  1.2233 -0.5467
 7856SOL     OW35026   4.561   0.216   3.296 -0.2573  0.7349  0.2041
 7856SOL    HW135027   4.604   0.291   3.255 -0.7196  1.8760  1.8081
 7856SOL    HW235028   4.576   0.240   3.388 -1.4283  1.2517  0.2547
 7857SOL     OW35029   4.591   4.099   2.564  0.3141 -0.3257  0.2869
 7857SOL    HW135030   4.576   4.048   2.484 -1.3135  1.1523 -0.3357
 7857SOL    HW235031   4.589   4.187   2.525 -0.3927 -1.3866 -2.1213
 7858SOL     OW35032   4.652   3.441   2.418 -0.4663 -0.0390 -0.7538
 7858SOL    HW135033   4.640   3.492   2.338 -2.8246 -0.6166 -0.7746
 7858SOL    HW235034   4.592   3.367   2.407 -2.2634  1.1299  1.1156
 7859SOL     OW35035   0.337   0.792   2.462  0.3026  0.0037 -0.4733
 7859SOL    HW135036   0.290   0.780   2.545  1.6217 -0.5555  0.2043
 7859SOL    HW235037   0.422   0.817   2.498  0.2436  3.1120 -2.4969
 7860SOL     OW35038   2.216   4.508   8.531  0.1504 -0.3022  0.1048
 7860SOL    HW135039   2.211   4.603   8.518  2.4809  0.0961  1.9431
 7860SOL    HW235040   2.127   4.487   8.560 -1.6139  0.0404 -5.1625
 7861SOL     OW35041   2.640   1.810  12.148 -0.3075  0.1843 -0.2780
 7861SOL    HW135042   2.562   1.756  12.158  0.6592 -1.0614  0.4056
 7861SOL    HW235043   2.606   1.880  12.091  0.3320 -0.0284 -0.9187
 7862SOL     OW35044   2.173   0.177   3.725  0.2059 -0.8504  0.5450
 7862SOL    HW135045   2.196   0.226   3.804  0.4932 -0.4427  0.2110
 7862SOL    HW235046   2.230   0.101   3.735  1.0824 -0.4429 -1.2563
 7863SOL     OW35047   4.588   3.283   8.310  0.3862 -0.0693  1.0033
 7863SOL    HW135048   4.503   3.260   8.348 -0.4784  0.7655 -0.4635
 7863SOL    HW235049   4.640   3.327   8.377  0.7516 -1.7204  1.8199
 7864SOL     OW35050   2.918   4.718  15.440 -0.5029 -0.3588  0.1358
 7864SOL    HW135051   3.013   0.002  15.449 -0.5309 -1.5899  1.4691
 7864SOL    HW235052   2.911   4.722  15.344  0.2918  2.6591  0.2061
 7865SOL     OW35053   2.446   1.719   1.575 -0.2434  0.0547  0.1728
 7865SOL    HW135054   2.393   1.713   1.495  0.9705 -0.8518 -0.5637
 7865SOL    HW235055   2.522   1.663   1.559  0.4330  1.4645 -1.5323
 7866SOL     OW35056   3.947   1.717   0.153 -0.5271 -0.5340  1.0669
 7866SOL    HW135057   3.919   1.660   0.082 -1.0502  0.5811  0.3769
 7866SOL    HW235058   3.867   1.713   0.206  0.0531 -0.7541  1.9293
 7867SOL     OW35059   4.102   3.505   7.555 -1.0131  0.0181  0.6566
 7867SOL    HW135060   4.175   3.527   7.614 -0.2876 -0.0815 -0.2038
 7867SOL    HW235061   4.107   3.573   7.488 -0.1192  0.3066  1.0198
 7868SOL     OW35062   4.332   1.184   3.310  0.0159  0.1513  0.1283
 7868SOL    HW135063   4.325   1.240   3.233  1.5238 -0.9337 -0.7913
 7868SOL    HW235064   4.418   1.207   3.343  0.7488  0.9105 -2.4040
 7869SOL     OW35065   0.674   3.786   8.382 -0.0176 -0.2968 -0.2835
 7869SOL    HW135066   0.746   3.843   8.357  1.1553 -0.3954  2.8382
 7869SOL    HW235067   0.691   3.707   8.331  1.3922 -0.3567  0.2743
 7870SOL     OW35068   0.621   1.681  14.277  0.6823 -0.0354 -0.1451
 7870SOL    HW135069   0.707   1.714  14.254  0.8813 -0.2446  0.2996
 7870SOL    HW235070   0.642   1.625  14.351  0.7770  1.8860  1.2671
 7871SOL     OW35071   0.755   4.211   3.682  0.2743 -0.2261 -0.0962
 7871SOL    HW135072   0.808   4.252   3.751  3.4608  0.9503 -3.2495
 7871SOL    HW235073   0.788   4.122   3.675 -1.2802 -0.5340 -3.4171
 7872SOL     OW35074   4.588   0.258   8.086  0.3197  0.2765  0.3707
 7872SOL    HW135075   4.554   0.308   8.160 -0.4893 -0.8269  0.7421
 7872SOL    HW235076   4.668   0.235   8.133 -0.3784 -1.0391  0.8948
 7873SOL     OW35077   4.043   0.774   9.433  0.0668 -0.5598 -0.6598
 7873SOL    HW135078   3.992   0.709   9.482 -0.7665 -0.1329 -0.9497
 7873SOL    HW235079   4.082   0.719   9.365 -0.2557  0.3710 -1.5954
 7874SOL     OW35080   3.342   0.051   6.037 -0.0978  0.7814  0.3284
 7874SOL    HW135081   3.287   0.099   5.975 -1.5163 -0.3664  0.6935
 7874SOL    HW235082   3.396   0.123   6.070 -0.8345  1.8627 -0.8547
 7875SOL     OW35083   0.934   3.381   1.663  0.6181 -0.8527  0.2947
 7875SOL    HW135084   0.901   3.396   1.575  0.7608 -1.1577  0.1886
 7875SOL    HW235085   0.929   3.286   1.651 -1.1674 -0.8807  1.2502
 7876SOL     OW35086   1.064   1.711   8.912 -0.2373 -0.3378 -0.4213
 7876SOL    HW135087   1.000   1.700   8.982 -1.3535 -0.2515 -1.4207
 7876SOL    HW235088   1.011   1.762   8.851  0.6169  0.3429 -0.5964
 7877SOL     OW35089   3.646   0.432   3.430  0.1581 -0.2927  0.8372
 7877SOL    HW135090   3.689   0.387   3.358 -1.0262 -0.5545  0.2897
 7877SOL    HW235091   3.556   0.437   3.399  1.1243 -3.2152 -2.3051
 7878SOL     OW35092   1.981   1.934   8.222  0.1114 -0.0098  0.0846
 7878SOL    HW135093   1.899   1.954   8.267  0.6113  1.8529  0.1670
 7878SOL    HW235094   1.955   1.842   8.210 -2.3348  0.7198 -0.3459
 7879SOL     OW35095   0.813   4.227   8.173  0.1706 -0.0376  0.3984
 7879SOL    HW135096   0.839   4.298   8.114  1.5865 -1.0116 -0.1462
 7879SOL    HW235097   0.755   4.264   8.240  0.9289  1.4186  0.2418
 7880SOL     OW35098   0.296   4.629   4.058  0.0911 -0.0357  0.1113
 7880SOL    HW135099   0.220   4.687   4.058  0.4215  0.3923 -0.3866
 7880SOL    HW235100   0.334   4.647   3.972 -0.4357 -1.1799 -0.3627
 7881SOL     OW35101   0.685   0.392   0.757  0.7592 -0.2661 -0.5620
 7881SOL    HW135102   0.718   0.384   0.846 -3.6563 -2.3914  0.8609
 7881SOL    HW235103   0.624   0.319   0.744  1.4936 -1.1912  1.2752
 7882SOL     OW35104   3.828   1.554  17.649  0.3626  0.9455 -0.2222
 7882SOL    HW135105   3.902   1.495  17.638  0.0265  0.3919  0.4602
 7882SOL    HW235106   3.797   1.547  17.559 -0.8067  0.7260  0.1852
 7883SOL     OW35107   4.694   4.400   1.880 -0.0654 -0.0468 -0.3141
 7883SOL    HW135108   0.049   4.355   1.911 -0.4986 -1.1639 -0.8427
 7883SOL    HW235109   4.684   4.367   1.791 -0.6355  0.3522 -0.3951
 7884SOL     OW35110   1.313   1.120   6.499  0.2188 -0.5730 -0.1790
 7884SOL    HW135111   1.361   1.047   6.539  1.3028 -0.5292 -1.4170
 7884SOL    HW235112   1.252   1.131   6.572 -0.0916  0.7942 -0.6441
 7885SOL     OW35113   3.680   2.185   4.422 -0.5143 -0.0059  0.5816
 7885SOL    HW135114   3.635   2.201   4.339 -0.2681 -2.0530  0.0571
 7885SOL    HW235115   3.746   2.123   4.394  0.4983  0.4050  2.0763
 7886SOL     OW35116   4.315   2.854   6.928  0.3860  0.2448 -0.4883
 7886SOL    HW135117   4.325   2.773   6.978  0.8281 -0.0866 -1.1037
 7886SOL    HW235118   4.329   2.921   6.994 -0.3005 -0.0449 -0.0470
 7887SOL     OW35119   1.440   4.217   1.147  0.0899  0.3358 -0.2433
 7887SOL    HW135120   1.361   4.263   1.175 -0.0244  0.5555 -0.9338
 7887SOL    HW235121   1.398   4.131   1.141  1.2136 -0.2429  0.1927
 7888SOL     OW35122   2.510   0.705   8.408 -0.8634  0.2562  0.3043
 7888SOL    HW135123   2.589   0.652   8.412  0.1086  1.7307  0.5565
 7888SOL    HW235124   2.498   0.696   8.313  0.9315  0.2497  0.0768
 7889SOL     OW35125   2.211   3.591   2.004 -0.1385  0.6157  0.0420
 7889SOL    HW135126   2.122   3.558   1.991 -0.4571  1.8295 -0.8843
 7889SOL    HW235127   2.261   3.513   1.982 -0.5886 -0.0887  1.5388
 7890SOL     OW35128   0.810   3.489   9.190 -0.9718 -0.3518  0.1284
 7890SOL    HW135129   0.882   3.550   9.209 -1.4371  0.8451 -1.8784
 7890SOL    HW235130   0.740   3.554   9.182 -2.4086 -2.0038 -0.6755
 7891SOL     OW35131   3.364   4.528   9.360  0.1682 -0.1602 -0.0446
 7891SOL    HW135132   3.455   4.517   9.387  1.1218  1.0429 -2.7573
 7891SOL    HW235133   3.322   4.481   9.433  0.5790 -1.6988 -0.8006
 7892SOL     OW35134   2.212   3.604   6.165 -0.0360  0.4336 -0.2432
 7892SOL    HW135135   2.211   3.541   6.092  0.1443 -0.9904  0.9834
 7892SOL    HW235136   2.230   3.541   6.235 -0.1051 -1.4388 -1.8723
 7893SOL     OW35137   1.943   0.903   4.292 -0.0423  0.2395  0.3022
 7893SOL    HW135138   1.992   0.945   4.220 -0.3601 -0.0458 -0.0775
 7893SOL    HW235139   2.003   0.832   4.314  2.1887  1.8952 -0.3798
 7894SOL     OW35140   3.250   0.195   6.816  0.2166  0.5945 -0.2149
 7894SOL    HW135141   3.345   0.192   6.829 -0.0247 -0.4405  1.3650
 7894SOL    HW235142   3.222   0.205   6.907 -1.7091  0.5038 -0.8011
 7895SOL     OW35143   2.241   4.258  13.786  0.2141 -0.1870 -0.0980
 7895SOL    HW135144   2.245   4.202  13.708  0.3440 -1.6960  0.9975
 7895SOL    HW235145   2.278   4.338  13.748 -0.8398  0.0798 -0.5785
 7896SOL     OW35146   1.378   0.598   1.747  0.3013  0.1657  0.1697
 7896SOL    HW135147   1.388   0.544   1.669  0.5649 -1.4800  1.3492
 7896SOL    HW235148   1.283   0.607   1.745  0.3615  0.6709 -0.3358
 7897SOL     OW35149   3.269   3.291  15.541 -0.1738  0.7587 -0.0532
 7897SOL    HW135150   3.212   3.336  15.479 -0.0898  1.1360  0.1387
 7897SOL    HW235151   3.347   3.347  15.543 -1.0745  1.9402  2.6186
 7898SOL     OW35152   0.024   4.648   2.913 -0.0401 -0.2345  0.1150
 7898SOL    HW135153   0.005   4.617   2.824 -1.0520 -3.5363  1.4635
 7898SOL    HW235154   0.002   4.573   2.969  1.3081 -0.5929  0.1892
 7899SOL     OW35155   1.469   4.570  17.403  0.4497  0.2485  0.1985
 7899SOL    HW135156   1.421   4.528  17.332 -0.1042  0.2685  0.5627
 7899SOL    HW235157   1.490   4.656  17.366  4.1512 -0.2768  1.1302
 7900SOL     OW35158   4.039   0.297  12.880  0.0237 -0.7166  0.5304
 7900SOL    HW135159   3.995   0.347  12.949  0.1527 -0.0746  0.1428
 7900SOL    HW235160   4.112   0.352  12.853  0.3378 -1.6696 -0.5938
 7901SOL     OW35161   1.108   3.736   8.583 -0.6978  0.3443  0.3824
 7901SOL    HW135162   1.017   3.735   8.612 -0.5275 -0.1299  0.9049
 7901SOL    HW235163   1.124   3.642   8.576 -1.5061  0.4396 -2.7187
 7902SOL     OW35164   1.521   3.609  11.206  0.6467  0.0531  0.6813
 7902SOL    HW135165   1.605   3.583  11.168  1.6031  0.6658  2.4143
 7902SOL    HW235166   1.471   3.610  11.124  1.8601 -0.0040 -0.0628
 7903SOL     OW35167   4.445   3.410  16.167 -0.0542 -0.0541 -0.0654
 7903SOL    HW135168   4.475   3.500  16.154  1.9003 -0.7619 -0.5131
 7903SOL    HW235169   4.523   3.370  16.129  0.0667  0.6883 -0.6072
 7904SOL     OW35170   0.121   0.005   3.547 -0.3966 -0.1733  0.6340
 7904SOL    HW135171   0.170   4.692   3.474  1.4739  1.7271  0.9590
 7904SOL    HW235172   0.170   0.087   3.552 -0.1933 -0.3327  1.1521
 7905SOL     OW35173   2.205   3.703   1.539  0.0017  0.1984 -0.6371
 7905SOL    HW135174   2.200   3.799   1.539  2.2693  0.3153 -0.5938
 7905SOL    HW235175   2.126   3.675   1.586 -0.1549  1.0683 -0.3770
 7906SOL     OW35176   1.971   1.326  14.276  0.4733 -0.0248 -0.0562
 7906SOL    HW135177   1.956   1.269  14.352  2.0472  0.3552  0.5359
 7906SOL    HW235178   1.894   1.383  14.284  0.3501 -0.1965 -0.0281
 7907SOL     OW35179   2.084   0.865   6.860  0.4580 -0.1100 -0.3443
 7907SOL    HW135180   2.018   0.886   6.925  0.3980  1.3444 -0.8531
 7907SOL    HW235181   2.114   0.956   6.859  2.0888 -0.6439 -0.7657
 7908SOL     OW35182   1.164   1.282   3.661  0.3154  0.1829 -0.3592
 7908SOL    HW135183   1.122   1.368   3.658  1.1587  0.6008 -0.0592
 7908SOL    HW235184   1.257   1.302   3.675 -0.3074  1.8905  1.3093
 7909SOL     OW35185   3.605   2.895   5.252  0.3371  0.2717 -0.0742
 7909SOL    HW135186   3.651   2.956   5.195 -1.5156 -0.0339 -1.9080
 7909SOL    HW235187   3.594   2.945   5.333  1.1834  0.2658  0.0461
 7910SOL     OW35188   2.693   1.168   6.292  0.0641  0.1043  0.6153
 7910SOL    HW135189   2.724   1.243   6.343  0.7012  2.4366 -3.1312
 7910SOL    HW235190   2.759   1.101   6.310 -0.3590 -0.1268  1.2745
 7911SOL     OW35191   2.410   1.254   5.545  0.6107  0.0262  0.0198
 7911SOL    HW135192   2.426   1.342   5.579 -0.9280  0.0016  0.8130
 7911SOL    HW235193   2.320   1.264   5.515  0.4944 -0.8154  0.0765
 7912SOL     OW35194   2.040   3.636   6.874  0.1584 -0.0260 -0.2358
 7912SOL    HW135195   2.030   3.635   6.969  1.2812 -0.4035 -0.1252
 7912SOL    HW235196   2.093   3.557   6.862 -0.5653 -0.4320 -0.7563
 7913SOL     OW35197   0.859   3.948  10.915 -0.1682 -0.0339 -0.2949
 7913SOL    HW135198   0.773   3.991  10.914  0.3145  0.9304 -1.1695
 7913SOL    HW235199   0.880   3.963  10.823  0.6991 -3.2056 -0.5812
 7914SOL     OW35200   1.744   3.542   2.928  0.0542  0.1167  0.2164
 7914SOL    HW135201   1.781   3.575   2.847 -0.6946 -1.8608 -0.9138
 7914SOL    HW235202   1.658   3.583   2.934  0.1671  0.3296  0.4013
 7915SOL     OW35203   2.679   0.145   6.350 -0.4528 -0.0457  0.6118
 7915SOL    HW135204   2.686   0.188   6.264  0.6884 -3.1800 -0.8677
 7915SOL    HW235205   2.746   0.077   6.345 -0.2532  0.2045 -0.1530
 7916SOL     OW35206   3.595   2.343   9.115  0.8995  0.1015  0.0838
 7916SOL    HW135207   3.556   2.409   9.058  0.1185 -1.3921 -1.1002
 7916SOL    HW235208   3.600   2.268   9.055  0.5192  0.3083 -0.2038
 7917SOL     OW35209   1.356   4.167  10.067 -0.7974 -0.0120 -0.3836
 7917SOL    HW135210   1.314   4.130  10.145  2.5356 -1.8855  0.5211
 7917SOL    HW235211   1.332   4.257  10.088 -0.4401  0.1178 -0.5301
 7918SOL     OW35212   4.658   3.695  14.663  0.1005 -0.4141  0.6075
 7918SOL    HW135213   4.715   3.748  14.719  2.5606  1.1503 -3.4335
 7918SOL    HW235214   4.704   3.692  14.580  3.3201 -2.3617  2.4597
 7919SOL     OW35215   0.569   4.501   1.717 -0.1922 -0.2379 -0.4733
 7919SOL    HW135216   0.641   4.486   1.780 -1.4208  3.1965  1.7721
 7919SOL    HW235217   0.577   4.595   1.701  1.8856 -0.3437 -0.0680
 7920SOL     OW35218   4.029   1.761  16.130  0.0130  0.1956  0.2616
 7920SOL    HW135219   3.955   1.808  16.091 -1.0628 -1.0378  0.7810
 7920SOL    HW235220   4.008   1.672  16.101  1.1125 -0.5402  1.7843
 7921SOL     OW35221   1.660   4.228   6.385  0.1917  0.3882  0.3183
 7921SOL    HW135222   1.575   4.267   6.405  0.3241  0.4215  0.8248
 7921SOL    HW235223   1.707   4.241   6.467  3.6185  2.1641 -1.9222
 7922SOL     OW35224   2.834   0.659  12.356  0.5882 -0.0430 -0.0832
 7922SOL    HW135225   2.880   0.672  12.274  0.2041 -0.2296 -0.3256
 7922SOL    HW235226   2.742   0.676  12.336  0.4855 -1.1745 -0.5709
 7923SOL     OW35227   3.031   1.672   4.199  0.8271 -0.6556 -0.0532
 7923SOL    HW135228   3.036   1.597   4.259 -0.4670 -0.9792 -0.3520
 7923SOL    HW235229   2.968   1.637   4.136  2.5941  0.5089 -2.4553
 7924SOL     OW35230   3.633   1.430  12.314  0.0648 -0.0116  0.6478
 7924SOL    HW135231   3.647   1.421  12.409  2.1419  1.2424  0.4474
 7924SOL    HW235232   3.537   1.436  12.311  0.0373  0.3005  2.0510
 7925SOL     OW35233   0.879   0.722   7.937 -0.5080 -0.2706 -0.2178
 7925SOL    HW135234   0.789   0.691   7.926 -0.6150 -0.6043  1.6035
 7925SOL    HW235235   0.917   0.682   8.015  1.3803  2.4208  0.2394
 7926SOL     OW35236   1.460   3.125   9.557 -0.2167 -0.1520  0.0944
 7926SOL    HW135237   1.405   3.047   9.546 -0.2614 -0.5147  3.0092
 7926SOL    HW235238   1.528   3.091   9.615 -1.3506  0.4034  1.7600
 7927SOL     OW35239   4.433   2.710   6.717  0.6245 -0.0250 -0.3096
 7927SOL    HW135240   4.505   2.658   6.752 -0.6873 -0.3849  1.9193
 7927SOL    HW235241   4.393   2.756   6.791  0.7533  2.6915 -1.9266
 7928SOL     OW35242   2.774   0.643  13.417  0.5719 -0.1002 -0.2615
 7928SOL    HW135243   2.730   0.727  13.405  0.1822 -0.2591  0.0829
 7928SOL    HW235244   2.832   0.646  13.341 -0.8812 -1.5178 -1.4399
 7929SOL     OW35245   1.625   3.970  15.770  0.2945  0.4506 -0.1009
 7929SOL    HW135246   1.553   4.021  15.733 -1.0635 -0.5464  1.1587
 7929SOL    HW235247   1.627   4.000  15.861  0.2857  0.2686 -0.0399
 7930SOL     OW35248   4.524   1.924   2.219  0.0816  0.6177 -0.5037
 7930SOL    HW135249   4.613   1.940   2.188  0.8983  0.4170  1.7393
 7930SOL    HW235250   4.522   1.955   2.309  3.9721  0.3094 -0.3047
 7931SOL     OW35251   2.379   3.911   5.653 -0.0449  1.0276 -0.2194
 7931SOL    HW135252   2.397   3.980   5.717  1.0020  0.6435 -0.0946
 7931SOL    HW235253   2.305   3.868   5.696  0.3334  0.8857  0.2877
 7932SOL     OW35254   2.525   3.402   5.593 -0.6998  0.5015  0.1372
 7932SOL    HW135255   2.569   3.486   5.581  2.4437 -0.8792  1.9000
 7932SOL    HW235256   2.455   3.417   5.656 -0.2917  0.4834  0.5934
 7933SOL     OW35257   2.952   2.664  15.553  0.3225  0.1005 -0.3603
 7933SOL    HW135258   2.972   2.571  15.567  3.0952  0.8732  0.7457
 7933SOL    HW235259   3.034   2.692  15.512 -0.0006  0.3705 -0.8170
 7934SOL     OW35260   2.612   1.343  15.345  0.5477 -0.9843  0.5721
 7934SOL    HW135261   2.674   1.270  15.342  0.9409 -0.6228  0.0453
 7934SOL    HW235262   2.533   1.295  15.321  0.8962 -2.1646  1.7713
 7935SOL     OW35263   0.271   2.258   4.205 -0.2191 -0.0965 -0.0930
 7935SOL    HW135264   0.295   2.271   4.297 -2.3661  1.7157  0.2125
 7935SOL    HW235265   0.188   2.212   4.213  0.7857 -1.9321 -0.0612
 7936SOL     OW35266   3.149   3.936   2.189  0.8742 -0.0443  0.2130
 7936SOL    HW135267   3.169   4.026   2.162  2.0426  0.7754  3.7643
 7936SOL    HW235268   3.221   3.914   2.247  0.9066 -1.5105 -0.3910
 7937SOL     OW35269   0.017   2.659   2.339  1.1969 -0.1464 -0.1679
 7937SOL    HW135270   0.063   2.680   2.257  0.5921  2.1698  0.0669
 7937SOL    HW235271   4.684   2.588   2.307  1.0181 -0.3565  0.6252
 7938SOL     OW35272   1.943   2.264   4.568 -0.5453 -0.0134 -0.6930
 7938SOL    HW135273   1.994   2.325   4.620 -1.0053 -0.4147  0.2349
 7938SOL    HW235274   1.959   2.307   4.484 -2.3822  1.7965 -0.1104
 7939SOL     OW35275   2.707   3.642   5.402  0.4224 -0.2568 -0.0656
 7939SOL    HW135276   2.728   3.550   5.414  1.8992 -0.1347 -1.6444
 7939SOL    HW235277   2.745   3.660   5.316  0.0745  1.1364  0.0791
 7940SOL     OW35278   3.928   0.792   1.903  0.2070 -0.2971 -0.7420
 7940SOL    HW135279   3.843   0.835   1.894  0.6096  0.3480 -1.4729
 7940SOL    HW235280   3.979   0.873   1.897  2.2700 -1.4737  0.9900
 7941SOL     OW35281   1.495   3.544   9.038 -0.2835  0.0610  0.1066
 7941SOL    HW135282   1.531   3.597   9.109 -2.3495 -2.3585  2.9395
 7941SOL    HW235283   1.402   3.560   9.052 -0.4588  0.9498 -1.9993
 7942SOL     OW35284   1.623   1.469   8.351  0.1482 -0.0421  0.1657
 7942SOL    HW135285   1.550   1.458   8.412  0.3705 -1.7917  0.1123
 7942SOL    HW235286   1.698   1.450   8.408  1.6907  0.6297 -1.6196
 7943SOL     OW35287   2.598   1.534   3.197  0.5714  0.3920  0.9848
 7943SOL    HW135288   2.657   1.465   3.167 -1.1978  1.1987 -4.3258
 7943SOL    HW235289   2.599   1.531   3.293 -0.3178 -1.4735  0.9432
 7944SOL     OW35290   1.407   1.252  10.243  0.8070 -0.3391  0.1656
 7944SOL    HW135291   1.400   1.338  10.203  0.5834  0.2876  1.5592
 7944SOL    HW235292   1.423   1.191  10.171  0.5310  0.1780 -0.3257
 7945SOL     OW35293   1.723   1.811   2.280 -0.4348  0.0977 -0.4056
 7945SOL    HW135294   1.736   1.789   2.372  1.7476  1.6328 -0.3430
 7945SOL    HW235295   1.701   1.725   2.243 -0.3051 -0.4493  0.7906
 7946SOL     OW35296   2.413   1.008   7.584 -0.4425  0.0272  0.0177
 7946SOL    HW135297   2.401   1.103   7.574 -1.0738 -0.3397 -2.6179
 7946SOL    HW235298   2.398   0.985   7.493 -0.6264 -0.1995  0.1064
 7947SOL     OW35299   3.302   1.904   8.035  0.0718 -0.0697  0.1304
 7947SOL    HW135300   3.392   1.882   8.058 -0.2720  0.7363  2.2080
 7947SOL    HW235301   3.250   1.846   8.092 -0.3440  0.0390 -0.1338
 7948SOL     OW35302   0.540   1.800   8.645 -0.3186 -0.7421  0.1585
 7948SOL    HW135303   0.528   1.742   8.569 -0.1259 -1.5285  0.7254
 7948SOL    HW235304   0.553   1.881   8.596  0.6427 -1.3290 -0.5564
 7949SOL     OW35305   0.941   0.134   4.082  0.0499 -0.3003  0.1135
 7949SOL    HW135306   0.990   0.056   4.057  2.3258  1.1024  0.1448
 7949SOL    HW235307   0.926   0.184   4.002  0.9018  1.9014  1.3387
 7950SOL     OW35308   1.128   3.326  14.919  0.0499 -0.2944 -0.0547
 7950SOL    HW135309   1.133   3.288  15.007 -1.0802  1.4274  0.7453
 7950SOL    HW235310   1.138   3.420  14.934 -2.4181 -0.0120 -0.2554
 7951SOL     OW35311   3.031   1.549   2.324  0.4074 -0.0487 -0.1497
 7951SOL    HW135312   3.121   1.559   2.293  0.7253  1.2658  1.1932
 7951SOL    HW235313   3.010   1.458   2.300 -0.1448  0.2201 -0.6839
 7952SOL     OW35314   3.942   0.213  15.498 -0.6783 -0.2354  0.4700
 7952SOL    HW135315   3.906   0.136  15.544  0.2442  0.7688  2.8885
 7952SOL    HW235316   4.000   0.254  15.562  0.8901 -0.4242 -0.8557
 7953SOL     OW35317   1.937   0.056   5.509 -0.7498 -0.3164 -0.3439
 7953SOL    HW135318   1.957   0.110   5.433  0.4145 -1.6262 -0.9727
 7953SOL    HW235319   2.027   0.028   5.528 -1.2851 -1.1634  0.9182
 7954SOL     OW35320   2.722   1.864   2.058 -0.2676  0.4383  0.1910
 7954SOL    HW135321   2.717   1.802   2.131 -0.9241 -1.0844 -1.1361
 7954SOL    HW235322   2.816   1.867   2.040  0.1191 -3.2308  1.7237
 7955SOL     OW35323   4.597   1.779   8.637  0.5581 -0.0058  0.8389
 7955SOL    HW135324   4.617   1.788   8.730 -1.2325 -1.8963  1.3945
 7955SOL    HW235325   4.670   1.830   8.601 -1.0536  0.4339 -1.8956
 7956SOL     OW35326   2.768   0.608  11.313  1.2190  0.3057  0.2901
 7956SOL    HW135327   2.740   0.518  11.292 -1.7573  1.4383 -0.5905
 7956SOL    HW235328   2.861   0.597  11.332  1.7375 -1.4124 -3.0935
 7957SOL     OW35329   2.087   4.382   1.907  0.6118 -0.0587 -0.5997
 7957SOL    HW135330   2.048   4.359   1.992  2.3881 -1.2226 -0.0938
 7957SOL    HW235331   2.031   4.453   1.876 -0.9215 -0.3892  1.4386
 7958SOL     OW35332   3.905   0.427   2.401 -0.2364 -0.3419  0.3696
 7958SOL    HW135333   3.955   0.438   2.320  0.9923  1.0793  1.3382
 7958SOL    HW235334   3.820   0.459   2.370  1.1283  0.2179 -2.8533
 7959SOL     OW35335   1.001   0.851   7.642 -0.0342 -0.0344  0.2073
 7959SOL    HW135336   1.094   0.835   7.625 -0.2156  0.7479 -1.5115
 7959SOL    HW235337   0.978   0.789   7.711  1.9964  0.9295  1.7200
 7960SOL     OW35338   1.820   3.543   3.649  0.0607  0.1116  0.2755
 7960SOL    HW135339   1.827   3.480   3.721 -1.7203  2.5910  2.6097
 7960SOL    HW235340   1.735   3.521   3.611 -1.1445  4.6088  0.4091
 7961SOL     OW35341   0.592   3.646   6.609  0.5303 -0.3900 -0.1886
 7961SOL    HW135342   0.634   3.630   6.693  0.3187  3.2641  0.5909
 7961SOL    HW235343   0.595   3.558   6.570  0.9087 -0.3633 -0.2197
 7962SOL     OW35344   3.087   2.732   5.068  0.4823 -0.2133 -0.4455
 7962SOL    HW135345   3.001   2.716   5.030  0.7683 -1.8905 -0.4165
 7962SOL    HW235346   3.091   2.661   5.132 -1.4145 -0.2648 -0.3948
 7963SOL     OW35347   1.458   1.637   1.437  0.3100 -0.1864 -0.3910
 7963SOL    HW135348   1.546   1.599   1.439  0.7267  0.8399  0.6370
 7963SOL    HW235349   1.454   1.681   1.522 -0.6525 -0.3385 -0.3585
 7964SOL     OW35350   1.832   1.571   2.863 -0.2205 -0.4103  0.3127
 7964SOL    HW135351   1.860   1.617   2.783 -0.6055  2.0270  1.5783
 7964SOL    HW235352   1.918   1.545   2.895  0.0799 -0.0645 -0.2076
 7965SOL     OW35353   0.836   0.618  14.124 -0.2422  0.3202  0.1744
 7965SOL    HW135354   0.812   0.526  14.115  1.6115 -0.2469  1.1445
 7965SOL    HW235355   0.783   0.653  14.195 -2.2689  0.4797 -1.4170
 7966SOL     OW35356   0.101   4.444   5.117  0.7447  0.2346 -0.5705
 7966SOL    HW135357   0.016   4.487   5.109  1.1812  1.1550 -0.2458
 7966SOL    HW235358   0.077   4.358   5.083  0.6906 -0.1544  0.4343
 7967SOL     OW35359   4.341   1.254  13.578 -0.0956  0.0480  0.3284
 7967SOL    HW135360   4.267   1.294  13.533  0.0348  0.7835  0.7804
 7967SOL    HW235361   4.400   1.329  13.579 -0.8692  0.6500  1.4721
 7968SOL     OW35362   1.420   1.490   2.300 -0.0469 -0.3416  0.3758
 7968SOL    HW135363   1.326   1.473   2.304 -0.4565  1.6625 -1.0972
 7968SOL    HW235364   1.417   1.582   2.276 -1.7049 -0.9820 -1.8356
 7969SOL     OW35365   0.501   4.389   9.364 -0.4521 -0.1578  0.2432
 7969SOL    HW135366   0.474   4.472   9.403 -0.6490 -0.1842  0.1656
 7969SOL    HW235367   0.565   4.404   9.295  1.8479 -2.1879  1.9179
 7970SOL     OW35368   4.066   0.567   9.224  0.5410  0.0338 -0.3370
 7970SOL    HW135369   4.127   0.500   9.254 -1.4563 -1.2026  0.9969
 7970SOL    HW235370   4.059   0.536   9.133  0.1423 -1.3332  0.1592
 7971SOL     OW35371   3.479   1.653   0.445 -0.2179 -0.5837 -0.2459
 7971SOL    HW135372   3.420   1.659   0.371  0.0455  0.9060 -0.3327
 7971SOL    HW235373   3.482   1.558   0.458  0.2162 -0.6306 -0.6816
 7972SOL     OW35374   0.293   1.078   9.332  0.6714 -0.0130 -0.1318
 7972SOL    HW135375   0.205   1.042   9.341  0.7567 -1.1332 -3.5495
 7972SOL    HW235376   0.271   1.167   9.306 -2.4672 -0.9310 -0.6521
 7973SOL     OW35377   3.029   1.473   7.317  0.0685 -0.1824 -0.4559
 7973SOL    HW135378   3.049   1.381   7.333 -3.2305 -0.6137  1.1404
 7973SOL    HW235379   3.058   1.523   7.394  0.6136 -0.0308 -0.7604
 7974SOL     OW35380   0.419   1.933   0.765  0.6581 -0.2445  0.0030
 7974SOL    HW135381   0.424   1.990   0.688  0.5506 -3.0352 -2.0516
 7974SOL    HW235382   0.409   1.852   0.716  0.2773  1.1005 -2.1219
 7975SOL     OW35383   0.802   1.374  11.770  0.3190 -0.0803  0.0151
 7975SOL    HW135384   0.884   1.418  11.794  0.8433 -2.0122  1.7517
 7975SOL    HW235385   0.833   1.288  11.798  1.2978  1.0397  2.4512
 7976SOL     OW35386   0.174   2.436   5.229  0.0731 -0.1650  0.2608
 7976SOL    HW135387   0.199   2.379   5.156  0.7470 -1.8096  1.7603
 7976SOL    HW235388   0.167   2.516   5.176  2.3961 -0.0284  0.1630
 7977SOL     OW35389   1.998   4.207  11.987 -0.0677  0.0131 -0.0574
 7977SOL    HW135390   1.970   4.127  11.942  1.0706 -1.4521  1.8152
 7977SOL    HW235391   2.021   4.264  11.914  1.1268 -0.6242 -0.1883
 7978SOL     OW35392   1.754   1.933   1.966 -0.3111 -0.3411 -0.0826
 7978SOL    HW135393   1.658   1.939   1.965 -0.3702 -1.4061 -1.1692
 7978SOL    HW235394   1.770   1.930   2.060  0.4782 -0.0747 -0.2084
 7979SOL     OW35395   2.797   1.793  15.183  0.2507  0.4691 -0.3107
 7979SOL    HW135396   2.842   1.840  15.254  0.4935  1.0832 -0.8723
 7979SOL    HW235397   2.706   1.817  15.201 -0.2295 -1.5069 -0.1053
 7980SOL     OW35398   3.378   3.647  13.895  0.6557  0.2762 -0.1439
 7980SOL    HW135399   3.358   3.726  13.945 -1.5044 -1.2073  1.3795
 7980SOL    HW235400   3.287   3.619  13.882  0.7758  0.7679 -1.9981
 7981SOL     OW35401   0.071   4.550   5.577 -0.0527 -0.6879  0.0860
 7981SOL    HW135402   0.122   4.472   5.553 -0.6759 -0.4818 -1.8608
 7981SOL    HW235403   0.045   4.528   5.667 -0.1480 -2.5379 -0.3978
 7982SOL     OW35404   0.380   4.356   0.762 -0.5957  0.0047  0.3562
 7982SOL    HW135405   0.421   4.427   0.712 -0.9652  1.2503  1.8346
 7982SOL    HW235406   0.377   4.386   0.853  2.1560 -2.2408  1.1855
 7983SOL     OW35407   0.554   0.171   4.406  0.0097  0.5497 -0.0746
 7983SOL    HW135408   0.548   0.082   4.441 -0.1958  0.2686 -0.8099
 7983SOL    HW235409   0.629   0.197   4.459 -0.2862  1.6464 -0.2104
 7984SOL     OW35410   1.888   3.833   6.784 -0.2601  0.2037  0.5222
 7984SOL    HW135411   1.952   3.765   6.801  1.0750  0.7177 -2.4638
 7984SOL    HW235412   1.922   3.851   6.696 -0.5338 -1.6856  0.0367
 7985SOL     OW35413   4.575   4.003   8.827 -0.0413 -0.7825 -0.0389
 7985SOL    HW135414   4.645   4.011   8.762 -0.4441  3.0769  0.0307
 7985SOL    HW235415   4.619   3.957   8.898  0.8352  2.6629  1.6317
 7986SOL     OW35416   1.806   1.119   9.040 -0.3486  0.0218 -0.3131
 7986SOL    HW135417   1.719   1.096   9.009 -0.2281 -3.2515  1.8087
 7986SOL    HW235418   1.860   1.075   8.974  0.4567  1.0662 -0.3604
 7987SOL     OW35419   0.723   2.271  13.547 -0.7503 -0.5245 -0.3177
 7987SOL    HW135420   0.786   2.330  13.506  0.6942 -2.2603 -0.6047
 7987SOL    HW235421   0.665   2.330  13.597 -2.1110  0.1118 -2.6503
 7988SOL     OW35422   4.652   2.365   7.544 -0.3542  0.3027 -0.0668
 7988SOL    HW135423   4.569   2.413   7.537 -1.7525 -2.0055  0.8811
 7988SOL    HW235424   4.685   2.395   7.629 -3.0082 -1.8789  1.7190
 7989SOL     OW35425   1.407   3.997   9.841 -0.3808 -0.3555  0.0731
 7989SOL    HW135426   1.374   3.915   9.877  0.1878  0.5484  2.5926
 7989SOL    HW235427   1.376   4.063   9.903 -0.2658  0.6768 -0.9568
 7990SOL     OW35428   2.793   1.742  16.071 -0.3142 -0.6266  0.2331
 7990SOL    HW135429   2.705   1.782  16.069 -0.1591 -0.3579 -1.2407
 7990SOL    HW235430   2.821   1.763  15.982 -0.7520 -2.4503 -0.3351
 7991SOL     OW35431   3.019   1.072   6.272  0.0881 -0.0980  0.2627
 7991SOL    HW135432   3.056   1.021   6.200  0.6318 -0.0144  0.4873
 7991SOL    HW235433   2.959   1.003   6.301 -0.4424 -0.0500 -0.6916
 7992SOL     OW35434   3.900   2.749  12.143  0.7297  0.3107 -0.2729
 7992SOL    HW135435   3.866   2.826  12.098  0.5771  0.5049  0.1730
 7992SOL    HW235436   3.884   2.682  12.077  1.8896 -1.2920  1.0668
 7993SOL     OW35437   4.255   3.321   5.108 -0.7358 -0.6329 -0.6310
 7993SOL    HW135438   4.244   3.239   5.058 -0.6341 -0.7190 -0.5123
 7993SOL    HW235439   4.234   3.291   5.197  2.6212 -0.0281  0.3560
 7994SOL     OW35440   3.063   0.386  10.123 -0.1960 -0.2625 -0.0346
 7994SOL    HW135441   3.155   0.412  10.129 -0.2172  0.0221 -0.8839
 7994SOL    HW235442   3.040   0.423  10.037 -0.2641  0.5076  0.3196
 7995SOL     OW35443   3.283   3.650   6.619 -0.1695 -0.2957 -0.4769
 7995SOL    HW135444   3.316   3.675   6.705  0.2468  0.6106 -0.8994
 7995SOL    HW235445   3.366   3.630   6.575  0.0048  1.6034 -1.0309
 7996SOL     OW35446   4.007   3.933   2.311 -0.4841 -0.1596  0.0273
 7996SOL    HW135447   3.998   4.026   2.290 -0.2554 -0.4103 -1.2185
 7996SOL    HW235448   4.101   3.926   2.327 -0.1001 -0.5350 -2.3481
 7997SOL     OW35449   0.936   1.044  13.563  0.6849 -0.0568  0.4462
 7997SOL    HW135450   0.964   1.110  13.500  0.3122 -1.7368 -1.5182
 7997SOL    HW235451   0.957   0.966  13.511  1.6504  1.1232 -0.9481
 7998SOL     OW35452   4.110   4.671   8.159  0.1711  0.0795  0.2934
 7998SOL    HW135453   4.131   4.590   8.112  0.1063  0.4724 -0.4247
 7998SOL    HW235454   4.039   4.653   8.220 -0.4891  1.1498 -0.1513
 7999SOL     OW35455   4.399   3.385   3.119 -0.1469  0.2335  0.0812
 7999SOL    HW135456   4.356   3.470   3.132  1.4359  1.2033 -0.9559
 7999SOL    HW235457   4.323   3.328   3.128  0.9303 -1.5941 -2.5072
 8000SOL     OW35458   0.100   1.028   7.588 -0.1901  0.0826  0.8452
 8000SOL    HW135459   0.111   0.933   7.600  0.1157  0.4019  3.0842
 8000SOL    HW235460   0.006   1.029   7.569 -0.2366 -0.5452  1.0399
 8001SOL     OW35461   1.095   4.691   6.315  0.6636  0.0931  0.0322
 8001SOL    HW135462   1.014   4.642   6.331  1.0343 -0.4175  0.3074
 8001SOL    HW235463   1.072   4.721   6.227  0.6604  1.3949  0.4650
 8002SOL     OW35464   1.736   4.111  14.741 -0.3543 -0.4062 -0.4842
 8002SOL    HW135465   1.675   4.078  14.807  0.0062 -0.4663 -0.1827
 8002SOL    HW235466   1.800   4.154  14.797  0.3882 -1.2324 -0.6858
 8003SOL     OW35467   3.661   3.515   3.592 -0.2760  0.1432 -0.1226
 8003SOL    HW135468   3.607   3.477   3.661  0.6266 -0.1786  0.4043
 8003SOL    HW235469   3.605   3.499   3.516 -1.4044  0.7782  0.5646
 8004SOL     OW35470   3.039   3.024  16.140 -0.3419  0.1135  0.1059
 8004SOL    HW135471   3.054   3.118  16.143 -2.9596  0.5631 -1.6470
 8004SOL    HW235472   2.998   3.018  16.054 -0.4822  2.8127 -0.0107
 8005SOL     OW35473   1.208   2.634   6.672  0.8556  0.2093 -0.0515
 8005SOL    HW135474   1.274   2.680   6.723 -0.8381  3.3104 -0.6974
 8005SOL    HW235475   1.186   2.564   6.733 -1.9126 -0.4497 -1.8118
 8006SOL     OW35476   4.183   1.583  14.571 -0.0735  0.0073 -0.5836
 8006SOL    HW135477   4.244   1.511  14.588 -1.0725 -0.5610  0.5943
 8006SOL    HW235478   4.100   1.536  14.564 -0.7724  1.2613 -0.6220
 8007SOL     OW35479   2.745   2.550   2.721  0.0460  0.1669  0.1820
 8007SOL    HW135480   2.780   2.461   2.719  0.1559  0.1750  1.3847
 8007SOL    HW235481   2.695   2.540   2.802  1.8403  0.3663  1.3089
 8008SOL     OW35482   4.327   2.272   2.977 -0.3903 -0.0378  0.1704
 8008SOL    HW135483   4.421   2.262   2.963 -0.3015  0.4098  0.4514
 8008SOL    HW235484   4.327   2.356   3.022  0.8704  0.9642 -1.7197
 8009SOL     OW35485   3.809   0.555   8.185 -0.0026  0.1131 -0.0484
 8009SOL    HW135486   3.889   0.508   8.161 -0.8590 -2.4634  2.0992
 8009SOL    HW235487   3.770   0.501   8.254 -0.3975 -3.7045 -3.2280
 8010SOL     OW35488   0.969   1.745   3.050  0.0015  0.2109  0.3030
 8010SOL    HW135489   1.036   1.755   3.117 -1.5374  0.7427  1.7493
 8010SOL    HW235490   0.906   1.806   3.089 -0.9456 -0.4008 -0.2425
 8011SOL     OW35491   0.279   4.364   2.790  0.2921  0.3612  0.2898
 8011SOL    HW135492   0.290   4.450   2.750 -1.2873  1.0362  1.3284
 8011SOL    HW235493   0.209   4.320   2.742  0.7043 -1.8895  1.7488
 8012SOL     OW35494   3.601   0.124   3.766  0.4388 -0.0536  0.0890
 8012SOL    HW135495   3.664   0.084   3.707 -0.0290 -1.4955  0.5579
 8012SOL    HW235496   3.537   0.053   3.764 -1.2986  1.5190 -1.2823
 8013SOL     OW35497   4.299   0.987  16.811  0.0411  0.2562 -0.0287
 8013SOL    HW135498   4.268   0.899  16.789  1.6543 -0.5611  1.0309
 8013SOL    HW235499   4.255   1.049  16.753  1.3489  2.5553  1.4627
 8014SOL     OW35500   3.508   0.156   6.837  0.2685  0.1715 -0.2066
 8014SOL    HW135501   3.561   0.193   6.908 -1.8621  1.8452  0.5351
 8014SOL    HW235502   3.573   0.154   6.766  0.9133  2.1694  0.3206
 8015SOL     OW35503   1.692   2.566   5.294  0.1374 -0.3445  0.2658
 8015SOL    HW135504   1.661   2.625   5.363  0.0927 -0.4726  0.3565
 8015SOL    HW235505   1.610   2.555   5.247  0.6232 -1.4382 -0.3269
 8016SOL     OW35506   1.754   4.516   2.600  0.6102 -0.2312  0.3542
 8016SOL    HW135507   1.711   4.552   2.522  1.7926 -1.1509 -0.7280
 8016SOL    HW235508   1.693   4.552   2.665  1.7138 -0.8870  1.7541
 8017SOL     OW35509   2.735   1.209   8.180 -0.0938 -0.1529 -0.1757
 8017SOL    HW135510   2.745   1.288   8.126 -1.9922 -0.3749 -0.8487
 8017SOL    HW235511   2.642   1.189   8.169 -0.4256  2.2198 -1.7520
 8018SOL     OW35512   4.188   4.539  15.465  0.6000 -0.8094  0.3467
 8018SOL    HW135513   4.268   4.543  15.413  0.1350  0.9334 -0.2172
 8018SOL    HW235514   4.214   4.593  15.540 -0.3125  0.9590 -0.6165
 8019SOL     OW35515   0.987   2.636   2.618  0.3368  0.4841  0.0040
 8019SOL    HW135516   0.968   2.558   2.565  3.7160  0.5518 -1.2763
 8019SOL    HW235517   0.985   2.603   2.708  1.0095  0.9573  0.1866
 8020SOL     OW35518   0.413   0.656  11.047  0.7173 -0.3905 -0.7651
 8020SOL    HW135519   0.425   0.661  10.952  2.0042  0.0827 -0.5845
 8020SOL    HW235520   0.483   0.715  11.075  0.4279  1.0995 -3.1749
 8021SOL     OW35521   3.851   0.111   6.305 -0.0642  0.0480 -0.3274
 8021SOL    HW135522   3.861   0.037   6.365 -0.5673 -0.2098 -0.5584
 8021SOL    HW235523   3.905   0.091   6.229 -0.8818  0.8919 -1.1250
 8022SOL     OW35524   1.127   3.932   8.764 -0.5880 -0.9486  0.4018
 8022SOL    HW135525   1.091   3.910   8.850 -0.5172  1.6540  1.1171
 8022SOL    HW235526   1.108   3.858   8.707 -4.1468  0.1444  0.1673
 8023SOL     OW35527   2.665   4.267   2.621  0.0936 -0.2736  0.5909
 8023SOL    HW135528   2.597   4.272   2.554 -1.8763  1.3653  2.7135
 8023SOL    HW235529   2.613   4.283   2.699 -0.5737  0.4902 -0.0210
 8024SOL     OW35530   1.710   0.208   3.493 -0.5495  0.0625 -0.0964
 8024SOL    HW135531   1.730   0.270   3.423  1.1923  2.1765  2.2539
 8024SOL    HW235532   1.627   0.236   3.531  1.0141 -0.4058  3.6591
 8025SOL     OW35533   3.334   1.382   8.046 -0.2240 -1.0967  0.2116
 8025SOL    HW135534   3.425   1.411   8.055 -0.3173 -0.5134 -0.7442
 8025SOL    HW235535   3.353   1.294   8.012 -0.2324 -1.2991  0.7315
 8026SOL     OW35536   3.345   3.300   8.102  0.1372 -0.2474 -0.6536
 8026SOL    HW135537   3.436   3.272   8.092  0.1804 -0.8794  1.5374
 8026SOL    HW235538   3.327   3.254   8.184 -0.6282  2.2705  0.5639
 8027SOL     OW35539   1.505   2.615   7.344  0.2679 -0.6171  0.1266
 8027SOL    HW135540   1.596   2.585   7.339  1.2146  2.4267 -0.9764
 8027SOL    HW235541   1.483   2.560   7.419  1.2969 -0.3656  0.6136
 8028SOL     OW35542   4.678   3.785   9.131 -0.5493 -0.1280  0.5123
 8028SOL    HW135543   4.672   3.742   9.046 -2.3109  2.2337 -0.5299
 8028SOL    HW235544   4.604   3.738   9.170 -2.5161  0.2363 -2.8186
 8029SOL     OW35545   2.013   0.188  12.352  0.0369  0.3011 -0.2859
 8029SOL    HW135546   1.999   0.283  12.351  0.0826  0.3206  1.3207
 8029SOL    HW235547   1.938   0.150  12.307 -1.2199  2.2531  0.1841
 8030SOL     OW35548   3.588   1.117   9.044  0.2191 -0.1071  0.1129
 8030SOL    HW135549   3.515   1.070   9.003  1.4252 -0.3558 -1.7351
 8030SOL    HW235550   3.639   1.121   8.963 -0.9008 -1.1483 -0.6556
 8031SOL     OW35551   3.818   3.901   4.532 -0.2334  0.1838  0.2348
 8031SOL    HW135552   3.908   3.925   4.511 -0.1403 -0.3496  0.0099
 8031SOL    HW235553   3.801   3.940   4.617  1.9890 -2.0280  1.6696
 8032SOL     OW35554   1.864   4.649   9.943 -0.0916  0.0473  0.4996
 8032SOL    HW135555   1.897   0.013   9.920 -0.0846 -0.2010 -0.4323
 8032SOL    HW235556   1.827   4.613   9.862  1.5668  1.0397 -0.7162
 8033SOL     OW35557   2.689   1.074   3.028 -0.5316 -0.3841 -0.5716
 8033SOL    HW135558   2.636   1.008   3.073 -2.6787 -0.0505 -2.5985
 8033SOL    HW235559   2.720   1.016   2.958  0.0925 -2.0035  1.0551
 8034SOL     OW35560   0.681   0.458   3.633 -0.6171  0.6589 -0.3539
 8034SOL    HW135561   0.775   0.442   3.626 -0.8432 -0.7104 -0.3212
 8034SOL    HW235562   0.651   0.374   3.668  1.6191 -0.1001 -0.2453
 8035SOL     OW35563   3.685   4.309   6.195  0.7461 -0.1789  0.4194
 8035SOL    HW135564   3.711   4.367   6.123  4.1613 -1.2798  0.7761
 8035SOL    HW235565   3.677   4.231   6.140 -0.8389 -0.1797  0.6490
 8036SOL     OW35566   2.856   0.110   5.157  0.7516  0.1327  0.0960
 8036SOL    HW135567   2.837   0.084   5.067  0.1995 -0.2074  0.3128
 8036SOL    HW235568   2.937   0.160   5.153  1.4125 -1.1056 -2.4696
 8037SOL     OW35569   2.548   4.500   8.850 -0.4810 -0.2318 -0.0776
 8037SOL    HW135570   2.454   4.490   8.863 -0.9373  1.4874 -1.9982
 8037SOL    HW235571   2.549   4.463   8.761 -0.3717  0.9929 -0.5918
 8038SOL     OW35572   2.400   3.943   9.788  0.5566  0.2435  0.1401
 8038SOL    HW135573   2.336   3.961   9.720 -0.7004  1.5474  1.6702
 8038SOL    HW235574   2.388   4.019   9.845 -1.5355  0.0707 -0.0614
 8039SOL     OW35575   1.661   1.003   7.288 -0.0413  0.2202  0.6176
 8039SOL    HW135576   1.714   0.961   7.356 -1.8231 -0.8954  1.3237
 8039SOL    HW235577   1.631   1.080   7.337 -1.7135  1.3264 -2.1629
 8040SOL     OW35578   1.966   2.195   1.590 -0.0733  0.4293  0.1451
 8040SOL    HW135579   1.948   2.114   1.638 -2.8635  2.3098  2.2502
 8040SOL    HW235580   1.966   2.255   1.665 -1.0102 -0.8178  1.1359
 8041SOL     OW35581   0.525   2.076   8.562  0.3038  0.1955  0.2390
 8041SOL    HW135582   0.603   2.102   8.513  0.2340  1.6780  0.9198
 8041SOL    HW235583   0.572   2.071   8.644  0.0626 -0.8957  0.3109
 8042SOL     OW35584   4.517   1.520   6.959 -0.2279  0.0001 -0.0283
 8042SOL    HW135585   4.495   1.511   7.052 -1.4639  0.4502 -0.2827
 8042SOL    HW235586   4.435   1.493   6.918 -0.7537  0.5030  0.7034
 8043SOL     OW35587   2.371   1.717  10.024  0.1537 -0.2060  0.3421
 8043SOL    HW135588   2.282   1.725   9.991  0.8147 -0.1382 -1.3940
 8043SOL    HW235589   2.356   1.734  10.117  1.1551 -1.2126  0.6838
 8044SOL     OW35590   4.129   0.377   6.474 -0.5123  0.1862  0.0127
 8044SOL    HW135591   4.126   0.472   6.461 -0.2188  0.3093  0.8193
 8044SOL    HW235592   4.186   0.364   6.550  0.7927 -0.2007 -1.0364
 8045SOL     OW35593   2.508   4.000   7.320 -0.2998 -0.5248  0.0139
 8045SOL    HW135594   2.444   3.993   7.391 -0.0248  0.0118  0.3171
 8045SOL    HW235595   2.461   3.980   7.239  0.3049  3.2686 -1.2755
 8046SOL     OW35596   0.124   1.637  15.857 -0.6773  0.0742 -0.5973
 8046SOL    HW135597   0.076   1.578  15.800 -0.9446 -2.1898  1.9975
 8046SOL    HW235598   0.060   1.693  15.901 -0.1017  0.5891 -0.4137
 8047SOL     OW35599   1.058   0.181   3.583 -0.2969  0.4175 -0.4614
 8047SOL    HW135600   0.962   0.182   3.588 -0.2735 -0.9442  0.3595
 8047SOL    HW235601   1.069   0.137   3.499 -0.4595 -2.1519  0.8603
 8048SOL     OW35602   4.718   3.178   1.162 -0.0714 -0.6242 -0.1680
 8048SOL    HW135603   4.644   3.237   1.180  0.2604 -0.9756  2.4152
 8048SOL    HW235604   4.687   3.093   1.194  1.7944  0.4881  4.5503
 8049SOL     OW35605   1.347   2.191  16.200 -0.5150  0.3154 -0.6479
 8049SOL    HW135606   1.272   2.216  16.255  0.0558  0.3698  0.1105
 8049SOL    HW235607   1.416   2.205  16.265 -0.8297  0.3205 -0.3112
 8050SOL     OW35608   0.404   3.052   5.284 -0.3700 -0.0024  0.1737
 8050SOL    HW135609   0.343   3.029   5.353 -0.6035  0.8987  0.2744
 8050SOL    HW235610   0.414   2.972   5.233 -1.9949 -0.3450  0.4039
 8051SOL     OW35611   2.597   2.023   4.957 -0.2721  0.3121  0.4282
 8051SOL    HW135612   2.528   2.024   4.891 -0.6226 -1.3657  0.7739
 8051SOL    HW235613   2.561   2.098   5.006  0.2602  0.1106  1.1354
 8052SOL     OW35614   0.685   4.202  16.449 -0.3500  0.5609 -0.2117
 8052SOL    HW135615   0.747   4.176  16.381 -0.4566 -0.2116 -0.0123
 8052SOL    HW235616   0.699   4.148  16.526  1.7995  1.1629 -0.1882
 8053SOL     OW35617   3.237   0.292   1.660 -0.0584  0.4555 -0.1629
 8053SOL    HW135618   3.176   0.319   1.591 -1.4973  2.0018  1.7444
 8053SOL    HW235619   3.317   0.304   1.608  0.0699 -1.6354 -0.4448
 8054SOL     OW35620   0.326   1.364   4.747  0.0083 -0.0630 -1.1928
 8054SOL    HW135621   0.380   1.415   4.808  0.4504 -1.5557 -0.3492
 8054SOL    HW235622   0.306   1.422   4.674  2.2526 -0.1466 -1.8479
 8055SOL     OW35623   1.778   0.043   7.193  0.6235 -0.2162 -0.2259
 8055SOL    HW135624   1.858   0.064   7.146  2.1816 -3.1415  1.1228
 8055SOL    HW235625   1.717   0.084   7.132  2.1930 -1.0066 -2.3037
 8056SOL     OW35626   2.048   0.459   9.165  0.0731  0.6956 -0.5933
 8056SOL    HW135627   2.000   0.378   9.144  1.3572  0.6305 -3.3035
 8056SOL    HW235628   2.067   0.443   9.257 -2.8022  1.8744  0.1977
 8057SOL     OW35629   3.918   2.525   4.655  0.5061  0.0337 -0.1883
 8057SOL    HW135630   3.993   2.576   4.625  0.1225 -0.5383 -2.1178
 8057SOL    HW235631   3.912   2.550   4.747 -1.0763  0.4531 -0.4089
 8058SOL     OW35632   4.505   3.036  14.169 -0.4278  0.2000 -0.1275
 8058SOL    HW135633   4.464   2.950  14.183  2.5122 -1.3586 -1.0553
 8058SOL    HW235634   4.589   3.008  14.133  0.1987  2.4806 -0.3723
 8059SOL     OW35635   0.566   4.227  14.963 -0.8843  0.3854  0.5259
 8059SOL    HW135636   0.602   4.293  15.021 -0.5828  0.6381  0.0543
 8059SOL    HW235637   0.649   4.178  14.968 -0.1883  1.4939 -0.1680
 8060SOL     OW35638   3.322   2.924   7.970  0.3992 -0.0715 -0.1028
 8060SOL    HW135639   3.304   2.831   7.954 -0.3239 -0.0406  0.5126
 8060SOL    HW235640   3.273   2.970   7.902 -1.1460 -1.1555  0.2738
 8061SOL     OW35641   1.578   3.587   5.391  0.4503  0.1458  0.0890
 8061SOL    HW135642   1.568   3.682   5.394  2.6349  0.3363  1.3934
 8061SOL    HW235643   1.670   3.572   5.413  0.7678  0.2594 -1.1549
 8062SOL     OW35644   3.594   3.039   8.603  0.3885 -0.0311  0.4221
 8062SOL    HW135645   3.591   3.125   8.562  1.6487 -1.1018 -1.9243
 8062SOL    HW235646   3.504   3.032   8.637  0.4802 -2.3004  0.1910
 8063SOL     OW35647   2.251   0.013   6.669  0.2224 -0.1379  0.1456
 8063SOL    HW135648   2.334   4.713   6.710 -1.2010 -2.0595  1.9269
 8063SOL    HW235649   2.195   4.693   6.733 -1.2956  1.8698  0.2079
 8064SOL     OW35650   0.096   4.393  11.293  0.2128 -0.1374  0.0129
 8064SOL    HW135651   0.181   4.410  11.335  1.1824 -1.1448 -1.5136
 8064SOL    HW235652   0.057   4.478  11.315 -0.7775 -0.3132 -1.0789
 8065SOL     OW35653   3.616   3.551   0.367 -0.1008  0.3519 -0.2243
 8065SOL    HW135654   3.544   3.521   0.421  0.5414 -0.0482  0.4131
 8065SOL    HW235655   3.573   3.633   0.343 -0.8846  0.1280  0.4350
 8066SOL     OW35656   3.259   0.941   0.159 -0.1712 -0.1448 -0.4713
 8066SOL    HW135657   3.278   0.879   0.230 -0.7249 -1.0563 -1.1158
 8066SOL    HW235658   3.166   0.954   0.179 -0.7263 -0.1548 -3.1047
 8067SOL     OW35659   2.793   3.780   8.762  0.5724 -0.2377  0.1882
 8067SOL    HW135660   2.779   3.859   8.709  1.3476 -0.6862 -0.6732
 8067SOL    HW235661   2.711   3.782   8.812  1.0071  0.4141  0.8700
 8068SOL     OW35662   0.071   4.175   3.403 -0.3162  0.1346 -0.1219
 8068SOL    HW135663   0.084   4.221   3.320 -1.9788 -0.0583 -0.4828
 8068SOL    HW235664   0.058   4.086   3.368 -3.0279  0.8414 -0.9233
 8069SOL     OW35665   1.244   2.275  17.140  0.4342  0.1748  0.5477
 8069SOL    HW135666   1.276   2.285  17.229  1.2845  1.3259  0.1005
 8069SOL    HW235667   1.283   2.190  17.116 -0.9843 -0.2228 -0.3754
 8070SOL     OW35668   3.562   4.445   4.217  0.5342  0.0032  0.0883
 8070SOL    HW135669   3.562   4.419   4.309 -1.2927 -0.9472 -0.1857
 8070SOL    HW235670   3.580   4.355   4.190  1.8446  0.4110 -0.4023
 8071SOL     OW35671   2.669   1.058   5.833 -0.1319  0.0697  0.1017
 8071SOL    HW135672   2.651   1.085   5.923  1.4021 -1.1029  0.7722
 8071SOL    HW235673   2.764   1.048   5.847 -0.0681 -0.9098 -1.1033
 8072SOL     OW35674   0.767   1.873   3.165 -0.1230  0.2225 -0.2433
 8072SOL    HW135675   0.768   1.957   3.210  1.1022 -1.1673  2.2972
 8072SOL    HW235676   0.693   1.884   3.105 -1.3533  0.8005  1.3727
 8073SOL     OW35677   4.358   0.625   1.824 -0.1324 -0.0641 -0.1726
 8073SOL    HW135678   4.308   0.547   1.847 -2.2738  0.7306 -2.1445
 8073SOL    HW235679   4.446   0.596   1.846 -1.6426 -3.3124  1.5796
 8074SOL     OW35680   1.789   2.040  17.462  0.0919  0.4378 -0.6464
 8074SOL    HW135681   1.703   2.081  17.474 -1.6072 -3.4992  0.6768
 8074SOL    HW235682   1.855   2.093  17.507  1.9209 -2.6957  0.3182
 8075SOL     OW35683   2.679   2.662   7.464  0.1640  0.0663  0.7755
 8075SOL    HW135684   2.742   2.682   7.395 -0.0158  0.4983  0.7357
 8075SOL    HW235685   2.736   2.651   7.540 -2.1156  1.6624  2.7285
 8076SOL     OW35686   3.109   4.457   7.018  0.5552  0.1241  0.2519
 8076SOL    HW135687   3.092   4.544   6.980  1.6681 -0.0468 -0.6156
 8076SOL    HW235688   3.018   4.427   7.021  0.6891 -0.2696  0.3407
 8077SOL     OW35689   1.163   0.164   2.988  0.2209 -0.2327  0.4919
 8077SOL    HW135690   1.171   0.155   2.893 -1.7061 -2.8274  0.5972
 8077SOL    HW235691   1.083   0.117   3.012  0.4129 -0.1456  1.2710
 8078SOL     OW35692   1.139   1.418   5.451  0.1486  0.3150 -0.2320
 8078SOL    HW135693   1.065   1.396   5.508 -0.9945  0.3753 -1.6763
 8078SOL    HW235694   1.143   1.342   5.393  0.7936 -0.0286  0.2647
 8079SOL     OW35695   1.820   1.526   2.542 -0.4677 -0.0734  0.2720
 8079SOL    HW135696   1.792   1.473   2.468  0.6985 -0.0257 -0.1969
 8079SOL    HW235697   1.791   1.466   2.611 -1.3601 -0.9187 -0.8441
 8080SOL     OW35698   0.940   2.674   2.917 -0.1385  0.1590  0.7246
 8080SOL    HW135699   0.993   2.596   2.933 -0.6562 -0.0583  1.3842
 8080SOL    HW235700   0.900   2.686   3.004  1.4187 -2.6390  1.8457
 8081SOL     OW35701   0.415   2.435   3.845 -0.1769  0.3760 -0.0039
 8081SOL    HW135702   0.402   2.513   3.899 -1.0670  0.6167 -0.5693
 8081SOL    HW235703   0.337   2.443   3.790  1.0294  1.8637 -1.5127
 8082SOL     OW35704   0.328   3.789   6.924 -0.3880 -0.2908 -0.2326
 8082SOL    HW135705   0.265   3.861   6.925  0.0521  0.0669  1.6045
 8082SOL    HW235706   0.392   3.813   6.857  1.3120  0.9485  1.8168
 8083SOL     OW35707   0.049   4.245  11.073  0.0541 -0.5357  0.0141
 8083SOL    HW135708   0.040   4.308  11.001 -1.9831 -0.9394 -0.0938
 8083SOL    HW235709   0.070   4.303  11.145  0.5066  1.8060 -1.9884
 8084SOL     OW35710   3.311   0.759  15.138 -0.2098  0.0280 -0.3357
 8084SOL    HW135711   3.293   0.840  15.185 -0.6754 -0.5743  0.5054
 8084SOL    HW235712   3.372   0.722  15.201  0.0146  0.3148 -0.3801
 8085SOL     OW35713   3.179   4.060  12.300  0.0270 -0.5127  0.5665
 8085SOL    HW135714   3.222   3.981  12.332 -2.7097 -2.4087 -0.4730
 8085SOL    HW235715   3.158   4.092  12.388 -1.5138 -1.2523  0.4710
 8086SOL     OW35716   0.611   4.415   3.587 -0.3560 -0.1332  0.2955
 8086SOL    HW135717   0.664   4.337   3.605  1.9222  1.0313 -1.3769
 8086SOL    HW235718   0.535   4.381   3.541 -0.1332 -2.8208  1.9010
 8087SOL     OW35719   2.756   1.660   2.228 -0.0226 -0.3045 -0.1546
 8087SOL    HW135720   2.776   1.594   2.295  1.0573  1.2710  1.0454
 8087SOL    HW235721   2.806   1.627   2.153  0.6970  0.4041  0.0212
 8088SOL     OW35722   0.349   3.214   6.847 -0.3273  0.0390 -0.5282
 8088SOL    HW135723   0.397   3.184   6.924  0.4810  1.3797 -0.5081
 8088SOL    HW235724   0.358   3.309   6.856  2.7928 -0.3154  0.0667
 8089SOL     OW35725   2.274   2.895   2.893  0.1750 -0.5579  0.0295
 8089SOL    HW135726   2.241   2.870   2.807 -0.7885  1.2787 -0.1184
 8089SOL    HW235727   2.220   2.972   2.910 -0.1542 -1.3443  2.5711
 8090SOL     OW35728   1.150   3.896   4.475  0.0683  0.1198  0.1529
 8090SOL    HW135729   1.125   3.925   4.563  2.7820  0.1091  0.9317
 8090SOL    HW235730   1.112   3.809   4.486  0.8083 -0.0017  1.8580
 8091SOL     OW35731   1.967   3.819  11.190 -0.0749 -0.2767 -0.1648
 8091SOL    HW135732   2.032   3.811  11.120  1.2492  1.4174  0.8497
 8091SOL    HW235733   1.929   3.905  11.169 -0.6313  0.1441  2.5704
 8092SOL     OW35734   3.563   1.582   8.020  0.0514 -0.3034 -0.3616
 8092SOL    HW135735   3.570   1.677   8.014 -1.8061 -0.2133 -1.0917
 8092SOL    HW235736   3.591   1.554   7.933  0.2074  1.8192 -0.9841
 8093SOL     OW35737   4.391   4.352   7.783 -0.2675  0.0798 -0.1009
 8093SOL    HW135738   4.463   4.299   7.750 -1.4188 -0.7986 -1.2049
 8093SOL    HW235739   4.423   4.362   7.873 -0.0327  0.7180 -0.2495
 8094SOL     OW35740   2.334   0.904   3.058  0.4404 -0.0584  0.4333
 8094SOL    HW135741   2.370   0.849   2.989  1.4243  0.3677  0.6068
 8094SOL    HW235742   2.289   0.840   3.115 -1.7959 -0.4895 -1.8293
 8095SOL     OW35743   2.527   4.150   4.721 -0.0545  0.1872  0.1580
 8095SOL    HW135744   2.591   4.134   4.652 -1.4353 -0.3065 -1.0140
 8095SOL    HW235745   2.561   4.229   4.762  2.6223 -0.8446 -0.0811
 8096SOL     OW35746   0.612   0.867  15.114 -0.1032 -0.5258 -0.4387
 8096SOL    HW135747   0.540   0.804  15.120  0.4856 -0.8945  2.4399
 8096SOL    HW235748   0.562   0.949  15.111  0.6711  0.0187  2.0755
 8097SOL     OW35749   2.777   2.015   5.689 -0.2257 -0.2463  0.1073
 8097SOL    HW135750   2.752   1.995   5.598  0.8325 -0.1278 -0.2037
 8097SOL    HW235751   2.716   2.084   5.712 -1.3067 -1.0178 -0.4318
 8098SOL     OW35752   4.228   3.220   7.777  0.0082 -0.2324 -0.0714
 8098SOL    HW135753   4.317   3.182   7.778 -0.2142 -0.7653 -0.2794
 8098SOL    HW235754   4.233   3.312   7.801 -0.0018  0.2521 -1.9123
 8099SOL     OW35755   3.259   2.361   2.958 -0.7864 -0.1212  0.0060
 8099SOL    HW135756   3.335   2.404   2.920 -0.4640 -0.9372 -0.2751
 8099SOL    HW235757   3.195   2.367   2.887 -1.9423  0.2242  1.0729
 8100SOL     OW35758   0.378   3.360   2.626 -0.0315 -0.6016 -0.2915
 8100SOL    HW135759   0.283   3.348   2.630 -0.0705 -1.0047 -2.3797
 8100SOL    HW235760   0.396   3.354   2.532 -0.7988 -0.2052 -0.4624
 8101SOL     OW35761   1.732   1.241  14.501  0.0200  0.1343  0.0237
 8101SOL    HW135762   1.695   1.225  14.588  1.8272 -0.0616  0.7734
 8101SOL    HW235763   1.744   1.336  14.498  1.6992 -0.1623 -2.5412
 8102SOL     OW35764   1.912   2.592   4.252 -0.3888  0.0308 -0.2059
 8102SOL    HW135765   1.892   2.678   4.215 -0.0597 -0.6046 -1.8553
 8102SOL    HW235766   1.858   2.595   4.330 -3.2948  3.1624 -2.3407
 8103SOL     OW35767   3.017   0.393   9.104 -0.0873 -0.6093 -0.4793
 8103SOL    HW135768   2.958   0.320   9.122 -0.0451 -0.3992  0.4880
 8103SOL    HW235769   2.951   0.446   9.060 -0.2406 -0.3184  0.0994
 8104SOL     OW35770   4.626   2.156   9.963  0.7054 -0.6044  0.2488
 8104SOL    HW135771   4.681   2.196  10.030 -1.0499 -1.7547  2.3577
 8104SOL    HW235772   4.671   2.180   9.883  0.0897  3.7556  1.2302
 8105SOL     OW35773   0.111   3.171   2.282  0.0370  0.5529  0.2944
 8105SOL    HW135774   0.120   3.242   2.346  0.8153 -0.6552  1.5465
 8105SOL    HW235775   0.038   3.193   2.225  1.7304  3.3833 -0.7830
 8106SOL     OW35776   1.382   3.322  16.057  0.1669 -0.3637  0.6678
 8106SOL    HW135777   1.455   3.299  16.001 -0.6293  1.0040 -0.9547
 8106SOL    HW235778   1.420   3.371  16.130  0.5020  0.5189 -0.0977
 8107SOL     OW35779   1.124   0.108  13.688  0.3390  0.2339  0.9323
 8107SOL    HW135780   1.096   0.177  13.749  0.4822 -0.0453  1.3152
 8107SOL    HW235781   1.071   0.041  13.731 -1.2277  0.5890 -0.4695
 8108SOL     OW35782   2.224   3.638  15.944  0.5945  0.3265  0.0318
 8108SOL    HW135783   2.205   3.637  16.038  0.8418  1.6707  0.0927
 8108SOL    HW235784   2.287   3.567  15.926 -1.3557 -1.8038  1.5396
 8109SOL     OW35785   0.101   3.786   2.526  0.2631 -0.2907  0.1972
 8109SOL    HW135786   0.028   3.731   2.556 -0.6367  1.0068  0.4001
 8109SOL    HW235787   0.073   3.786   2.435 -1.2730  0.7561  0.6618
 8110SOL     OW35788   0.890   1.751  10.110 -0.8162 -0.4513 -0.1073
 8110SOL    HW135789   0.832   1.727  10.038 -1.2238  1.6607 -0.4681
 8110SOL    HW235790   0.925   1.668  10.144  2.8506  0.0983 -2.5445
 8111SOL     OW35791   2.005   2.355   3.978  0.2075 -0.7855 -0.1307
 8111SOL    HW135792   2.096   2.379   3.961  0.0853  0.9196  1.5720
 8111SOL    HW235793   1.997   2.260   3.976 -0.8629 -0.6833 -0.8141
 8112SOL     OW35794   2.488   1.327   1.163 -0.0404 -0.1028 -0.0642
 8112SOL    HW135795   2.527   1.312   1.249 -1.6750  1.3826  0.9485
 8112SOL    HW235796   2.555   1.284   1.109 -1.7764  0.2943 -2.5694
 8113SOL     OW35797   3.902   2.500   8.579 -0.0088 -0.3075 -0.0268
 8113SOL    HW135798   3.916   2.550   8.498 -2.1009 -0.9749 -0.7750
 8113SOL    HW235799   3.851   2.567   8.625 -0.6129 -1.2532  0.6666
 8114SOL     OW35800   0.771   3.052   2.179  0.3501 -0.5940 -0.3491
 8114SOL    HW135801   0.799   3.071   2.090  0.7834  2.1834  0.3835
 8114SOL    HW235802   0.857   3.020   2.208  0.7693  0.7679 -0.0824
 8115SOL     OW35803   2.083   3.285  10.585  0.5458  0.2032  0.5392
 8115SOL    HW135804   1.988   3.271  10.587  0.6453 -0.4011  1.0217
 8115SOL    HW235805   2.086   3.363  10.640  0.6664 -0.1332  1.0061
 8116SOL     OW35806   1.559   2.956  10.923  0.3279 -0.1164 -0.1332
 8116SOL    HW135807   1.553   2.861  10.910 -1.1472 -0.3584  2.3271
 8116SOL    HW235808   1.525   2.977  10.837 -3.8070 -0.5646  1.3930
 8117SOL     OW35809   4.473   0.012   7.310  0.0595  0.3162 -0.5109
 8117SOL    HW135810   4.464   0.032   7.217  1.9226  0.1280 -0.7251
 8117SOL    HW235811   4.545   0.069   7.336  1.4356 -0.3941 -2.8021
 8118SOL     OW35812   4.453   4.574   7.985 -0.1855  0.5685 -0.0509
 8118SOL    HW135813   4.430   4.652   7.934  0.0905 -0.1732 -1.3126
 8118SOL    HW235814   4.484   4.608   8.069 -0.3133  2.4332 -0.7716
 8119SOL     OW35815   0.413   2.206   3.613  0.2196  0.1304 -0.1713
 8119SOL    HW135816   0.479   2.236   3.550 -1.4123 -1.2777 -2.5767
 8119SOL    HW235817   0.412   2.275   3.679 -1.9685  0.7741 -0.8992
 8120SOL     OW35818   3.737   3.084   6.801  0.2544  0.1208 -0.8901
 8120SOL    HW135819   3.656   3.125   6.772 -0.4531  0.6805  1.8908
 8120SOL    HW235820   3.743   3.002   6.751  0.8617 -0.7628  0.6587
 8121SOL     OW35821   0.600   2.230   6.314 -0.0870 -0.0535 -0.0139
 8121SOL    HW135822   0.624   2.226   6.222 -0.3427  1.4844 -0.1538
 8121SOL    HW235823   0.685   2.260   6.346  0.1013 -1.2612  0.6307
 8122SOL     OW35824   1.262   0.650   3.478 -0.3820 -0.4425 -0.0079
 8122SOL    HW135825   1.253   0.660   3.384 -2.9790 -0.4890  0.2361
 8122SOL    HW235826   1.228   0.561   3.482 -0.2327 -0.5052 -0.1463
 8123SOL     OW35827   3.379   4.579   4.064 -0.4415 -0.0595 -0.4655
 8123SOL    HW135828   3.328   4.498   4.059  1.6166 -1.3747  0.0949
 8123SOL    HW235829   3.441   4.553   4.132 -1.0974  0.5168  0.3560
 8124SOL     OW35830   1.950   2.109   3.966  0.0393  0.6974 -1.1585
 8124SOL    HW135831   1.866   2.144   3.935 -0.8915 -0.1316  0.4712
 8124SOL    HW235832   2.000   2.094   3.886  1.8142 -2.1375  0.4964
 8125SOL     OW35833   3.954   3.042   8.619 -0.1878  0.5234  0.5760
 8125SOL    HW135834   3.888   2.992   8.572 -1.8114  1.9920  1.2672
 8125SOL    HW235835   4.022   2.976   8.637  0.6276  1.6939  1.8107
 8126SOL     OW35836   3.452   1.817   5.488 -0.1656 -0.1350 -0.2499
 8126SOL    HW135837   3.490   1.732   5.467  0.9078  0.0413  1.0170
 8126SOL    HW235838   3.530   1.872   5.491  0.0823 -0.4993 -0.0389
 8127SOL     OW35839   3.547   4.431  11.462 -0.4836 -0.6618  0.0130
 8127SOL    HW135840   3.535   4.491  11.388  0.8128  1.3220  1.4500
 8127SOL    HW235841   3.459   4.393  11.460 -2.1439  3.1938  0.6994
 8128SOL     OW35842   0.161   1.840   2.366 -0.1844 -0.4795  0.2890
 8128SOL    HW135843   0.093   1.774   2.383 -1.7068  0.8687 -0.5717
 8128SOL    HW235844   0.195   1.816   2.280  2.4104  2.0237  0.6334
 8129SOL     OW35845   3.107   0.145   4.228 -0.2148 -0.6107  0.0839
 8129SOL    HW135846   3.183   0.108   4.272  0.7562  0.3185 -0.8121
 8129SOL    HW235847   3.122   0.240   4.235  1.7702 -0.8544 -1.1256
 8130SOL     OW35848   4.464   2.266   3.763 -0.2100  0.2756  0.1941
 8130SOL    HW135849   4.538   2.273   3.823 -0.8178  0.1153  0.9536
 8130SOL    HW235850   4.497   2.311   3.685 -2.8986 -1.2574 -1.8447
 8131SOL     OW35851   1.986   3.435   1.930  0.3751 -0.0534  0.1050
 8131SOL    HW135852   1.941   3.519   1.918  0.3458  0.0175  0.6859
 8131SOL    HW235853   1.923   3.404   1.996  2.0217  0.0652  1.7324
 8132SOL     OW35854   2.032   4.364  13.546  0.1307 -0.2314  0.2338
 8132SOL    HW135855   2.042   4.340  13.454  2.9669 -0.8941  0.7004
 8132SOL    HW235856   2.113   4.414  13.548  0.0373 -0.1244  1.6930
 8133SOL     OW35857   0.369   1.030   4.992  0.0819 -0.0577  0.3667
 8133SOL    HW135858   0.426   1.049   4.918  0.1729  3.3561  1.3063
 8133SOL    HW235859   0.425   1.046   5.069  0.5325  1.7752 -0.3421
 8134SOL     OW35860   2.153   1.171   5.809  0.0957  0.1183 -0.4420
 8134SOL    HW135861   2.097   1.129   5.744 -0.0012  1.7453 -1.4179
 8134SOL    HW235862   2.240   1.136   5.794  0.6184  1.2806 -0.1565
 8135SOL     OW35863   3.198   3.534   5.700  0.1775 -0.1081 -0.4374
 8135SOL    HW135864   3.195   3.628   5.682  1.0978  0.5334  2.8104
 8135SOL    HW235865   3.167   3.511   5.612 -0.3680  2.8087 -1.0245
 8136SOL     OW35866   2.957   3.479   3.816  0.3094 -1.2248 -0.3719
 8136SOL    HW135867   2.916   3.413   3.872 -1.5198 -0.7783 -1.2119
 8136SOL    HW235868   2.997   3.544   3.875 -3.2886  1.6131 -1.0176
 8137SOL     OW35869   3.097   2.054   2.718 -0.8170 -0.3014  0.0427
 8137SOL    HW135870   3.147   1.988   2.766 -2.1738 -1.5888 -0.3438
 8137SOL    HW235871   3.129   2.135   2.758 -1.1335 -0.4263  0.5508
 8138SOL     OW35872   4.058   3.755   7.859 -0.0321  0.9005  0.5705
 8138SOL    HW135873   4.046   3.762   7.954  2.5801 -2.2930  1.1482
 8138SOL    HW235874   4.128   3.815   7.834  0.7924  0.0342  0.8335
 8139SOL     OW35875   2.394   1.273   7.214 -0.1025  0.2737 -0.2466
 8139SOL    HW135876   2.442   1.201   7.255  0.3598 -0.2632 -1.7313
 8139SOL    HW235877   2.426   1.355   7.251 -0.5114  0.8097 -1.0651
 8140SOL     OW35878   4.009   0.739  10.844  0.0185 -0.0393 -0.7683
 8140SOL    HW135879   3.950   0.692  10.903  1.1918 -0.1815  0.2660
 8140SOL    HW235880   3.948   0.803  10.807 -0.3851  0.7873  1.3206
 8141SOL     OW35881   4.598   3.349   9.194 -0.0214 -0.0306 -0.0891
 8141SOL    HW135882   4.578   3.301   9.275  0.3842  0.6698  0.4198
 8141SOL    HW235883   4.693   3.348   9.198 -0.0007  0.6040 -0.5662
 8142SOL     OW35884   3.763   3.242   6.141  0.2786  0.5988  0.8440
 8142SOL    HW135885   3.689   3.190   6.109  2.1937 -2.6079  1.6838
 8142SOL    HW235886   3.742   3.235   6.234  1.5511  1.1799  1.1840
 8143SOL     OW35887   0.097   3.975  15.312 -0.4516 -0.8724 -0.2796
 8143SOL    HW135888   0.014   3.983  15.359  0.6305  2.7276  1.0308
 8143SOL    HW235889   0.159   3.949  15.379 -0.5399  0.2447  0.2367
 8144SOL     OW35890   0.697   2.828  14.545 -0.2727  0.3670  0.1603
 8144SOL    HW135891   0.702   2.900  14.606  0.1372  1.3410 -1.0216
 8144SOL    HW235892   0.789   2.818  14.518 -0.2994 -1.4636  0.7080
 8145SOL     OW35893   0.603   3.108  10.838 -0.2197 -0.6643  0.1100
 8145SOL    HW135894   0.546   3.055  10.782  0.3985 -1.5526  0.3200
 8145SOL    HW235895   0.544   3.146  10.904  0.0070 -0.4103  0.1651
 8146SOL     OW35896   1.929   3.867   3.005 -0.4004  0.5599 -0.4951
 8146SOL    HW135897   1.842   3.907   3.003 -0.5234  0.3818  1.1686
 8146SOL    HW235898   1.962   3.933   3.066 -0.3248  0.3804 -0.3408
 8147SOL     OW35899   0.313   1.612   4.332  0.5203  0.6196  0.2947
 8147SOL    HW135900   0.279   1.609   4.242  4.0264  1.1176 -1.0608
 8147SOL    HW235901   0.331   1.520   4.352  1.0154  0.5159 -0.6057
 8148SOL     OW35902   3.424   3.729  12.982 -0.8495  0.0121 -0.2293
 8148SOL    HW135903   3.417   3.739  13.077  0.4476  1.4328 -0.2728
 8148SOL    HW235904   3.339   3.772  12.966 -1.0510 -0.7132 -1.0850
 8149SOL     OW35905   4.127   0.854   4.555 -0.2445 -0.4870  0.2682
 8149SOL    HW135906   4.157   0.785   4.614  1.6443 -0.0696 -0.2024
 8149SOL    HW235907   4.189   0.923   4.577 -0.9206 -0.1864  1.2278
 8150SOL     OW35908   2.275   3.415   0.446  0.0087 -0.2042  0.5732
 8150SOL    HW135909   2.193   3.442   0.487  0.0141  0.2884  0.2584
 8150SOL    HW235910   2.245   3.336   0.400 -1.0768  0.1671  0.6571
 8151SOL     OW35911   3.291   2.501   7.186  0.1850 -0.1939 -0.6737
 8151SOL    HW135912   3.380   2.472   7.166  0.4774  0.8385 -0.8960
 8151SOL    HW235913   3.285   2.566   7.116 -0.3009 -0.0458 -0.4970
 8152SOL     OW35914   3.728   3.383   8.875 -0.0125  0.6731  0.1155
 8152SOL    HW135915   3.636   3.410   8.880 -0.8584 -1.9453 -1.9354
 8152SOL    HW235916   3.736   3.329   8.797  0.7635 -2.6263  2.4770
 8153SOL     OW35917   4.196   1.870   7.396 -0.1099  0.1576  0.2063
 8153SOL    HW135918   4.109   1.897   7.368  0.7698  0.9411 -1.7843
 8153SOL    HW235919   4.183   1.815   7.473  0.6418  1.4096  1.2177
 8154SOL     OW35920   4.383   2.093   7.520  0.2788  0.0722  0.4292
 8154SOL    HW135921   4.373   2.043   7.602  0.1542  0.8853  0.9103
 8154SOL    HW235922   4.369   2.023   7.456 -2.4261  1.6772 -0.6925
 8155SOL     OW35923   2.348   1.585   6.849  0.5236  0.2167  0.1303
 8155SOL    HW135924   2.347   1.666   6.798 -0.0725  0.4023  0.4340
 8155SOL    HW235925   2.435   1.553   6.825  1.3774  0.7291  2.5272
 8156SOL     OW35926   1.957   1.514   0.674  0.0293 -0.3740 -0.2038
 8156SOL    HW135927   2.031   1.465   0.640 -0.5806 -2.1854  1.0830
 8156SOL    HW235928   1.910   1.516   0.590 -1.2281 -0.4578  0.4947
 8157SOL     OW35929   3.893   1.837  12.286 -0.4008 -0.0090  0.1539
 8157SOL    HW135930   3.872   1.764  12.227  1.9535  0.8578 -1.7436
 8157SOL    HW235931   3.941   1.784  12.350 -1.6698 -1.4277 -0.0684
 8158SOL     OW35932   0.035   3.560  15.325  0.3892  0.3767 -0.4065
 8158SOL    HW135933   0.001   3.650  15.320  0.8498  0.6380  1.1636
 8158SOL    HW235934   0.042   3.550  15.420 -4.4161 -0.3174 -0.0857
 8159SOL     OW35935   0.589   1.439   6.575  0.1255 -0.2477  0.1534
 8159SOL    HW135936   0.594   1.445   6.480 -1.8041  0.0410  0.0579
 8159SOL    HW235937   0.650   1.504   6.609 -0.3352  1.1299 -1.6477
 8160SOL     OW35938   0.635   3.251   4.961 -0.1448  0.2394 -0.0521
 8160SOL    HW135939   0.670   3.214   5.043 -0.4810 -1.6796 -0.7706
 8160SOL    HW235940   0.682   3.334   4.970 -1.2470  1.0023 -1.4970
 8161SOL     OW35941   0.525   2.808   9.448  0.1843  0.1710  0.5025
 8161SOL    HW135942   0.441   2.852   9.464  0.5212  0.5203  1.3521
 8161SOL    HW235943   0.483   2.733   9.407 -0.4622  0.3212  0.8963
 8162SOL     OW35944   4.105   3.967  14.872  0.3080 -0.2574 -0.4214
 8162SOL    HW135945   4.197   3.993  14.861  0.1831  0.3556 -0.0113
 8162SOL    HW235946   4.119   3.873  14.868  0.0207 -0.3818  1.4906
 8163SOL     OW35947   0.697   2.862   3.046  0.2843  0.1939 -0.1538
 8163SOL    HW135948   0.648   2.867   2.964 -1.6219 -0.6892  0.9353
 8163SOL    HW235949   0.710   2.769   3.063 -0.3350  0.3694  1.3260
 8164SOL     OW35950   3.990   3.906   6.378 -0.5650  0.4125  0.7172
 8164SOL    HW135951   3.949   3.871   6.457  0.4587  1.0416  1.5299
 8164SOL    HW235952   3.916   3.933   6.324 -0.5331  1.3636  1.1553
 8165SOL     OW35953   2.234   3.719   9.808 -0.2059 -0.3214 -0.4701
 8165SOL    HW135954   2.298   3.783   9.837 -0.9029  1.2003 -2.2561
 8165SOL    HW235955   2.280   3.636   9.793 -0.9085 -0.8476  0.2853
 8166SOL     OW35956   2.700   0.400   9.066 -0.6539 -0.2970 -0.3082
 8166SOL    HW135957   2.706   0.411   9.161 -0.2712 -1.0153 -0.2442
 8166SOL    HW235958   2.693   0.491   9.037 -1.6989  0.9478  3.8029
 8167SOL     OW35959   2.574   2.265   2.816  0.1275  0.5591 -0.2319
 8167SOL    HW135960   2.659   2.258   2.860  0.1965  1.5395 -0.2173
 8167SOL    HW235961   2.608   2.306   2.736 -2.7900  1.7244 -0.8861
 8168SOL     OW35962   0.888   4.445   3.470  0.0317 -0.1399 -0.0753
 8168SOL    HW135963   0.795   4.421   3.461  0.4319 -1.3082 -1.1559
 8168SOL    HW235964   0.928   4.360   3.487 -1.4559 -0.8443 -0.0199
 8169SOL     OW35965   2.260   0.510   4.072  0.9988  0.3382  0.0197
 8169SOL    HW135966   2.280   0.585   4.128  0.3134 -0.8857  1.9243
 8169SOL    HW235967   2.324   0.446   4.104  1.4335 -0.6457 -2.8168
 8170SOL     OW35968   0.218   0.509  17.499  0.1306  0.2709 -0.5120
 8170SOL    HW135969   0.269   0.439  17.540 -0.8966 -0.5391 -0.6166
 8170SOL    HW235970   0.212   0.471  17.411 -1.5914 -0.7173  0.0285
 8171SOL     OW35971   0.785   2.020   5.901 -0.5228  0.5310 -0.0886
 8171SOL    HW135972   0.733   1.959   5.848  1.6933 -2.3255  1.0376
 8171SOL    HW235973   0.844   1.964   5.952 -0.9537 -0.3182 -0.5199
 8172SOL     OW35974   2.755   3.776   2.029 -0.0452  0.0099 -0.0139
 8172SOL    HW135975   2.706   3.831   1.967  0.0213  1.1264  0.9362
 8172SOL    HW235976   2.697   3.700   2.021 -0.1902 -0.0233  1.4550
 8173SOL     OW35977   3.511   3.825   6.061 -0.1295 -0.1719  0.1841
 8173SOL    HW135978   3.544   3.911   6.086 -2.3541  0.4327  0.9989
 8173SOL    HW235979   3.495   3.832   5.967  1.1488 -3.5360 -0.2926
 8174SOL     OW35980   0.923   2.346   6.794  0.2585 -0.8380 -0.4541
 8174SOL    HW135981   0.851   2.356   6.731 -0.8859  0.6406  1.1081
 8174SOL    HW235982   0.918   2.425   6.847 -2.2293 -0.4878 -1.2052
 8175SOL     OW35983   4.532   1.050  13.665 -0.5645  0.1594 -0.0937
 8175SOL    HW135984   4.468   1.090  13.605 -0.6179  0.4073  0.1311
 8175SOL    HW235985   4.599   1.117  13.678  0.8917 -1.4356  0.6277
 8176SOL     OW35986   4.208   2.982   3.459 -0.0441  0.2167  0.4227
 8176SOL    HW135987   4.193   3.054   3.520 -0.0574 -1.6612  2.6263
 8176SOL    HW235988   4.295   2.949   3.478 -0.3107 -0.8423 -0.1627
 8177SOL     OW35989   4.209   3.104   8.211 -0.0585  0.6475  0.0911
 8177SOL    HW135990   4.114   3.095   8.197  0.4348  0.5156 -3.0595
 8177SOL    HW235991   4.242   3.040   8.148  0.4885 -0.9826  2.0339
 8178SOL     OW35992   1.495   1.394   8.579 -0.2469  0.5197 -0.3186
 8178SOL    HW135993   1.498   1.477   8.628  1.3787  2.0682 -3.0308
 8178SOL    HW235994   1.522   1.332   8.646 -1.6288 -1.1253 -1.2967
 8179SOL     OW35995   3.029   4.448   1.714  0.1096 -0.7562  0.2866
 8179SOL    HW135996   3.011   4.541   1.721 -2.0453 -1.2496  1.3367
 8179SOL    HW235997   2.956   4.423   1.656  1.0089  0.2600 -1.2764
 8180SOL     OW35998   3.263   1.286   3.893 -0.0529 -0.0148 -0.2550
 8180SOL    HW135999   3.251   1.282   3.799  2.2315 -1.7984 -0.4792
 8180SOL    HW236000   3.353   1.318   3.904  0.0705 -0.2190 -0.6795
 8181SOL     OW36001   4.347   1.848   7.175 -0.3314  0.1538  1.2295
 8181SOL    HW136002   4.289   1.860   7.250  1.3755 -0.1650  2.5923
 8181SOL    HW236003   4.328   1.758   7.148  1.8213  0.3512 -0.9472
 8182SOL     OW36004   2.784   0.417   6.313  0.1772 -0.2509  0.0709
 8182SOL    HW136005   2.785   0.415   6.218  1.0852 -1.4589  0.1065
 8182SOL    HW236006   2.718   0.487   6.317 -0.4160 -0.8620  1.0609
 8183SOL     OW36007   4.497   4.161  11.480  0.2562 -0.3977  0.1215
 8183SOL    HW136008   4.581   4.158  11.435  0.2514  0.2978  0.0633
 8183SOL    HW236009   4.476   4.067  11.485 -1.0812 -0.0559  0.9244
 8184SOL     OW36010   0.096   2.125  13.638  0.1427 -0.1731 -0.1317
 8184SOL    HW136011   0.149   2.192  13.680  0.5762 -0.3832 -0.3348
 8184SOL    HW236012   0.011   2.169  13.645  0.8713  1.2878 -0.4800
 8185SOL     OW36013   1.729   3.621   3.301 -0.1502  0.2887 -0.6012
 8185SOL    HW136014   1.650   3.625   3.355 -0.4103 -0.0102 -0.9566
 8185SOL    HW236015   1.748   3.714   3.291  2.0359  0.0110  0.9507
 8186SOL     OW36016   3.881   2.050   4.268  0.5084 -0.2270  0.0570
 8186SOL    HW136017   3.914   2.139   4.262 -1.1259  0.4386  0.8478
 8186SOL    HW236018   3.933   2.020   4.343 -1.8450 -0.7753  1.4678
 8187SOL     OW36019   3.753   1.320   1.343 -0.4087 -0.6915 -0.4085
 8187SOL    HW136020   3.738   1.368   1.424  1.1267  0.7439 -0.9686
 8187SOL    HW236021   3.847   1.305   1.354 -0.6400 -0.1736  2.1634
 8188SOL     OW36022   4.388   1.932  13.090 -0.2058  0.3961 -0.6547
 8188SOL    HW136023   4.346   1.859  13.045  1.0677  0.1604 -1.4702
 8188SOL    HW236024   4.455   1.895  13.148 -0.4609 -0.6824 -1.0522
 8189SOL     OW36025   3.512   3.616   2.824  0.5147  0.4916  0.4733
 8189SOL    HW136026   3.581   3.680   2.805 -0.8615  1.7633 -0.2687
 8189SOL    HW236027   3.562   3.538   2.849  0.9846  0.2778 -1.1541
 8190SOL     OW36028   0.448   3.740  15.815 -0.0081 -0.1525  0.1979
 8190SOL    HW136029   0.471   3.830  15.841 -1.8812  0.7242 -1.2095
 8190SOL    HW236030   0.359   3.755  15.783 -1.3682 -0.0109  4.0598
 8191SOL     OW36031   2.407   2.724   6.745  0.5737  0.4899 -0.2764
 8191SOL    HW136032   2.377   2.704   6.833 -0.2126  2.2609 -0.1433
 8191SOL    HW236033   2.329   2.755   6.699  0.2996  1.4561  0.8401
 8192SOL     OW36034   3.234   0.458   2.034  0.4472 -0.2638  0.3175
 8192SOL    HW136035   3.221   0.482   1.942  0.6507 -1.0788  0.0793
 8192SOL    HW236036   3.329   0.447   2.039  0.8858  2.3235 -2.0084
 8193SOL     OW36037   1.619   3.886   8.670 -0.6456  0.0949  0.0109
 8193SOL    HW136038   1.588   3.965   8.714  1.1054  0.5581  0.4291
 8193SOL    HW236039   1.544   3.849   8.624 -2.1853  0.1693  2.4488
 8194SOL     OW36040   3.347   4.642   5.400  0.1884  0.4555 -0.3189
 8194SOL    HW136041   3.342   0.014   5.396 -0.5538  0.4470  0.3304
 8194SOL    HW236042   3.255   4.630   5.380  0.0910  1.4587 -0.4878
 8195SOL     OW36043   4.263   4.247   8.280  0.0666  0.2122  0.5398
 8195SOL    HW136044   4.277   4.340   8.297 -1.6093  1.0412 -2.7440
 8195SOL    HW236045   4.335   4.210   8.331 -0.1709  0.7731  1.2750
 8196SOL     OW36046   0.989   3.188   4.429 -0.0660 -0.4523 -0.3906
 8196SOL    HW136047   1.057   3.240   4.385  1.0508 -1.0120  0.6719
 8196SOL    HW236048   0.965   3.244   4.502 -2.0118 -0.4142 -1.0670
 8197SOL     OW36049   0.282   1.125   6.874  0.9186 -0.2688  0.1778
 8197SOL    HW136050   0.307   1.213   6.904 -0.5869  0.1660  0.1967
 8197SOL    HW236051   0.368   1.104   6.840 -0.0742 -1.3675 -1.6223
 8198SOL     OW36052   1.762   2.889   5.623 -0.0468 -0.0102 -0.4656
 8198SOL    HW136053   1.741   2.852   5.709 -2.7165  1.0244 -0.6626
 8198SOL    HW236054   1.687   2.943   5.599 -1.2041 -1.7837 -0.8103
 8199SOL     OW36055   2.348   3.288  10.550  0.2285 -0.0908 -0.4223
 8199SOL    HW136056   2.252   3.287  10.550  0.1945  2.2178  2.8485
 8199SOL    HW236057   2.349   3.218  10.615  1.8822  1.8088  1.6057
 8200SOL     OW36058   0.949   2.118   5.705 -0.2886 -0.1384 -0.4399
 8200SOL    HW136059   0.899   2.087   5.780 -2.3968  1.1692 -1.3146
 8200SOL    HW236060   1.037   2.121   5.743  0.6612  0.0117 -2.6489
 8201SOL     OW36061   0.333   4.238   7.745 -0.4026  0.6837 -0.4250
 8201SOL    HW136062   0.420   4.276   7.754 -0.6521  0.5831  2.4752
 8201SOL    HW236063   0.306   4.241   7.653  1.5527  2.6012 -0.9361
 8202SOL     OW36064   2.747   1.477  15.566 -0.0978 -0.8526  0.6823
 8202SOL    HW136065   2.842   1.460  15.563 -0.0565 -0.4755  0.0256
 8202SOL    HW236066   2.722   1.467  15.475  0.4537 -0.3033  0.4681
 8203SOL     OW36067   2.569   1.851   4.622  0.2715 -0.2483  0.1175
 8203SOL    HW136068   2.634   1.821   4.686 -0.7666  1.2088  1.8421
 8203SOL    HW236069   2.594   1.799   4.546 -1.0490 -1.6916  0.6570
 8204SOL     OW36070   3.173   3.852  15.330  0.1905  0.5268 -0.4737
 8204SOL    HW136071   3.092   3.901  15.340  0.7150  1.4965 -1.0857
 8204SOL    HW236072   3.191   3.844  15.424 -0.0183 -1.0082 -0.5628
 8205SOL     OW36073   2.870   1.040   4.210  0.0026 -0.2016 -0.4331
 8205SOL    HW136074   2.933   1.096   4.255 -2.7422  3.7284 -1.4349
 8205SOL    HW236075   2.925   1.005   4.140 -0.8584 -1.2560 -0.5763
 8206SOL     OW36076   3.902   1.762   4.412  0.0044  0.2264  0.1705
 8206SOL    HW136077   3.892   1.754   4.318  0.0282  2.4469 -0.0191
 8206SOL    HW236078   3.993   1.792   4.407 -0.6136  1.9963 -0.1309
 8207SOL     OW36079   3.383   4.470  10.307 -0.3734 -0.3441  0.2864
 8207SOL    HW136080   3.445   4.460  10.379 -0.4419 -0.3413  0.3464
 8207SOL    HW236081   3.309   4.418  10.338 -0.8461 -0.2496 -0.6849
 8208SOL     OW36082   2.333   0.184   3.982  0.4674  0.3085 -0.5933
 8208SOL    HW136083   2.411   0.208   3.933  0.6962 -1.9502 -1.3183
 8208SOL    HW236084   2.348   0.221   4.069 -0.3937  0.3316 -0.4454
 8209SOL     OW36085   3.833   4.402   3.371 -0.5232 -1.0099 -0.2936
 8209SOL    HW136086   3.905   4.347   3.340  0.3339 -1.3402  2.2620
 8209SOL    HW236087   3.778   4.392   3.293  0.2156  2.1396 -1.1970
 8210SOL     OW36088   4.430   1.811   0.097 -0.6381  0.4332  0.0582
 8210SOL    HW136089   4.407   1.904   0.099  2.7861  1.2309  2.2014
 8210SOL    HW236090   4.354   1.774   0.141 -1.0781  1.2760  0.0257
 8211SOL     OW36091   2.676   3.340   4.061 -0.5731 -0.2475 -0.1137
 8211SOL    HW136092   2.615   3.413   4.057  0.2935  0.5634  1.3346
 8211SOL    HW236093   2.627   3.269   4.019  1.0251 -1.8172  0.6533
 8212SOL     OW36094   0.504   1.876   6.265  0.4686 -0.0403  0.7912
 8212SOL    HW136095   0.568   1.902   6.332  0.1112  0.8366  0.7908
 8212SOL    HW236096   0.424   1.877   6.318 -0.0510  1.6658 -0.0425
 8213SOL     OW36097   1.640   2.504   4.776 -0.1837  0.2900  0.2143
 8213SOL    HW136098   1.614   2.446   4.848  1.4879 -0.5959  0.1017
 8213SOL    HW236099   1.644   2.436   4.708 -1.8293  1.3174 -0.8861
 8214SOL     OW36100   1.581   1.660   6.451  0.4108  0.6500 -0.8337
 8214SOL    HW136101   1.638   1.659   6.528 -0.5693 -1.0049 -0.1333
 8214SOL    HW236102   1.636   1.689   6.379  1.2219 -0.1892 -0.5601
 8215SOL     OW36103   0.999   1.048   2.411  0.0173 -0.5506  0.2280
 8215SOL    HW136104   0.911   1.013   2.410 -0.0157 -0.5067  1.3825
 8215SOL    HW236105   1.014   1.047   2.316 -0.1071 -3.2528  0.2598
 8216SOL     OW36106   4.569   2.496  11.262  0.7681  0.0212 -0.0968
 8216SOL    HW136107   4.594   2.577  11.307  0.8203 -2.0067  3.5553
 8216SOL    HW236108   4.543   2.533  11.178 -3.9103 -0.2352  1.2410
 8217SOL     OW36109   1.609   0.583   4.521  0.2057  0.0421 -0.2206
 8217SOL    HW136110   1.609   0.626   4.436  0.0317  1.0587  0.3011
 8217SOL    HW236111   1.616   0.491   4.495  0.9650  0.0664 -0.0919
 8218SOL     OW36112   0.338   4.184   1.737 -0.0166  0.4025  0.3147
 8218SOL    HW136113   0.276   4.237   1.787  0.2333  2.0851 -1.1200
 8218SOL    HW236114   0.404   4.176   1.805  0.0228 -0.3243  0.1821
 8219SOL     OW36115   1.991   3.367   5.509  0.0384 -0.4310  0.3825
 8219SOL    HW136116   1.920   3.321   5.463 -0.7448 -0.2588  1.4144
 8219SOL    HW236117   2.062   3.323   5.463  0.2355  0.6417 -0.3426
 8220SOL     OW36118   2.715   1.956   6.200 -0.2726  1.0648  0.2106
 8220SOL    HW136119   2.796   1.925   6.239 -1.8789 -2.8328  0.4877
 8220SOL    HW236120   2.648   1.894   6.230  1.5490 -0.2427  1.5332
 8221SOL     OW36121   2.085   2.730  14.065 -0.6784 -0.1133  0.2667
 8221SOL    HW136122   2.112   2.781  13.988 -1.5374 -1.4152 -0.8958
 8221SOL    HW236123   2.142   2.652  14.064 -1.7903 -0.9517  2.0469
 8222SOL     OW36124   0.662   2.453   4.253  0.1776 -0.7525  0.1161
 8222SOL    HW136125   0.586   2.496   4.213 -0.8739 -1.3546  1.4584
 8222SOL    HW236126   0.730   2.468   4.188  1.6085 -0.8645  1.6052
 8223SOL     OW36127   2.561   0.283  15.819  0.3761 -0.0374  0.3307
 8223SOL    HW136128   2.607   0.214  15.771 -1.1067 -0.6294 -0.2512
 8223SOL    HW236129   2.624   0.309  15.886  0.9599 -1.0597  0.1848
 8224SOL     OW36130   4.685   4.236  10.138 -0.3154 -0.0474 -0.0307
 8224SOL    HW136131   0.017   4.314  10.144  0.1023 -0.2463 -1.2682
 8224SOL    HW236132   4.709   4.174  10.207  0.8347 -0.6984 -1.0298
 8225SOL     OW36133   4.193   1.345  15.177  0.1188 -0.1158 -0.3454
 8225SOL    HW136134   4.138   1.283  15.129 -1.7874 -0.1620  1.9421
 8225SOL    HW236135   4.197   1.312  15.266  3.4692  1.6203  0.1599
 8226SOL     OW36136   0.354   2.866  15.108  0.1792  0.2789 -0.2124
 8226SOL    HW136137   0.334   2.957  15.088  0.1040  0.1681 -0.6432
 8226SOL    HW236138   0.409   2.840  15.034  0.4568 -0.4219  0.2364
 8227SOL     OW36139   1.734   1.205   8.419 -0.1243  0.7318  0.3531
 8227SOL    HW136140   1.774   1.159   8.493  0.3708  0.0368 -0.3541
 8227SOL    HW236141   1.640   1.186   8.424 -0.1573  1.1719  1.5442
 8228SOL     OW36142   2.285   2.093   5.646  0.3827  0.4891 -0.1871
 8228SOL    HW136143   2.324   2.138   5.722 -0.4020 -0.5699  0.8458
 8228SOL    HW236144   2.227   2.163   5.615 -0.4520  0.2786  0.8834
 8229SOL     OW36145   1.230   2.608   8.739 -0.0660  0.0096 -0.1090
 8229SOL    HW136146   1.315   2.599   8.782  0.3697 -1.3100 -1.2203
 8229SOL    HW236147   1.252   2.685   8.686 -0.9896  0.8676  0.7632
 8230SOL     OW36148   1.368   1.472  10.016  0.1043  0.8066 -0.0597
 8230SOL    HW136149   1.403   1.426   9.940  0.3014  0.4086  0.2722
 8230SOL    HW236150   1.276   1.469   9.993  0.1859 -0.1460 -0.2808
 8231SOL     OW36151   2.055   0.134   2.618 -0.1463 -0.1288 -0.6842
 8231SOL    HW136152   2.085   0.115   2.529  1.4289  3.0097 -0.8384
 8231SOL    HW236153   2.065   0.051   2.665  0.1429  0.6283  0.6003
 8232SOL     OW36154   2.937   1.309  17.619  0.2366 -0.4061 -0.1560
 8232SOL    HW136155   3.011   1.337  17.673 -0.0267  1.1923 -0.6291
 8232SOL    HW236156   2.952   1.368  17.545  0.7820 -1.2444 -0.7239
 8233SOL     OW36157   4.160   3.083   5.748 -0.3000 -0.3317  0.0592
 8233SOL    HW136158   4.119   3.046   5.826 -0.3289 -1.0970 -0.3151
 8233SOL    HW236159   4.107   3.068   5.669  1.1455  0.0332 -0.9974
 8234SOL     OW36160   4.306   4.659   1.165  0.0380  0.2521 -0.1419
 8234SOL    HW136161   4.396   4.691   1.178  0.3623  0.1036 -1.9012
 8234SOL    HW236162   4.293   4.606   1.243  1.3963 -3.8886 -2.7502
 8235SOL     OW36163   1.918   1.231   5.646  1.2262  0.0622 -0.5738
 8235SOL    HW136164   1.845   1.252   5.588  0.9683  0.4564 -0.1062
 8235SOL    HW236165   1.878   1.170   5.708 -0.3492  0.8369 -0.8424
 8236SOL     OW36166   3.281   2.848   0.533  0.4236 -0.1234 -0.4324
 8236SOL    HW136167   3.308   2.830   0.443  0.7360  0.4895 -0.4622
 8236SOL    HW236168   3.341   2.798   0.589 -1.6670 -0.9583  1.0775
 8237SOL     OW36169   1.720   4.688   3.672  0.2521 -0.3139  0.2337
 8237SOL    HW136170   1.699   0.011   3.592 -0.3370 -0.0908  0.5139
 8237SOL    HW236171   1.748   0.037   3.728 -0.1056 -1.1533  1.5163
 8238SOL     OW36172   1.883   4.382   9.622 -0.1686  0.0597  0.2330
 8238SOL    HW136173   1.802   4.432   9.631  0.2990  1.1249 -1.5924
 8238SOL    HW236174   1.903   4.351   9.711 -0.7457 -0.7051  0.0968
 8239SOL     OW36175   1.947   3.330  10.119  0.0068 -0.2022 -0.0221
 8239SOL    HW136176   1.946   3.339  10.023  1.1140 -1.5872 -0.1707
 8239SOL    HW236177   1.983   3.241  10.125  0.3337 -0.1574 -1.1598
 8240SOL     OW36178   2.410   4.484   8.327  0.4615 -0.1671  0.1044
 8240SOL    HW136179   2.459   4.566   8.335  2.1925 -1.0599 -1.4020
 8240SOL    HW236180   2.335   4.494   8.385  0.6342 -1.5388  0.5486
 8241SOL     OW36181   0.279   0.941   3.275  0.1909 -0.4547 -0.0472
 8241SOL    HW136182   0.291   1.023   3.227  0.4311 -1.6822 -2.0755
 8241SOL    HW236183   0.245   0.967   3.360  1.6930  0.1661  0.3685
 8242SOL     OW36184   3.939   2.415   4.958 -0.4195  0.3850 -0.4885
 8242SOL    HW136185   3.928   2.510   4.963 -0.0340  0.4533 -0.9058
 8242SOL    HW236186   3.858   2.382   4.918 -0.1935 -1.6253  0.7320
 8243SOL     OW36187   1.358   4.311   8.634 -0.4443  0.0566 -0.0986
 8243SOL    HW136188   1.289   4.310   8.701  0.2933 -0.1900  0.6508
 8243SOL    HW236189   1.309   4.347   8.559 -1.1390 -0.0618  0.3003
 8244SOL     OW36190   2.301   2.737  15.687  0.4887 -0.3073  0.2975
 8244SOL    HW136191   2.378   2.743  15.744  0.8018 -1.9436  0.0430
 8244SOL    HW236192   2.305   2.645  15.661  1.4108  0.0669 -0.8827
 8245SOL     OW36193   3.867   2.673   3.520  1.2020 -0.1332 -0.3777
 8245SOL    HW136194   3.858   2.667   3.425 -0.3356  2.1571 -0.3704
 8245SOL    HW236195   3.942   2.731   3.525  0.4231  1.0179 -2.1433
 8246SOL     OW36196   3.475   2.857   4.334 -0.0989 -0.1921  0.1713
 8246SOL    HW136197   3.542   2.879   4.269 -0.3051  0.3444  0.1412
 8246SOL    HW236198   3.400   2.824   4.286 -0.7884 -0.0418  1.1512
 8247SOL     OW36199   1.503   1.129  10.461  0.2639 -0.1079 -0.3168
 8247SOL    HW136200   1.502   1.200  10.396 -1.2242  2.0964  2.1356
 8247SOL    HW236201   1.413   1.102  10.445  0.2057 -0.6632  0.9900
 8248SOL     OW36202   2.870   1.048   1.912  0.2247 -0.3591 -0.1727
 8248SOL    HW136203   2.938   1.043   1.845  1.2999 -0.0194  0.8980
 8248SOL    HW236204   2.833   1.134   1.893 -0.5910 -1.0757 -1.8239
 8249SOL     OW36205   0.949   4.233   4.798 -0.1734 -0.0230  0.1793
 8249SOL    HW136206   1.002   4.294   4.746  0.0650 -0.4279 -0.0436
 8249SOL    HW236207   0.950   4.273   4.885  2.1517  1.3743 -0.4937
 8250SOL     OW36208   1.190   3.528   3.596  0.2068  0.3924 -1.0094
 8250SOL    HW136209   1.238   3.606   3.568  0.8698  0.7471  1.1342
 8250SOL    HW236210   1.227   3.471   3.529 -0.3387 -0.1854 -0.8125
 8251SOL     OW36211   1.401   3.117   9.256 -0.1995 -0.2496 -0.3328
 8251SOL    HW136212   1.373   3.028   9.233  0.1267 -0.5628  0.5011
 8251SOL    HW236213   1.436   3.105   9.344  0.6366 -2.1005 -0.9140
 8252SOL     OW36214   4.474   1.049   3.859  0.0595 -0.3128  0.0548
 8252SOL    HW136215   4.559   1.055   3.901  0.2166 -1.9010 -0.0450
 8252SOL    HW236216   4.483   0.957   3.836  0.6389 -0.9079  2.6690
 8253SOL     OW36217   3.356   3.910   7.021  0.4941  0.2074 -0.1501
 8253SOL    HW136218   3.344   3.837   7.082 -1.7505  0.5529 -0.1648
 8253SOL    HW236219   3.270   3.950   7.036  0.3864  0.8529 -2.4525
 8254SOL     OW36220   3.909   3.875   3.175 -0.1157 -0.0119 -0.3452
 8254SOL    HW136221   3.843   3.916   3.119 -0.8775  0.8016  1.1143
 8254SOL    HW236222   3.914   3.785   3.143  1.5739 -0.0924  0.1355
 8255SOL     OW36223   2.427   3.879   8.540  0.0276 -0.0897  0.0021
 8255SOL    HW136224   2.350   3.915   8.584  0.6051 -0.6059  1.4354
 8255SOL    HW236225   2.492   3.904   8.606 -1.8050  0.1677  1.6985
 8256SOL     OW36226   1.490   1.311   1.505  0.5488 -0.0079 -0.1716
 8256SOL    HW136227   1.444   1.244   1.555  0.4087  0.1563 -0.0785
 8256SOL    HW236228   1.501   1.264   1.422  0.7593 -1.8350  0.9089
 8257SOL     OW36229   3.957   0.862   3.244 -0.3936  0.2397 -0.4865
 8257SOL    HW136230   3.942   0.916   3.322 -0.8455  0.2756 -0.5966
 8257SOL    HW236231   4.045   0.824   3.248 -0.3908  0.4386  1.2085
 8258SOL     OW36232   4.005   2.499   2.114  0.0036 -0.0282 -0.2806
 8258SOL    HW136233   3.995   2.471   2.204 -1.4461 -2.1765 -1.1171
 8258SOL    HW236234   3.978   2.591   2.117  3.5024  0.9446  1.3491
 8259SOL     OW36235   1.754   0.465   8.898 -0.0971 -0.0269 -0.2147
 8259SOL    HW136236   1.814   0.401   8.936  1.0819  0.4653 -1.2670
 8259SOL    HW236237   1.683   0.408   8.867 -0.6333  0.0568  0.8512
 8260SOL     OW36238   2.967   1.985   6.456 -0.3619 -0.4024 -0.7582
 8260SOL    HW136239   2.940   1.986   6.548  0.6770  0.0990 -0.4657
 8260SOL    HW236240   3.048   2.030   6.479  0.6616 -1.4848 -2.1710
 8261SOL     OW36241   1.052   1.486   8.356 -0.2383 -0.5393 -0.0117
 8261SOL    HW136242   0.968   1.460   8.392 -0.8459  2.0767  0.4697
 8261SOL    HW236243   1.112   1.424   8.398  1.7612  1.3826 -0.0206
 8262SOL     OW36244   4.334   3.404  12.450 -0.4795 -0.1107 -0.6604
 8262SOL    HW136245   4.282   3.478  12.419  0.3314  0.5569 -0.4115
 8262SOL    HW236246   4.401   3.456  12.493 -1.7207  0.7220  0.2790
 8263SOL     OW36247   0.882   3.002  16.994 -0.1204 -0.4536 -0.2882
 8263SOL    HW136248   0.819   3.073  17.006  0.4183  0.0095 -0.1631
 8263SOL    HW236249   0.879   2.957  17.079  0.3936 -2.3520 -1.2683
 8264SOL     OW36250   2.896   1.269   8.618  0.4727 -0.5674 -0.2509
 8264SOL    HW136251   2.853   1.247   8.701 -0.8722 -0.9372 -1.0416
 8264SOL    HW236252   2.959   1.337   8.644  0.0477 -0.7522  1.2679
 8265SOL     OW36253   2.099   3.675   7.648  0.4345 -0.4548 -0.4562
 8265SOL    HW136254   2.094   3.741   7.718 -2.2886 -1.4230  0.2716
 8265SOL    HW236255   2.014   3.680   7.606  0.7404 -0.0761 -1.0257
 8266SOL     OW36256   2.274   1.366   7.779 -0.2267 -0.7210  0.1633
 8266SOL    HW136257   2.310   1.454   7.791  1.2173 -1.2275 -0.4339
 8266SOL    HW236258   2.196   1.359   7.834  0.9227 -0.9938  1.7673
 8267SOL     OW36259   1.460   2.189   5.187 -0.5612 -0.0338 -0.2167
 8267SOL    HW136260   1.549   2.156   5.196 -1.3373 -1.8784  0.6997
 8267SOL    HW236261   1.469   2.215   5.095  2.6385  2.7384  0.8871
 8268SOL     OW36262   1.064   1.528   3.502 -0.1279 -0.1821 -0.6834
 8268SOL    HW136263   1.078   1.575   3.584 -1.8983  1.2387 -1.2186
 8268SOL    HW236264   1.022   1.598   3.452 -0.1812  0.6744  0.5754
 8269SOL     OW36265   3.363   3.442   3.844 -0.4560  0.6032 -0.3375
 8269SOL    HW136266   3.429   3.388   3.802 -0.7392 -1.0852  1.3532
 8269SOL    HW236267   3.286   3.420   3.792  0.1613 -2.0250 -0.1433
 8270SOL     OW36268   1.339   3.195  13.041 -0.1700  0.1633  0.7491
 8270SOL    HW136269   1.401   3.210  12.969 -0.6315  0.9024  0.5002
 8270SOL    HW236270   1.399   3.140  13.091 -0.4884 -0.7164  0.1643
 8271SOL     OW36271   2.711   1.154  16.670  0.1851  0.6101  0.2259
 8271SOL    HW136272   2.637   1.187  16.619 -1.0390 -2.7438 -0.1816
 8271SOL    HW236273   2.712   1.064  16.639 -0.9923  0.3948  0.7995
 8272SOL     OW36274   3.415   0.386   8.742 -0.4832 -0.1783  0.5593
 8272SOL    HW136275   3.344   0.394   8.806 -0.3746  3.4801  0.2355
 8272SOL    HW236276   3.443   0.295   8.752 -0.3645 -0.1136  0.8245
 8273SOL     OW36277   3.301   1.193   7.590  0.0590  0.6055  0.3338
 8273SOL    HW136278   3.243   1.118   7.575  1.1573 -0.3659  0.9837
 8273SOL    HW236279   3.339   1.206   7.503  0.3771 -1.5354  0.1628
 8274SOL     OW36280   2.114   0.371   8.284  0.5243  0.3352 -0.3670
 8274SOL    HW136281   2.189   0.419   8.319  1.0293 -0.2872 -0.6086
 8274SOL    HW236282   2.114   0.392   8.191  2.0676  0.1591 -0.4045
 8275SOL     OW36283   3.722   1.947  14.621 -0.4834  0.2186 -0.1383
 8275SOL    HW136284   3.683   1.978  14.539 -0.2057  1.4673  0.2014
 8275SOL    HW236285   3.754   1.858  14.605 -0.0613  0.3042  0.2111
 8276SOL     OW36286   3.430   3.773   8.840 -0.5631  0.6054  0.5850
 8276SOL    HW136287   3.433   3.743   8.930  1.1381  1.2574  0.7491
 8276SOL    HW236288   3.339   3.798   8.827 -0.6809  1.0493  2.3145
 8277SOL     OW36289   4.108   2.075  10.832 -0.7662 -0.4366 -0.0629
 8277SOL    HW136290   4.123   2.052  10.924 -1.6788  2.0941  0.7153
 8277SOL    HW236291   4.129   1.997  10.782 -3.3024 -0.1032 -1.6243
 8278SOL     OW36292   0.931   4.210  16.703  0.3368 -0.1219  0.4605
 8278SOL    HW136293   0.891   4.123  16.696 -0.8756  0.5240 -0.6498
 8278SOL    HW236294   0.857   4.244  16.754  0.2893  0.5533 -0.0508
 8279SOL     OW36295   2.264   3.242   7.285  0.0942 -0.3906 -0.2854
 8279SOL    HW136296   2.182   3.246   7.237  0.4520  0.1368 -0.8656
 8279SOL    HW236297   2.297   3.165   7.239  1.7755 -0.3704  0.8726
 8280SOL     OW36298   2.369   1.306   8.864 -0.1011  0.4814 -0.1713
 8280SOL    HW136299   2.335   1.242   8.927  0.7967  0.3892  0.2128
 8280SOL    HW236300   2.409   1.373   8.919 -1.9846  1.1589  0.3726
 8281SOL     OW36301   2.987   3.194   7.304 -0.3271  0.4804 -0.3747
 8281SOL    HW136302   2.979   3.273   7.251  1.1072  0.3111 -0.8574
 8281SOL    HW236303   3.083   3.194   7.314 -0.0745 -1.8248 -2.9107
 8282SOL     OW36304   0.623   0.204   8.973 -0.0358 -0.3441  0.0645
 8282SOL    HW136305   0.656   0.226   9.061 -1.5541  1.7179  0.1150
 8282SOL    HW236306   0.580   0.285   8.946  0.2911 -1.1987 -2.9704
 8283SOL     OW36307   0.183   3.948   9.523  0.6257 -0.5784  0.0785
 8283SOL    HW136308   0.100   3.985   9.554  1.1434 -1.3172  2.3623
 8283SOL    HW236309   0.247   3.944   9.594  0.8773  0.0521 -0.1148
 8284SOL     OW36310   2.136   1.125  12.763  0.0001 -0.4253 -0.3522
 8284SOL    HW136311   2.147   1.046  12.816 -0.4096  0.2787  0.7994
 8284SOL    HW236312   2.219   1.121  12.716 -0.1400  0.4716 -0.6762
 8285SOL     OW36313   3.448   0.804   7.188  0.4791  0.1010  0.1878
 8285SOL    HW136314   3.437   0.809   7.283 -0.7440  1.0606 -0.0031
 8285SOL    HW236315   3.380   0.862   7.153 -2.1075 -3.2552 -0.3232
 8286SOL     OW36316   2.864   2.610   6.740 -0.0591 -0.1190  0.0177
 8286SOL    HW136317   2.772   2.585   6.735 -0.9460  3.1810 -0.1190
 8286SOL    HW236318   2.872   2.669   6.815  0.7702 -0.7081  0.3931
 8287SOL     OW36319   2.717   0.581   3.603  0.1251  0.2407  0.1454
 8287SOL    HW136320   2.628   0.613   3.594  0.0373 -0.2731 -0.7924
 8287SOL    HW236321   2.736   0.603   3.694  0.3522  0.4481  0.0472
 8288SOL     OW36322   4.242   3.762  17.212  0.0251  0.5894  0.5533
 8288SOL    HW136323   4.179   3.826  17.179 -1.3015 -0.8797  0.2227
 8288SOL    HW236324   4.296   3.816  17.269 -1.8132  3.0156 -0.0015
 8289SOL     OW36325   3.683   1.138   3.914  0.2308  0.0953 -0.1860
 8289SOL    HW136326   3.740   1.098   3.979 -1.9809 -1.3557  0.8654
 8289SOL    HW236327   3.710   1.229   3.902  1.0125  0.1508  2.0750
 8290SOL     OW36328   0.135   1.458   2.843 -0.0468 -0.0953 -0.2487
 8290SOL    HW136329   0.184   1.536   2.816  0.4143 -1.2680 -2.7079
 8290SOL    HW236330   0.160   1.399   2.772  0.0429 -0.0283 -0.2724
 8291SOL     OW36331   3.960   0.978   6.211  0.5785  0.5524 -0.5064
 8291SOL    HW136332   3.965   1.071   6.233  1.6230  0.3847 -0.0469
 8291SOL    HW236333   4.037   0.959   6.157  0.2444 -1.8954 -0.0958
 8292SOL     OW36334   2.049   1.493   0.948  0.3959 -0.1312 -0.7888
 8292SOL    HW136335   2.042   1.467   0.857  2.5288 -2.5932 -0.2298
 8292SOL    HW236336   2.140   1.474   0.970  0.4242 -2.2902 -2.8319
 8293SOL     OW36337   2.001   0.549   2.950  0.6329  0.1247 -0.1695
 8293SOL    HW136338   2.002   0.497   3.030 -1.6431  2.7538  1.5521
 8293SOL    HW236339   2.042   0.486   2.890 -0.1411 -1.0297  0.5246
 8294SOL     OW36340   4.054   1.585   8.672 -0.2897  1.0444  0.2031
 8294SOL    HW136341   4.120   1.575   8.603 -1.2564  0.7342 -0.6815
 8294SOL    HW236342   4.067   1.510   8.730 -1.0551 -0.6448 -1.7922
 8295SOL     OW36343   1.564   2.898   3.356  0.5330 -0.0318 -0.2623
 8295SOL    HW136344   1.506   2.907   3.281  0.2175  1.0554  0.1240
 8295SOL    HW236345   1.509   2.836   3.404  0.2983  0.3848  0.0079
 8296SOL     OW36346   1.998   1.286  16.948  0.0674 -0.0790 -0.7180
 8296SOL    HW136347   1.948   1.321  16.874  0.2948 -1.8011 -1.7015
 8296SOL    HW236348   2.079   1.338  16.943 -0.2683  0.3711 -1.5318
 8297SOL     OW36349   3.225   0.709   1.582 -0.0603  0.4324 -0.2558
 8297SOL    HW136350   3.285   0.639   1.557 -0.9348  0.2349 -1.7963
 8297SOL    HW236351   3.284   0.784   1.572 -0.1871  0.5220 -0.3331
 8298SOL     OW36352   2.344   0.827   5.761 -0.1509  0.3328 -0.5073
 8298SOL    HW136353   2.383   0.914   5.769  0.2146  0.1420 -0.2051
 8298SOL    HW236354   2.253   0.849   5.741  0.8452  1.9722 -3.1589
 8299SOL     OW36355   0.614   2.561   3.312  0.6542  0.0757  0.0145
 8299SOL    HW136356   0.551   2.582   3.382  1.4242  1.3529  0.3099
 8299SOL    HW236357   0.562   2.503   3.256 -2.4261  1.4435  1.4373
 8300SOL     OW36358   1.849   3.663   1.919 -0.1352 -0.0824  0.0993
 8300SOL    HW136359   1.877   3.688   1.830 -0.3548  1.4231  0.4422
 8300SOL    HW236360   1.761   3.634   1.896  0.6494 -1.2777 -1.4197
 8301SOL     OW36361   3.927   0.813  10.530  0.1534  0.4718  0.2733
 8301SOL    HW136362   3.892   0.724  10.524 -0.1223  0.6777 -1.2178
 8301SOL    HW236363   4.017   0.788  10.547 -0.3261 -1.5222 -0.0587
 8302SOL     OW36364   3.975   3.285   4.968 -0.0150 -0.1932  0.1306
 8302SOL    HW136365   4.062   3.303   4.932 -0.5393 -0.0821 -1.1152
 8302SOL    HW236366   3.982   3.347   5.040 -1.1272 -0.1410  0.2043
 8303SOL     OW36367   1.515   0.701   4.035 -0.3507  0.2725 -0.2706
 8303SOL    HW136368   1.580   0.641   4.001 -1.4240 -0.9721 -0.1237
 8303SOL    HW236369   1.473   0.645   4.100  1.6559  1.4493  2.0303
 8304SOL     OW36370   3.464   0.263  14.973 -0.3188  0.0595  0.2106
 8304SOL    HW136371   3.552   0.278  15.006  0.2556 -1.9363 -0.3866
 8304SOL    HW236372   3.424   0.349  14.964 -0.0584  0.0126 -1.4424
 8305SOL     OW36373   0.711   3.785  14.666 -0.5453  0.0976  0.0196
 8305SOL    HW136374   0.710   3.693  14.638 -2.9954  0.5219 -1.2702
 8305SOL    HW236375   0.787   3.825  14.623  1.0260 -1.5351  1.2853
 8306SOL     OW36376   4.553   1.672   5.406  0.6765 -0.3061  0.3216
 8306SOL    HW136377   4.576   1.617   5.331 -0.2857 -1.4111  0.8318
 8306SOL    HW236378   4.500   1.605   5.449 -1.3008  0.2570 -1.1952
 8307SOL     OW36379   0.020   1.742   8.929  0.2878  0.0264 -0.1666
 8307SOL    HW136380   0.042   1.829   8.964 -1.3996  0.0434  0.8495
 8307SOL    HW236381   0.097   1.719   8.877  0.0628  0.1918 -0.5714
 8308SOL     OW36382   1.079   1.287   0.648 -0.0065  0.1607  0.2395
 8308SOL    HW136383   1.051   1.353   0.585  0.3813  0.7587  0.6843
 8308SOL    HW236384   1.152   1.338   0.685  1.1648 -0.9885 -0.5164
 8309SOL     OW36385   1.259   0.766   5.709  0.2479 -0.1881 -0.3760
 8309SOL    HW136386   1.182   0.757   5.765  1.0183  2.3416  1.1083
 8309SOL    HW236387   1.266   0.862   5.710 -2.0850 -0.0213  0.6187
 8310SOL     OW36388   2.103   2.555   1.923 -0.0275  0.4018  0.1947
 8310SOL    HW136389   2.115   2.585   2.013 -1.0192 -2.0238  1.1307
 8310SOL    HW236390   2.108   2.632   1.867 -1.8199 -0.5324 -1.2425
 8311SOL     OW36391   0.685   1.139   3.556  0.0388 -0.1489  0.0478
 8311SOL    HW136392   0.726   1.066   3.602 -0.1947  0.3655  1.0955
 8311SOL    HW236393   0.695   1.126   3.462  1.7306  2.6415 -0.1683
 8312SOL     OW36394   3.077   1.392   5.309 -0.7245  0.0447 -0.2913
 8312SOL    HW136395   3.171   1.405   5.319 -0.8659  0.8939 -0.0081
 8312SOL    HW236396   3.039   1.462   5.363 -1.6643 -1.3419  0.8476
 8313SOL     OW36397   4.001   1.626   1.489 -0.6218 -0.5018 -0.3893
 8313SOL    HW136398   4.070   1.642   1.426  0.2138 -0.4422  0.5404
 8313SOL    HW236399   4.043   1.601   1.572  1.4637 -2.7619 -2.1374
 8314SOL     OW36400   1.889   1.454   3.397 -0.0034 -0.4886 -0.3201
 8314SOL    HW136401   1.900   1.392   3.325  1.0955 -1.6122  0.8061
 8314SOL    HW236402   1.808   1.480   3.353 -1.1339 -0.0573  2.0109
 8315SOL     OW36403   0.100   0.035  17.319 -0.7560 -0.2056 -0.0937
 8315SOL    HW136404   0.107   4.723  17.230 -1.7371  1.3078 -0.7789
 8315SOL    HW236405   0.182   0.082  17.337  0.1590 -2.0249  0.5312
 8316SOL     OW36406   1.374   4.430  17.188  0.6853  0.0988 -0.2669
 8316SOL    HW136407   1.458   4.453  17.150 -0.5222  1.4626 -2.1668
 8316SOL    HW236408   1.320   4.482  17.128  0.1020  0.9054  0.9455
 8317SOL     OW36409   4.326   3.550   3.828 -0.2165 -0.2116 -0.3040
 8317SOL    HW136410   4.395   3.612   3.848 -0.0213 -0.1553 -1.1404
 8317SOL    HW236411   4.264   3.608   3.784 -1.3368 -0.7242  0.5895
 8318SOL     OW36412   3.144   0.176  11.493  0.0429  0.0107  0.3341
 8318SOL    HW136413   3.160   0.082  11.488 -1.5960 -0.0297 -4.1547
 8318SOL    HW236414   3.219   0.206  11.443  0.6993  0.7352  1.7442
 8319SOL     OW36415   3.211   1.620  17.499 -0.0201 -0.4565 -0.6078
 8319SOL    HW136416   3.176   1.709  17.488 -0.9351 -0.7481 -0.0732
 8319SOL    HW236417   3.134   1.571  17.469 -1.6344  2.5392 -1.4067
 8320SOL     OW36418   4.630   2.637   8.782  0.0887  0.1912 -0.9625
 8320SOL    HW136419   4.715   2.677   8.764  0.6704 -1.0954 -1.0312
 8320SOL    HW236420   4.654   2.565   8.840  0.1053  0.7128 -0.3189
 8321SOL     OW36421   2.180   0.182   1.881  0.1588 -0.0772  0.0938
 8321SOL    HW136422   2.228   0.103   1.855 -1.6097 -0.9630 -0.4453
 8321SOL    HW236423   2.108   0.132   1.920 -0.6325 -0.8372 -2.3409
 8322SOL     OW36424   1.223   4.695   6.546 -0.5813 -0.4888 -0.4454
 8322SOL    HW136425   1.178   4.702   6.462 -2.8631  2.4157  1.0290
 8322SOL    HW236426   1.221   4.600   6.558 -2.0643 -0.2185  1.3865
 8323SOL     OW36427   4.689   1.672   5.831 -0.3090 -0.1554 -0.3885
 8323SOL    HW136428   0.021   1.714   5.764  0.7414 -1.4953 -0.3629
 8323SOL    HW236429   4.619   1.735   5.845 -0.9841 -0.5267 -2.0663
 8324SOL     OW36430   4.132   1.989   8.074  0.6357  0.0057  0.1696
 8324SOL    HW136431   4.177   1.912   8.107  0.7205 -0.1571 -0.3371
 8324SOL    HW236432   4.134   2.033   8.160 -1.0430  0.0093  0.2028
 8325SOL     OW36433   0.776   3.063   3.764 -0.0673  0.3783 -0.3376
 8325SOL    HW136434   0.777   3.081   3.670 -0.9036  1.2576 -0.1822
 8325SOL    HW236435   0.857   3.109   3.788  1.2499 -2.4100  0.5732
 8326SOL     OW36436   3.592   0.404   3.704 -1.0866  0.2798 -0.6007
 8326SOL    HW136437   3.610   0.384   3.612 -0.1574  0.1492 -0.3948
 8326SOL    HW236438   3.613   0.318   3.740  0.7657  2.1197  2.6424
 8327SOL     OW36439   4.482   0.037  15.394 -0.2326 -0.8506 -0.2840
 8327SOL    HW136440   4.469   4.670  15.421 -0.7776 -1.2108 -1.7338
 8327SOL    HW236441   4.414   0.041  15.325 -1.6445  0.1908  1.1688
 8328SOL     OW36442   4.068   0.994  17.023 -0.4982  0.1242  0.4525
 8328SOL    HW136443   4.148   0.990  17.076  1.2645  0.8526 -2.1497
 8328SOL    HW236444   4.078   1.076  16.975 -0.6019  1.2296  2.2945
 8329SOL     OW36445   1.514   3.712   2.902 -0.7635 -0.5573 -0.4480
 8329SOL    HW136446   1.516   3.807   2.891  0.3934 -0.9572 -3.7014
 8329SOL    HW236447   1.456   3.709   2.978 -0.6481  3.4311 -0.2217
 8330SOL     OW36448   0.864   2.988  15.811 -0.1240  0.0071  0.0747
 8330SOL    HW136449   0.883   2.950  15.725  1.0932 -3.1240  1.7410
 8330SOL    HW236450   0.779   3.030  15.797 -1.2673 -2.2191  0.3631
 8331SOL     OW36451   0.103   2.935   3.037  0.2310  0.7878  0.2820
 8331SOL    HW136452   0.074   2.864   2.980 -0.9894  0.8563  0.8267
 8331SOL    HW236453   0.167   2.972   2.976 -1.8456  4.1069  0.1704
 8332SOL     OW36454   4.026   1.383   7.356  0.0935 -0.3683 -0.6715
 8332SOL    HW136455   4.028   1.468   7.313  2.5223 -0.3594 -0.5344
 8332SOL    HW236456   4.040   1.317   7.288 -1.3403  0.9582 -2.2529
 8333SOL     OW36457   3.613   0.695   1.114 -0.2964  0.0912  0.2805
 8333SOL    HW136458   3.706   0.716   1.121 -0.4568  0.5582  1.0208
 8333SOL    HW236459   3.621   0.606   1.079  2.8147 -0.4715  2.4521
 8334SOL     OW36460   4.494   3.926   5.249  0.9912 -0.0739 -0.1532
 8334SOL    HW136461   4.557   3.909   5.319 -0.1769  1.2802  1.2035
 8334SOL    HW236462   4.551   3.971   5.187 -0.7406  1.4089 -0.6403
 8335SOL     OW36463   0.484   2.845   7.520  0.4370 -0.1328  0.5498
 8335SOL    HW136464   0.393   2.871   7.530  0.0306 -1.1199 -0.5310
 8335SOL    HW236465   0.485   2.776   7.453 -1.6345  0.5727 -0.2092
 8336SOL     OW36466   4.580   2.746  13.133 -0.1735  0.3113  0.9451
 8336SOL    HW136467   4.613   2.750  13.043  2.8738 -0.1541  2.0688
 8336SOL    HW236468   4.498   2.701  13.113  0.8447 -0.6825 -0.9311
 8337SOL     OW36469   4.370   1.165   8.320 -0.0606 -0.2326  0.2457
 8337SOL    HW136470   4.362   1.094   8.256  0.6742 -1.2151  1.2424
 8337SOL    HW236471   4.364   1.244   8.266  0.8928  0.0752  0.5960
 8338SOL     OW36472   0.192   2.748   4.231  0.0294 -0.1906 -0.6400
 8338SOL    HW136473   0.140   2.667   4.233 -0.1362 -0.0305  2.0719
 8338SOL    HW236474   0.170   2.795   4.150  1.4437  0.0246 -0.8893
 8339SOL     OW36475   4.067   0.569   6.997 -0.4685  0.3749 -0.4925
 8339SOL    HW136476   4.138   0.527   6.947 -1.9055 -2.8186  0.1554
 8339SOL    HW236477   3.993   0.564   6.937 -0.8733 -1.7379  0.1857
 8340SOL     OW36478   1.203   1.852  12.254  0.4362 -0.0235 -0.3570
 8340SOL    HW136479   1.157   1.901  12.322 -1.5605 -1.1632 -0.9074
 8340SOL    HW236480   1.247   1.921  12.203  0.8419  0.0284  0.0601
 8341SOL     OW36481   3.052   1.076   5.104  0.1632  0.0244  0.0444
 8341SOL    HW136482   3.135   1.115   5.132  0.6984 -1.0718  0.0065
 8341SOL    HW236483   3.005   1.150   5.066 -0.4520 -0.9086 -0.9972
 8342SOL     OW36484   3.342   1.134  14.719 -0.1629 -0.8258  0.2460
 8342SOL    HW136485   3.275   1.089  14.770 -0.4461  0.0892  0.6756
 8342SOL    HW236486   3.424   1.086  14.733  1.2588  1.2269 -0.9395
 8343SOL     OW36487   4.480   3.891   7.285  0.1964  0.2418 -0.2455
 8343SOL    HW136488   4.516   3.955   7.346  1.3045 -0.1937 -0.4348
 8343SOL    HW236489   4.404   3.851   7.326  1.3412 -0.7596  0.8859
 8344SOL     OW36490   3.006   1.093   7.834  0.2816 -0.0506  0.1103
 8344SOL    HW136491   3.005   1.138   7.918  1.3837  1.4180 -0.6479
 8344SOL    HW236492   2.966   1.165   7.784 -1.4934 -0.0914  1.4783
 8345SOL     OW36493   2.281   4.149   4.006  0.0990 -0.1979  0.0734
 8345SOL    HW136494   2.206   4.123   4.060 -0.8896  0.5092 -0.9502
 8345SOL    HW236495   2.334   4.177   4.080  0.2668 -0.2358 -0.0330
 8346SOL     OW36496   0.850   2.584  17.146 -0.2085  0.2635 -0.1962
 8346SOL    HW136497   0.784   2.515  17.156  1.9465 -1.3010  3.1160
 8346SOL    HW236498   0.931   2.535  17.134 -2.0066 -2.7347 -0.1549
 8347SOL     OW36499   4.086   2.325  11.404 -0.4137 -0.6834 -0.7648
 8347SOL    HW136500   4.172   2.358  11.377  0.5327  0.5825  3.7982
 8347SOL    HW236501   4.109   2.262  11.472  0.7543 -0.0614 -0.5846
 8348SOL     OW36502   2.765   3.319   1.694 -0.0356 -0.1331  0.1122
 8348SOL    HW136503   2.829   3.271   1.746 -2.1775 -1.0232  1.9667
 8348SOL    HW236504   2.699   3.252   1.676 -1.2090  0.8595  0.6785
 8349SOL     OW36505   0.330   3.085   0.023  0.4703  0.4250 -0.8085
 8349SOL    HW136506   0.292   3.044   0.100  1.6667  1.8741  0.5788
 8349SOL    HW236507   0.351   3.171   0.060 -0.3298  0.2791 -0.0152
 8350SOL     OW36508   4.619   1.886  15.198 -0.2279 -0.1317  0.2531
 8350SOL    HW136509   4.643   1.969  15.239 -1.3318 -0.1512  0.9237
 8350SOL    HW236510   4.525   1.886  15.214 -0.3443  0.6227 -0.4103
 8351SOL     OW36511   3.091   0.278  15.932  0.0624 -0.0901 -0.4700
 8351SOL    HW136512   3.121   0.237  15.851  2.2924  2.0844 -0.7385
 8351SOL    HW236513   3.156   0.348  15.940 -0.7411  0.6328 -0.3071
 8352SOL     OW36514   3.770   0.970   0.050  0.0635  0.2069  0.6523
 8352SOL    HW136515   3.773   1.054   0.004  1.8728  0.4389  1.1965
 8352SOL    HW236516   3.769   0.908  17.673 -0.6565 -0.0041  0.8486
 8353SOL     OW36517   0.625   3.587  10.018  0.4945 -0.2503 -0.4027
 8353SOL    HW136518   0.561   3.615   9.954  0.1163 -0.2441 -0.0236
 8353SOL    HW236519   0.574   3.512  10.049  0.0988 -0.3450 -1.3029
 8354SOL     OW36520   3.022   0.453   7.472 -0.0361 -0.5552  0.7356
 8354SOL    HW136521   3.019   0.449   7.376  0.6562 -1.7631  0.7683
 8354SOL    HW236522   3.076   0.375   7.484  2.1982  0.7825 -0.6611
 8355SOL     OW36523   4.124   1.373   3.460 -0.3776 -0.1398  0.1808
 8355SOL    HW136524   4.165   1.446   3.414 -0.2102 -0.3237  0.0368
 8355SOL    HW236525   4.172   1.302   3.415 -2.4356 -0.9480 -0.7385
 8356SOL     OW36526   1.582   0.825   2.977  0.5110  0.2514 -0.0235
 8356SOL    HW136527   1.582   0.731   2.964  1.7014  0.1655  0.5611
 8356SOL    HW236528   1.666   0.862   2.947 -1.1275  0.5058 -4.3336
 8357SOL     OW36529   3.325   1.932  11.072 -0.3357  0.6122  0.2189
 8357SOL    HW136530   3.282   2.017  11.060  0.4860  1.0884  0.6942
 8357SOL    HW236531   3.285   1.891  11.149  2.2350 -0.4676  0.9847
 8358SOL     OW36532   1.078   1.675   7.262 -0.3410 -0.8532  0.0090
 8358SOL    HW136533   1.006   1.612   7.261 -0.3950 -0.7483 -2.2887
 8358SOL    HW236534   1.112   1.652   7.349 -2.0660 -0.6364  0.7588
 8359SOL     OW36535   3.509   3.217  10.591 -0.1135  0.2229 -0.5678
 8359SOL    HW136536   3.503   3.146  10.527  1.5026  0.2771 -0.7668
 8359SOL    HW236537   3.415   3.230  10.603 -0.2115  0.2655 -1.3696
 8360SOL     OW36538   0.548   0.411   6.022  0.2086 -0.6628 -0.6607
 8360SOL    HW136539   0.525   0.504   6.029  0.1842 -0.6059 -1.4793
 8360SOL    HW236540   0.561   0.409   5.927 -1.6044  0.1063 -0.9256
 8361SOL     OW36541   3.702   2.286   3.022  0.2696 -0.0433  0.1044
 8361SOL    HW136542   3.656   2.328   2.950 -0.5580  0.4608  0.9205
 8361SOL    HW236543   3.665   2.199   3.035  1.2050 -0.1082  2.3772
 8362SOL     OW36544   0.832   3.057   3.206  0.3598 -0.0054  0.1942
 8362SOL    HW136545   0.808   2.999   3.134  0.1761 -1.0413  1.1035
 8362SOL    HW236546   0.925   3.035   3.207  0.4112  0.1394 -1.3502
 8363SOL     OW36547   1.295   0.516   4.473  0.2145  0.5444 -0.2090
 8363SOL    HW136548   1.256   0.571   4.542 -1.0839 -0.2722 -0.2789
 8363SOL    HW236549   1.357   0.467   4.528  1.2059  0.4065 -1.4619
 8364SOL     OW36550   2.368   3.867   6.916  0.0823 -0.2303  0.2427
 8364SOL    HW136551   2.344   3.841   7.005  0.9126 -1.3148  0.1515
 8364SOL    HW236552   2.432   3.796   6.904 -0.5278 -0.2963 -2.6308
 8365SOL     OW36553   3.641   2.121   4.703  0.0963  0.4094  0.3957
 8365SOL    HW136554   3.641   2.163   4.617 -0.2071 -1.8351 -0.7173
 8365SOL    HW236555   3.590   2.043   4.680  1.3045 -0.1816 -0.2381
 8366SOL     OW36556   0.511   2.415  12.346  0.2012  0.2352 -0.0602
 8366SOL    HW136557   0.452   2.376  12.410  1.3355 -0.9053  0.2971
 8366SOL    HW236558   0.454   2.488  12.320 -1.0556 -1.0159 -0.8017
 8367SOL     OW36559   2.633   0.317  13.302 -0.0730  0.0885 -0.3072
 8367SOL    HW136560   2.664   0.227  13.313 -0.6433 -0.2853 -1.7458
 8367SOL    HW236561   2.670   0.365  13.376  0.7185 -0.4943 -0.3218
 8368SOL     OW36562   3.335   3.989   3.874 -0.1815  0.9757  0.2354
 8368SOL    HW136563   3.315   3.929   3.945 -1.7783 -0.8123 -1.7575
 8368SOL    HW236564   3.429   3.980   3.857 -0.2991 -0.1835  0.2207
 8369SOL     OW36565   3.732   1.217   5.578 -0.1717  0.1403 -0.2499
 8369SOL    HW136566   3.760   1.156   5.511 -0.3356  0.9247 -1.0315
 8369SOL    HW236567   3.800   1.283   5.562  2.1064 -1.5031  2.5952
 8370SOL     OW36568   1.890   3.845  12.992 -0.0038 -0.1955  0.1378
 8370SOL    HW136569   1.958   3.778  12.983 -1.5489 -1.8294  0.7548
 8370SOL    HW236570   1.846   3.819  12.911  0.8743 -2.1164  0.2823
 8371SOL     OW36571   1.283   3.609   7.039  0.0858 -0.3734  0.4745
 8371SOL    HW136572   1.262   3.546   6.971 -1.2379  0.0980  0.4565
 8371SOL    HW236573   1.203   3.662   7.044 -1.3273 -2.3010 -1.9271
 8372SOL     OW36574   1.409   1.037  14.763  0.7551  0.0363 -0.5066
 8372SOL    HW136575   1.334   1.073  14.717 -1.2672 -1.7042  1.4401
 8372SOL    HW236576   1.437   0.970  14.701  2.5177  0.1256  0.1700
 8373SOL     OW36577   4.597   3.018   8.161  0.3168  0.6057  0.4420
 8373SOL    HW136578   4.655   2.945   8.179  0.8618  0.8678 -0.2809
 8373SOL    HW236579   4.510   2.981   8.176  0.0810  0.4052 -1.4857
 8374SOL     OW36580   1.387   0.548   4.207 -0.1941 -0.1661  0.2078
 8374SOL    HW136581   1.331   0.470   4.210  1.2597 -1.2697 -1.4267
 8374SOL    HW236582   1.366   0.571   4.297 -1.9084  0.4646 -0.3507
 8375SOL     OW36583   0.751   2.281   6.008  0.5965 -0.2049 -0.2174
 8375SOL    HW136584   0.732   2.287   5.914  0.6390 -0.0346 -0.2151
 8375SOL    HW236585   0.755   2.187   6.023 -0.0360 -0.1522  0.2666
 8376SOL     OW36586   0.101   0.077   6.141  0.2427  0.7144 -0.0149
 8376SOL    HW136587   0.144   0.015   6.199 -1.9915 -0.8642 -0.0286
 8376SOL    HW236588   0.157   0.152   6.158  1.6421 -0.8594  2.2691
 8377SOL     OW36589   2.370   2.838   8.419 -0.1505 -0.0126 -0.6011
 8377SOL    HW136590   2.334   2.749   8.422  0.0419  0.0008  2.2761
 8377SOL    HW236591   2.331   2.882   8.495 -1.0372  0.1338 -1.1435
 8378SOL     OW36592   3.038   3.650   7.303  0.2170  0.3657 -0.0034
 8378SOL    HW136593   2.957   3.655   7.353  0.7532 -2.0326  1.1262
 8378SOL    HW236594   3.044   3.742   7.276  0.2297 -0.0007 -1.2637
 8379SOL     OW36595   0.283   2.975   2.334 -0.5293  0.2214  0.1021
 8379SOL    HW136596   0.262   2.927   2.254 -0.9169 -1.3973  1.1724
 8379SOL    HW236597   0.220   3.046   2.329 -0.6447  0.0808 -0.4448
 8380SOL     OW36598   0.217   2.928   8.367  0.1747  0.0523 -0.2334
 8380SOL    HW136599   0.143   2.972   8.408 -0.8652 -0.5325 -1.4834
 8380SOL    HW236600   0.182   2.844   8.336  2.0644  0.6165 -3.9390
 8381SOL     OW36601   3.282   2.306   5.622  0.5889  0.0511  0.6323
 8381SOL    HW136602   3.216   2.285   5.556  1.7887 -0.2847 -0.4550
 8381SOL    HW236603   3.236   2.276   5.701  0.7892 -0.4320  0.5695
 8382SOL     OW36604   0.561   3.877  15.113 -0.0580 -0.3595  0.5720
 8382SOL    HW136605   0.523   3.789  15.107  0.2096 -0.1853 -3.3856
 8382SOL    HW236606   0.480   3.927  15.100 -0.0468 -0.7608 -1.0114
 8383SOL     OW36607   2.695   2.671  15.646 -0.1735  0.2001 -0.1524
 8383SOL    HW136608   2.670   2.594  15.595  0.3174  0.5789 -0.9622
 8383SOL    HW236609   2.776   2.689  15.598  0.1438  0.3363  0.4380
 8384SOL     OW36610   3.296   1.960   1.378  0.4130 -0.0263  0.1252
 8384SOL    HW136611   3.381   1.915   1.382 -0.0680 -0.7730  2.0841
 8384SOL    HW236612   3.311   2.049   1.411  3.2039 -0.4654  0.0100
 8385SOL     OW36613   4.281   2.956   6.517 -0.7847  1.2501  0.4330
 8385SOL    HW136614   4.246   2.927   6.601 -0.5764  2.6991  1.0253
 8385SOL    HW236615   4.328   3.031   6.552  1.9164  0.8682 -2.3633
 8386SOL     OW36616   3.785   0.573  16.934 -0.3094 -0.1266  0.0637
 8386SOL    HW136617   3.788   0.544  16.843  0.2061  1.5606 -0.4555
 8386SOL    HW236618   3.877   0.585  16.956  0.2321 -1.7905 -1.4106
 8387SOL     OW36619   1.854   2.152   5.642  0.3317 -0.3834 -0.1222
 8387SOL    HW136620   1.790   2.193   5.583  0.1925 -1.2437 -0.5651
 8387SOL    HW236621   1.869   2.063   5.610 -0.0567 -0.5204  0.0767
 8388SOL     OW36622   1.410   0.615   5.391  0.1371 -0.3835  0.0082
 8388SOL    HW136623   1.414   0.629   5.297  2.6765  0.2631  0.2145
 8388SOL    HW236624   1.372   0.695   5.428  1.4892  0.5140 -0.5798
 8389SOL     OW36625   1.501   2.562   2.917  0.1362  0.7942 -0.1105
 8389SOL    HW136626   1.541   2.649   2.917 -1.5043  1.5554  1.7821
 8389SOL    HW236627   1.534   2.540   2.830  0.7195  0.9233  0.0814
 8390SOL     OW36628   2.528   0.345   0.760  0.3659  0.3458 -0.0914
 8390SOL    HW136629   2.440   0.368   0.788  0.5463 -1.0529  1.5676
 8390SOL    HW236630   2.529   0.273   0.697  2.1048  0.9721 -0.7975
 8391SOL     OW36631   2.769   3.777   4.384  0.8763 -0.0705 -0.0398
 8391SOL    HW136632   2.673   3.773   4.387  0.8260  0.8567 -0.5036
 8391SOL    HW236633   2.779   3.717   4.310 -0.7125 -0.1678 -0.1699
 8392SOL     OW36634   4.626   4.361   8.175  0.3539  0.2840  0.3384
 8392SOL    HW136635   4.610   4.455   8.184  0.7816  0.3888 -0.0194
 8392SOL    HW236636   4.579   4.327   8.252 -0.9684 -2.3439 -1.6433
 8393SOL     OW36637   3.689   0.550   0.029  0.0840  0.1303  0.1032
 8393SOL    HW136638   3.652   0.464   0.047  0.5234 -0.0359  0.2361
 8393SOL    HW236639   3.633   0.611   0.076 -1.6452 -2.1688  0.9933
 8394SOL     OW36640   2.523   2.082   8.493  0.2438 -0.0611  0.6836
 8394SOL    HW136641   2.503   2.020   8.422  1.3056  1.2422 -0.7648
 8394SOL    HW236642   2.430   2.105   8.502  0.1216 -1.2625  2.4890
 8395SOL     OW36643   1.764   4.319   6.606 -0.6115 -0.5239 -0.4947
 8395SOL    HW136644   1.780   4.302   6.699  0.4490  3.0765 -0.0330
 8395SOL    HW236645   1.723   4.406   6.608 -0.7384 -0.5940  0.0653
 8396SOL     OW36646   1.382   2.008   7.753  0.5377 -0.4605 -0.3405
 8396SOL    HW136647   1.377   1.929   7.699 -3.7770 -1.7328  1.9319
 8396SOL    HW236648   1.442   2.061   7.701  1.1104 -1.5591 -0.8070
 8397SOL     OW36649   1.169   3.665  13.320 -0.2855  0.2519  0.2733
 8397SOL    HW136650   1.129   3.599  13.377  0.2530 -1.3348 -1.1572
 8397SOL    HW236651   1.248   3.687  13.368 -0.5612  2.2522 -0.2099
 8398SOL     OW36652   1.057   0.705   6.451 -0.0366 -0.1561  0.2876
 8398SOL    HW136653   0.981   0.763   6.449 -0.1114 -0.2723 -0.1844
 8398SOL    HW236654   1.107   0.747   6.381 -1.4423  2.4070  0.8467
 8399SOL     OW36655   0.560   0.483   0.322  0.0379 -0.8371 -0.3597
 8399SOL    HW136656   0.635   0.438   0.360  0.5328  0.5351  0.3009
 8399SOL    HW236657   0.488   0.425   0.345 -0.5127 -0.2659 -0.6556
 8400SOL     OW36658   4.539   4.065   4.259 -0.4342  0.2360 -0.0203
 8400SOL    HW136659   4.536   3.970   4.262  1.1252  0.1899  0.0390
 8400SOL    HW236660   4.545   4.088   4.166 -1.6953  0.9250  0.0675
 8401SOL     OW36661   4.017   0.300   5.727 -0.0365  0.1529 -0.2095
 8401SOL    HW136662   3.931   0.258   5.727  0.3342 -0.6164  0.5719
 8401SOL    HW236663   4.077   0.227   5.739 -0.5607 -0.2659 -0.1354
 8402SOL     OW36664   1.551   4.095   2.481  0.2787 -0.2429  0.2478
 8402SOL    HW136665   1.564   4.070   2.389 -1.7955  0.0760 -0.1258
 8402SOL    HW236666   1.549   4.190   2.475 -0.5190 -0.2744 -0.0047
 8403SOL     OW36667   2.569   0.021   8.460 -0.2782  0.0520  0.3042
 8403SOL    HW136668   2.619   4.678   8.508 -1.3067 -1.4729 -0.7081
 8403SOL    HW236669   2.508   0.047   8.529 -1.1927 -0.2929 -0.3745
 8404SOL     OW36670   0.326   4.223   8.020 -0.3279  1.0431 -0.0247
 8404SOL    HW136671   0.329   4.228   7.924  0.2757 -0.3361 -0.0794
 8404SOL    HW236672   0.250   4.280   8.034 -2.4841 -1.5110 -1.4627
 8405SOL     OW36673   2.035   0.910   0.271  0.7151 -0.3038  0.0495
 8405SOL    HW136674   1.948   0.905   0.231  0.5957  1.4908  0.1082
 8405SOL    HW236675   2.047   0.817   0.288 -0.9224 -0.6098 -0.4894
 8406SOL     OW36676   0.480   3.688  16.220 -0.0609  0.5712  0.4230
 8406SOL    HW136677   0.469   3.629  16.295  1.2521 -0.4538 -0.1821
 8406SOL    HW236678   0.559   3.739  16.236  0.0303  0.3364  0.7356
 8407SOL     OW36679   2.755   0.602  12.604 -0.2928 -0.1329 -0.4326
 8407SOL    HW136680   2.772   0.594  12.511 -0.7673  0.3370 -0.5577
 8407SOL    HW236681   2.845   0.614  12.633 -0.9949  1.3395  1.1833
 8408SOL     OW36682   4.604   4.545   6.367 -0.3457 -0.0958 -0.1971
 8408SOL    HW136683   4.667   4.482   6.330 -0.6922 -0.0631 -0.8394
 8408SOL    HW236684   4.664   4.616   6.391 -1.4244  0.6731  0.2213
 8409SOL     OW36685   2.382   0.379  16.795  0.2909 -0.1338  0.3409
 8409SOL    HW136686   2.346   0.431  16.723 -3.9617 -0.9226  1.8714
 8409SOL    HW236687   2.457   0.436  16.809  1.2051 -1.0763 -0.7281
 8410SOL     OW36688   3.781   1.926   4.851  0.4307  0.1187  0.1838
 8410SOL    HW136689   3.735   1.970   4.779 -0.7452 -1.9046 -0.2985
 8410SOL    HW236690   3.734   1.968   4.923  0.9926  2.0505 -0.5681
 8411SOL     OW36691   1.078   3.026  14.782  0.2777 -0.0223  0.3529
 8411SOL    HW136692   1.141   3.095  14.763 -1.6532  0.7532 -3.1637
 8411SOL    HW236693   1.020   3.035  14.706 -0.2669 -1.7070  0.5614
 8412SOL     OW36694   1.211   4.671  11.995  0.2332 -0.3085  0.2774
 8412SOL    HW136695   1.156   4.722  11.934  2.2447  1.4055 -0.1038
 8412SOL    HW236696   1.222   0.018  12.059 -2.9359 -1.1333  1.7520
 8413SOL     OW36697   1.218   4.338   5.360 -0.6345 -0.2636 -0.1473
 8413SOL    HW136698   1.268   4.362   5.281  1.9401  0.4373  1.6935
 8413SOL    HW236699   1.184   4.418   5.399  1.8246  0.8519 -0.2648
 8414SOL     OW36700   3.114   1.556  13.635 -0.0418 -0.2069  0.0102
 8414SOL    HW136701   3.126   1.614  13.711  3.3230 -0.1743 -0.5396
 8414SOL    HW236702   3.156   1.478  13.671  1.1375  0.4434  0.0405
 8415SOL     OW36703   0.777   0.326   5.703 -0.0083  0.1430 -0.3931
 8415SOL    HW136704   0.692   0.371   5.705 -1.0205 -1.8595  2.2638
 8415SOL    HW236705   0.796   0.320   5.609  1.5617 -1.5250  0.0225
 8416SOL     OW36706   3.184   3.645   5.266  0.4273 -1.0146 -0.3062
 8416SOL    HW136707   3.223   3.724   5.303  0.7428 -1.4227  0.2444
 8416SOL    HW236708   3.257   3.608   5.216  0.9468 -1.4139  0.7431
 8417SOL     OW36709   4.152   0.154   2.181 -0.0300  0.0182 -0.1340
 8417SOL    HW136710   4.213   0.081   2.169  1.6068  1.2784  0.6161
 8417SOL    HW236711   4.135   0.194   2.096  0.2771 -2.5609 -1.3926
 8418SOL     OW36712   3.455   2.258  12.334  0.0405  0.0384 -0.7431
 8418SOL    HW136713   3.392   2.212  12.389  0.6848 -2.5581 -2.1999
 8418SOL    HW236714   3.521   2.259  12.403 -0.5274 -0.9283 -0.1851
 8419SOL     OW36715   1.339   1.637  10.678  0.0665  0.5813  0.2559
 8419SOL    HW136716   1.306   1.547  10.689 -3.2060  1.8596  0.9136
 8419SOL    HW236717   1.271   1.684  10.727 -2.2680 -0.0169 -2.4112
 8420SOL     OW36718   0.275   3.959   4.992  0.0722  0.4523 -0.0279
 8420SOL    HW136719   0.219   3.893   4.952 -0.3232  0.5335  0.3898
 8420SOL    HW236720   0.319   3.902   5.055 -3.6892 -3.0909 -0.6286
 8421SOL     OW36721   2.794   0.441   7.655 -0.0887  0.0898  0.2434
 8421SOL    HW136722   2.848   0.389   7.595  0.8954  0.5975  0.6707
 8421SOL    HW236723   2.842   0.524   7.656  2.3114 -1.2909 -0.0864
 8422SOL     OW36724   4.689   0.594   4.871  0.1174 -1.0625  0.0144
 8422SOL    HW136725   4.618   0.556   4.922  0.7077 -1.3878  0.5871
 8422SOL    HW236726   0.038   0.592   4.933  1.6430  1.7452 -1.6820
 8423SOL     OW36727   2.909   1.508   3.421  0.1236  0.0457  0.2866
 8423SOL    HW136728   2.948   1.426   3.389  1.8137  0.3544  1.5237
 8423SOL    HW236729   2.829   1.473   3.459  0.7988  0.8681  2.4335
 8424SOL     OW36730   3.145   0.747   4.137  0.1521  0.7515  0.6921
 8424SOL    HW136731   3.122   0.839   4.150  0.6856  1.0733 -0.6982
 8424SOL    HW236732   3.185   0.720   4.220  0.1317 -0.9385  0.1549
 8425SOL     OW36733   0.911   3.582   2.634 -0.4054 -0.3267  0.1421
 8425SOL    HW136734   0.964   3.532   2.571 -1.7363 -1.8360  0.2165
 8425SOL    HW236735   0.856   3.646   2.589 -0.5840 -1.6161 -1.4743
 8426SOL     OW36736   4.371   4.678   6.017 -0.3787 -0.8556 -0.1042
 8426SOL    HW136737   4.384   4.606   5.955  1.1945 -1.9238  1.4892
 8426SOL    HW236738   4.461   4.697   6.042 -0.0665 -1.3960 -0.8441
 8427SOL     OW36739   3.610   1.628   7.454 -0.4417 -0.0325 -0.3065
 8427SOL    HW136740   3.691   1.641   7.505  0.4666 -1.0363 -1.4915
 8427SOL    HW236741   3.641   1.667   7.372  0.0089  1.0400  0.3707
 8428SOL     OW36742   0.286   4.501  10.031 -0.0695  0.4132  0.2251
 8428SOL    HW136743   0.193   4.495  10.051 -0.5915  1.0671 -1.9369
 8428SOL    HW236744   0.320   4.441  10.097  2.0727  1.9997  0.5539
 8429SOL     OW36745   1.461   4.595   9.311 -0.4331 -0.1539  0.8678
 8429SOL    HW136746   1.385   4.569   9.259  2.0390 -0.7047 -2.4739
 8429SOL    HW236747   1.484   4.679   9.269  1.9636 -1.0398  0.3944
 8430SOL     OW36748   0.069   2.535   7.782  0.0826  0.2008  0.2270
 8430SOL    HW136749   0.071   2.605   7.716 -0.0473 -0.2373 -0.2427
 8430SOL    HW236750   0.161   2.532   7.806  0.6418  0.2786 -1.8984
 8431SOL     OW36751   1.687   1.494  13.209  0.0660 -0.0285  0.6721
 8431SOL    HW136752   1.633   1.433  13.158  0.7391  0.7005 -0.9249
 8431SOL    HW236753   1.627   1.568  13.222  0.0744 -0.0302  0.7170
 8432SOL     OW36754   2.999   1.902   9.871  0.1164  0.5611  0.6179
 8432SOL    HW136755   2.972   1.993   9.885  0.6915  0.8088  0.0776
 8432SOL    HW236756   2.926   1.846   9.901  1.9627 -2.6101 -0.7798
 8433SOL     OW36757   2.611   0.682   8.908 -0.1052  0.0905 -0.6002
 8433SOL    HW136758   2.705   0.694   8.904 -0.2897  2.0832  1.1754
 8433SOL    HW236759   2.599   0.713   8.819 -1.6236 -0.2918 -0.5463
 8434SOL     OW36760   1.522   3.629   7.163  0.0878 -0.1306 -0.9012
 8434SOL    HW136761   1.431   3.632   7.133 -0.3017  1.7750  0.4918
 8434SOL    HW236762   1.507   3.565   7.233  1.5230 -1.3068 -1.6593
 8435SOL     OW36763   3.456   2.930   6.962 -0.5903  0.3067 -0.2170
 8435SOL    HW136764   3.405   3.005   6.932  1.5171  2.1785  0.9014
 8435SOL    HW236765   3.514   2.918   6.887  1.3244 -2.6340  1.7019
 8436SOL     OW36766   4.659   1.292  13.990 -0.2362  0.7580 -0.2211
 8436SOL    HW136767   4.575   1.336  13.979  0.6896  2.6959  0.4359
 8436SOL    HW236768   4.639   1.208  14.030 -2.8484  2.0746  1.2534
 8437SOL     OW36769   3.835   1.055   3.453  0.0899 -0.7932  0.0773
 8437SOL    HW136770   3.784   1.003   3.515 -1.4107  1.1421  0.4729
 8437SOL    HW236771   3.903   1.078   3.516 -1.5640 -2.2087  2.3881
 8438SOL     OW36772   1.205   3.872   7.399  0.0409 -0.0448 -0.0208
 8438SOL    HW136773   1.253   3.830   7.470  1.7819 -1.8818 -2.2858
 8438SOL    HW236774   1.144   3.929   7.445  0.7925 -1.0987  2.2628
 8439SOL     OW36775   2.694   1.862  16.478 -0.2782 -0.1383 -0.3634
 8439SOL    HW136776   2.686   1.939  16.422 -1.6937 -0.2294 -0.3019
 8439SOL    HW236777   2.602   1.846  16.498 -0.1885  0.2486  0.3658
 8440SOL     OW36778   0.787   2.390   5.420 -0.5285  0.2443 -0.6464
 8440SOL    HW136779   0.701   2.432   5.420 -0.3331  0.6447 -0.5933
 8440SOL    HW236780   0.839   2.455   5.375  2.0794 -0.8653  0.7583
 8441SOL     OW36781   2.303   3.667  13.328  0.0893  0.1393  0.7553
 8441SOL    HW136782   2.334   3.675  13.418  0.0255 -0.2250  0.8074
 8441SOL    HW236783   2.314   3.761  13.311 -2.6562  0.3718  0.2677
 8442SOL     OW36784   2.134   1.278  14.514  0.3582  0.1866 -0.6120
 8442SOL    HW136785   2.186   1.202  14.540 -0.6390  0.2438  1.5337
 8442SOL    HW236786   2.094   1.299  14.598 -0.3042  1.6977 -1.3114
 8443SOL     OW36787   0.098   0.319   9.072  0.2044 -0.0806 -1.4005
 8443SOL    HW136788   0.055   0.236   9.052 -1.0623 -0.0339  1.0920
 8443SOL    HW236789   0.126   0.298   9.161 -1.1817 -0.1372 -0.9733
 8444SOL     OW36790   2.820   0.287   6.923  0.2728 -0.1766 -0.4245
 8444SOL    HW136791   2.819   0.194   6.897 -0.6398  0.4044 -2.4542
 8444SOL    HW236792   2.898   0.299   6.978 -1.5856  0.1931  2.1314
 8445SOL     OW36793   2.006   4.603   9.390 -0.0682  0.2693  0.2775
 8445SOL    HW136794   1.936   4.540   9.374 -0.8738  1.5306 -1.1342
 8445SOL    HW236795   2.001   4.629   9.483  0.2250  2.7094 -0.3729
 8446SOL     OW36796   2.815   4.601   4.771  0.3153  0.0354 -0.2750
 8446SOL    HW136797   2.904   4.582   4.801  0.3064 -0.6652 -0.6913
 8446SOL    HW236798   2.827   4.578   4.679 -1.7106 -3.2347  0.3011
 8447SOL     OW36799   2.063   4.287  13.277 -0.6393  0.1376 -0.0506
 8447SOL    HW136800   2.006   4.340  13.222 -1.2802  0.1897  0.6674
 8447SOL    HW236801   2.014   4.204  13.267 -0.2652  0.2061 -2.6751
 8448SOL     OW36802   3.713   2.406  11.629 -0.6993  0.1939 -0.1332
 8448SOL    HW136803   3.760   2.459  11.694 -3.3379  2.0130  0.3427
 8448SOL    HW236804   3.749   2.319  11.642  1.9986  1.1144 -1.4261
 8449SOL     OW36805   0.172   0.223   2.441  0.7353 -0.3839 -0.6393
 8449SOL    HW136806   0.179   0.317   2.459  1.9231 -0.5068 -0.4155
 8449SOL    HW236807   0.086   0.200   2.475  0.5339  0.2714 -0.7026
 8450SOL     OW36808   2.465   3.535   3.958 -0.4146 -0.0134 -0.2181
 8450SOL    HW136809   2.520   3.514   3.883 -1.3158  1.0050 -1.1555
 8450SOL    HW236810   2.439   3.626   3.948 -3.2551 -0.6053  1.9098
 8451SOL     OW36811   4.670   1.014  12.292  0.3595  0.8971  0.0487
 8451SOL    HW136812   4.686   0.930  12.248  1.2298  2.6786 -3.0499
 8451SOL    HW236813   4.575   1.016  12.302  0.5514  0.5922  1.9647
 8452SOL     OW36814   2.066   2.360   5.936 -0.3596  0.2972  0.0748
 8452SOL    HW136815   1.989   2.304   5.929 -1.3252  1.6705 -0.2243
 8452SOL    HW236816   2.046   2.445   5.897  1.6906  2.1197  2.9928
 8453SOL     OW36817   2.769   0.285   5.326  0.0227  0.4508 -0.0239
 8453SOL    HW136818   2.728   0.347   5.265 -0.0615  0.9050  0.4906
 8453SOL    HW236819   2.791   0.213   5.267 -0.1239 -0.6405  1.2686
 8454SOL     OW36820   4.427   1.218  16.624 -0.4360  0.2174  0.1815
 8454SOL    HW136821   4.404   1.276  16.551 -0.8506 -0.0276  0.1147
 8454SOL    HW236822   4.367   1.145  16.610 -0.6100  0.1776  1.1142
 8455SOL     OW36823   3.671   1.265   7.633 -0.7350  0.7124  0.1062
 8455SOL    HW136824   3.694   1.213   7.556 -2.2738 -0.4626  0.4453
 8455SOL    HW236825   3.743   1.327   7.622  1.3002 -2.3173 -3.3754
 8456SOL     OW36826   3.525   1.153  17.217 -0.4368 -0.6842 -0.1952
 8456SOL    HW136827   3.584   1.097  17.267 -0.0339 -0.4452 -0.4110
 8456SOL    HW236828   3.442   1.112  17.242  0.1042 -2.9396 -2.0654
 8457SOL     OW36829   1.854   0.830   3.808  0.5351 -0.2030  0.1550
 8457SOL    HW136830   1.864   0.909   3.861  1.0136  1.1764 -1.9518
 8457SOL    HW236831   1.928   0.779   3.839 -0.9924 -2.5117 -0.0265
 8458SOL     OW36832   3.312   4.335   6.585 -0.3077 -0.0600  0.0514
 8458SOL    HW136833   3.350   4.325   6.498 -0.3739  2.4234 -0.2613
 8458SOL    HW236834   3.274   4.422   6.580 -3.0114 -1.2680 -0.2413
 8459SOL     OW36835   0.500   1.772   6.971  0.0200 -0.5484  0.0924
 8459SOL    HW136836   0.463   1.737   6.890  0.2509  0.5729 -0.4911
 8459SOL    HW236837   0.461   1.859   6.960  1.6985  0.1609 -0.1431
 8460SOL     OW36838   2.548   1.826   0.013 -0.0416  0.6220  0.3560
 8460SOL    HW136839   2.609   1.777   0.068 -2.3572 -1.0807  1.3773
 8460SOL    HW236840   2.479   1.850   0.074 -1.4402 -2.6475  0.0847
 8461SOL     OW36841   3.422   1.143   4.419 -0.5672 -0.1226 -0.2097
 8461SOL    HW136842   3.512   1.136   4.448 -0.6033  0.6969  0.1163
 8461SOL    HW236843   3.407   1.056   4.383  0.4526 -0.2114 -0.4117
 8462SOL     OW36844   2.815   0.644  12.938  0.7349 -0.2137  0.5854
 8462SOL    HW136845   2.791   0.557  12.968 -1.2194  0.4955  1.0922
 8462SOL    HW236846   2.754   0.690  12.996 -0.4439 -1.1866  0.1159
 8463SOL     OW36847   1.900   0.842   6.608  0.1868 -0.2738  0.5983
 8463SOL    HW136848   1.941   0.876   6.688 -1.4235  1.3667  0.7260
 8463SOL    HW236849   1.831   0.907   6.604 -0.9982 -1.6275 -0.6149
 8464SOL     OW36850   0.575   2.817   6.246 -0.3333  0.2186 -0.4858
 8464SOL    HW136851   0.554   2.890   6.187  0.2588 -0.9239 -2.1140
 8464SOL    HW236852   0.671   2.815   6.242 -0.3946  1.6278 -2.4902
 8465SOL     OW36853   1.657   1.430   4.757  0.2231  0.0105  0.2429
 8465SOL    HW136854   1.590   1.405   4.821 -0.0403  1.2339  0.4443
 8465SOL    HW236855   1.612   1.505   4.718 -0.6796 -0.0894  1.0846
 8466SOL     OW36856   2.022   1.347  10.984  0.3686 -0.2272  0.0192
 8466SOL    HW136857   1.932   1.320  10.968  0.0034  0.2111  1.3027
 8466SOL    HW236858   2.019   1.426  11.039  0.2069 -0.0019 -0.3107
 8467SOL     OW36859   0.086   3.062   5.761  0.2806 -0.6398  0.4871
 8467SOL    HW136860   0.046   3.139   5.801  0.9464 -0.2478  0.3956
 8467SOL    HW236861   0.020   2.998   5.789 -0.7339  0.2729  0.1659
 8468SOL     OW36862   4.332   0.900   2.035  0.2394 -0.1374 -0.5476
 8468SOL    HW136863   4.249   0.852   2.034 -0.3779  0.9550 -1.3282
 8468SOL    HW236864   4.298   0.989   2.029 -0.9959 -0.5389  0.5340
 8469SOL     OW36865   2.790   3.677   5.131  0.0948 -0.0981 -0.0819
 8469SOL    HW136866   2.742   3.760   5.139  1.3248  0.6300 -0.2998
 8469SOL    HW236867   2.879   3.710   5.137  0.8646 -1.5061 -3.6550
 8470SOL     OW36868   4.214   0.189  15.934  0.0253 -0.0165  0.4146
 8470SOL    HW136869   4.211   0.100  15.900 -0.9159  1.2561 -2.8135
 8470SOL    HW236870   4.244   0.241  15.860  1.5991 -2.7980 -0.8650
 8471SOL     OW36871   1.772   3.938  13.495 -0.1942 -0.9142  0.6259
 8471SOL    HW136872   1.811   3.958  13.410 -3.8751  0.9959 -0.5763
 8471SOL    HW236873   1.831   3.980  13.557  0.9027 -0.8668 -0.4469
 8472SOL     OW36874   0.188   0.479  15.205 -0.2483  0.2707  0.3816
 8472SOL    HW136875   0.151   0.412  15.148  0.4720  0.1409  0.0692
 8472SOL    HW236876   0.119   0.490  15.270 -2.1479 -2.2610 -1.2036
 8473SOL     OW36877   2.923   2.041   3.145 -0.2800  0.2857 -0.3845
 8473SOL    HW136878   2.918   1.953   3.107  1.4358 -0.5053  1.2461
 8473SOL    HW236879   2.867   2.096   3.091 -2.3430  1.4689  2.9794
 8474SOL     OW36880   0.979   2.044   2.386 -0.3050 -0.1278  0.5261
 8474SOL    HW136881   0.982   1.963   2.335  0.4175 -0.0202  0.3921
 8474SOL    HW236882   0.914   2.088   2.331  2.1879  2.1874 -0.5640
 8475SOL     OW36883   3.380   1.581   4.845 -0.3456 -0.1975  0.2484
 8475SOL    HW136884   3.401   1.488   4.838 -1.1987 -0.2194 -2.1233
 8475SOL    HW236885   3.291   1.569   4.812 -1.4962  0.2883  3.1292
 8476SOL     OW36886   1.042   3.245   6.142 -0.6773  0.3593 -0.2923
 8476SOL    HW136887   1.051   3.153   6.117  3.1868  0.7656 -0.5208
 8476SOL    HW236888   0.947   3.252   6.141 -0.7617 -0.8511 -0.3038
 8477SOL     OW36889   1.561   0.697   3.404  0.0901  0.0888 -0.3140
 8477SOL    HW136890   1.656   0.685   3.412  0.2489 -0.6540 -3.1710
 8477SOL    HW236891   1.561   0.736   3.316 -3.7845 -0.3698 -0.5281
 8478SOL     OW36892   2.181   3.324   3.431 -0.0297 -0.0826 -0.3747
 8478SOL    HW136893   2.174   3.259   3.501 -0.3340 -0.4803 -0.7792
 8478SOL    HW236894   2.132   3.285   3.359  1.5950 -2.0437 -0.4200
 8479SOL     OW36895   0.926   2.327   8.769  0.0813  0.1730 -0.0847
 8479SOL    HW136896   0.840   2.320   8.811 -0.3860  1.9117 -0.7595
 8479SOL    HW236897   0.938   2.416   8.735 -0.5337  0.3679  0.1882
 8480SOL     OW36898   0.932   0.785   7.294 -0.9818  0.1311 -0.2939
 8480SOL    HW136899   0.881   0.716   7.250  1.2104 -0.4143 -1.9914
 8480SOL    HW236900   0.872   0.859   7.291  1.6428  2.3077  1.8883
 8481SOL     OW36901   2.024   0.948   4.974  0.6062 -0.8217 -0.1683
 8481SOL    HW136902   1.931   0.963   4.957  0.6008  0.2425  0.7596
 8481SOL    HW236903   2.058   0.976   4.889 -1.6455  1.7716 -0.2001
 8482SOL     OW36904   1.212   1.905   9.265 -0.5312 -0.7572 -0.3216
 8482SOL    HW136905   1.237   1.870   9.179 -1.8724 -0.0146 -1.0146
 8482SOL    HW236906   1.298   1.925   9.302 -0.5779 -1.6934  0.3116
 8483SOL     OW36907   1.522   1.772   5.736  0.1538  0.1819 -0.3017
 8483SOL    HW136908   1.535   1.822   5.816 -0.6331  0.6319 -0.4545
 8483SOL    HW236909   1.470   1.831   5.681  0.4253  0.0411 -0.7047
 8484SOL     OW36910   0.295   0.643   3.398 -0.0356 -0.4189  0.1039
 8484SOL    HW136911   0.389   0.660   3.398 -0.3154  1.1374  1.1981
 8484SOL    HW236912   0.281   0.588   3.321 -1.2562  0.4425 -0.2939
 8485SOL     OW36913   1.628   4.186   3.238  0.5357  0.1855 -0.4105
 8485SOL    HW136914   1.628   4.269   3.286 -1.0602 -1.7524  2.8967
 8485SOL    HW236915   1.550   4.199   3.183 -1.1027 -1.5485  1.5037
 8486SOL     OW36916   3.690   0.568  15.911 -0.4456  0.2428 -1.0914
 8486SOL    HW136917   3.754   0.630  15.946 -1.9474  1.8276 -1.1730
 8486SOL    HW236918   3.739   0.487  15.895 -0.2492  0.3740 -1.1509
 8487SOL     OW36919   2.680   1.334  16.312  0.8469  0.1298  0.2828
 8487SOL    HW136920   2.696   1.264  16.250 -0.1573  0.3673 -0.2582
 8487SOL    HW236921   2.681   1.408  16.251  1.6370 -1.2310 -1.3412
 8488SOL     OW36922   2.985   3.323  16.567 -0.6119  0.3738  0.5131
 8488SOL    HW136923   2.969   3.244  16.517 -1.0240  2.0934 -2.0565
 8488SOL    HW236924   2.919   3.327  16.636 -0.3291  2.0811  0.7010
 8489SOL     OW36925   3.056   3.114   6.294  0.2300  0.0753  0.6700
 8489SOL    HW136926   2.979   3.159   6.329  0.0569  0.6152 -0.4047
 8489SOL    HW236927   3.100   3.190   6.257  1.7942 -0.6631  1.0239
 8490SOL     OW36928   0.912   2.634   8.504  0.1969  0.2817  0.0875
 8490SOL    HW136929   0.907   2.723   8.469  1.8315  0.3964  0.1233
 8490SOL    HW236930   0.870   2.655   8.587  1.4061  2.1221  0.2254
 8491SOL     OW36931   4.341   2.420  12.294  0.5542 -0.1206  0.2150
 8491SOL    HW136932   4.356   2.384  12.382 -1.3483  0.0785  0.6353
 8491SOL    HW236933   4.254   2.387  12.271  1.1677 -0.7580 -1.2082
 8492SOL     OW36934   4.013   0.403   8.137  0.1855  0.0391  0.2042
 8492SOL    HW136935   3.962   0.323   8.151 -0.0771  0.3604  1.0847
 8492SOL    HW236936   4.102   0.369   8.129 -0.2065 -0.7096 -0.9694
 8493SOL     OW36937   3.464   4.581   3.364  0.3412 -0.4097  0.1284
 8493SOL    HW136938   3.520   4.510   3.331  1.9872  0.5528  0.8219
 8493SOL    HW236939   3.395   4.523   3.397  0.8536 -2.0245 -1.6659
 8494SOL     OW36940   3.466   3.950   4.950  0.4594  0.1745  0.3839
 8494SOL    HW136941   3.485   3.966   4.858  1.3404 -1.1713  0.3275
 8494SOL    HW236942   3.502   3.861   4.952  0.8653  0.3505  0.7678
 8495SOL     OW36943   0.086   2.223   3.413  0.0868 -0.1723 -0.0459
 8495SOL    HW136944   0.019   2.233   3.345  2.5075 -0.7234 -2.5284
 8495SOL    HW236945   0.159   2.238   3.353  1.5516  0.0385  1.8006
 8496SOL     OW36946   2.265   2.492   1.578 -0.6384 -0.2525  0.1682
 8496SOL    HW136947   2.226   2.485   1.491 -1.7110  0.6414  0.5918
 8496SOL    HW236948   2.189   2.527   1.624 -0.5437  0.0719  0.0714
 8497SOL     OW36949   1.389   0.978   6.887  0.5233  0.7561 -0.9190
 8497SOL    HW136950   1.335   0.899   6.895  1.8578 -0.0153  0.5127
 8497SOL    HW236951   1.331   1.021   6.824  0.3888 -0.4040 -1.5983
 8498SOL     OW36952   0.585   0.468   1.324  0.1627  0.3094  0.4775
 8498SOL    HW136953   0.564   0.535   1.260  0.1007 -0.3986 -0.2400
 8498SOL    HW236954   0.679   0.458   1.311  0.1352 -1.4511  1.5665
 8499SOL     OW36955   2.612   2.821   7.069 -0.0223 -0.2376  0.2476
 8499SOL    HW136956   2.585   2.830   7.160 -1.1515 -1.6490  0.0635
 8499SOL    HW236957   2.577   2.903   7.035  1.5861  0.5347  0.4594
 8500SOL     OW36958   2.854   2.128   5.060 -0.1880 -0.4475 -0.0920
 8500SOL    HW136959   2.811   2.197   5.110  0.4306  0.4247 -0.7764
 8500SOL    HW236960   2.772   2.087   5.031 -0.2786 -0.1640 -0.2368
 8501SOL     OW36961   2.749   3.009   3.371 -0.9317 -0.4098 -0.6734
 8501SOL    HW136962   2.833   3.055   3.366 -0.8628 -0.2081  2.8203
 8501SOL    HW236963   2.770   2.952   3.445  1.2589 -0.2135 -1.1347
 8502SOL     OW36964   0.820   2.072   6.843 -0.2820  0.3046  0.2699
 8502SOL    HW136965   0.850   1.981   6.842 -0.5848  0.2076 -0.8402
 8502SOL    HW236966   0.879   2.115   6.780  1.3572 -0.1283  1.5108
 8503SOL     OW36967   4.119   2.932   4.436 -0.4288  0.4329  0.2432
 8503SOL    HW136968   4.195   2.947   4.380  0.0347  1.0480  1.0392
 8503SOL    HW236969   4.041   2.939   4.381  0.7972  0.5858 -1.4781
 8504SOL     OW36970   3.053   0.409   1.503 -0.0619 -0.9200 -0.2473
 8504SOL    HW136971   3.023   0.319   1.491  1.8154 -1.5247 -0.2642
 8504SOL    HW236972   2.983   0.464   1.467  0.7293 -0.6429 -1.3454
 8505SOL     OW36973   4.532   3.284   8.934  0.1688  0.5391  0.3094
 8505SOL    HW136974   4.519   3.318   9.023  0.9161 -0.7137  0.8949
 8505SOL    HW236975   4.556   3.194   8.954  0.5365  0.7103  0.6522
 8506SOL     OW36976   0.307   1.776  10.976  0.2427 -0.3085 -0.1736
 8506SOL    HW136977   0.250   1.771  10.900  0.1576  0.4665 -0.1553
 8506SOL    HW236978   0.316   1.686  11.009 -0.7736  0.8843  3.3832
 8507SOL     OW36979   1.331   1.976   5.013  0.2105  0.0760  0.4561
 8507SOL    HW136980   1.355   2.016   5.097  1.7690  2.2712 -1.0447
 8507SOL    HW236981   1.397   1.908   5.018  2.4073  2.1899  0.0323
 8508SOL     OW36982   2.999   4.336   2.705  0.0624  0.7592 -0.3066
 8508SOL    HW136983   3.065   4.368   2.644  0.0917 -1.1838 -1.3016
 8508SOL    HW236984   2.984   4.419   2.749  0.9647 -0.3426  2.0919
 8509SOL     OW36985   4.601   1.115   4.273 -0.5882 -0.2909 -0.3998
 8509SOL    HW136986   4.567   1.077   4.192  1.1894  2.0211 -2.2565
 8509SOL    HW236987   4.541   1.070   4.332 -0.5675 -0.1606 -0.2782
 8510SOL     OW36988   2.378   2.585   3.098  0.1792 -0.4328  0.6673
 8510SOL    HW136989   2.366   2.558   3.189 -0.1311 -1.1905  0.4061
 8510SOL    HW236990   2.317   2.658   3.107  0.8978  0.0147  1.8659
 8511SOL     OW36991   2.112   1.279   9.259 -0.3883  0.2061  0.1130
 8511SOL    HW136992   2.046   1.270   9.328 -0.4317 -1.5510 -0.1644
 8511SOL    HW236993   2.173   1.344   9.293 -1.3629  1.0816  0.1827
 8512SOL     OW36994   4.404   0.278   8.644  0.5761 -0.5560  0.2651
 8512SOL    HW136995   4.453   0.277   8.727  0.7455 -0.9257  0.1624
 8512SOL    HW236996   4.382   0.371   8.641 -1.2066 -1.0106 -0.3451
 8513SOL     OW36997   0.845   2.079   6.306  0.3444  0.3379  0.1047
 8513SOL    HW136998   0.804   2.015   6.364  1.8519  0.2879  1.1176
 8513SOL    HW236999   0.940   2.077   6.316  0.3414 -3.8624 -0.6436
 8514SOL     OW37000   4.607   4.193  10.787  0.1855  0.5455  0.1942
 8514SOL    HW137001   4.691   4.160  10.818  0.1095 -1.0155 -1.2302
 8514SOL    HW237002   4.585   4.254  10.857 -1.8840  2.6495 -2.3129
 8515SOL     OW37003   2.903   2.720   4.444 -0.1237  0.1492 -0.2426
 8515SOL    HW137004   2.875   2.661   4.374  2.4583 -1.1856 -0.1382
 8515SOL    HW237005   2.989   2.682   4.459  0.3692  1.6560  0.7105
 8516SOL     OW37006   0.125   4.654   1.113  0.2269  0.0920 -0.5443
 8516SOL    HW137007   0.191   4.584   1.105  0.3714  0.2214 -0.4885
 8516SOL    HW237008   0.185   0.004   1.125  0.7208 -0.1144 -1.7485
 8517SOL     OW37009   1.709   4.560   9.379  0.0821 -0.1057  0.5234
 8517SOL    HW137010   1.718   4.653   9.358 -0.3871  0.5120  3.1096
 8517SOL    HW237011   1.614   4.549   9.375 -0.0557  1.0451  0.5154
 8518SOL     OW37012   3.876   0.521   3.105 -0.1575 -0.3163 -0.3735
 8518SOL    HW137013   3.970   0.514   3.088 -0.0282  0.9232 -0.1637
 8518SOL    HW237014   3.873   0.573   3.185  2.4879  0.0999 -0.5580
 8519SOL     OW37015   3.282   4.692  16.025 -0.2273  0.1967  0.4801
 8519SOL    HW137016   3.315   0.056  16.003 -1.7791  1.2645  2.4142
 8519SOL    HW237017   3.357   4.636  16.006 -1.0425 -0.6507 -0.1826
 8520SOL     OW37018   4.109   2.411   6.055 -0.2735 -0.5900 -0.0821
 8520SOL    HW137019   4.124   2.390   5.963  1.9941  2.6329 -0.4251
 8520SOL    HW237020   4.199   2.418   6.088 -0.3728  0.2289  0.0194
 8521SOL     OW37021   1.413   3.097  16.961  0.4945 -0.1112 -0.2744
 8521SOL    HW137022   1.397   3.182  17.001  1.3887  1.1986 -2.7098
 8521SOL    HW237023   1.503   3.111  16.929 -0.1159  1.3520 -1.3476
 8522SOL     OW37024   2.107   0.742   7.794 -0.0157  0.0227 -0.6837
 8522SOL    HW137025   2.029   0.796   7.784 -0.2074  0.2823  2.2540
 8522SOL    HW237026   2.113   0.748   7.889 -1.2037 -1.8515 -0.4885
 8523SOL     OW37027   0.525   3.086   7.031  0.1487 -0.8634  0.0506
 8523SOL    HW137028   0.501   3.026   7.102 -2.4559 -0.4276 -0.4410
 8523SOL    HW237029   0.592   3.140   7.072 -1.3982  0.8654  0.3236
 8524SOL     OW37030   4.077   0.222   2.432  0.1007  0.0710  0.8363
 8524SOL    HW137031   4.117   0.209   2.346  1.0016 -1.4304  1.4821
 8524SOL    HW237032   4.006   0.286   2.423  0.0132 -0.3202 -1.2335
 8525SOL     OW37033   2.035   2.654   8.128 -0.0539  0.0044  0.5668
 8525SOL    HW137034   2.054   2.571   8.084 -2.1147 -0.0272 -0.2558
 8525SOL    HW237035   1.991   2.704   8.060  3.8233  0.3559 -1.6783
 8526SOL     OW37036   4.482   3.390   7.640 -0.2823  0.3433 -0.5864
 8526SOL    HW137037   4.435   3.394   7.557  2.3184  0.5413 -2.0499
 8526SOL    HW237038   4.477   3.478   7.677  2.8580  0.5350 -0.6140
 8527SOL     OW37039   2.969   4.206   7.332  0.2541 -0.0948  0.2541
 8527SOL    HW137040   2.934   4.253   7.256 -0.5893  1.1022  1.3699
 8527SOL    HW237041   2.890   4.209   7.386  1.1565  2.9972  1.4250
 8528SOL     OW37042   1.832   3.632   4.378 -0.0387 -0.2459  0.1056
 8528SOL    HW137043   1.855   3.541   4.394  2.2380  0.2072 -0.6016
 8528SOL    HW237044   1.865   3.644   4.289 -1.1850  2.0450 -0.0179
 8529SOL     OW37045   1.743   2.797   5.870  0.1142 -0.2362  0.1029
 8529SOL    HW137046   1.796   2.722   5.843  1.6234  1.2564 -1.0864
 8529SOL    HW237047   1.730   2.761   5.957  0.8269  3.5885  1.7758
 8530SOL     OW37048   1.528   1.957  14.914  0.1920 -0.6103  0.6561
 8530SOL    HW137049   1.495   2.021  14.977  0.3212 -1.6255  1.7371
 8530SOL    HW237050   1.610   2.000  14.887 -1.0590  0.2163 -1.8676
 8531SOL     OW37051   2.561   0.001  11.492 -0.5975 -0.3463  0.3897
 8531SOL    HW137052   2.651   0.017  11.522 -0.9793  0.0917  1.2889
 8531SOL    HW237053   2.564   4.670  11.413  0.5093 -0.2804  0.3801
 8532SOL     OW37054   0.359   4.365   2.133  0.0371  0.1185 -0.4029
 8532SOL    HW137055   0.341   4.343   2.224 -3.5968 -1.5016 -1.5100
 8532SOL    HW237056   0.429   4.430   2.126  2.3982 -2.2030  1.2908
 8533SOL     OW37057   1.493   0.599   6.460 -0.2502 -0.2654  0.4996
 8533SOL    HW137058   1.466   0.542   6.388  1.9519 -0.4277 -0.2127
 8533SOL    HW237059   1.582   0.616   6.429  0.2353 -1.1206  1.4448
 8534SOL     OW37060   3.733   3.725   7.883 -0.8124  0.5578  0.1694
 8534SOL    HW137061   3.815   3.677   7.880  0.8467  3.4055  0.6376
 8534SOL    HW237062   3.696   3.671   7.953 -1.5739  2.4160  1.2051
 8535SOL     OW37063   1.449   3.694   5.124 -0.2355 -0.1084 -0.0356
 8535SOL    HW137064   1.432   3.611   5.079 -1.1569  0.0105  0.0940
 8535SOL    HW237065   1.480   3.660   5.208  1.2903  0.5758 -0.3199
 8536SOL     OW37066   2.984   0.580   2.135  0.2675 -0.1676 -0.5611
 8536SOL    HW137067   2.954   0.646   2.072 -0.3338  1.5136  1.4542
 8536SOL    HW237068   3.059   0.537   2.095  0.7328  1.5044 -1.4884
 8537SOL     OW37069   4.429   1.719   6.421  0.2956 -0.1705 -0.0410
 8537SOL    HW137070   4.505   1.709   6.364  0.0825  1.2300 -0.5767
 8537SOL    HW237071   4.465   1.671   6.496  0.7666  0.1012 -0.0937
 8538SOL     OW37072   2.785   1.898   2.403 -0.0718  0.1192  0.3139
 8538SOL    HW137073   2.709   1.887   2.346  1.5027 -1.2362 -1.5176
 8538SOL    HW237074   2.824   1.815   2.377  1.0637  0.5827  0.5352
 8539SOL     OW37075   2.690   1.570  16.625 -0.0188 -0.0076  0.2940
 8539SOL    HW137076   2.618   1.624  16.591 -0.1723  1.0131  2.1966
 8539SOL    HW237077   2.731   1.547  16.542  1.4031  1.8957  0.4542
 8540SOL     OW37078   0.824   3.933   4.854 -0.3908 -0.4380 -0.0687
 8540SOL    HW137079   0.794   3.973   4.773 -0.7269 -1.4035 -0.4188
 8540SOL    HW237080   0.845   3.995   4.924 -0.5782  0.8438 -1.1615
 8541SOL     OW37081   1.564   3.939   4.210 -0.6362 -0.0841 -0.6109
 8541SOL    HW137082   1.568   3.885   4.289  1.8583 -0.8043 -1.2307
 8541SOL    HW237083   1.597   3.881   4.142  0.7855 -1.3204  1.1129
 8542SOL     OW37084   0.319   3.891  16.111  0.4875  0.7816  0.2847
 8542SOL    HW137085   0.382   3.956  16.142  1.4524 -0.2167  0.4010
 8542SOL    HW237086   0.362   3.806  16.119 -0.1351  0.6887  2.5945
 8543SOL     OW37087   1.820   2.782   1.284 -1.0684  0.1975 -0.3984
 8543SOL    HW137088   1.874   2.856   1.257 -1.4400 -0.4719 -3.0110
 8543SOL    HW237089   1.837   2.736   1.201 -1.6555 -3.1639  1.3173
 8544SOL     OW37090   1.646   2.786   6.639  0.3732 -0.3479  0.5312
 8544SOL    HW137091   1.616   2.732   6.565 -2.3670  2.2603 -0.2551
 8544SOL    HW237092   1.588   2.862   6.643 -1.6759 -1.9552  1.4833
 8545SOL     OW37093   1.828   1.966  13.795  0.0368  0.0793 -0.4548
 8545SOL    HW137094   1.803   2.028  13.864  0.7917 -2.2778  1.9729
 8545SOL    HW237095   1.832   1.882  13.840  0.2147  0.3388  0.0201
 8546SOL     OW37096   1.038   1.561   2.664 -0.0669  0.2622 -0.0690
 8546SOL    HW137097   0.957   1.531   2.706 -0.4570  0.0468 -0.9847
 8546SOL    HW237098   1.028   1.650   2.699 -1.0170 -0.0335  0.4328
 8547SOL     OW37099   1.016   1.000   9.222 -0.4890  0.2305 -0.5108
 8547SOL    HW137100   1.057   1.013   9.137  2.6549 -0.9148  0.8276
 8547SOL    HW237101   1.009   1.095   9.234 -0.0937  0.2684 -0.5918
 8548SOL     OW37102   4.394   2.712   6.423 -1.3183  0.1016  0.8433
 8548SOL    HW137103   4.340   2.791   6.431 -1.8237 -0.1806  0.2311
 8548SOL    HW237104   4.397   2.696   6.517  1.8343 -1.9887  0.3967
 8549SOL     OW37105   3.232   2.679   8.728  0.1247 -0.3061  0.4810
 8549SOL    HW137106   3.286   2.739   8.676 -0.0030  0.0596  0.7634
 8549SOL    HW237107   3.295   2.621   8.771  2.8228  0.2546 -2.7438
 8550SOL     OW37108   2.883   0.697   3.821 -0.3662  0.7463  0.7344
 8550SOL    HW137109   2.860   0.784   3.852  0.7083  1.4751 -0.4936
 8550SOL    HW237110   2.979   0.703   3.826 -0.3201 -0.3358  1.1392
 8551SOL     OW37111   1.822   0.463  13.941 -0.0359 -0.0130 -1.0681
 8551SOL    HW137112   1.841   0.538  13.884  0.1150  1.5625  1.0712
 8551SOL    HW237113   1.883   0.403  13.898  1.1431  0.3349  0.1242
 8552SOL     OW37114   3.933   2.326   4.005 -0.4939 -0.3099 -0.5391
 8552SOL    HW137115   3.972   2.264   3.943  0.9941 -0.2953  0.3904
 8552SOL    HW237116   3.842   2.317   3.977 -1.3988  2.8268  1.3455
 8553SOL     OW37117   3.144   0.582   1.819 -0.3953 -0.6841 -0.4145
 8553SOL    HW137118   3.156   0.610   1.728 -0.0099 -1.2643 -0.5429
 8553SOL    HW237119   3.050   0.571   1.825 -0.5484  0.3633 -0.7943
 8554SOL     OW37120   4.681   1.528  15.678  0.6934  0.0199  0.0231
 8554SOL    HW137121   4.635   1.562  15.601 -0.5440 -0.3370  0.6033
 8554SOL    HW237122   4.646   1.439  15.671 -0.8773  0.5584  1.0339
 8555SOL     OW37123   4.385   4.534   9.984 -0.3515 -0.3722  0.1599
 8555SOL    HW137124   4.397   4.445   9.952 -0.7548  0.0477 -1.1321
 8555SOL    HW237125   4.467   4.543  10.033 -0.7379 -1.0378  0.9246
 8556SOL     OW37126   0.913   0.625   0.047  0.4028 -0.1419  0.0863
 8556SOL    HW137127   1.000   0.622   0.087  0.8206  1.9158 -0.6301
 8556SOL    HW237128   0.909   0.533   0.021 -0.2621  0.0285 -0.4152
 8557SOL     OW37129   3.947   4.233   6.711  0.4593  0.1451  0.2563
 8557SOL    HW137130   4.000   4.312   6.700  0.9440 -0.1929  0.1477
 8557SOL    HW237131   3.937   4.211   6.618 -0.7188  0.1563  0.3864
 8558SOL     OW37132   0.655   2.648  12.696  0.5161 -0.4475  0.6788
 8558SOL    HW137133   0.724   2.584  12.714 -0.1551 -0.1391  4.4629
 8558SOL    HW237134   0.600   2.648  12.775  1.2930  1.6666  1.2245
 8559SOL     OW37135   0.319   3.506   7.748  0.5063 -0.4766  0.7086
 8559SOL    HW137136   0.331   3.455   7.667 -0.4158 -1.8217  1.4054
 8559SOL    HW237137   0.273   3.453   7.813  1.0839 -1.0286  0.6793
 8560SOL     OW37138   0.304   4.242  15.358  0.4692 -0.4317 -0.1215
 8560SOL    HW137139   0.310   4.188  15.437  1.3849 -0.3116 -0.1148
 8560SOL    HW237140   0.394   4.246  15.327 -0.2462 -2.3441 -2.4447
 8561SOL     OW37141   0.566   2.016   3.881 -0.5770  0.0302  0.0192
 8561SOL    HW137142   0.599   2.104   3.864 -1.6869  0.8537  2.1834
 8561SOL    HW237143   0.518   2.031   3.962 -2.9829 -2.6304 -0.8834
 8562SOL     OW37144   2.733   0.240   0.985  0.2789 -0.4998  0.4485
 8562SOL    HW137145   2.685   0.254   0.904  3.9430  1.0983 -1.4669
 8562SOL    HW237146   2.766   0.329   1.001  0.2106 -0.2716 -0.6946
 8563SOL     OW37147   1.381   2.827  16.589  0.3426  0.0923 -0.0227
 8563SOL    HW137148   1.461   2.816  16.640 -0.1462 -2.3999  0.1735
 8563SOL    HW237149   1.414   2.828  16.499  0.3175 -2.4916 -0.0377
 8564SOL     OW37150   4.023   1.142   4.804 -0.4904 -0.2339 -0.1451
 8564SOL    HW137151   3.947   1.145   4.745  0.0414  1.4015 -0.7476
 8564SOL    HW237152   4.083   1.091   4.750 -1.1063  0.2981 -1.3398
 8565SOL     OW37153   1.908   2.070   6.767 -0.4713 -0.5538  0.2149
 8565SOL    HW137154   1.990   2.035   6.731  0.4807  0.4214  1.4530
 8565SOL    HW237155   1.930   2.077   6.860  0.3509  2.7080 -0.2491
 8566SOL     OW37156   1.471   1.922   2.035  0.1915 -0.0805 -0.5355
 8566SOL    HW137157   1.411   1.944   2.106  1.5090  1.9847 -0.0785
 8566SOL    HW237158   1.490   1.829   2.044  3.4295  0.7451  1.3485
 8567SOL     OW37159   0.235   3.964   8.361  0.6610 -0.3359 -0.0727
 8567SOL    HW137160   0.220   3.870   8.374 -1.7330 -0.1967 -1.6927
 8567SOL    HW237161   0.325   3.953   8.333  0.6574 -0.3035 -0.0965
 8568SOL     OW37162   1.955   0.249   7.582  0.0290 -0.3781  0.0738
 8568SOL    HW137163   2.024   0.293   7.533 -0.2155  1.9173  1.8001
 8568SOL    HW237164   1.900   0.326   7.594  0.4579 -0.1617  0.7071
 8569SOL     OW37165   4.091   0.309  11.679  0.2650 -0.2488 -0.1286
 8569SOL    HW137166   4.016   0.291  11.623  0.9759  0.9622 -1.4783
 8569SOL    HW237167   4.075   0.403  11.689 -0.5684 -0.1016 -2.8402
 8570SOL     OW37168   1.604   0.455   9.868 -0.0298  0.1230  0.3323
 8570SOL    HW137169   1.651   0.392   9.813 -0.0031  1.2590 -0.9243
 8570SOL    HW237170   1.613   0.403   9.948  1.7304 -0.2378 -0.0888
 8571SOL     OW37171   3.444   1.774  13.677 -0.3305 -0.0830  0.0904
 8571SOL    HW137172   3.524   1.785  13.627 -0.2337 -0.5269  0.1474
 8571SOL    HW237173   3.464   1.695  13.727  0.4115  2.3791  3.7025
 8572SOL     OW37174   3.297   0.699  14.328  0.1938  0.5191  0.1982
 8572SOL    HW137175   3.235   0.632  14.357 -1.0742  2.3639  1.7417
 8572SOL    HW237176   3.374   0.644  14.317 -0.1640  0.3425 -1.3859
 8573SOL     OW37177   2.770   4.127   7.922  0.4230 -0.0264 -0.3244
 8573SOL    HW137178   2.774   4.040   7.962 -0.5324  0.4541  0.7914
 8573SOL    HW237179   2.806   4.182   7.991 -1.4909  0.4361  0.2953
 8574SOL     OW37180   3.141   0.941  13.798  0.5924  0.0701  0.8536
 8574SOL    HW137181   3.179   0.860  13.830  0.0065 -1.1277 -1.4547
 8574SOL    HW237182   3.219   0.997  13.806 -1.6959  3.4294 -0.2812
 8575SOL     OW37183   3.068   1.124   1.547  1.0324 -0.3359  0.2925
 8575SOL    HW137184   3.051   1.060   1.617  0.8023  0.6922  1.1772
 8575SOL    HW237185   3.140   1.083   1.498  0.5335  0.6696 -1.2492
 8576SOL     OW37186   4.124   4.301   4.206 -0.0027 -0.1307 -0.8194
 8576SOL    HW137187   4.056   4.246   4.165 -1.0024  1.8066 -1.7774
 8576SOL    HW237188   4.132   4.377   4.147  0.8265 -0.9715 -1.7912
 8577SOL     OW37189   0.283   3.418   4.932  0.6337 -0.5130 -0.8299
 8577SOL    HW137190   0.235   3.407   4.850  0.9465 -1.0735 -0.9382
 8577SOL    HW237191   0.283   3.335   4.980 -1.1120  0.0832  0.1869
 8578SOL     OW37192   2.862   2.320   3.290 -0.3841 -0.5112  0.2314
 8578SOL    HW137193   2.953   2.349   3.300 -0.5645 -0.1023  0.7171
 8578SOL    HW237194   2.870   2.234   3.250  0.2080 -0.5021  0.3303
 8579SOL     OW37195   1.568   0.528   4.833 -0.0801  0.2053  0.3524
 8579SOL    HW137196   1.632   0.459   4.848  0.5630  0.7333  0.0452
 8579SOL    HW237197   1.571   0.569   4.919  1.5367  2.0079 -0.5607
 8580SOL     OW37198   4.650   1.216   6.838 -0.1825  0.1526  0.2316
 8580SOL    HW137199   4.691   1.165   6.768 -3.1149 -0.7637 -0.8158
 8580SOL    HW237200   4.716   1.285   6.848 -1.6399  1.3961  1.2105
 8581SOL     OW37201   1.243   4.107   8.303  0.7811  0.2088  0.0182
 8581SOL    HW137202   1.174   4.073   8.246 -0.6062  1.1484  1.1287
 8581SOL    HW237203   1.221   4.199   8.319 -0.7246 -0.7260  3.2787
 8582SOL     OW37204   1.059   3.602  11.493  0.1312  0.2115 -0.4050
 8582SOL    HW137205   0.994   3.655  11.447  1.3041 -0.1235 -2.4161
 8582SOL    HW237206   1.142   3.634  11.459  0.5909 -0.6816 -0.1258
 8583SOL     OW37207   4.197   1.596   4.036 -0.5140  0.2433 -0.1407
 8583SOL    HW137208   4.181   1.508   4.070 -2.0326  0.9107  0.8430
 8583SOL    HW237209   4.111   1.637   4.044 -0.8633 -0.4880 -0.1069
 8584SOL     OW37210   0.166   3.217   4.012 -0.1310  0.2604 -0.0196
 8584SOL    HW137211   0.150   3.298   4.060 -1.1095 -0.2749  0.5709
 8584SOL    HW237212   0.078   3.181   4.025 -1.4072  2.3690 -2.8207
 8585SOL     OW37213   1.846   3.864   5.732 -0.2956 -0.4005  0.6473
 8585SOL    HW137214   1.894   3.897   5.656 -0.8242  1.3310  1.0706
 8585SOL    HW237215   1.767   3.918   5.734  1.5696  2.4029 -1.6695
 8586SOL     OW37216   4.139   0.856   8.670  0.2128  0.0869 -0.0822
 8586SOL    HW137217   4.218   0.896   8.635 -0.5678  1.8059  0.1466
 8586SOL    HW237218   4.094   0.837   8.588 -2.0888  0.9812  0.9766
 8587SOL     OW37219   4.174   3.980   3.163 -0.0992 -0.0795 -0.5727
 8587SOL    HW137220   4.236   3.907   3.155 -1.0367 -0.4387 -4.4545
 8587SOL    HW237221   4.089   3.937   3.169  0.6216 -1.2848  0.9107
 8588SOL     OW37222   3.691   1.484  15.965 -0.3830  0.3211 -0.1283
 8588SOL    HW137223   3.620   1.459  16.024  0.0983 -4.2075 -1.4160
 8588SOL    HW237224   3.648   1.553  15.915  0.9520  1.3709  0.1708
 8589SOL     OW37225   3.915   1.154   7.540  0.0242  0.2499  0.5536
 8589SOL    HW137226   3.944   1.167   7.449  0.7235 -1.4064  0.5383
 8589SOL    HW237227   3.846   1.091   7.521  0.6453 -0.9288  2.2604
 8590SOL     OW37228   1.793   2.528   3.495 -0.0413  0.3743 -0.7574
 8590SOL    HW137229   1.865   2.474   3.528 -0.4042  1.0117  1.1142
 8590SOL    HW237230   1.819   2.527   3.403  0.2449  3.8928 -0.7075
 8591SOL     OW37231   1.598   3.404   8.827 -0.1437 -0.2570 -0.1675
 8591SOL    HW137232   1.562   3.465   8.892 -0.5786 -0.2961 -0.3766
 8591SOL    HW237233   1.517   3.356   8.812  0.3334 -1.2658  0.5285
 8592SOL     OW37234   4.141   1.770   1.973 -0.1706 -0.5966  0.4825
 8592SOL    HW137235   4.088   1.802   2.046 -0.4201  0.4371 -0.1477
 8592SOL    HW237236   4.229   1.759   2.009 -1.2296 -2.1796  2.5728
 8593SOL     OW37237   3.527   4.172   6.672  0.0346 -0.2571  0.0753
 8593SOL    HW137238   3.556   4.185   6.581  0.3145 -0.6884  0.0975
 8593SOL    HW237239   3.448   4.223   6.686  0.9764  1.3927 -0.6168
 8594SOL     OW37240   0.049   1.134  17.566  0.0760 -0.4457  0.4720
 8594SOL    HW137241   0.043   1.205  17.503  0.6006 -1.3152 -0.5474
 8594SOL    HW237242   4.701   1.088  17.521  0.1286  0.3609 -0.4161
 8595SOL     OW37243   1.473   1.797   3.731 -0.0815 -0.1489  0.6079
 8595SOL    HW137244   1.425   1.787   3.649 -0.5682 -0.8164  0.9768
 8595SOL    HW237245   1.449   1.886   3.757  1.8886  0.7533 -0.6807
 8596SOL     OW37246   2.898   1.206  14.413 -0.3647  0.3313 -0.2061
 8596SOL    HW137247   2.930   1.132  14.465  0.7153 -0.0811 -1.4701
 8596SOL    HW237248   2.982   1.247  14.392 -0.6829  0.5734 -0.9957
 8597SOL     OW37249   3.877   1.370   4.033 -0.1301 -0.3315 -0.5340
 8597SOL    HW137250   3.963   1.393   4.068  1.6907 -2.0958 -3.8787
 8597SOL    HW237251   3.881   1.275   4.031 -0.2702 -0.2886 -3.0528
 8598SOL     OW37252   4.662   3.201   3.175 -0.3746  0.0787  0.2580
 8598SOL    HW137253   0.007   3.171   3.116 -1.0737  0.5508 -0.7959
 8598SOL    HW237254   4.601   3.127   3.178 -2.7939  2.1261  1.5283
 8599SOL     OW37255   2.809   1.418   5.601  0.0106 -0.1007 -0.4182
 8599SOL    HW137256   2.798   1.449   5.511 -1.0057 -0.3363 -0.3757
 8599SOL    HW237257   2.897   1.453   5.613  0.4446  0.2286 -4.6356
 8600SOL     OW37258   3.398   1.751   7.588  0.0256 -0.0940 -0.1209
 8600SOL    HW137259   3.468   1.725   7.528 -0.0700 -1.8030  0.5124
 8600SOL    HW237260   3.386   1.673   7.642 -0.8541  0.7353  0.8626
 8601SOL     OW37261   3.020   3.419   7.146  0.4196  0.8229  0.0953
 8601SOL    HW137262   3.035   3.492   7.206 -0.8135  0.8217  0.3977
 8601SOL    HW237263   3.009   3.471   7.067 -0.8958  0.7906  0.2554
 8602SOL     OW37264   2.673   0.277   0.078 -1.0698 -0.3650 -1.1214
 8602SOL    HW137265   2.632   0.230   0.005  0.2395 -0.3442 -1.8731
 8602SOL    HW237266   2.655   0.211   0.145 -2.5213  2.1420  0.9704
 8603SOL     OW37267   1.226   2.007   5.284  0.2831 -0.2592  1.0441
 8603SOL    HW137268   1.259   1.932   5.333 -0.9477 -2.1078 -0.9196
 8603SOL    HW237269   1.138   1.970   5.275  0.7772 -1.4901  1.3091
 8604SOL     OW37270   3.600   0.753   2.538 -0.1575  0.0837  0.4067
 8604SOL    HW137271   3.610   0.848   2.536 -1.3194  0.1477 -2.5358
 8604SOL    HW237272   3.593   0.737   2.632  1.9727  0.9012  0.7182
 8605SOL     OW37273   4.444   0.309   2.333 -0.3437 -0.1081  0.7107
 8605SOL    HW137274   4.382   0.341   2.267  1.7716  2.1934 -0.1943
 8605SOL    HW237275   4.533   0.311   2.296 -0.2565 -3.1059  0.8068
 8606SOL     OW37276   3.463   1.091   4.920  0.3561 -0.3039 -0.1975
 8606SOL    HW137277   3.550   1.080   4.958  1.6793  1.1952 -2.8357
 8606SOL    HW237278   3.449   1.014   4.865 -1.2226 -0.8705  0.9832
 8607SOL     OW37279   3.881   0.907   6.692 -0.8927  0.2976 -0.0675
 8607SOL    HW137280   3.833   0.982   6.657 -0.0118  1.2940  0.8211
 8607SOL    HW237281   3.803   0.855   6.711 -0.0384 -0.0579  2.4684
 8608SOL     OW37282   3.765   0.001   8.652 -0.2251  0.8049 -0.0424
 8608SOL    HW137283   3.699   4.714   8.583 -0.2251  1.7735 -0.1897
 8608SOL    HW237284   3.760   0.096   8.665  0.3792  0.5723  1.8703
 8609SOL     OW37285   4.389   2.203   4.775 -0.2005  0.2725  0.1898
 8609SOL    HW137286   4.311   2.250   4.804 -0.4046  0.3846 -0.5631
 8609SOL    HW237287   4.463   2.247   4.817  1.1248 -0.9744 -0.8353
 8610SOL     OW37288   3.971   2.641  11.281  0.6011  0.2242 -0.9520
 8610SOL    HW137289   3.908   2.683  11.339  1.3472  2.2651 -1.6213
 8610SOL    HW237290   3.932   2.554  11.273 -0.6523  0.7389 -0.4381
 8611SOL     OW37291   0.707   0.716  14.429 -0.1587 -0.1622 -0.3599
 8611SOL    HW137292   0.689   0.810  14.435 -1.6010 -0.5634  1.3762
 8611SOL    HW237293   0.656   0.676  14.499  0.6731 -0.9861 -0.2234
 8612SOL     OW37294   2.465   3.763   6.203  0.2427 -0.5527  0.1906
 8612SOL    HW137295   2.396   3.697   6.195  0.6102 -1.0255  0.9645
 8612SOL    HW237296   2.541   3.706   6.193  2.1407  1.5508  2.5426
 8613SOL     OW37297   2.524   3.526   3.662  0.6010 -0.0206 -0.6866
 8613SOL    HW137298   2.474   3.607   3.655  1.4056  0.6831  1.5802
 8613SOL    HW237299   2.532   3.507   3.569  1.8154  0.2407 -0.6343
 8614SOL     OW37300   3.771   0.239   1.891 -0.0315 -0.4371  0.0349
 8614SOL    HW137301   3.803   0.254   1.801  1.7667 -0.4718  0.6589
 8614SOL    HW237302   3.682   0.208   1.874 -1.0188  1.7879  1.1919
 8615SOL     OW37303   0.130   4.412   2.370 -0.0033  0.0737 -0.2592
 8615SOL    HW137304   0.086   4.329   2.352  1.7044 -1.4911  2.5998
 8615SOL    HW237305   0.203   4.373   2.419 -2.8423  0.0799  4.0444
 8616SOL     OW37306   0.052   4.215   4.280 -0.4402 -0.0994  0.1730
 8616SOL    HW137307   0.022   4.281   4.217 -0.8083  1.4355  1.9770
 8616SOL    HW237308   4.700   4.156   4.288  1.3436 -2.3649  0.2626
 8617SOL     OW37309   0.136   4.312   8.430 -0.0967 -0.7318  0.0438
 8617SOL    HW137310   0.129   4.407   8.429  1.4991 -0.6230  0.0340
 8617SOL    HW237311   0.227   4.310   8.400  0.4153  2.7228  1.3939
 8618SOL     OW37312   4.641   2.517   7.161  0.1869  0.0616 -0.2990
 8618SOL    HW137313   4.697   2.595   7.169  1.2006 -0.6597 -0.2641
 8618SOL    HW237314   4.693   2.451   7.208 -1.2103  0.6519  2.0995
 8619SOL     OW37315   1.119   3.413   3.871 -0.9721 -0.4348  0.5153
 8619SOL    HW137316   1.109   3.483   3.807  1.1787  1.3271  2.1299
 8619SOL    HW237317   1.212   3.422   3.890 -0.7737 -1.5377  0.0884
 8620SOL     OW37318   1.644   3.482   0.852  0.2639 -0.6134 -0.4140
 8620SOL    HW137319   1.583   3.408   0.846 -1.3013  0.6824 -0.5679
 8620SOL    HW237320   1.714   3.446   0.906 -0.1686  0.9240  1.1910
 8621SOL     OW37321   3.109   2.656   2.574  0.3291  0.0943  0.2113
 8621SOL    HW137322   3.156   2.690   2.499 -0.5166 -2.0382 -1.2606
 8621SOL    HW237323   3.025   2.635   2.532  0.3682  2.0016 -0.8253
 8622SOL     OW37324   3.387   2.757   8.434  0.0178  0.1850  0.4285
 8622SOL    HW137325   3.337   2.715   8.364  0.5367  1.4752 -0.7230
 8622SOL    HW237326   3.471   2.714   8.418 -0.1395  0.5426 -1.4181
 8623SOL     OW37327   1.841   1.058   5.830  0.4835 -0.1581  0.1563
 8623SOL    HW137328   1.849   0.970   5.792  1.2350  0.2457 -0.5987
 8623SOL    HW237329   1.747   1.072   5.837  0.9449  2.9914 -0.0859
 8624SOL     OW37330   3.957   2.226   3.053  0.2928 -0.2763 -0.5948
 8624SOL    HW137331   3.955   2.132   3.067  0.0550 -0.1783 -0.0003
 8624SOL    HW237332   3.865   2.243   3.071 -0.1657 -0.1672 -3.0494
 8625SOL     OW37333   3.003   0.585   3.329 -0.8986  0.0888 -0.5382
 8625SOL    HW137334   2.939   0.514   3.337 -2.6883  1.6295 -1.2325
 8625SOL    HW237335   3.027   0.580   3.237  1.9889 -0.4512  0.2542
 8626SOL     OW37336   1.883   0.341   8.445  0.1366  0.0098  0.2094
 8626SOL    HW137337   1.834   0.410   8.400  0.7285  0.5474  0.3871
 8626SOL    HW237338   1.957   0.335   8.385  0.2077 -0.1659  0.3158
 8627SOL     OW37339   4.079   1.025   3.063  0.0446  0.2154  0.2904
 8627SOL    HW137340   4.051   0.943   3.021 -0.1149  0.4821 -0.1215
 8627SOL    HW237341   4.026   1.019   3.143 -3.6294  0.6227 -2.0834
 8628SOL     OW37342   0.112   2.870   9.096 -0.3440  0.2608  0.0281
 8628SOL    HW137343   0.206   2.860   9.081 -0.4588 -0.7601 -0.0288
 8628SOL    HW237344   0.110   2.947   9.153  0.4681  1.4958 -1.6182
 8629SOL     OW37345   1.977   3.447   8.836  0.1087  0.1691 -0.2471
 8629SOL    HW137346   2.044   3.380   8.828 -3.1411 -3.1109 -0.1441
 8629SOL    HW237347   1.939   3.426   8.922  0.6661  0.1995  0.0026
 8630SOL     OW37348   2.888   4.196   1.184 -1.0153 -0.1054  0.3762
 8630SOL    HW137349   2.965   4.198   1.241 -2.2712  0.5452  2.0540
 8630SOL    HW237350   2.834   4.269   1.215 -1.6536 -0.8915  1.1180
 8631SOL     OW37351   4.413   2.940   3.043  0.1182 -0.3020 -0.2102
 8631SOL    HW137352   4.343   2.930   3.108  0.2229  1.0710  0.1275
 8631SOL    HW237353   4.459   2.857   3.053 -0.8044 -0.7548  0.3829
 8632SOL     OW37354   4.558   1.997   7.083 -0.4369  0.3409 -0.4407
 8632SOL    HW137355   4.482   1.944   7.107  0.2375 -1.2790 -1.8803
 8632SOL    HW237356   4.594   2.007   7.171 -0.1791 -0.4750 -0.4598
 8633SOL     OW37357   1.355   0.932   3.404  0.3189  0.2972 -0.2570
 8633SOL    HW137358   1.272   0.964   3.438 -0.4085 -2.7162  0.8589
 8633SOL    HW237359   1.344   0.972   3.317 -0.1551  0.3598 -0.1668
 8634SOL     OW37360   1.034   1.945   8.492  0.2452 -0.0113  0.0573
 8634SOL    HW137361   1.113   1.892   8.476  0.2197 -0.7757  2.3466
 8634SOL    HW237362   1.079   2.024   8.522 -0.4360  0.8397 -1.1927
 8635SOL     OW37363   4.373   2.208   1.520 -0.0041 -0.0723  0.0239
 8635SOL    HW137364   4.348   2.234   1.431  2.7757  1.9874 -0.1449
 8635SOL    HW237365   4.387   2.115   1.503 -3.3601 -0.4863 -0.4202
 8636SOL     OW37366   0.061   2.450   1.622 -0.4774 -0.0706  0.5624
 8636SOL    HW137367   0.038   2.528   1.672 -3.5510  0.7753 -2.1526
 8636SOL    HW237368   0.065   2.378   1.685 -2.1548 -1.6095 -1.0576
 8637SOL     OW37369   1.791   0.776  17.285 -0.1639  0.2291  0.2753
 8637SOL    HW137370   1.860   0.721  17.321 -0.2435  0.3133  0.5590
 8637SOL    HW237371   1.809   0.789  17.192 -0.1884 -0.8834  0.1214
 8638SOL     OW37372   3.847   1.598   2.582 -0.1759 -0.1549 -0.3554
 8638SOL    HW137373   3.841   1.535   2.510  0.4061 -1.3472  0.6453
 8638SOL    HW237374   3.815   1.545   2.656  0.3635  0.2423  0.1590
 8639SOL     OW37375   2.872   0.708   7.661  0.4273 -0.2522  0.7259
 8639SOL    HW137376   2.794   0.725   7.609  2.5554  0.5817 -2.2261
 8639SOL    HW237377   2.882   0.790   7.709  1.8073 -0.2547  0.4457
 8640SOL     OW37378   1.840   3.999   2.475  0.7572 -0.0307 -0.0441
 8640SOL    HW137379   1.844   4.041   2.389  2.1642  0.8064  0.4400
 8640SOL    HW237380   1.761   4.036   2.515  1.9463  2.4539  0.0243
 8641SOL     OW37381   2.814   3.809  10.609 -0.6732  0.0813 -0.6081
 8641SOL    HW137382   2.725   3.820  10.576 -1.3160 -2.8254  0.2136
 8641SOL    HW237383   2.840   3.901  10.617  4.0715 -1.4571  1.2368
 8642SOL     OW37384   4.132   1.188   6.148 -0.3905  0.4435 -0.3314
 8642SOL    HW137385   4.154   1.109   6.098 -0.9042 -0.0106  0.1452
 8642SOL    HW237386   4.075   1.237   6.090 -0.5554  0.6592  0.0137
 8643SOL     OW37387   2.570   2.179   5.762 -0.1616 -0.2329 -0.3386
 8643SOL    HW137388   2.561   2.134   5.846  1.9509  0.0720  0.0383
 8643SOL    HW237389   2.496   2.239   5.749  0.5689  1.2453  2.4667
 8644SOL     OW37390   3.438   3.879  15.222  0.0101 -0.0905 -0.3106
 8644SOL    HW137391   3.351   3.852  15.252 -0.2042  1.1734  0.1833
 8644SOL    HW237392   3.471   3.908  15.307 -0.1171  0.4000 -0.4322
 8645SOL     OW37393   0.173   4.245   1.972 -0.2626 -0.0076 -0.1884
 8645SOL    HW137394   0.233   4.270   2.042 -1.2889 -1.1458  1.0797
 8645SOL    HW237395   0.133   4.162   1.997  0.4955 -0.1769  0.4456
 8646SOL     OW37396   4.620   0.648   1.672 -0.2206  0.1772  0.0690
 8646SOL    HW137397   4.613   0.606   1.757  4.6392  1.1646  0.9544
 8646SOL    HW237398   4.570   0.728   1.685 -1.1680 -0.0620 -1.9401
 8647SOL     OW37399   0.917   2.831  17.212 -0.0038  0.0435 -0.3384
 8647SOL    HW137400   0.873   2.746  17.200 -3.0399  1.1848  2.6242
 8647SOL    HW237401   0.927   2.837  17.307  4.4823  1.4711 -0.9195
 8648SOL     OW37402   3.510   0.268  10.791 -0.4160 -0.0275  0.5568
 8648SOL    HW137403   3.545   0.295  10.706 -1.4128  0.3949  0.2760
 8648SOL    HW237404   3.423   0.308  10.781  0.3719  1.5186 -0.1514
 8649SOL     OW37405   1.878   1.959   4.561  0.3104 -0.3739 -0.0094
 8649SOL    HW137406   1.795   1.919   4.534  1.2421 -2.3492  0.0677
 8649SOL    HW237407   1.855   2.039   4.608 -0.5527 -1.5837  1.6613
 8650SOL     OW37408   3.342   2.648  13.768  0.2936  0.4519  0.2393
 8650SOL    HW137409   3.282   2.722  13.763 -2.0652 -1.5076 -0.3197
 8650SOL    HW237410   3.334   2.610  13.681 -1.5177  0.7714  0.2692
 8651SOL     OW37411   1.824   2.208   5.933 -0.0653 -0.2385 -0.0362
 8651SOL    HW137412   1.775   2.231   5.854  0.9531  1.2938 -0.2131
 8651SOL    HW237413   1.757   2.189   5.999  0.3454  1.4685  0.8734
 8652SOL     OW37414   1.820   2.315   7.171 -0.4556 -0.4503  0.0558
 8652SOL    HW137415   1.845   2.349   7.085  1.8111  0.7437  1.1646
 8652SOL    HW237416   1.903   2.312   7.220 -1.2343  0.1250  1.4389
 8653SOL     OW37417   1.976   1.001   0.907  0.7456  0.2823  0.2900
 8653SOL    HW137418   2.032   0.924   0.902  0.3270 -0.0356  0.6290
 8653SOL    HW237419   1.888   0.963   0.907  0.5186  0.7798 -1.8673
 8654SOL     OW37420   3.782   1.685  14.700 -0.0422  0.2246  0.2398
 8654SOL    HW137421   3.703   1.632  14.701  0.7555 -0.9639  1.9458
 8654SOL    HW237422   3.839   1.645  14.634  0.0200 -2.2681  1.8138
 8655SOL     OW37423   4.250   2.629   2.824 -0.0719 -0.3383  0.0016
 8655SOL    HW137424   4.309   2.704   2.822  0.4360 -0.6997  1.5662
 8655SOL    HW237425   4.250   2.612   2.918 -2.8107 -0.2092  0.0320
 8656SOL     OW37426   3.123   0.405   3.847  0.7735  0.3710 -0.4365
 8656SOL    HW137427   3.199   0.453   3.880  1.3958 -2.1016  1.7196
 8656SOL    HW237428   3.149   0.368   3.763  0.9906  1.2860 -0.7699
 8657SOL     OW37429   3.407   2.403   7.896  0.6604 -0.3740 -0.0474
 8657SOL    HW137430   3.478   2.452   7.938  1.1868 -0.0701 -1.3017
 8657SOL    HW237431   3.450   2.318   7.886  0.8363 -0.5280  1.8646
 8658SOL     OW37432   4.603   4.145  16.248  0.1527 -0.2278 -0.2496
 8658SOL    HW137433   4.599   4.091  16.327 -0.8329 -1.7928 -1.3647
 8658SOL    HW237434   4.547   4.219  16.269  1.8346  1.1458 -0.6159
 8659SOL     OW37435   0.910   1.154   8.359  0.3525 -0.0883 -0.1777
 8659SOL    HW137436   0.892   1.218   8.427 -4.0115  0.2922 -1.7266
 8659SOL    HW237437   0.891   1.210   8.284  0.1510 -0.0366 -0.0887
 8660SOL     OW37438   3.310   4.169  16.740 -0.3453 -0.2433  0.4608
 8660SOL    HW137439   3.330   4.180  16.647 -0.4165  0.2713  0.5074
 8660SOL    HW237440   3.381   4.106  16.754 -0.3514 -0.2895  0.2761
 8661SOL     OW37441   3.566   1.156   0.647 -0.4948  0.2480  0.1177
 8661SOL    HW137442   3.491   1.188   0.597 -2.1110 -1.3496  1.4930
 8661SOL    HW237443   3.611   1.237   0.670 -0.2509  0.6859 -1.9222
 8662SOL     OW37444   4.322   1.386  16.450  0.0142  0.5807 -0.7010
 8662SOL    HW137445   4.340   1.413  16.360  0.7405 -0.1740 -0.7848
 8662SOL    HW237446   4.248   1.438  16.481 -0.8688  0.3849 -2.4971
 8663SOL     OW37447   4.521   4.419   7.148 -0.1496 -0.4823  0.4450
 8663SOL    HW137448   4.527   4.422   7.243  0.6787  2.1037  0.3398
 8663SOL    HW237449   4.581   4.491   7.126 -0.4290 -0.0534  1.0946
 8664SOL     OW37450   1.229   0.233   0.858  0.6960 -0.0571 -0.0894
 8664SOL    HW137451   1.182   0.302   0.813  1.4075  1.1649  1.0415
 8664SOL    HW237452   1.152   0.184   0.888  1.6817 -2.1913 -1.0696
 8665SOL     OW37453   0.770   1.134   5.703  0.0135  0.5781  0.5342
 8665SOL    HW137454   0.724   1.050   5.712  0.0757  0.5468  0.5644
 8665SOL    HW237455   0.721   1.184   5.768 -0.4331  0.6556  0.1403
 8666SOL     OW37456   2.542   0.761   9.166  1.1036 -0.1900 -0.0058
 8666SOL    HW137457   2.454   0.722   9.169  0.8239  0.4602  0.0873
 8666SOL    HW237458   2.560   0.751   9.073 -1.1542 -3.2662 -0.1351
 8667SOL     OW37459   0.780   1.117   3.291 -0.2057  0.1070  0.0957
 8667SOL    HW137460   0.829   1.198   3.300 -1.2463  0.8960 -1.2386
 8667SOL    HW237461   0.762   1.118   3.197  0.4833  0.6261 -0.0318
 8668SOL     OW37462   4.146   2.687   4.580 -0.3952  0.0044  0.0893
 8668SOL    HW137463   4.110   2.765   4.536  1.0534 -1.1507 -3.1596
 8668SOL    HW237464   4.170   2.717   4.667  0.4500  2.4676 -0.9976
 8669SOL     OW37465   3.152   1.738   9.389  0.1040 -0.0358 -0.5502
 8669SOL    HW137466   3.173   1.651   9.354 -1.6424 -0.4635 -0.5755
 8669SOL    HW237467   3.119   1.718   9.477  1.1451  0.3544 -0.0797
 8670SOL     OW37468   1.116   2.042   6.390 -0.5651  0.1080  0.2477
 8670SOL    HW137469   1.187   1.983   6.415 -1.0578 -0.4071  0.4439
 8670SOL    HW237470   1.127   2.104   6.462  1.4314  1.3176 -1.1230
 8671SOL     OW37471   3.435   2.121   3.040 -0.7011 -0.6420 -0.5780
 8671SOL    HW137472   3.386   2.199   3.015  0.1130  0.2510  0.6033
 8671SOL    HW237473   3.368   2.055   3.023 -1.1251 -0.9740  2.3999
 8672SOL     OW37474   4.154   3.752   9.867  0.6961  0.0942 -0.1352
 8672SOL    HW137475   4.069   3.751   9.910 -0.8221  2.1635 -3.0600
 8672SOL    HW237476   4.137   3.683   9.802 -3.9991  2.0579 -1.0010
 8673SOL     OW37477   3.234   2.210   4.107 -0.1051 -0.6790 -0.5692
 8673SOL    HW137478   3.214   2.167   4.191 -0.6205  0.6488 -0.0057
 8673SOL    HW237479   3.165   2.276   4.101  2.0210  1.7544  1.2992
 8674SOL     OW37480   2.972   4.595   9.893 -0.1458  0.1092 -0.8893
 8674SOL    HW137481   2.920   4.647   9.832 -0.6207 -0.5996 -1.0825
 8674SOL    HW237482   2.949   4.636   9.977 -2.1051 -1.1426 -0.8271
 8675SOL     OW37483   0.520   0.314   8.365  0.2828 -0.2512 -0.4928
 8675SOL    HW137484   0.472   0.343   8.442 -0.2179 -1.7564 -0.2460
 8675SOL    HW237485   0.602   0.288   8.407 -0.5586  0.1277  1.3728
 8676SOL     OW37486   3.721   0.244  15.072  0.5097 -0.0943 -0.0621
 8676SOL    HW137487   3.801   0.294  15.057  0.0388  0.4937 -0.5967
 8676SOL    HW237488   3.705   0.268  15.163  2.3338  0.1455  0.2029
 8677SOL     OW37489   2.655   2.231   6.277 -0.0092 -0.1828  0.1960
 8677SOL    HW137490   2.688   2.287   6.348 -2.7893 -0.2404  1.5101
 8677SOL    HW237491   2.688   2.146   6.308 -0.9974 -0.9033 -0.7437
 8678SOL     OW37492   3.857   0.573   8.530 -0.4488  0.5865  0.4185
 8678SOL    HW137493   3.779   0.558   8.585 -1.1126  1.8034 -0.1899
 8678SOL    HW237494   3.835   0.656   8.488  0.0535  0.1403 -0.7094
 8679SOL     OW37495   0.393   4.344   3.461 -0.3612 -0.8429  0.0277
 8679SOL    HW137496   0.379   4.278   3.394 -1.0392 -0.3853 -0.2764
 8679SOL    HW237497   0.331   4.315   3.529  0.7077 -1.4120  0.7698
 8680SOL     OW37498   1.541   1.528   2.901 -0.0438  0.0208 -0.6200
 8680SOL    HW137499   1.533   1.591   2.830  1.2861  1.1943  0.2682
 8680SOL    HW237500   1.629   1.555   2.926  0.4016 -4.3039  2.6347
 8681SOL     OW37501   3.908   1.261   6.492 -0.2746 -0.4106  0.4718
 8681SOL    HW137502   3.836   1.206   6.522 -0.6616  0.1493  0.5627
 8681SOL    HW237503   3.876   1.281   6.405 -0.1397  4.2979  1.4763
 8682SOL     OW37504   4.181   3.786  13.910  0.4857 -0.2898  0.2635
 8682SOL    HW137505   4.269   3.824  13.901  0.3240 -0.0135 -0.1736
 8682SOL    HW237506   4.151   3.778  13.819  2.3360  0.1864 -0.3916
 8683SOL     OW37507   4.231   1.300   4.487  0.4458  0.1237 -0.7587
 8683SOL    HW137508   4.275   1.379   4.456 -0.3129  0.5060 -0.8579
 8683SOL    HW237509   4.176   1.351   4.547 -0.7320  0.5524 -2.2095
 8684SOL     OW37510   3.939   3.433  15.414  0.3630  0.3543 -0.4459
 8684SOL    HW137511   3.848   3.409  15.396 -0.6092  1.9326  2.3780
 8684SOL    HW237512   3.985   3.361  15.371 -0.3527 -0.2931 -0.1232
 8685SOL     OW37513   0.588   1.346   8.635 -0.2745 -0.0495  0.1912
 8685SOL    HW137514   0.510   1.371   8.685  0.5225  0.9671  0.9167
 8685SOL    HW237515   0.643   1.310   8.704  1.0656 -0.3960 -1.0460
 8686SOL     OW37516   2.077   3.806   8.726 -0.4877 -0.0431  0.0337
 8686SOL    HW137517   2.143   3.820   8.793 -2.5789 -2.0647  2.5355
 8686SOL    HW237518   2.079   3.890   8.681  1.4186  0.3791  0.9415
 8687SOL     OW37519   0.391   0.540   2.134 -0.4051 -0.2079  0.1785
 8687SOL    HW137520   0.421   0.627   2.159 -1.9148  0.2660  0.3522
 8687SOL    HW237521   0.476   0.497   2.123  0.0298  0.8507 -0.5671
 8688SOL     OW37522   1.151   0.686   8.287 -0.2160 -0.0012  0.1354
 8688SOL    HW137523   1.100   0.762   8.315 -2.6449 -2.1175  1.4821
 8688SOL    HW237524   1.075   0.641   8.250 -0.7441 -0.1331  1.3768
 8689SOL     OW37525   3.788   1.604  12.176  0.2085  0.2021  0.0483
 8689SOL    HW137526   3.763   1.554  12.253 -2.6737  0.0220 -1.0051
 8689SOL    HW237527   3.702   1.591  12.136 -0.2575  0.9942  0.8082
 8690SOL     OW37528   4.414   4.722   6.620 -0.1578  0.1887 -0.2640
 8690SOL    HW137529   4.384   0.010   6.530  2.1350  1.3033 -0.9011
 8690SOL    HW237530   4.482   4.655   6.614 -1.6909 -1.4131  0.4226
 8691SOL     OW37531   1.568   4.187   6.966  0.7236  0.1743 -0.4794
 8691SOL    HW137532   1.661   4.197   6.945  0.8910  0.5061  0.4197
 8691SOL    HW237533   1.555   4.098   6.933 -0.0164 -0.8846  2.6142
 8692SOL     OW37534   3.144   3.543  13.074 -0.0919  0.7002 -0.0562
 8692SOL    HW137535   3.170   3.451  13.065  2.6902  1.6858 -2.2077
 8692SOL    HW237536   3.185   3.581  12.996  0.1988  0.2128 -0.1401
 8693SOL     OW37537   4.230   3.595   6.224  0.5118  0.6495 -0.2346
 8693SOL    HW137538   4.278   3.514   6.208  0.9409  0.4635  2.0542
 8693SOL    HW237539   4.173   3.601   6.147  0.5109 -3.2811 -0.5006
 8694SOL     OW37540   0.904   2.106   8.198  0.3204 -0.2557  0.4822
 8694SOL    HW137541   0.985   2.136   8.239 -0.4214  1.0004  1.0299
 8694SOL    HW237542   0.932   2.037   8.137 -1.0499 -1.2139  0.9503
 8695SOL     OW37543   2.492   1.762   8.667 -0.2700  0.4040 -0.0654
 8695SOL    HW137544   2.523   1.844   8.705  1.2327 -0.2117  0.0127
 8695SOL    HW237545   2.556   1.745   8.599  0.8109  1.4718  0.6773
 8696SOL     OW37546   1.724   1.346  16.826  0.7090  0.6354  0.5214
 8696SOL    HW137547   1.697   1.341  16.734 -1.2677  0.9956  1.0829
 8696SOL    HW237548   1.676   1.422  16.857 -0.5342 -0.4907  1.3467
 8697SOL     OW37549   0.772   2.237   3.551 -0.0626 -0.2749  0.4160
 8697SOL    HW137550   0.731   2.268   3.632 -1.0012  1.8254 -0.8696
 8697SOL    HW237551   0.823   2.313   3.522  0.6907 -0.7563  0.4755
 8698SOL     OW37552   1.837   0.122   4.322  0.2200 -0.7699 -0.0638
 8698SOL    HW137553   1.808   0.044   4.275 -0.4569  0.0794 -1.0436
 8698SOL    HW237554   1.891   0.075   4.386 -0.2707 -0.0686  0.8622
 8699SOL     OW37555   1.567   3.537   4.788 -0.7800 -0.6467 -0.2928
 8699SOL    HW137556   1.516   3.617   4.786 -1.4376 -1.0656 -0.3308
 8699SOL    HW237557   1.510   3.481   4.735 -0.5666 -0.2402 -0.9509
 8700SOL     OW37558   2.858   3.832  12.225  0.1452 -0.0996  0.2248
 8700SOL    HW137559   2.856   3.866  12.314 -0.3008  2.7196 -0.8686
 8700SOL    HW237560   2.766   3.815  12.207  0.2437  0.0818 -0.4439
 8701SOL     OW37561   1.625   1.886   7.288 -0.5616  0.6314 -0.1874
 8701SOL    HW137562   1.629   1.896   7.193  0.5199  0.6939 -0.1430
 8701SOL    HW237563   1.684   1.810   7.294 -1.8326 -0.4740 -1.7621
 8702SOL     OW37564   2.305   1.249   4.538 -0.6173  0.1244 -0.2247
 8702SOL    HW137565   2.241   1.223   4.604 -1.8344  0.9774 -1.0606
 8702SOL    HW237566   2.300   1.345   4.541  0.0581  0.2136 -1.7332
 8703SOL     OW37567   2.260   0.809   3.648  0.1386 -0.3970 -0.1685
 8703SOL    HW137568   2.314   0.875   3.691 -3.0016  0.6070  2.2347
 8703SOL    HW237569   2.206   0.859   3.587 -1.6526 -0.2300  1.5449
 8704SOL     OW37570   0.649   0.132   4.141 -0.3648  0.2756 -0.1800
 8704SOL    HW137571   0.735   0.157   4.174 -1.5961  0.3809  2.9677
 8704SOL    HW237572   0.593   0.136   4.218  1.2675 -1.0709  1.0913
 8705SOL     OW37573   3.477   1.210   1.320  0.0423  0.2942 -0.2621
 8705SOL    HW137574   3.572   1.213   1.328 -0.2046  2.7426  1.6655
 8705SOL    HW237575   3.453   1.298   1.290 -1.0352  0.3934  0.8922
 8706SOL     OW37576   0.109   4.168   5.012  0.0810 -0.0171  0.2139
 8706SOL    HW137577   0.171   4.095   4.999 -0.3067 -0.4120  0.5825
 8706SOL    HW237578   0.028   4.116   5.011 -0.8130  1.4175 -0.5813
 8707SOL     OW37579   3.835   4.397   0.464 -0.3470 -0.1761  0.3143
 8707SOL    HW137580   3.793   4.321   0.423  0.7571 -1.7502  2.0824
 8707SOL    HW237581   3.843   4.443   0.381  2.7701 -1.6264 -0.1836
 8708SOL     OW37582   4.207   3.271   5.423 -0.9748  0.2027  0.7085
 8708SOL    HW137583   4.177   3.327   5.494 -0.1517  0.6489  0.7060
 8708SOL    HW237584   4.299   3.262   5.449 -0.8929  1.7677  0.9439
 8709SOL     OW37585   3.685   3.306  15.449  0.2923  0.3646 -0.7116
 8709SOL    HW137586   3.659   3.214  15.456  1.4818  0.2552  2.1033
 8709SOL    HW237587   3.627   3.354  15.508  1.2675 -0.1618  0.6568
 8710SOL     OW37588   0.547   0.288  17.374  0.2882 -0.4033  0.1750
 8710SOL    HW137589   0.554   0.367  17.320  2.1013 -0.8088 -0.1740
 8710SOL    HW237590   0.595   0.312  17.453  0.1487 -1.7904  0.6685
 8711SOL     OW37591   2.890   1.851  16.662  0.3598  0.2856  0.0983
 8711SOL    HW137592   2.819   1.787  16.668 -0.5662  1.5827  2.8095
 8711SOL    HW237593   2.865   1.892  16.579  0.1192 -1.2576 -0.5900
 8712SOL     OW37594   4.553   0.093   9.724  0.3880  0.3158 -0.0635
 8712SOL    HW137595   4.538   0.185   9.745 -1.9198 -0.0440 -0.1046
 8712SOL    HW237596   4.466   0.070   9.690  0.9068 -1.5198 -0.1522
 8713SOL     OW37597   2.069   1.563   3.575 -0.2733 -0.1688 -0.1802
 8713SOL    HW137598   2.136   1.580   3.509 -0.8646 -0.8341 -0.9548
 8713SOL    HW237599   2.006   1.524   3.515 -0.7319  1.3546 -0.6809
 8714SOL     OW37600   1.884   3.381   4.207 -0.3554 -0.2790  0.3724
 8714SOL    HW137601   1.976   3.395   4.228 -0.4610  0.6792  0.1543
 8714SOL    HW237602   1.896   3.296   4.164 -0.1212 -0.7014  1.2671
 8715SOL     OW37603   1.012   0.534   8.556 -0.1306  0.3518 -0.7728
 8715SOL    HW137604   0.931   0.506   8.598  0.4206  0.3025  0.2488
 8715SOL    HW237605   1.073   0.475   8.599 -0.5624  1.6794  1.6357
 8716SOL     OW37606   3.163   4.503  12.742 -0.0061  0.1191 -0.0833
 8716SOL    HW137607   3.184   4.455  12.662  1.0285 -2.6310  1.7868
 8716SOL    HW237608   3.209   4.583  12.718 -2.4241  1.7240  0.7113
 8717SOL     OW37609   3.691   1.834   6.972 -0.0202 -0.1726  0.4943
 8717SOL    HW137610   3.667   1.845   6.880  1.0630  0.1045  0.2473
 8717SOL    HW237611   3.687   1.923   7.006  1.0943  0.3464 -0.7537
 8718SOL     OW37612   2.107   0.360   6.392  0.0567  0.0850 -0.2217
 8718SOL    HW137613   2.108   0.444   6.346  2.0480 -2.0179 -4.0484
 8718SOL    HW237614   2.195   0.357   6.429 -0.2562 -0.1444  0.5005
 8719SOL     OW37615   4.237   3.309   2.852 -0.3404  0.5646  0.3647
 8719SOL    HW137616   4.166   3.247   2.833 -0.5397  1.3176 -1.4161
 8719SOL    HW237617   4.292   3.252   2.905 -0.7427  0.1978  0.3934
 8720SOL     OW37618   0.653   2.481   6.899 -0.5041 -0.2944  0.6113
 8720SOL    HW137619   0.733   2.534   6.897 -1.0577  0.5794  1.5103
 8720SOL    HW237620   0.598   2.513   6.827  1.0345 -1.2508 -0.9787
 8721SOL     OW37621   3.711   0.124   1.006 -0.0353  0.0650  0.2742
 8721SOL    HW137622   3.678   0.097   0.921  1.8661  1.0920 -0.8040
 8721SOL    HW237623   3.801   0.146   0.981  0.2671 -0.7841  0.6209
 8722SOL     OW37624   3.310   4.030  11.784  0.1245 -0.0791 -0.2713
 8722SOL    HW137625   3.280   4.049  11.695  3.5766 -0.8748 -1.6089
 8722SOL    HW237626   3.236   3.979  11.818 -0.7183  0.4337 -1.3164
 8723SOL     OW37627   3.428   1.508   7.702 -0.5786  0.1025  0.3001
 8723SOL    HW137628   3.449   1.437   7.642 -0.2776  0.2571  0.2212
 8723SOL    HW237629   3.512   1.518   7.747 -0.2973 -0.9375  0.0129
 8724SOL     OW37630   2.142   0.698   2.197  0.2803 -0.0071  0.2832
 8724SOL    HW137631   2.166   0.663   2.283  0.6837  0.8239  0.4981
 8724SOL    HW237632   2.150   0.620   2.141 -1.4560 -0.4059  0.5953
 8725SOL     OW37633   2.821   2.624   5.017  0.1045 -0.0848 -0.0997
 8725SOL    HW137634   2.795   2.620   4.925 -0.6400 -0.9765  0.1550
 8725SOL    HW237635   2.740   2.629   5.068 -0.8506  0.6559 -1.6849
 8726SOL     OW37636   0.059   1.990   8.120 -0.2428 -0.0057 -0.0792
 8726SOL    HW137637   0.135   2.046   8.108  0.6988 -1.1328  0.5569
 8726SOL    HW237638   0.046   1.937   8.041 -0.0695  1.9653 -1.4039
 8727SOL     OW37639   0.010   1.686   7.990 -0.5348 -0.3666  0.7424
 8727SOL    HW137640   0.044   1.605   8.026 -1.9154 -0.3242  2.1824
 8727SOL    HW237641   0.086   1.740   7.970 -1.2304  1.1394  2.1412
 8728SOL     OW37642   3.607   2.801  15.411  0.2876  0.8192 -0.3440
 8728SOL    HW137643   3.584   2.893  15.408  1.0350  1.0642  1.7787
 8728SOL    HW237644   3.659   2.793  15.331  0.6963  0.8084 -0.0721
 8729SOL     OW37645   1.839   1.138   8.674  0.3394 -0.2155  0.1706
 8729SOL    HW137646   1.924   1.178   8.694  0.5302 -0.7286  0.3864
 8729SOL    HW237647   1.786   1.207   8.714  1.0957  0.0024  0.7979
 8730SOL     OW37648   0.018   1.510  13.563 -0.0013 -0.2893  0.5847
 8730SOL    HW137649   4.703   1.437  13.612 -0.3333 -0.6400 -0.1937
 8730SOL    HW237650   0.103   1.520  13.605  1.0991 -2.2162 -1.2140
 8731SOL     OW37651   0.764   1.165   4.321  0.4070  0.3450  0.8170
 8731SOL    HW137652   0.682   1.160   4.272  0.8630  5.2692 -0.4127
 8731SOL    HW237653   0.795   1.254   4.303  0.6557 -0.3014 -1.9305
 8732SOL     OW37654   0.245   2.528   7.172 -0.1890 -0.8624  0.2684
 8732SOL    HW137655   0.183   2.600   7.159  1.0900  0.0305 -0.8425
 8732SOL    HW237656   0.207   2.468   7.236 -1.3036 -1.1858 -0.6969
 8733SOL     OW37657   0.549   3.071   3.897 -0.1471  0.4810 -0.5516
 8733SOL    HW137658   0.519   2.980   3.893 -0.3681  0.4715  1.3388
 8733SOL    HW237659   0.629   3.053   3.847 -0.1378  2.8202 -1.3725
 8734SOL     OW37660   3.191   1.230   5.638 -0.5014 -0.1347 -0.0127
 8734SOL    HW137661   3.278   1.267   5.650 -0.8674  0.6340  0.2669
 8734SOL    HW237662   3.144   1.313   5.647  0.2205  0.3766 -1.0666
 8735SOL     OW37663   4.698   1.686   6.877  0.1050  0.1213  0.1536
 8735SOL    HW137664   0.046   1.658   6.934  0.7661 -0.3303 -0.8867
 8735SOL    HW237665   4.624   1.637   6.912 -0.2771  0.1233 -0.6567
 8736SOL     OW37666   3.081   1.803  11.663 -0.0582  0.9369  0.2540
 8736SOL    HW137667   2.987   1.821  11.659 -0.2108 -0.1046 -0.8971
 8736SOL    HW237668   3.125   1.855  11.596 -0.5623  1.5255  0.3759
 8737SOL     OW37669   1.240   3.972   4.219 -0.0808 -0.3603 -0.1959
 8737SOL    HW137670   1.203   3.936   4.300  0.1761 -2.6609 -1.1048
 8737SOL    HW237671   1.313   3.913   4.202  2.4098  2.0747  2.0553
 8738SOL     OW37672   3.037   4.395   6.392  0.7175 -0.4049 -0.0265
 8738SOL    HW137673   3.055   4.462   6.458  2.5821  1.5766 -2.5410
 8738SOL    HW237674   2.944   4.405   6.370  0.6062 -1.5607 -0.1050
 8739SOL     OW37675   2.285   4.654   1.837 -0.5427  0.0633  0.1846
 8739SOL    HW137676   2.338   4.622   1.910  0.4099  0.6293 -0.2681
 8739SOL    HW237677   2.239   4.574   1.810  0.7998 -1.1438  1.4933
 8740SOL     OW37678   0.992   3.532   6.127 -0.3151 -0.2526  0.0496
 8740SOL    HW137679   0.990   3.436   6.123 -1.6794 -0.3146  2.0480
 8740SOL    HW237680   0.897   3.547   6.132 -0.4538 -0.6923 -1.2345
 8741SOL     OW37681   3.928   1.797   8.454  0.1774  0.3492 -0.6876
 8741SOL    HW137682   3.966   1.882   8.474 -0.6492  0.2914  1.1374
 8741SOL    HW237683   3.936   1.768   8.545  1.1322  1.1661 -0.5097
 8742SOL     OW37684   3.863   3.372   4.655 -0.6561  0.4987  0.3891
 8742SOL    HW137685   3.935   3.375   4.718 -0.3906 -1.8234  0.1949
 8742SOL    HW237686   3.893   3.315   4.585 -1.7121  0.5664 -0.1160
 8743SOL     OW37687   2.009   1.038   6.038 -0.5031  0.7204  0.4211
 8743SOL    HW137688   1.957   1.052   5.959 -1.0130 -2.5744  0.1677
 8743SOL    HW237689   2.101   1.047   6.011 -0.3702 -0.7506  0.3510
 8744SOL     OW37690   0.643   2.787   4.064  0.4383 -0.2764 -0.2650
 8744SOL    HW137691   0.733   2.771   4.036  0.0646 -2.6787 -0.0924
 8744SOL    HW237692   0.646   2.765   4.158  1.3170 -3.7884 -1.1073
 8745SOL     OW37693   0.318   3.797   7.802 -0.6060  0.1339  0.3580
 8745SOL    HW137694   0.318   3.711   7.762  1.2554  0.6581 -0.7142
 8745SOL    HW237695   0.227   3.828   7.800 -0.4347  0.3860 -2.7078
 8746SOL     OW37696   0.410   3.347  12.058 -0.0978  0.1218 -0.0443
 8746SOL    HW137697   0.377   3.427  12.098  0.6202  0.7613 -0.7095
 8746SOL    HW237698   0.348   3.285  12.096  2.5744 -1.6911  1.3581
 8747SOL     OW37699   3.868   0.664  15.149  0.2929 -0.2379  0.1807
 8747SOL    HW137700   3.914   0.747  15.156  0.3302 -0.0481 -2.3624
 8747SOL    HW237701   3.900   0.626  15.231  1.5948 -2.0707 -1.1696
 8748SOL     OW37702   0.179   1.115   9.943  0.2214 -0.5170 -0.1456
 8748SOL    HW137703   0.239   1.159  10.003  1.7556  1.0017 -2.7844
 8748SOL    HW237704   0.136   1.053  10.001 -0.5997  0.6928  0.5528
 8749SOL     OW37705   0.904   4.082   4.334  0.1578  0.4283  0.5286
 8749SOL    HW137706   0.857   4.001   4.355  0.7661  0.2623  1.2826
 8749SOL    HW237707   0.881   4.105   4.244 -0.5793 -0.3848  0.5123
 8750SOL     OW37708   1.885   4.225  14.931  0.0664 -0.0236  0.0476
 8750SOL    HW137709   1.918   4.215  15.020  1.3373 -0.6691 -0.4902
 8750SOL    HW237710   1.970   4.237  14.888 -0.7556 -0.6819 -1.7358
 8751SOL     OW37711   2.533   4.046   2.065  0.4119 -0.1687 -0.0656
 8751SOL    HW137712   2.530   4.140   2.048  1.0824 -0.3163 -1.0069
 8751SOL    HW237713   2.530   4.003   1.979 -0.0487 -0.3534  0.0401
 8752SOL     OW37714   3.147   0.047   2.135 -0.7841 -0.6431 -0.1520
 8752SOL    HW137715   3.237   0.077   2.121 -1.6639  1.5560 -1.3234
 8752SOL    HW237716   3.091   0.121   2.110  1.8527  1.2069 -0.5507
 8753SOL     OW37717   3.024   2.369   1.044 -0.2140 -0.1495 -0.3198
 8753SOL    HW137718   3.114   2.380   1.074  0.1898  1.5399 -2.1247
 8753SOL    HW237719   2.995   2.299   1.102 -1.1561  1.1542  0.7956
 8754SOL     OW37720   3.052   4.412  11.472 -0.4636  0.1610  0.0366
 8754SOL    HW137721   3.015   4.379  11.555  0.7856 -1.3021  0.0204
 8754SOL    HW237722   2.997   4.389  11.398 -0.6531 -0.2446  0.3038
 8755SOL     OW37723   1.302   3.488   2.361  0.6254 -0.3446  0.1618
 8755SOL    HW137724   1.397   3.490   2.373  0.6441  0.5100 -0.1368
 8755SOL    HW237725   1.293   3.525   2.273  1.2652 -1.7509 -0.5035
 8756SOL     OW37726   4.707   0.175   4.786 -0.3748  0.1383 -0.1233
 8756SOL    HW137727   0.042   0.116   4.739 -1.1560  1.1555 -2.3559
 8756SOL    HW237728   4.701   0.242   4.718  3.4612  0.3376 -0.2465
 8757SOL     OW37729   3.415   0.076  10.463  0.5491 -0.0866 -0.2778
 8757SOL    HW137730   3.407   0.167  10.491 -0.0245 -0.1901 -0.0973
 8757SOL    HW237731   3.453   0.031  10.538 -0.0748 -0.6706 -0.3101
 8758SOL     OW37732   0.098   2.881   0.943 -0.0770 -0.6514  0.0186
 8758SOL    HW137733   0.032   2.950   0.932 -0.7605 -1.4626 -0.9020
 8758SOL    HW237734   0.173   2.919   0.989 -0.6864 -0.2865  0.7131
 8759SOL     OW37735   3.471   4.194   9.762  0.3930  0.0677 -0.5110
 8759SOL    HW137736   3.446   4.119   9.708  0.0332  1.0658 -1.7298
 8759SOL    HW237737   3.451   4.150   9.845 -0.8744  1.5229 -0.0361
 8760SOL     OW37738   4.366   2.193   1.791 -0.1075 -0.3510  0.2576
 8760SOL    HW137739   4.347   2.192   1.697  0.6700 -0.3330  0.0973
 8760SOL    HW237740   4.337   2.281   1.813 -2.3072 -0.9767 -0.1350
 8761SOL     OW37741   4.268   0.568  14.680  0.5037 -0.5661 -0.4021
 8761SOL    HW137742   4.358   0.598  14.668  0.1845  0.9893  0.9780
 8761SOL    HW237743   4.235   0.622  14.752 -0.6883  0.3910 -1.6595
 8762SOL     OW37744   1.382   0.789  17.084  0.3901  0.1028 -0.5761
 8762SOL    HW137745   1.460   0.816  17.036  0.3053 -1.7688 -1.7945
 8762SOL    HW237746   1.409   0.781  17.175  1.5030  0.6756 -0.8634
 8763SOL     OW37747   3.036   3.401   2.559  0.2832 -0.0468  0.1132
 8763SOL    HW137748   3.101   3.431   2.623  1.0146 -0.4608 -0.4520
 8763SOL    HW237749   2.982   3.481   2.561 -0.3695 -0.4555 -1.2350
 8764SOL     OW37750   2.164   2.042   6.662  0.1946  0.3215  0.1533
 8764SOL    HW137751   2.191   2.115   6.607 -1.4237  1.4699  0.9020
 8764SOL    HW237752   2.195   2.064   6.750 -0.0856  0.4594  0.2168
 8765SOL     OW37753   1.789   0.516   8.251 -0.1276  0.4417 -0.5649
 8765SOL    HW137754   1.761   0.602   8.282 -2.4943 -0.7840  0.6592
 8765SOL    HW237755   1.856   0.541   8.188  1.0117 -0.7499  0.1641
 8766SOL     OW37756   0.742   0.540   4.255  0.1916 -0.0556 -0.5471
 8766SOL    HW137757   0.652   0.551   4.223  0.5566 -0.8363 -1.8392
 8766SOL    HW237758   0.725   0.584   4.339 -0.6094  1.9522 -1.7516
 8767SOL     OW37759   1.638   3.669   6.799 -0.1992 -0.0606  0.4695
 8767SOL    HW137760   1.644   3.588   6.747 -1.4095  0.4083 -0.4150
 8767SOL    HW237761   1.704   3.710   6.743 -0.1812 -0.9926 -0.2105
 8768SOL     OW37762   2.757   1.827  14.283  0.2341  0.0162 -0.0567
 8768SOL    HW137763   2.809   1.875  14.348 -0.1871 -0.4804  0.6335
 8768SOL    HW237764   2.807   1.747  14.294 -0.4980 -0.4309  0.0059
 8769SOL     OW37765   3.744   0.042   3.541 -0.2144 -0.2564 -0.1409
 8769SOL    HW137766   3.739   0.036   3.445  0.7113 -1.5303 -0.1166
 8769SOL    HW237767   3.764   4.672   3.548 -5.8750 -1.0537  4.7031
 8770SOL     OW37768   0.223   1.332   0.079  0.2882  0.4250  0.0307
 8770SOL    HW137769   0.133   1.311   0.103  0.3937 -2.2256 -1.9848
 8770SOL    HW237770   0.264   1.249   0.102 -0.1717 -0.0682 -0.9473
 8771SOL     OW37771   2.038   1.601   6.822  0.3370 -0.7228 -0.2525
 8771SOL    HW137772   2.077   1.522   6.783  1.1778  0.1644 -1.1967
 8771SOL    HW237773   2.063   1.661   6.752 -0.9125 -0.2357 -0.2825
 8772SOL     OW37774   0.918   3.813   6.773 -0.3327 -0.2376 -0.2122
 8772SOL    HW137775   0.991   3.765   6.735  1.3425  1.0922  1.3662
 8772SOL    HW237776   0.889   3.874   6.705 -0.8064  0.5717  0.7142
 8773SOL     OW37777   2.988   2.674  14.901  0.4754  0.4274  0.2830
 8773SOL    HW137778   2.916   2.686  14.839 -0.8884 -0.9785  1.5681
 8773SOL    HW237779   3.008   2.764  14.924 -0.1955  0.4370  0.8336
 8774SOL     OW37780   0.487   0.593  10.787 -0.0045  0.6077 -0.9507
 8774SOL    HW137781   0.469   0.642  10.707 -2.2797 -0.1067 -0.8756
 8774SOL    HW237782   0.574   0.560  10.765 -0.2350 -0.6973  0.1131
 8775SOL     OW37783   1.611   4.198   9.079  0.3616  0.2656 -0.0002
 8775SOL    HW137784   1.697   4.164   9.104  0.0491 -1.1818 -0.8330
 8775SOL    HW237785   1.638   4.283   9.045 -2.9678  0.5170 -1.9352
 8776SOL     OW37786   3.584   1.713  15.138 -0.2010 -0.8874  0.0246
 8776SOL    HW137787   3.576   1.691  15.231  1.3277  0.2938  0.4449
 8776SOL    HW237788   3.632   1.636  15.109  4.0083  1.2603  1.2806
 8777SOL     OW37789   1.054   2.626   5.541 -0.1511 -0.3685 -0.2187
 8777SOL    HW137790   0.974   2.676   5.533  0.0180 -0.2785 -1.3340
 8777SOL    HW237791   1.029   2.567   5.613 -0.9141  0.2954  0.0484
 8778SOL     OW37792   0.081   0.877   7.295 -0.0187  0.6480 -1.1348
 8778SOL    HW137793   4.715   0.865   7.263  0.0036 -1.0127 -0.5570
 8778SOL    HW237794   0.078   0.972   7.310 -0.3727  0.6516 -1.2450
 8779SOL     OW37795   3.506   1.565  14.722  0.0622 -0.2681  0.2060
 8779SOL    HW137796   3.429   1.614  14.748 -1.6307 -2.2961 -0.9395
 8779SOL    HW237797   3.489   1.485  14.771 -0.6046 -0.4352 -0.2976
 8780SOL     OW37798   4.686   1.752  14.948 -0.1209 -0.2733  0.3979
 8780SOL    HW137799   4.646   1.820  14.893 -2.1393 -0.9736  1.0078
 8780SOL    HW237800   4.667   1.775  15.038 -0.1381 -2.9207  1.0647
 8781SOL     OW37801   0.645   3.380  17.321 -0.3501 -0.2342  0.3130
 8781SOL    HW137802   0.713   3.445  17.307  0.2006 -0.4024  2.1814
 8781SOL    HW237803   0.676   3.311  17.262  1.1678 -0.1791  1.0506
 8782SOL     OW37804   1.276   1.728   9.069  0.6717 -0.3009 -0.3043
 8782SOL    HW137805   1.359   1.691   9.039  0.2255 -0.6960 -1.0502
 8782SOL    HW237806   1.216   1.707   8.996 -2.7153 -2.2894  3.0355
 8783SOL     OW37807   0.143   1.085   8.453  0.9563 -0.6373  1.0077
 8783SOL    HW137808   0.073   1.145   8.429  1.1511 -0.0111  2.0147
 8783SOL    HW237809   0.138   1.084   8.548  0.6280  1.3838  1.0151
 8784SOL     OW37810   1.331   2.887   6.781 -0.0660  0.2445  0.0628
 8784SOL    HW137811   1.328   2.893   6.876  3.2093  0.7249  0.1353
 8784SOL    HW237812   1.376   2.970   6.763 -1.3607  1.2450  1.4967
 8785SOL     OW37813   1.332   3.930   1.663 -0.1531 -0.2619  0.1488
 8785SOL    HW137814   1.277   3.859   1.629  0.9241 -0.8582 -0.3569
 8785SOL    HW237815   1.420   3.917   1.628 -0.1930 -0.1868  0.0217
 8786SOL     OW37816   0.691   0.919  11.490  0.0798  0.3307  0.7102
 8786SOL    HW137817   0.697   1.011  11.464 -0.2604  0.0431 -0.3910
 8786SOL    HW237818   0.630   0.929  11.563 -2.3189  0.6381 -1.3096
 8787SOL     OW37819   3.062   4.087   1.391  0.1347 -0.8077  0.4974
 8787SOL    HW137820   3.139   4.069   1.337 -0.4482 -0.5829 -0.4153
 8787SOL    HW237821   3.016   4.007   1.367  1.0306 -1.6991  1.8116
 8788SOL     OW37822   2.646   1.755  11.803 -0.5310 -0.8202 -0.3181
 8788SOL    HW137823   2.663   1.825  11.867 -1.4705 -0.6201 -0.2787
 8788SOL    HW237824   2.711   1.782  11.738 -1.2241 -1.7208 -1.3891
 8789SOL     OW37825   1.274   1.119   7.127  0.3290  0.4813  0.1002
 8789SOL    HW137826   1.221   1.039   7.125 -2.0493  2.0568 -0.2412
 8789SOL    HW237827   1.313   1.115   7.041 -1.5321 -0.0439 -0.7296
 8790SOL     OW37828   1.053   0.378   2.714 -0.6504 -0.6219 -0.0362
 8790SOL    HW137829   1.035   0.313   2.781 -1.8088  1.5205  1.7112
 8790SOL    HW237830   0.965   0.408   2.689 -0.8275 -0.7242  0.4720
 8791SOL     OW37831   4.505   1.447   7.628 -1.0291 -0.4115  0.0653
 8791SOL    HW137832   4.593   1.474   7.654 -1.2523 -0.1407  0.5302
 8791SOL    HW237833   4.500   1.368   7.681 -0.2527 -1.5485 -1.5304
 8792SOL     OW37834   2.604   1.341   2.136 -0.6342  0.5187 -0.3704
 8792SOL    HW137835   2.564   1.413   2.186  1.3211  0.8406  0.7187
 8792SOL    HW237836   2.668   1.395   2.089  3.2817 -1.9130  2.2517
 8793SOL     OW37837   0.883   0.453  12.615  0.0867 -0.3787 -0.3738
 8793SOL    HW137838   0.855   0.452  12.706 -0.1434  1.0525 -0.4288
 8793SOL    HW237839   0.897   0.548  12.609 -0.8063 -0.2265 -0.0659
 8794SOL     OW37840   0.448   3.634  15.118  0.2583  0.2996 -0.0245
 8794SOL    HW137841   0.458   3.650  15.024  1.4306 -0.1392  0.0166
 8794SOL    HW237842   0.364   3.589  15.113  0.0374  0.7542 -0.3429
 8795SOL     OW37843   2.626   1.752  11.111 -0.1734  0.4279 -0.1506
 8795SOL    HW137844   2.552   1.812  11.116  0.0179  0.7016 -0.5484
 8795SOL    HW237845   2.593   1.692  11.044 -0.9332  0.3959  0.2529
 8796SOL     OW37846   4.171   2.942   3.838 -0.3533  0.6729  0.0851
 8796SOL    HW137847   4.206   3.028   3.813 -0.1659  0.2351 -1.1165
 8796SOL    HW237848   4.249   2.890   3.855 -1.6981 -0.6841  2.1575
 8797SOL     OW37849   4.217   1.520   5.760 -0.1043 -0.1196 -0.3952
 8797SOL    HW137850   4.217   1.616   5.765  0.7911  0.0332 -3.3907
 8797SOL    HW237851   4.264   1.509   5.843 -0.7959 -1.5860 -0.2064
 8798SOL     OW37852   1.240   2.961   7.894 -0.3468 -0.7540  0.0868
 8798SOL    HW137853   1.273   2.958   7.984  1.7595 -1.9789 -0.7420
 8798SOL    HW237854   1.310   2.910   7.855 -2.1609 -2.1167 -1.3808
 8799SOL     OW37855   3.494   3.033   5.714  0.2715  0.4266 -0.1453
 8799SOL    HW137856   3.421   2.990   5.669 -0.1820  0.8843  0.1512
 8799SOL    HW237857   3.478   3.126   5.699 -0.0426  0.2640 -0.8452
 8800SOL     OW37858   2.540   3.011   6.490  0.2563  0.2519  0.2719
 8800SOL    HW137859   2.571   2.947   6.554  0.5548 -0.5058 -0.6284
 8800SOL    HW237860   2.527   3.084   6.550  0.7676  1.5523 -1.1830
 8801SOL     OW37861   0.059   2.333  10.608 -0.0455  0.2809 -0.1530
 8801SOL    HW137862   0.104   2.345  10.692 -0.0161  0.5985 -0.2151
 8801SOL    HW237863   4.707   2.282  10.638  0.3179  0.4887  1.1211
 8802SOL     OW37864   4.299   3.028   6.254  0.4215  0.2704 -0.0624
 8802SOL    HW137865   4.289   3.008   6.347 -0.0005  0.8732  0.0244
 8802SOL    HW237866   4.339   3.114   6.266  0.0789  0.3544  0.5069
 8803SOL     OW37867   2.719   2.931  14.533  0.1763  0.0163 -0.5015
 8803SOL    HW137868   2.750   2.870  14.466  2.8417  3.2747 -2.2725
 8803SOL    HW237869   2.624   2.919  14.537  0.1016  0.7014 -0.1412
 8804SOL     OW37870   4.120   4.421   6.594  0.0559  0.2448  0.5695
 8804SOL    HW137871   4.198   4.366   6.592  0.6601  1.0904  0.9194
 8804SOL    HW237872   4.152   4.510   6.607  2.2878 -0.4515 -0.3137
 8805SOL     OW37873   2.826   1.100   2.250 -0.1937 -0.7632  0.1254
 8805SOL    HW137874   2.842   1.006   2.246  3.2233 -0.1484 -0.6735
 8805SOL    HW237875   2.730   1.100   2.248 -0.1669 -0.9783 -1.2027
 8806SOL     OW37876   3.352   2.249   6.037 -0.4885  0.2807  0.2161
 8806SOL    HW137877   3.378   2.157   6.038 -0.6441  0.2548  1.7378
 8806SOL    HW237878   3.390   2.271   5.952  1.4438  0.6686  1.1817
 8807SOL     OW37879   1.266   2.352   4.262  0.0085  0.0410  0.4078
 8807SOL    HW137880   1.355   2.373   4.289  0.5217 -1.1741 -0.3485
 8807SOL    HW237881   1.274   2.358   4.167 -0.6200 -2.1881  0.2009
 8808SOL     OW37882   2.020   4.039   8.474 -0.0965  0.0069 -0.0664
 8808SOL    HW137883   2.096   4.059   8.529 -0.6411  1.6686  0.0848
 8808SOL    HW237884   1.957   4.079   8.533  1.0921  0.9774  0.5574
 8809SOL     OW37885   2.284   2.132  14.598  0.5274  0.4471 -0.0637
 8809SOL    HW137886   2.247   2.122  14.686  1.3434  1.1510  0.3682
 8809SOL    HW237887   2.338   2.211  14.607  0.2043  0.7310 -0.6496
 8810SOL     OW37888   0.111   1.749   6.048  0.2314  0.0215  0.1251
 8810SOL    HW137889   0.129   1.843   6.048 -0.2335  0.1013 -0.9032
 8810SOL    HW237890   0.057   1.724   5.973  0.1428  0.8858 -0.0979
 8811SOL     OW37891   2.934   3.378   7.562 -0.5011  0.0217  0.7415
 8811SOL    HW137892   2.980   3.440   7.618  1.0455  1.1934 -1.8229
 8811SOL    HW237893   3.004   3.316   7.541 -1.7641 -1.0321 -0.3718
 8812SOL     OW37894   0.986   0.468  14.724 -0.1706 -0.1924  0.3712
 8812SOL    HW137895   0.926   0.464  14.798 -0.4929  1.3093  0.1842
 8812SOL    HW237896   1.069   0.490  14.767  0.5220  0.3156 -1.2215
 8813SOL     OW37897   2.998   3.600   7.737 -0.2994 -0.4494  0.5314
 8813SOL    HW137898   2.956   3.667   7.683  2.1404  0.0904 -0.7056
 8813SOL    HW237899   3.090   3.615   7.712 -0.7657 -0.5588 -1.1996
 8814SOL     OW37900   1.396   2.441   1.886 -0.7452  0.1334  0.0968
 8814SOL    HW137901   1.348   2.482   1.814 -0.0252 -0.3906 -0.6790
 8814SOL    HW237902   1.405   2.354   1.847 -4.4163  0.2902 -1.0562
 8815SOL     OW37903   1.167   0.992   4.434 -0.1536  0.1400  0.7060
 8815SOL    HW137904   1.226   0.989   4.358 -0.3542 -0.9617  0.6089
 8815SOL    HW237905   1.140   1.082   4.415 -2.3403 -0.2794  1.9549
 8816SOL     OW37906   0.923   3.830  11.379 -0.6089 -0.1040 -0.3762
 8816SOL    HW137907   1.016   3.854  11.369 -0.3386 -1.0254 -0.1388
 8816SOL    HW237908   0.884   3.906  11.421 -0.1316 -0.8732  1.4805
 8817SOL     OW37909   3.174   0.142   3.107  0.1833 -0.2798 -0.3855
 8817SOL    HW137910   3.193   0.135   3.200 -2.4103  0.7095  0.2194
 8817SOL    HW237911   3.251   0.097   3.072  1.7520  0.1628  2.5300
 8818SOL     OW37912   2.305   0.201   3.215  0.1206 -0.1375 -0.5351
 8818SOL    HW137913   2.282   0.147   3.290  0.8025 -2.9935 -2.3992
 8818SOL    HW237914   2.218   0.233   3.190  0.1237  0.3723  0.0954
 8819SOL     OW37915   3.288   3.597   8.003 -0.3215  0.1779  0.4261
 8819SOL    HW137916   3.343   3.518   7.993 -1.5619 -0.5605 -0.5501
 8819SOL    HW237917   3.347   3.645   8.061  1.7356  0.5402 -1.9511
 8820SOL     OW37918   3.492   3.786   4.154 -0.3392  0.4506 -0.4707
 8820SOL    HW137919   3.462   3.745   4.073 -1.4610 -0.4690  0.4184
 8820SOL    HW237920   3.582   3.753   4.154 -0.9586 -1.2663 -2.5408
 8821SOL     OW37921   3.062   1.998   5.697  0.1019 -0.1479 -0.3055
 8821SOL    HW137922   3.096   1.933   5.635  1.4667 -1.0306  1.3636
 8821SOL    HW237923   2.968   1.983   5.689  0.0278  1.5173 -2.5575
 8822SOL     OW37924   3.086   1.067   4.005 -0.2070  0.3074  0.6911
 8822SOL    HW137925   3.146   1.022   3.945 -0.1629  2.9553 -1.2539
 8822SOL    HW237926   3.126   1.154   4.018 -0.4053  0.1264  2.5667
 8823SOL     OW37927   4.629   2.263   0.448  0.5880 -0.0233 -0.2955
 8823SOL    HW137928   4.723   2.281   0.443  0.5144  0.4979  0.2457
 8823SOL    HW237929   4.618   2.234   0.358 -1.7512 -3.0990  0.9980
 8824SOL     OW37930   1.160   3.024   2.449 -0.4088 -0.6404  0.3600
 8824SOL    HW137931   1.168   3.110   2.490  0.9672 -0.9642  0.7580
 8824SOL    HW237932   1.098   2.984   2.510 -0.5288 -1.1996 -0.1290
 8825SOL     OW37933   4.483   0.948  12.871  0.4102 -0.3494 -0.1570
 8825SOL    HW137934   4.543   0.988  12.807  2.2211 -0.6634  1.3659
 8825SOL    HW237935   4.437   1.023  12.908  1.3264  1.1649 -2.0656
 8826SOL     OW37936   1.002   3.028  12.972  0.0513 -0.2147  0.4108
 8826SOL    HW137937   0.910   3.019  12.995 -0.0427  0.2705  0.2140
 8826SOL    HW237938   1.025   2.968  12.901  0.0320  1.0587 -0.6625
 8827SOL     OW37939   4.055   2.010   8.533  0.0647 -0.0310 -0.1713
 8827SOL    HW137940   3.998   2.087   8.531  0.0635 -0.0724 -1.2634
 8827SOL    HW237941   4.091   2.012   8.622 -0.0626  0.9987 -0.1355
 8828SOL     OW37942   3.521   2.046  12.719 -0.1914  0.4416  0.1972
 8828SOL    HW137943   3.467   2.015  12.792 -1.2567 -0.1636 -0.8644
 8828SOL    HW237944   3.548   2.136  12.734  2.4207 -0.2666 -0.2882
 8829SOL     OW37945   1.661   4.103   9.616 -0.9454  0.2705  0.0827
 8829SOL    HW137946   1.709   4.152   9.682  0.5689 -0.5849 -0.3957
 8829SOL    HW237947   1.574   4.138   9.634 -1.8930 -2.0363  0.0350
 8830SOL     OW37948   0.253   1.949   6.342 -0.3588 -0.1940 -0.0870
 8830SOL    HW137949   0.195   1.918   6.412  0.7030  0.3155  1.0201
 8830SOL    HW237950   0.200   2.013   6.295  2.4984  1.2662 -1.3108
 8831SOL     OW37951   2.021   0.126   7.039 -0.5300 -0.1079  0.3794
 8831SOL    HW137952   2.086   0.059   7.022 -0.4226 -0.1189  0.8231
 8831SOL    HW237953   2.077   0.166   7.105 -0.1979 -0.2594  0.1878
 8832SOL     OW37954   0.131   3.609   0.559  1.1307 -0.5631 -0.5070
 8832SOL    HW137955   0.094   3.610   0.648  4.3283  0.3058  0.8343
 8832SOL    HW237956   0.151   3.702   0.552 -0.1570 -0.1159  1.6540
 8833SOL     OW37957   1.476   4.649   5.323 -0.3536 -0.0890 -0.0545
 8833SOL    HW137958   1.487   0.015   5.356 -0.4337 -1.0052  2.4117
 8833SOL    HW237959   1.381   4.646   5.333 -0.3220 -2.7983 -0.6759
 8834SOL     OW37960   3.784   2.884  13.143 -0.1109 -0.2470  0.2565
 8834SOL    HW137961   3.829   2.866  13.060  1.3855  1.5208  0.6803
 8834SOL    HW237962   3.749   2.796  13.158  0.7072 -0.2865  2.0123
 8835SOL     OW37963   4.610   3.788   4.276  0.4325  0.1064 -0.1507
 8835SOL    HW137964   4.594   3.785   4.370  0.1490  1.3012 -0.1587
 8835SOL    HW237965   4.679   3.724   4.258  0.0485 -0.4182  0.2614
 8836SOL     OW37966   0.223   4.427  13.914 -0.1943  0.6013 -0.1881
 8836SOL    HW137967   0.244   4.445  14.006  1.2685 -0.9495 -0.2059
 8836SOL    HW237968   0.314   4.435  13.885  0.2389  0.1303  1.0370
 8837SOL     OW37969   1.282   2.428   4.959 -0.5584  0.1159 -0.0339
 8837SOL    HW137970   1.233   2.411   4.878 -1.5784  0.3151  0.5432
 8837SOL    HW237971   1.220   2.487   5.002  1.2037  0.3918  2.0670
 8838SOL     OW37972   3.318   4.525  11.746 -0.4629 -0.1044  0.5743
 8838SOL    HW137973   3.363   4.450  11.785  2.3958  0.9331 -0.7559
 8838SOL    HW237974   3.249   4.553  11.805 -1.8826  0.4095 -1.3451
 8839SOL     OW37975   2.084   3.102   9.108 -0.8364 -0.1372  0.5022
 8839SOL    HW137976   2.063   3.036   9.174  1.2255  0.1134  1.4069
 8839SOL    HW237977   2.000   3.123   9.067 -1.1825 -2.2432  0.1321
 8840SOL     OW37978   0.066   4.155   2.287 -0.4433 -0.3813 -0.2647
 8840SOL    HW137979   0.089   4.073   2.331 -0.4134  0.5767  1.5226
 8840SOL    HW237980   0.042   4.128   2.199 -2.5072 -1.0776  0.5005
 8841SOL     OW37981   3.010   2.091  17.412  0.6156  0.7108  0.0930
 8841SOL    HW137982   3.002   2.090  17.316  1.2475  3.0245  0.0075
 8841SOL    HW237983   2.921   2.110  17.442  0.1799  1.4971 -1.7034
 8842SOL     OW37984   3.915   4.159   7.117 -0.5122  0.5919  0.4742
 8842SOL    HW137985   3.846   4.223   7.102 -0.3652  0.9665  1.3803
 8842SOL    HW237986   3.895   4.126   7.205  1.2389  0.0817  0.6693
 8843SOL     OW37987   3.069   1.256  10.540  0.3032  0.3106 -0.3025
 8843SOL    HW137988   3.028   1.257  10.626  0.3397  2.1020 -0.3130
 8843SOL    HW237989   3.144   1.201  10.563 -0.1613  0.1550  0.8411
 8844SOL     OW37990   2.684   2.124   2.118 -0.1312  0.4214  0.3593
 8844SOL    HW137991   2.688   2.030   2.101  0.8801  0.1494  2.0385
 8844SOL    HW237992   2.589   2.132   2.123 -0.1088  1.6382 -1.0340
 8845SOL     OW37993   3.465   0.316   9.067 -0.2821  0.0103 -0.4750
 8845SOL    HW137994   3.376   0.287   9.048 -0.2514  0.0638 -0.7006
 8845SOL    HW237995   3.471   0.381   8.996  1.4402  1.1659  0.7295
 8846SOL     OW37996   0.132   0.847  17.389 -0.0667 -0.2430 -0.1443
 8846SOL    HW137997   0.101   0.887  17.308  1.4071  3.6902  1.2129
 8846SOL    HW237998   0.188   0.912  17.431 -1.3177  0.1047  0.9716
 8847SOL     OW37999   3.170   1.913  17.504  0.1157  0.2552 -0.2510
 8847SOL    HW138000   3.236   1.979  17.482  0.3977 -0.4624 -1.5064
 8847SOL    HW238001   3.094   1.967  17.479 -0.3090 -1.2478 -2.1736
 8848SOL     OW38002   2.832   1.781   3.853  0.1898 -0.0417 -0.6446
 8848SOL    HW138003   2.772   1.792   3.778 -0.0785 -2.0368 -0.7105
 8848SOL    HW238004   2.915   1.822   3.829 -0.6681  1.2673 -1.3936
 8849SOL     OW38005   1.380   2.100   2.655  0.5769  0.2706 -0.1107
 8849SOL    HW138006   1.458   2.073   2.608 -0.8638  0.4559 -2.5943
 8849SOL    HW238007   1.347   2.012   2.669 -0.2661  0.4319 -1.0736
 8850SOL     OW38008   1.486   4.607   7.147 -0.5122  0.2917  0.5200
 8850SOL    HW138009   1.410   4.551   7.160  0.1412 -0.7730 -0.1881
 8850SOL    HW238010   1.448   4.693   7.165  0.3458  0.0886  3.2659
 8851SOL     OW38011   2.702   2.060   7.850 -0.0021 -0.0982  0.1847
 8851SOL    HW138012   2.667   1.973   7.871  1.9819 -1.2848 -1.4189
 8851SOL    HW238013   2.622   2.106   7.824 -0.0303 -0.3547 -0.1834
 8852SOL     OW38014   4.216   3.911   5.884  0.3094 -0.2236  0.4580
 8852SOL    HW138015   4.180   3.972   5.820  2.1627  0.0605 -0.2891
 8852SOL    HW238016   4.142   3.886   5.940  1.3271 -4.3223 -0.0336
 8853SOL     OW38017   1.798   0.111   6.618  0.2917  0.0595 -0.6427
 8853SOL    HW138018   1.868   0.099   6.555  0.2564 -2.6318 -0.1699
 8853SOL    HW238019   1.838   0.161   6.689 -1.9676  0.5920  0.2521
 8854SOL     OW38020   1.826   0.180   2.804  0.0116  0.8285  0.0614
 8854SOL    HW138021   1.878   0.222   2.735  2.3982 -2.2371 -0.0024
 8854SOL    HW238022   1.762   0.246   2.829 -0.3398  0.6363 -0.3235
 8855SOL     OW38023   0.772   3.532  15.958  0.1496 -0.2430 -0.1180
 8855SOL    HW138024   0.678   3.539  15.972  0.1453  1.6511 -1.1823
 8855SOL    HW238025   0.777   3.523  15.863  1.2080 -0.4184 -0.0526
 8856SOL     OW38026   1.314   1.531   4.129  0.1169  0.2165 -0.2966
 8856SOL    HW138027   1.262   1.611   4.130  2.6360  1.8464 -1.1022
 8856SOL    HW238028   1.320   1.519   4.034  0.6124 -1.7172 -0.0292
 8857SOL     OW38029   3.396   0.993  14.228 -0.4724 -0.3793 -0.2650
 8857SOL    HW138030   3.414   1.060  14.163  0.5441 -0.3667  0.0284
 8857SOL    HW238031   3.487   0.975  14.252 -1.0484  0.7003  2.7549
 8858SOL     OW38032   3.321   2.398  11.289 -0.2655  0.5824 -0.1553
 8858SOL    HW138033   3.412   2.389  11.316 -0.4696 -0.8667  0.0478
 8858SOL    HW238034   3.290   2.458  11.357 -0.5656 -0.1702  0.3670
 8859SOL     OW38035   0.032   3.348   3.422 -0.4668 -0.1594  0.3577
 8859SOL    HW138036   0.089   3.424   3.415 -0.4212 -0.3882 -1.7556
 8859SOL    HW238037   0.069   3.305   3.499  0.0764  0.3690  0.3885
 8860SOL     OW38038   1.710   4.577   0.704 -0.6790 -0.2213  0.3235
 8860SOL    HW138039   1.804   4.593   0.704 -0.1363 -3.3743 -1.1493
 8860SOL    HW238040   1.694   4.483   0.690  0.4617 -0.2187 -1.0518
 8861SOL     OW38041   2.747   3.097  16.326  1.1021 -0.1351 -0.4329
 8861SOL    HW138042   2.753   3.033  16.255  3.7240 -3.4590  2.8150
 8861SOL    HW238043   2.799   3.171  16.294  1.3117 -0.0163  0.1863
 8862SOL     OW38044   0.170   0.219   8.835  0.0703 -0.0372 -0.5108
 8862SOL    HW138045   0.161   0.293   8.894  0.3526  1.8422 -2.8282
 8862SOL    HW238046   0.218   0.159   8.892 -0.4880 -0.6687 -0.6930
 8863SOL     OW38047   0.911   2.420   5.655  0.2859  0.2794 -0.5178
 8863SOL    HW138048   0.922   2.329   5.683 -0.7832 -0.6785 -3.2514
 8863SOL    HW238049   0.841   2.412   5.591  0.2380 -2.0551 -0.2007
 8864SOL     OW38050   4.485   4.325   8.449 -0.0119 -0.3868 -0.5125
 8864SOL    HW138051   4.481   4.248   8.506  2.6490 -0.8276 -0.9358
 8864SOL    HW238052   4.516   4.384   8.518  1.5309  0.7370 -2.1976
 8865SOL     OW38053   0.296   1.130   6.151  0.0088 -0.1030  0.3453
 8865SOL    HW138054   0.298   1.159   6.242  1.2673  0.5243  0.1234
 8865SOL    HW238055   0.239   1.195   6.110 -0.4204 -0.9070 -0.3532
 8866SOL     OW38056   0.060   4.484   5.854 -0.5718  0.6017  0.2918
 8866SOL    HW138057   0.153   4.465   5.865 -0.4762  1.7032  1.4277
 8866SOL    HW238058   0.027   4.398   5.828 -1.4791  1.1902 -0.5296
 8867SOL     OW38059   3.743   0.865  14.585 -0.3101  0.1445 -0.5835
 8867SOL    HW138060   3.837   0.870  14.565 -0.0340  2.3812  1.2620
 8867SOL    HW238061   3.730   0.942  14.641  0.5679  1.2950 -1.9437
 8868SOL     OW38062   3.010   3.620   2.197 -0.3068 -0.2148 -0.5342
 8868SOL    HW138063   2.992   3.622   2.291  0.1539 -0.3684 -0.4451
 8868SOL    HW238064   3.069   3.545   2.189 -0.2812 -0.0947 -1.4734
 8869SOL     OW38065   3.187   1.228   0.353 -0.4754 -0.3659  0.2720
 8869SOL    HW138066   3.101   1.269   0.345 -0.2904 -0.0547 -0.1528
 8869SOL    HW238067   3.161   1.143   0.387  0.5021 -1.5477 -1.9391
 8870SOL     OW38068   2.478   2.001   0.681 -0.6371 -0.2099  0.5921
 8870SOL    HW138069   2.565   1.968   0.657 -0.0795  1.8821 -0.2058
 8870SOL    HW238070   2.462   1.953   0.762  0.5044 -0.6989  0.5385
 8871SOL     OW38071   3.668   2.306   6.856 -0.2922  0.3297  0.1628
 8871SOL    HW138072   3.630   2.242   6.797 -2.8364  1.7189  0.3122
 8871SOL    HW238073   3.722   2.358   6.797 -3.2217  2.9641 -0.1805
 8872SOL     OW38074   4.554   1.318   6.468 -0.0129  0.0437  0.1286
 8872SOL    HW138075   4.530   1.407   6.492  1.1848  0.9140 -1.8746
 8872SOL    HW238076   4.649   1.322   6.481  0.0441 -1.0594  0.0843
 8873SOL     OW38077   3.189   1.798   5.530  0.2547  0.3751 -0.8284
 8873SOL    HW138078   3.194   1.710   5.493 -1.1983 -0.1049  0.0921
 8873SOL    HW238079   3.281   1.813   5.553  0.5819 -0.7299 -1.4514
 8874SOL     OW38080   4.266   1.762   8.183 -0.5343 -0.0392  0.2495
 8874SOL    HW138081   4.355   1.731   8.168 -0.5485  0.0894 -0.0946
 8874SOL    HW238082   4.270   1.762   8.279  1.1495 -0.8037  0.1900
 8875SOL     OW38083   4.226   3.380   8.145 -0.7730  0.2997 -0.4718
 8875SOL    HW138084   4.208   3.406   8.055 -1.1493  2.6204  0.2826
 8875SOL    HW238085   4.193   3.290   8.150  1.8141 -0.6905 -1.4379
 8876SOL     OW38086   1.024   0.814  14.111  0.3160 -0.1923  0.1094
 8876SOL    HW138087   0.949   0.755  14.113 -0.1029  0.2895 -1.2891
 8876SOL    HW238088   1.030   0.835  14.204  0.8251  3.5445 -0.7593
 8877SOL     OW38089   4.090   2.337   4.619 -0.4715 -0.4509 -0.6592
 8877SOL    HW138090   4.151   2.386   4.674  0.0236  1.4257 -2.8848
 8877SOL    HW238091   4.003   2.365   4.644 -0.7050 -1.7981  0.0118
 8878SOL     OW38092   3.272   0.957   3.832  0.4507  0.0578  0.0180
 8878SOL    HW138093   3.277   0.928   3.741  1.6923 -1.2758  0.5134
 8878SOL    HW238094   3.344   1.020   3.837  1.0050 -0.8067  2.7138
 8879SOL     OW38095   2.602   2.187  12.139 -0.5434  0.4165 -0.2654
 8879SOL    HW138096   2.681   2.204  12.088  0.0488 -2.0868 -0.1591
 8879SOL    HW238097   2.566   2.111  12.094 -0.9309  1.9388 -2.5107
 8880SOL     OW38098   2.702   0.024  16.551 -0.1812  0.3370 -0.1568
 8880SOL    HW138099   2.783   0.063  16.582 -1.2495  0.6187  2.2648
 8880SOL    HW238100   2.714   4.659  16.586  1.6104  0.1980 -1.1635
 8881SOL     OW38101   1.027   3.007   3.567 -0.5402  0.6602  0.1391
 8881SOL    HW138102   1.062   3.084   3.613  1.5825 -2.2320  3.3160
 8881SOL    HW238103   0.963   2.964   3.624  0.2946 -1.6430 -0.6728
 8882SOL     OW38104   4.193   2.915   3.199 -0.3536 -0.1674 -0.6412
 8882SOL    HW138105   4.144   2.834   3.214  0.3030 -0.0799  1.8510
 8882SOL    HW238106   4.206   2.945   3.289 -1.6441 -4.3509  0.9441
 8883SOL     OW38107   3.458   0.995   8.707  0.2717  0.3232  0.1410
 8883SOL    HW138108   3.432   1.003   8.799  0.4742  2.3338  0.0216
 8883SOL    HW238109   3.404   1.060   8.662 -1.1963 -0.4226  0.7977
 8884SOL     OW38110   0.229   3.791   8.048  0.0891  0.0093 -0.0663
 8884SOL    HW138111   0.297   3.751   8.102  0.2169  1.0195  0.5168
 8884SOL    HW238112   0.265   3.761   7.964  0.4611 -0.0496  0.1117
 8885SOL     OW38113   1.197   2.393   6.483  0.0143 -0.0231  0.2465
 8885SOL    HW138114   1.161   2.317   6.529  1.3702 -0.4573  0.5832
 8885SOL    HW238115   1.291   2.378   6.476 -0.2122 -0.5607 -1.8459
 8886SOL     OW38116   2.028   0.033   2.062  0.0146 -0.0786  0.2035
 8886SOL    HW138117   1.967   0.040   2.136 -0.8935  1.7077 -0.7115
 8886SOL    HW238118   2.114   0.031   2.105 -0.1769 -0.1842  0.5866
 8887SOL     OW38119   3.164   1.304  14.265 -0.5502  0.4135 -0.5747
 8887SOL    HW138120   3.235   1.346  14.314  0.9217  0.2099 -2.4924
 8887SOL    HW238121   3.149   1.361  14.189  0.9768  1.0650 -0.3885
 8888SOL     OW38122   3.558   0.145   6.199 -0.8664  0.3441 -0.0593
 8888SOL    HW138123   3.604   0.187   6.127 -0.8844 -0.8252 -0.7624
 8888SOL    HW238124   3.633   0.101   6.240 -0.6618  0.3649 -0.4074
 8889SOL     OW38125   4.401   2.484   1.636 -0.4332 -0.0689  0.5897
 8889SOL    HW138126   4.395   2.395   1.601 -2.4640  1.6151 -3.3607
 8889SOL    HW238127   4.407   2.542   1.560 -2.3869  0.8643  1.1410
 8890SOL     OW38128   2.739   2.777   2.165 -0.1857 -0.2330  0.4707
 8890SOL    HW138129   2.733   2.717   2.090  0.7606 -1.2403  1.2092
 8890SOL    HW238130   2.650   2.810   2.177  0.0701  2.1412 -4.1456
 8891SOL     OW38131   1.412   2.156   6.627 -0.1998 -0.5535 -0.4085
 8891SOL    HW138132   1.437   2.228   6.684  1.0626 -1.9717  0.8267
 8891SOL    HW238133   1.424   2.074   6.674 -0.8162 -0.4173 -0.0113
 8892SOL     OW38134   3.905   0.368   6.324  0.8175 -0.1779  0.3183
 8892SOL    HW138135   3.974   0.366   6.390  0.6494  4.2156  0.6108
 8892SOL    HW238136   3.888   0.274   6.313 -2.0047  0.4169 -0.3857
 8893SOL     OW38137   4.401   1.251   4.827  0.1763 -0.4723  0.2575
 8893SOL    HW138138   4.377   1.339   4.800  0.8633 -0.3189  0.1543
 8893SOL    HW238139   4.482   1.241   4.777 -0.4613 -0.5358 -0.7646
 8894SOL     OW38140   2.746   4.611  10.038  0.3669 -0.0435 -0.2505
 8894SOL    HW138141   2.741   4.666  10.117  0.5661  2.9444 -2.3289
 8894SOL    HW238142   2.766   4.525  10.076  0.6146  0.3797  0.5783
 8895SOL     OW38143   1.764   2.503   3.888  0.4682 -0.0113 -0.6581
 8895SOL    HW138144   1.826   2.576   3.880 -0.5540  0.6392 -2.6182
 8895SOL    HW238145   1.827   2.432   3.898 -0.7915 -0.5616  3.5170
 8896SOL     OW38146   2.918   3.205   3.925  0.9239 -0.0717 -0.6957
 8896SOL    HW138147   2.973   3.226   4.000 -1.0776  0.6416  0.5940
 8896SOL    HW238148   2.832   3.211   3.968  0.9280  1.9828 -0.9544
 8897SOL     OW38149   3.496   0.702   2.800  0.0810 -0.0129 -0.3856
 8897SOL    HW138150   3.521   0.794   2.812  0.7984  0.0201 -2.1033
 8897SOL    HW238151   3.489   0.666   2.888 -0.3707  2.1182  0.4712
 8898SOL     OW38152   4.257   2.561   3.091  0.5132 -0.2139  0.6392
 8898SOL    HW138153   4.235   2.575   3.183  0.5592 -0.2840  0.6611
 8898SOL    HW238154   4.345   2.599   3.086  0.5662 -0.3583  0.4607
 8899SOL     OW38155   3.012   2.204   3.606  0.0078  0.3802 -0.1280
 8899SOL    HW138156   3.048   2.116   3.615 -2.0691 -0.6116 -1.6523
 8899SOL    HW238157   2.917   2.198   3.606 -0.0723  1.5796 -1.7920
 8900SOL     OW38158   0.275   0.339   6.704  0.0719 -0.2417  0.3437
 8900SOL    HW138159   0.262   0.428   6.736  1.9393  1.1333 -2.7429
 8900SOL    HW238160   0.370   0.334   6.704  0.1500  1.2311 -0.6745
 8901SOL     OW38161   1.556   0.696   6.104  0.3114  0.1477  0.5042
 8901SOL    HW138162   1.502   0.633   6.153 -0.4411  1.1939  1.0253
 8901SOL    HW238163   1.519   0.687   6.016 -1.4533  0.3413  1.2217
 8902SOL     OW38164   1.456   3.132   1.944 -0.2993 -0.5009 -0.0744
 8902SOL    HW138165   1.485   3.063   1.885 -1.6835 -2.4550  1.4944
 8902SOL    HW238166   1.395   3.073   1.990  0.1495  0.3078  1.5565
 8903SOL     OW38167   4.714   0.755   4.262  0.0424  0.0485  0.7699
 8903SOL    HW138168   4.637   0.752   4.205  0.5698  0.1144  0.0677
 8903SOL    HW238169   0.007   0.664   4.288  0.8878 -0.2031 -0.6735
 8904SOL     OW38170   1.740   2.553   5.706  0.9197 -0.3452 -0.3987
 8904SOL    HW138171   1.816   2.510   5.745 -0.1475 -1.9566 -0.0938
 8904SOL    HW238172   1.781   2.583   5.625  0.9292 -2.2181 -1.0961
 8905SOL     OW38173   3.391   4.360   0.864 -0.1155 -0.0281  0.7294
 8905SOL    HW138174   3.417   4.268   0.858 -0.4249 -0.0985  0.4472
 8905SOL    HW238175   3.430   4.399   0.785 -0.2957 -0.8300  0.2440
 8906SOL     OW38176   0.156   0.089   4.573  0.9799 -0.6017  0.1079
 8906SOL    HW138177   0.185   0.005   4.537 -0.4652 -1.3321  0.6404
 8906SOL    HW238178   0.237   0.132   4.598 -0.5651  1.2789  1.8885
 8907SOL     OW38179   1.627   2.949   0.209 -0.0630  0.5951 -0.6332
 8907SOL    HW138180   1.645   3.012   0.279  0.1942  0.8267 -0.9055
 8907SOL    HW238181   1.539   2.917   0.230  0.1385  0.2316 -0.3431
 8908SOL     OW38182   4.187   0.269   7.854 -0.1076 -0.3270  0.3154
 8908SOL    HW138183   4.190   0.267   7.949 -0.5261  0.7617  0.3533
 8908SOL    HW238184   4.111   0.212   7.843 -0.9348  0.7167  0.7069
 8909SOL     OW38185   3.741   3.936   4.806 -0.7732  0.3412  0.8985
 8909SOL    HW138186   3.821   3.986   4.817 -1.6684  2.1126 -0.7036
 8909SOL    HW238187   3.765   3.861   4.860 -3.5518 -0.5688  0.9120
 8910SOL     OW38188   2.037   0.984   1.196  0.3590 -0.2360 -0.0002
 8910SOL    HW138189   2.012   0.891   1.200  1.4539 -0.5321 -0.1297
 8910SOL    HW238190   2.010   1.000   1.105  1.9415  1.2719 -0.1862
 8911SOL     OW38191   0.590   0.820  11.229  0.1291 -0.0465 -0.4978
 8911SOL    HW138192   0.665   0.821  11.169 -1.1215  1.8802 -2.0043
 8911SOL    HW238193   0.629   0.846  11.313 -1.3624  1.7497 -0.3517
 8912SOL     OW38194   1.056   0.393   5.746  0.1816  0.6826 -0.6310
 8912SOL    HW138195   1.072   0.315   5.799 -0.2268  0.1693 -1.2576
 8912SOL    HW238196   0.971   0.421   5.781 -0.5836  1.4456 -3.0436
 8913SOL     OW38197   2.860   1.806   5.245  0.2915  0.4510 -0.5567
 8913SOL    HW138198   2.833   1.887   5.288  0.6740  0.3902 -0.2044
 8913SOL    HW238199   2.907   1.837   5.168 -0.1672 -1.4301 -1.5912
 8914SOL     OW38200   4.309   1.115   5.045 -0.0436  0.4424 -0.0137
 8914SOL    HW138201   4.231   1.164   5.068  0.0510  0.5676  0.0442
 8914SOL    HW238202   4.331   1.159   4.963 -0.9402  1.7706  0.4582
 8915SOL     OW38203   1.789   3.461   4.626  0.1750  0.1334  0.7165
 8915SOL    HW138204   1.716   3.480   4.686 -0.5620 -1.3366  0.2843
 8915SOL    HW238205   1.832   3.546   4.621  0.5012 -0.1140 -0.5296
 8916SOL     OW38206   4.107   2.777   3.588 -0.8643 -0.2621 -0.0358
 8916SOL    HW138207   4.143   2.856   3.549 -0.5908 -0.2476  0.2438
 8916SOL    HW238208   4.101   2.806   3.679  0.6473  1.1795 -0.4058
 8917SOL     OW38209   4.053   1.404   4.700  0.1229  0.1872 -0.1270
 8917SOL    HW138210   4.015   1.336   4.755  0.6748 -0.7739 -0.9157
 8917SOL    HW238211   3.970   1.446   4.678 -0.1614  0.2756  1.1408
 8918SOL     OW38212   0.742   3.764   2.230  0.5463  0.2643 -0.3585
 8918SOL    HW138213   0.803   3.832   2.260  0.5746  0.0946 -0.0272
 8918SOL    HW238214   0.797   3.690   2.256  1.0059  1.2300  1.4473
 8919SOL     OW38215   0.133   4.679   8.744  0.0797 -0.1839 -0.2139
 8919SOL    HW138216   0.097   0.045   8.743  1.3432  0.3424  1.0630
 8919SOL    HW238217   0.228   4.691   8.738 -0.0807  1.0214 -0.3952
 8920SOL     OW38218   3.735   4.660   6.951 -0.5385  0.8195  0.2836
 8920SOL    HW138219   3.748   4.572   6.916 -0.4550  1.1876 -0.6106
 8920SOL    HW238220   3.674   4.688   6.884 -1.0742 -3.5039 -1.0056
 8921SOL     OW38221   1.970   0.637   1.596  0.6753  0.2086 -0.2051
 8921SOL    HW138222   1.884   0.627   1.636  1.6221  1.6713  2.2123
 8921SOL    HW238223   2.003   0.547   1.594 -0.0840 -0.0600 -0.6176
 8922SOL     OW38224   1.975   2.076   2.776  0.2446 -0.2260 -0.4436
 8922SOL    HW138225   1.982   2.171   2.786 -1.2107 -0.0317 -1.2544
 8922SOL    HW238226   1.901   2.066   2.716 -0.5354 -1.0936  0.6858
 8923SOL     OW38227   3.473   0.579  14.602 -0.1602  0.7608  0.1350
 8923SOL    HW138228   3.536   0.522  14.559 -1.6609 -1.7209  1.2068
 8923SOL    HW238229   3.406   0.513  14.616  1.5856 -1.0885 -0.3182
 8924SOL     OW38230   4.548   4.590   0.325 -0.3592 -0.0768  0.2328
 8924SOL    HW138231   4.644   4.595   0.331 -0.2422  1.3540 -2.8024
 8924SOL    HW238232   4.546   4.587   0.421 -1.7952  1.0729  0.2325
 8925SOL     OW38233   2.260   4.624  10.331  0.4612  0.2314 -0.0595
 8925SOL    HW138234   2.184   4.665  10.290  0.3955 -0.2280 -0.3934
 8925SOL    HW238235   2.325   4.644  10.264  0.8068  3.8886  1.3741
 8926SOL     OW38236   4.588   2.736   0.888  0.2397  0.0135  0.1161
 8926SOL    HW138237   4.551   2.815   0.849  0.3059 -0.0178 -0.0129
 8926SOL    HW238238   4.683   2.750   0.895  0.3127  0.2973 -1.5398
 8927SOL     OW38239   2.930   0.037   6.675 -0.1399  0.8699  0.0565
 8927SOL    HW138240   2.988   0.098   6.629 -2.4109  2.0231 -1.2582
 8927SOL    HW238241   2.905   4.701   6.604 -0.6776  4.2840 -2.5862
 8928SOL     OW38242   4.157   1.014  12.097  0.0774 -0.2655 -0.0656
 8928SOL    HW138243   4.080   0.972  12.135  0.7438 -0.8271  0.6809
 8928SOL    HW238244   4.111   1.059  12.026 -1.4030 -2.0320 -0.2197
 8929SOL     OW38245   3.692   2.594   6.224  0.2909  0.4171  0.5816
 8929SOL    HW138246   3.701   2.642   6.142 -1.8758  1.8644  1.1892
 8929SOL    HW238247   3.598   2.583   6.234  0.0995 -0.6998 -2.5726
 8930SOL     OW38248   0.338   3.428   0.806  0.3749 -0.1134  0.3374
 8930SOL    HW138249   0.316   3.504   0.859  2.3645 -0.7203  2.0173
 8930SOL    HW238250   0.384   3.373   0.869  1.0812 -1.9882 -1.8118
 8931SOL     OW38251   3.494   0.785   4.358  0.3115  0.5520 -0.3554
 8931SOL    HW138252   3.417   0.728   4.361  0.8305 -0.1673 -0.7840
 8931SOL    HW238253   3.518   0.765   4.268  0.8617 -0.4142  0.0095
 8932SOL     OW38254   3.462   1.813   2.302  0.0360 -0.1932  0.8408
 8932SOL    HW138255   3.412   1.734   2.279 -0.3075  0.1305  0.4897
 8932SOL    HW238256   3.430   1.838   2.388 -2.9080 -1.6965  0.1902
 8933SOL     OW38257   3.764   3.432   3.997 -0.0275  0.0732 -0.3363
 8933SOL    HW138258   3.840   3.427   3.939  0.6313 -2.0204  0.7102
 8933SOL    HW238259   3.746   3.522   3.971  0.9675  0.4412  0.2164
 8934SOL     OW38260   0.309   3.030   2.865  0.4664  0.3293 -0.2073
 8934SOL    HW138261   0.327   3.123   2.857 -0.8995  0.5396 -0.6608
 8934SOL    HW238262   0.326   3.005   2.774 -0.2328  0.0662 -0.2666
 8935SOL     OW38263   3.731   2.233  12.783  0.0288  0.2883 -0.5972
 8935SOL    HW138264   3.722   2.322  12.749  0.8599  0.6796  0.2089
 8935SOL    HW238265   3.786   2.203  12.710  1.0772  0.3730  0.1467
 8936SOL     OW38266   4.194   0.408   7.265 -0.1322 -0.4355  0.2969
 8936SOL    HW138267   4.116   0.461   7.251 -0.5450 -1.4685 -1.2540
 8936SOL    HW238268   4.186   0.385   7.358 -0.7588  0.0253  0.3541
 8937SOL     OW38269   0.299   2.659   5.354 -0.2803  0.4073  0.2406
 8937SOL    HW138270   0.232   2.651   5.286  0.0652 -1.1142  0.0784
 8937SOL    HW238271   0.251   2.651   5.436  0.0503 -0.9802  0.3028
 8938SOL     OW38272   2.491   0.270   6.795 -0.2266  0.1572  0.0597
 8938SOL    HW138273   2.502   0.221   6.877  2.2631 -0.2021 -0.4975
 8938SOL    HW238274   2.559   0.235   6.738 -1.9589  0.8065 -2.3834
 8939SOL     OW38275   4.252   1.075   4.648 -0.2633 -0.5503  0.3104
 8939SOL    HW138276   4.323   1.078   4.711 -0.5961  0.5495  0.6306
 8939SOL    HW238277   4.264   1.166   4.618 -1.3014 -0.4200  0.2948
 8940SOL     OW38278   3.051   1.869  13.538 -0.2875 -0.2946 -0.0766
 8940SOL    HW138279   2.963   1.870  13.576  0.1344  1.9777  0.8344
 8940SOL    HW238280   3.063   1.784  13.494  1.3523 -0.5742  0.9426
 8941SOL     OW38281   1.400   2.620   1.061 -0.0498 -0.3966  0.4095
 8941SOL    HW138282   1.366   2.707   1.043 -0.2600 -0.5693 -0.0375
 8941SOL    HW238283   1.391   2.624   1.156 -0.1710 -1.5716  0.4537
 8942SOL     OW38284   0.857   2.856   4.278  0.0648 -0.0752  0.1017
 8942SOL    HW138285   0.796   2.921   4.244 -1.1395 -0.2504  1.8838
 8942SOL    HW238286   0.851   2.876   4.371  0.2325  1.0432 -0.1281
 8943SOL     OW38287   3.962   2.607   4.260  0.3722  0.3024  0.6356
 8943SOL    HW138288   3.964   2.694   4.300  2.1605 -0.5168  2.3632
 8943SOL    HW238289   3.894   2.564   4.312  0.2041  0.2800  0.3962
 8944SOL     OW38290   1.179   1.035   1.519  0.0052 -0.2480  0.3126
 8944SOL    HW138291   1.249   1.052   1.583  0.5527 -0.9807 -0.1069
 8944SOL    HW238292   1.108   1.011   1.579 -1.6929  1.5426 -0.9885
 8945SOL     OW38293   3.017   1.750  14.146 -0.5896 -0.6078 -0.2477
 8945SOL    HW138294   2.999   1.657  14.131  0.2594 -0.5619 -1.5371
 8945SOL    HW238295   3.003   1.753  14.241 -1.9360  1.9936 -0.5151
 8946SOL     OW38296   3.899   3.098   9.838  0.3080 -0.6242  0.5230
 8946SOL    HW138297   3.919   3.005   9.848 -0.3561 -0.9044 -0.7829
 8946SOL    HW238298   3.902   3.106   9.743 -0.8274 -0.4690  0.5032
 8947SOL     OW38299   1.259   3.659   3.035 -0.3349  0.2189  0.6103
 8947SOL    HW138300   1.246   3.686   2.944 -1.2987  2.4250  1.4012
 8947SOL    HW238301   1.172   3.630   3.062  0.4694 -3.5552 -0.8422
 8948SOL     OW38302   0.310   0.174   5.486 -0.0274  0.0436 -0.2463
 8948SOL    HW138303   0.281   0.107   5.423 -2.0577  2.1803 -1.5672
 8948SOL    HW238304   0.237   0.236   5.490 -0.8606 -0.8523 -1.5958
 8949SOL     OW38305   2.231   0.034   3.404 -0.3022  0.0017  0.2916
 8949SOL    HW138306   2.165   0.007   3.468  0.4887 -1.8958  0.3093
 8949SOL    HW238307   2.308   0.014   3.456  0.3348 -0.7847 -0.9452
 8950SOL     OW38308   3.166   3.333   3.688  0.0116 -0.6309  0.6381
 8950SOL    HW138309   3.085   3.375   3.716 -1.3661 -2.7868 -0.1163
 8950SOL    HW238310   3.150   3.241   3.665 -1.1180 -0.1431 -0.5244
 8951SOL     OW38311   3.376   3.604  14.822  0.1596  0.2667  0.1879
 8951SOL    HW138312   3.359   3.647  14.906 -0.4517 -0.2441  0.3263
 8951SOL    HW238313   3.336   3.669  14.765 -2.0980 -0.6677  0.6901
 8952SOL     OW38314   0.399   0.699  16.861  0.3438 -0.1780 -0.1627
 8952SOL    HW138315   0.388   0.769  16.925  0.1011 -2.1281  1.9443
 8952SOL    HW238316   0.468   0.733  16.804 -0.2373  0.6037 -0.3892
 8953SOL     OW38317   4.544   1.211  11.866 -0.4232 -0.0583 -0.3090
 8953SOL    HW138318   4.520   1.244  11.780 -2.6040 -2.6165 -0.6916
 8953SOL    HW238319   4.469   1.245  11.915 -0.0592 -1.5936  1.3407
 8954SOL     OW38320   3.694   0.878  15.053 -0.5041 -0.0157  0.2655
 8954SOL    HW138321   3.736   0.793  15.062 -2.6564 -0.8505  2.5503
 8954SOL    HW238322   3.744   0.917  15.124  0.5814 -0.2628 -0.3762
 8955SOL     OW38323   1.207   1.162  14.629  0.4000  0.8045 -0.0017
 8955SOL    HW138324   1.131   1.150  14.572  1.1897  0.8305 -1.0737
 8955SOL    HW238325   1.213   1.254  14.652 -0.4156  0.7194  0.5461
 8956SOL     OW38326   1.230   0.099  11.511  0.4196 -0.1050  0.4544
 8956SOL    HW138327   1.193   0.186  11.493 -1.4865 -0.9382  0.3485
 8956SOL    HW238328   1.321   0.113  11.483  0.0972  2.3617  0.6091
 8957SOL     OW38329   0.741   4.230  15.468  0.2582  0.2005  0.0870
 8957SOL    HW138330   0.723   4.175  15.544  1.5724 -0.1164  0.1586
 8957SOL    HW238331   0.763   4.311  15.515 -0.0724 -0.2048  0.9330
 8958SOL     OW38332   4.269   1.588  17.122  0.0333 -0.2893  0.0510
 8958SOL    HW138333   4.339   1.573  17.185  0.9330 -3.5179 -1.7342
 8958SOL    HW238334   4.319   1.595  17.041  2.2331 -3.0966  1.1544
 8959SOL     OW38335   4.525   3.902   8.245 -0.6128 -0.9979 -0.0409
 8959SOL    HW138336   4.501   3.854   8.166  0.3643 -0.0756 -0.8932
 8959SOL    HW238337   4.583   3.972   8.216 -2.0003 -1.0021 -2.8637
 8960SOL     OW38338   0.549   2.824   7.819  0.2964 -0.3298  0.3318
 8960SOL    HW138339   0.487   2.891   7.846 -1.7172 -1.6183 -1.0745
 8960SOL    HW238340   0.522   2.799   7.731  0.3096 -0.3850  0.3430
 8961SOL     OW38341   1.648   3.493   2.346 -0.0989  0.3999  0.0613
 8961SOL    HW138342   1.685   3.488   2.434 -0.4466  0.2587  0.1961
 8961SOL    HW238343   1.677   3.576   2.309  0.1081 -0.1764 -1.0795
 8962SOL     OW38344   0.899   1.688  17.258 -0.0705 -0.2120 -0.3992
 8962SOL    HW138345   0.958   1.757  17.290  1.7878 -2.4585  1.0066
 8962SOL    HW238346   0.826   1.703  17.319  0.4219  1.6222 -0.2387
 8963SOL     OW38347   0.415   4.426  17.507 -0.3138  0.4072  0.0764
 8963SOL    HW138348   0.504   4.429  17.542 -0.0222  2.6387 -0.8766
 8963SOL    HW238349   0.420   4.467  17.421  0.5872 -1.0288 -0.5560
 8964SOL     OW38350   4.207   4.533   6.170 -0.3481 -0.0187  0.3283
 8964SOL    HW138351   4.266   4.587   6.117  0.7442 -2.1961 -0.6430
 8964SOL    HW238352   4.122   4.546   6.127  0.1491  1.8000 -0.1095
 8965SOL     OW38353   0.987   1.884   5.274  0.2690  0.0295  0.1910
 8965SOL    HW138354   0.959   1.869   5.183 -0.1435 -3.3807  0.8982
 8965SOL    HW238355   0.915   1.937   5.309  0.4841 -0.8718  1.9432
 8966SOL     OW38356   3.097   2.113  10.100 -0.5065  0.3965 -0.1644
 8966SOL    HW138357   3.159   2.184  10.114  0.5871 -0.2852 -1.5396
 8966SOL    HW238358   3.022   2.143  10.152 -0.4326 -0.4155  0.4176
 8967SOL     OW38359   3.716   3.284   5.213  0.4896 -0.5005 -0.1179
 8967SOL    HW138360   3.742   3.231   5.289  0.7377  0.7721  0.6765
 8967SOL    HW238361   3.794   3.339   5.205 -1.0992  1.6430 -0.8076
 8968SOL     OW38362   2.800   0.187   7.999  0.0072  0.1720 -0.1926
 8968SOL    HW138363   2.735   0.222   7.938 -1.6447  0.6999  1.8486
 8968SOL    HW238364   2.804   0.263   8.058 -2.5989  0.1009  0.0926
 8969SOL     OW38365   2.332   1.788   3.983  0.1590 -0.1477 -0.0842
 8969SOL    HW138366   2.315   1.819   3.894  1.7218  1.6173  0.2192
 8969SOL    HW238367   2.307   1.862   4.039 -1.3886  0.5338 -1.6694
 8970SOL     OW38368   0.197   1.127  12.356 -0.3778 -0.5655  0.2938
 8970SOL    HW138369   0.238   1.075  12.425  0.3992 -0.5363 -0.1430
 8970SOL    HW238370   0.126   1.065  12.342  0.0527 -0.5915 -1.7064
 8971SOL     OW38371   0.888   2.042  17.650 -0.0321 -0.6514 -0.0409
 8971SOL    HW138372   0.933   1.984   0.016  2.2063 -0.8512 -1.8713
 8971SOL    HW238373   0.956   2.074  17.591 -1.6564  0.8324 -1.0863
 8972SOL     OW38374   3.720   4.638   6.007 -0.0923 -0.1627  0.4573
 8972SOL    HW138375   3.748   4.670   5.921 -1.5092 -0.6585 -0.1981
 8972SOL    HW238376   3.639   4.687   6.020 -0.2741  0.0717 -1.5762
 8973SOL     OW38377   2.777   2.683   1.552  0.6588  0.0126  0.4507
 8973SOL    HW138378   2.830   2.635   1.488  2.2872  1.7447  0.5009
 8973SOL    HW238379   2.698   2.631   1.536 -0.1798  1.5595 -0.5090
 8974SOL     OW38380   1.616   4.144  14.047 -0.2204  0.6124  0.5847
 8974SOL    HW138381   1.622   4.088  13.969 -1.3466  0.4046  0.6569
 8974SOL    HW238382   1.546   4.208  14.034 -0.9966 -0.2576  0.5315
 8975SOL     OW38383   3.539   2.252  14.735 -0.8717  0.0068 -0.2152
 8975SOL    HW138384   3.631   2.230  14.748 -1.1432 -0.8868  0.2104
 8975SOL    HW238385   3.509   2.301  14.812  3.8018  0.4616  1.2990
 8976SOL     OW38386   2.930   3.337   5.133  0.6958 -0.3208  0.2893
 8976SOL    HW138387   2.982   3.416   5.114 -1.4683  1.0270 -0.0536
 8976SOL    HW238388   2.838   3.360   5.122  1.3092  1.1215 -1.8981
 8977SOL     OW38389   2.338   0.894   5.015 -0.0495 -0.5102  0.1001
 8977SOL    HW138390   2.256   0.845   5.017  0.3971 -1.1933  1.9870
 8977SOL    HW238391   2.313   0.981   5.044  0.8880 -1.0018  2.4153
 8978SOL     OW38392   2.879   4.188   6.136  0.2839 -0.3555 -0.2710
 8978SOL    HW138393   2.902   4.188   6.229  1.7179  1.3296 -0.6244
 8978SOL    HW238394   2.796   4.236   6.136 -0.4459 -1.6123  0.6546
 8979SOL     OW38395   1.057   1.015   3.757  0.2321  0.5161 -0.1658
 8979SOL    HW138396   1.079   1.103   3.728 -0.3452  0.4826 -0.7013
 8979SOL    HW238397   1.034   1.038   3.847  1.2594  2.9480 -0.5273
 8980SOL     OW38398   2.086   3.929   2.581  0.4018  0.1935 -0.1668
 8980SOL    HW138399   2.139   3.941   2.502 -0.3671  1.6502 -0.4563
 8980SOL    HW238400   1.999   3.951   2.548 -0.6137 -1.7215  1.1940
 8981SOL     OW38401   2.382   4.721  14.438  0.4653  0.4221 -0.3140
 8981SOL    HW138402   2.322   0.061  14.399  0.1188  0.4608  0.2894
 8981SOL    HW238403   2.351   4.636  14.407 -0.3073  0.5258  0.1896
 8982SOL     OW38404   0.840   2.541   5.076 -0.3142 -0.0216  0.0800
 8982SOL    HW138405   0.904   2.510   5.140  0.3908  2.2467  0.4416
 8982SOL    HW238406   0.897   2.550   5.000 -0.6778  0.3194 -0.1544
 8983SOL     OW38407   3.829   3.272   8.650  0.6729  0.2381  0.6064
 8983SOL    HW138408   3.858   3.183   8.632  0.5614  0.6802 -1.7392
 8983SOL    HW238409   3.920   3.300   8.657  0.7018  0.1094  0.7359
 8984SOL     OW38410   1.388   1.251   5.864 -0.0437 -0.0211  0.0792
 8984SOL    HW138411   1.331   1.295   5.927 -1.8516  0.5236 -1.9295
 8984SOL    HW238412   1.411   1.332   5.819 -0.4072 -0.5663 -1.0812
 8985SOL     OW38413   4.577   3.044   3.744 -0.6932  0.0151  0.5665
 8985SOL    HW138414   4.507   2.983   3.724  0.0246 -0.7181  0.2788
 8985SOL    HW238415   4.649   2.983   3.733 -0.2221  0.8375 -0.9330
 8986SOL     OW38416   0.226   0.698   0.932  0.0352 -0.3402  0.2470
 8986SOL    HW138417   0.198   0.763   0.868  1.6757 -0.0095 -0.1403
 8986SOL    HW238418   0.321   0.708   0.934 -0.0835  0.5999  1.2823
 8987SOL     OW38419   2.920   1.158  10.327  0.1983  0.2955 -0.4421
 8987SOL    HW138420   2.975   1.198  10.394 -0.5404 -1.2908  1.1118
 8987SOL    HW238421   2.891   1.078  10.370 -0.0340 -0.1878 -1.4853
 8988SOL     OW38422   4.360   4.420   6.352 -0.3045 -0.2519  0.3667
 8988SOL    HW138423   4.311   4.454   6.276 -2.6340 -1.3273  1.3941
 8988SOL    HW238424   4.433   4.482   6.358 -0.7944  0.4317 -0.5537
 8989SOL     OW38425   0.546   2.434   4.994  0.1306 -0.1499 -0.3014
 8989SOL    HW138426   0.566   2.344   5.020 -2.7191 -0.4580  0.8041
 8989SOL    HW238427   0.613   2.488   5.037 -1.1265  1.4358 -0.3318
 8990SOL     OW38428   1.071   2.494   6.267 -0.1530 -0.2842 -0.5668
 8990SOL    HW138429   1.144   2.463   6.321 -0.6589  2.0326  1.4566
 8990SOL    HW238430   1.048   2.572   6.317  0.2676 -0.1211 -0.6325
 8991SOL     OW38431   0.625   0.866   7.704  0.1891 -0.4897 -0.2352
 8991SOL    HW138432   0.610   0.771   7.707  1.6920 -0.7203  0.0480
 8991SOL    HW238433   0.540   0.894   7.671  1.3456  0.4582 -2.3961
 8992SOL     OW38434   3.483   1.570   3.840 -0.1691 -0.1896 -0.0540
 8992SOL    HW138435   3.572   1.599   3.861  0.2967 -1.0993 -0.7516
 8992SOL    HW238436   3.463   1.630   3.768  0.9826  0.3878  0.1030
 8993SOL     OW38437   4.269   4.424   9.155  0.0535  0.0715 -0.3146
 8993SOL    HW138438   4.276   4.512   9.191  0.1619 -0.8784  1.9820
 8993SOL    HW238439   4.355   4.405   9.119 -0.2610 -1.1868 -0.4182
 8994SOL     OW38440   1.106   3.780   0.857 -0.5266  0.3342 -0.0738
 8994SOL    HW138441   1.059   3.840   0.915 -0.0987 -1.4790  2.1480
 8994SOL    HW238442   1.050   3.799   0.782  0.6692  0.7646 -0.8533
 8995SOL     OW38443   4.627   0.612   3.491  0.2660 -0.5592  0.5034
 8995SOL    HW138444   4.673   0.648   3.567 -1.2056  0.9549  0.6999
 8995SOL    HW238445   4.601   0.685   3.435  0.0405  0.3881  1.8147
 8996SOL     OW38446   0.700   1.029  13.443  0.1300  0.1308 -0.2116
 8996SOL    HW138447   0.775   1.041  13.384 -1.7576  0.3056 -2.5639
 8996SOL    HW238448   0.753   1.061  13.516  0.0986 -1.1188  0.3592
 8997SOL     OW38449   3.321   2.207   2.129  0.2046  0.0117 -0.3646
 8997SOL    HW138450   3.349   2.117   2.109  1.3718  0.6744 -1.6940
 8997SOL    HW238451   3.324   2.232   2.036  2.5352  1.0007 -0.0203
 8998SOL     OW38452   3.732   3.077  11.096  0.0145  0.1668 -0.0557
 8998SOL    HW138453   3.644   3.045  11.077 -1.1824  2.4854  1.6094
 8998SOL    HW238454   3.788   3.003  11.072  1.9888  1.3389  0.9853
 8999SOL     OW38455   0.757   2.301  12.784  0.1662  0.4068  0.1275
 8999SOL    HW138456   0.819   2.273  12.852 -0.1804  1.3119  0.8093
 8999SOL    HW238457   0.801   2.386  12.779 -0.2586  0.6733  1.1020
 9000SOL     OW38458   4.534   2.254  13.580  0.6674 -0.4194 -0.2782
 9000SOL    HW138459   4.581   2.247  13.497  1.4219  2.4125 -0.1012
 9000SOL    HW238460   4.509   2.347  13.571 -0.6609 -0.6257  1.4027
 9001SOL     OW38461   3.004   3.057  16.489 -0.5184  0.0656  0.2485
 9001SOL    HW138462   3.033   3.000  16.418 -0.9258  0.1954 -0.0175
 9001SOL    HW238463   3.082   3.053  16.544  0.0054 -0.4378 -0.5222
 9002SOL     OW38464   4.597   4.632   8.191  0.2247 -0.3597 -0.0748
 9002SOL    HW138465   4.644   4.689   8.130 -0.5835 -0.6739 -0.9797
 9002SOL    HW238466   4.624   4.671   8.274 -0.6140  3.4953 -1.6218
 9003SOL     OW38467   3.769   4.579   4.406  0.2956  0.3018 -0.3349
 9003SOL    HW138468   3.798   4.610   4.320  1.2355  1.8558  0.5494
 9003SOL    HW238469   3.823   4.502   4.427  0.5398  0.7200  0.5567
 9004SOL     OW38470   4.180   1.357   7.080  0.2419 -0.1511  0.5804
 9004SOL    HW138471   4.209   1.394   6.997 -0.0034  2.5741  1.7079
 9004SOL    HW238472   4.088   1.333   7.067  0.2952 -0.0400  0.0023
 9005SOL     OW38473   4.018   3.622   6.052 -0.0297 -0.1290  0.3999
 9005SOL    HW138474   4.012   3.717   6.046 -1.2373 -0.2395 -0.0803
 9005SOL    HW238475   3.984   3.597   5.966  0.0405  1.0839  0.0329
 9006SOL     OW38476   2.345   3.876   5.074  0.5400 -0.4645 -0.0167
 9006SOL    HW138477   2.389   3.797   5.105  2.1192  0.8016  0.9679
 9006SOL    HW238478   2.335   3.923   5.157  1.9558  0.4000 -0.3373
 9007SOL     OW38479   3.641   4.267  10.061 -0.1194  0.3249  0.2862
 9007SOL    HW138480   3.611   4.354  10.034 -0.8010 -0.2288 -0.7475
 9007SOL    HW238481   3.559   4.217  10.057  0.8937 -1.2283 -1.2661
 9008SOL     OW38482   1.822   3.057   9.938 -0.2056 -0.4033  0.3411
 9008SOL    HW138483   1.915   3.048   9.959 -0.0694 -0.4546 -0.2838
 9008SOL    HW238484   1.793   2.980   9.987  0.8087 -0.2702  1.1413
 9009SOL     OW38485   3.123   3.969   4.284  0.1418 -1.0860 -0.5235
 9009SOL    HW138486   3.114   3.939   4.193 -2.5588  0.4692 -0.7804
 9009SOL    HW238487   3.211   4.004   4.277  0.3002 -1.1272  1.3575
 9010SOL     OW38488   0.131   1.663  13.116 -0.2675  0.5990 -0.4200
 9010SOL    HW138489   0.076   1.730  13.075 -1.2781  0.8780  1.3633
 9010SOL    HW238490   0.089   1.644  13.200 -0.1121 -1.4757 -0.8128
 9011SOL     OW38491   4.573   1.193   4.599  0.1838  0.0608 -0.0070
 9011SOL    HW138492   4.607   1.256   4.535 -1.3896  2.9699  2.0174
 9011SOL    HW238493   4.649   1.156   4.642  0.4160  1.2736  0.6347
 9012SOL     OW38494   3.020   0.735  12.133 -0.8594 -0.0746  0.2214
 9012SOL    HW138495   3.112   0.710  12.143 -1.1628 -0.4907  1.9172
 9012SOL    HW238496   2.993   0.677  12.062  0.6999 -0.1122 -0.3405
 9013SOL     OW38497   0.103   1.008   0.105 -0.7952 -0.0979  0.1978
 9013SOL    HW138498   0.070   1.043   0.022  0.5886 -0.8815 -0.6739
 9013SOL    HW238499   0.093   0.915   0.087 -1.8698  0.3955 -1.7645
 9014SOL     OW38500   0.512   1.816   0.447  0.9150  0.0788  0.5155
 9014SOL    HW138501   0.564   1.758   0.392 -1.5691  0.6327 -2.4393
 9014SOL    HW238502   0.498   1.757   0.521 -1.4852 -0.5851 -0.4761
 9015SOL     OW38503   0.806   1.697   4.249  0.1424 -0.5812  0.4576
 9015SOL    HW138504   0.869   1.765   4.269  1.8434 -2.3646  1.1228
 9015SOL    HW238505   0.755   1.731   4.175  1.8281  1.4586  0.2319
 9016SOL     OW38506   2.394   1.898   5.498 -0.1376  0.0641  0.0303
 9016SOL    HW138507   2.374   1.952   5.574  2.4078  0.3822  0.4558
 9016SOL    HW238508   2.456   1.949   5.448 -0.1115  1.2374  1.2725
 9017SOL     OW38509   2.184   4.336  10.464 -0.1272 -0.3801  0.3070
 9017SOL    HW138510   2.228   4.310  10.383  0.3016  2.7322 -0.4843
 9017SOL    HW238511   2.161   4.252  10.503  1.5747 -1.1432 -0.3334
 9018SOL     OW38512   0.102   0.761   7.666 -0.0117  0.3993  0.1931
 9018SOL    HW138513   0.180   0.711   7.690 -0.5141 -0.9423 -0.9921
 9018SOL    HW238514   0.044   0.686   7.651  0.8751 -0.4312  0.9163
 9019SOL     OW38515   3.801   3.672   1.123  0.3499  0.0105 -0.2650
 9019SOL    HW138516   3.864   3.741   1.147 -0.4437  0.9795 -0.9616
 9019SOL    HW238517   3.803   3.622   1.205 -3.2287 -1.4168 -1.0889
 9020SOL     OW38518   0.632   4.199   4.272  0.0238  0.0423  0.5499
 9020SOL    HW138519   0.623   4.105   4.259  0.1250  0.0925  0.1306
 9020SOL    HW238520   0.549   4.226   4.312  0.7037  1.5199  0.9683
 9021SOL     OW38521   3.447   4.064  16.285  0.0811  0.0262 -0.5076
 9021SOL    HW138522   3.529   4.113  16.281  0.1472 -0.1346 -1.2378
 9021SOL    HW238523   3.381   4.129  16.307 -0.9097 -0.9673 -0.5421
 9022SOL     OW38524   4.209   2.188   6.719 -0.4577  0.6352  0.5387
 9022SOL    HW138525   4.195   2.269   6.767 -1.9691  1.3077 -1.0296
 9022SOL    HW238526   4.134   2.136   6.749 -0.0130 -0.6038 -0.4847
 9023SOL     OW38527   0.602   0.942   6.312  0.3763  0.4273  0.5447
 9023SOL    HW138528   0.569   1.008   6.253  1.6705  0.5331 -0.0617
 9023SOL    HW238529   0.571   0.977   6.396  1.5153  0.1578  1.0870
 9024SOL     OW38530   0.831   1.647   1.415 -0.0211  0.3489  0.3997
 9024SOL    HW138531   0.798   1.559   1.432  1.4231 -0.2382  0.1970
 9024SOL    HW238532   0.780   1.676   1.339 -0.3334 -1.5601 -0.1284
 9025SOL     OW38533   0.596   2.945   2.734 -0.1454 -0.2021  0.0389
 9025SOL    HW138534   0.521   2.969   2.680  0.5652  0.6629 -0.5488
 9025SOL    HW238535   0.610   3.032   2.772  0.7731  0.5337 -2.0252
 9026SOL     OW38536   2.954   1.583  15.100 -0.0497  0.1227 -0.5510
 9026SOL    HW138537   2.907   1.658  15.137 -0.3836 -0.5677  0.4075
 9026SOL    HW238538   2.879   1.526  15.085 -1.1116  1.6344 -0.9845
 9027SOL     OW38539   2.675   3.707   7.155  0.0784 -0.1035  0.2196
 9027SOL    HW138540   2.596   3.658   7.133  0.3738 -0.3413 -0.2983
 9027SOL    HW238541   2.690   3.748   7.070 -0.5848  2.0816  1.1579
 9028SOL     OW38542   4.270   0.610   0.415  0.1638  0.1178 -0.4913
 9028SOL    HW138543   4.174   0.611   0.406  0.0311  2.5742  1.0840
 9028SOL    HW238544   4.291   0.686   0.361  0.3435 -0.4304 -1.1767
 9029SOL     OW38545   4.127   3.372   8.570  0.2989  0.3150 -0.0744
 9029SOL    HW138546   4.152   3.457   8.536  0.6541  0.9404  1.7675
 9029SOL    HW238547   4.188   3.366   8.643  0.0899  0.6788  0.1252
 9030SOL     OW38548   4.505   3.112   1.923 -0.3507 -0.0244 -0.3556
 9030SOL    HW138549   4.483   3.032   1.876 -2.1123 -1.1024  2.3333
 9030SOL    HW238550   4.579   3.140   1.869  0.4254  4.1007  2.8750
 9031SOL     OW38551   2.334   3.736   2.730  0.0612  0.3079 -0.0499
 9031SOL    HW138552   2.287   3.816   2.754 -1.7755 -0.9909  0.7056
 9031SOL    HW238553   2.397   3.770   2.667 -2.3558  1.6676 -1.7425
 9032SOL     OW38554   3.651   0.422  14.450  0.3399 -0.1626  0.4484
 9032SOL    HW138555   3.738   0.454  14.475  0.8468 -0.9175 -0.3196
 9032SOL    HW238556   3.669   0.337  14.410 -2.7371 -0.7390  0.3059
 9033SOL     OW38557   1.699   2.239   1.935 -0.6933 -0.0544  0.1483
 9033SOL    HW138558   1.697   2.184   2.013  0.7735  0.9107  0.8631
 9033SOL    HW238559   1.613   2.226   1.895 -0.1957 -0.2573 -0.8664
 9034SOL     OW38560   3.019   0.233   6.043 -0.2932  0.1752 -0.0802
 9034SOL    HW138561   2.990   0.182   5.967  1.5107  0.2759 -0.8484
 9034SOL    HW238562   3.102   0.268   6.011 -0.3557  0.2813 -0.1246
 9035SOL     OW38563   1.353   4.631   6.221  0.2342 -0.2166 -0.1459
 9035SOL    HW138564   1.270   4.623   6.269  0.7599 -0.1896  0.7666
 9035SOL    HW238565   1.342   4.713   6.173 -0.7422 -0.1958  0.1033
 9036SOL     OW38566   4.263   2.451   1.998  0.3355  0.0821  0.4869
 9036SOL    HW138567   4.168   2.446   2.011  0.1595  1.7968 -0.1468
 9036SOL    HW238568   4.293   2.370   2.039  1.1430  0.9128  1.5272
 9037SOL     OW38569   0.527   0.370   5.092  0.1595 -0.6132  0.2313
 9037SOL    HW138570   0.575   0.326   5.022  0.3686  0.2581 -0.1788
 9037SOL    HW238571   0.587   0.398   5.161  1.9826 -1.6878 -0.9435
 9038SOL     OW38572   1.021   1.838   1.156  0.1376  0.0476  0.5975
 9038SOL    HW138573   1.069   1.799   1.084 -0.7066  1.6679 -0.8442
 9038SOL    HW238574   0.934   1.797   1.154  0.4225 -0.5857  1.1853
 9039SOL     OW38575   0.692   1.894   6.478 -0.0819 -0.0139 -0.3044
 9039SOL    HW138576   0.662   1.910   6.568 -0.3987  0.2875 -0.4645
 9039SOL    HW238577   0.738   1.810   6.480 -2.9041 -1.5635 -1.4343
 9040SOL     OW38578   2.261   4.392   7.487  0.3910  0.1227  0.3077
 9040SOL    HW138579   2.226   4.429   7.568  0.4029  3.4177 -1.2020
 9040SOL    HW238580   2.353   4.382   7.510  0.7573 -2.0759 -2.2049
 9041SOL     OW38581   2.283   4.252   4.580 -0.2180  0.0816  0.1710
 9041SOL    HW138582   2.361   4.198   4.594 -2.8231 -3.5272  0.8445
 9041SOL    HW238583   2.217   4.184   4.563  0.7886 -1.1855  1.2732
 9042SOL     OW38584   0.270   2.258   5.041 -0.0437  0.4368  0.2917
 9042SOL    HW138585   0.341   2.269   4.977  1.0514 -1.8185  1.1187
 9042SOL    HW238586   0.202   2.206   5.000 -0.1550  1.7429 -1.1653
 9043SOL     OW38587   0.159   1.436   6.804  0.3866  0.2213  0.2808
 9043SOL    HW138588   0.219   1.500   6.766 -0.1831 -0.3462 -1.5803
 9043SOL    HW238589   0.138   1.481   6.886 -2.3302 -0.7988  0.1423
 9044SOL     OW38590   3.541   2.496  15.259  0.0448  0.0180  0.3153
 9044SOL    HW138591   3.487   2.572  15.240 -0.7284 -0.6116 -0.0416
 9044SOL    HW238592   3.615   2.506  15.198 -0.4356  1.7710  0.0365
 9045SOL     OW38593   1.420   2.967  14.090  0.4285 -0.0766  0.4634
 9045SOL    HW138594   1.461   2.892  14.133  1.3409 -0.7637 -1.6079
 9045SOL    HW238595   1.326   2.965  14.108  0.4192  0.1129  0.4331
 9046SOL     OW38596   2.349   0.146   6.477  0.1088 -0.2672  0.1380
 9046SOL    HW138597   2.360   0.232   6.517 -0.9205  1.1444 -2.6537
 9046SOL    HW238598   2.324   0.089   6.551  0.4880  0.5414  0.8884
 9047SOL     OW38599   1.373   2.613   7.085  0.1369  0.2565  0.6411
 9047SOL    HW138600   1.375   2.595   7.179 -1.0782  1.0439  0.8171
 9047SOL    HW238601   1.465   2.601   7.060 -0.3639  0.1310 -1.1705
 9048SOL     OW38602   2.926   4.616   2.730  0.2908  0.2918 -0.2875
 9048SOL    HW138603   2.970   4.702   2.730  1.8413 -0.4936  1.6271
 9048SOL    HW238604   2.861   4.623   2.660  0.7945 -0.5911 -0.8367
 9049SOL     OW38605   3.966   0.571   3.899  0.4852  0.3610 -0.0224
 9049SOL    HW138606   3.942   0.492   3.948  0.1628  0.7297  0.4200
 9049SOL    HW238607   4.040   0.591   3.957  0.7978 -0.1189 -0.2582
 9050SOL     OW38608   3.792   2.758   2.862 -0.2552  0.2024 -0.1542
 9050SOL    HW138609   3.708   2.802   2.873 -0.2766 -0.7276  3.4083
 9050SOL    HW238610   3.839   2.821   2.807 -0.8059  0.9538  0.2341
 9051SOL     OW38611   1.052   2.167   4.134 -0.4904 -0.3349  0.3163
 9051SOL    HW138612   1.093   2.085   4.105 -0.8780 -0.6845  0.7591
 9051SOL    HW238613   1.125   2.194   4.191 -0.2940 -1.9550  0.8198
 9052SOL     OW38614   4.186   1.033   6.605  0.0287 -0.1111 -0.3796
 9052SOL    HW138615   4.166   0.949   6.645  0.5153 -0.8098 -1.6288
 9052SOL    HW238616   4.109   1.078   6.640  1.2633  2.4548 -0.9520
 9053SOL     OW38617   2.956   0.830   3.159 -0.6228  0.3554 -0.2019
 9053SOL    HW138618   2.886   0.764   3.156 -0.3876  0.0760  0.6764
 9053SOL    HW238619   2.953   0.871   3.072 -1.4511 -0.5945 -0.6320
 9054SOL     OW38620   0.584   3.584  15.353 -0.0121  0.4178 -0.2596
 9054SOL    HW138621   0.537   3.596  15.271 -0.5631  0.3081  0.0455
 9054SOL    HW238622   0.568   3.491  15.370  0.4163  0.2686 -0.6553
 9055SOL     OW38623   4.360   1.437   3.125 -0.2407 -0.1331 -0.5620
 9055SOL    HW138624   4.296   1.373   3.095  1.1201 -0.8770 -1.9085
 9055SOL    HW238625   4.428   1.419   3.060  0.8162 -1.1334  0.8104
 9056SOL     OW38626   1.232   0.313   8.484  0.2932  0.0056 -0.1413
 9056SOL    HW138627   1.234   0.397   8.530  0.2090  1.6824 -3.2069
 9056SOL    HW238628   1.167   0.269   8.539 -0.8436 -0.5960 -1.9649
 9057SOL     OW38629   3.544   2.294  15.676 -0.0297  0.1430  0.1021
 9057SOL    HW138630   3.548   2.360  15.744 -0.9355  0.2160  0.0798
 9057SOL    HW238631   3.560   2.212  15.722 -1.2927 -1.5985 -2.5199
 9058SOL     OW38632   0.151   0.387   5.782  0.5008  0.1755  0.2594
 9058SOL    HW138633   0.152   0.358   5.690 -0.2067  1.4770 -0.1548
 9058SOL    HW238634   0.168   0.304   5.828  0.7085  1.3181  2.2138
 9059SOL     OW38635   1.062   1.092   7.836 -0.2432 -0.5761 -0.3204
 9059SOL    HW138636   0.988   1.031   7.839 -0.0673 -0.6509  2.4258
 9059SOL    HW238637   1.120   1.078   7.911 -3.3553  0.0408  2.2057
 9060SOL     OW38638   0.187   3.079  15.499 -0.5606  0.0580 -0.3027
 9060SOL    HW138639   0.244   3.020  15.450 -0.6074  2.4393 -3.2168
 9060SOL    HW238640   0.112   3.088  15.442  0.5932 -0.4676 -1.8932
 9061SOL     OW38641   1.200   1.531  11.001 -0.3214 -0.1273  0.6844
 9061SOL    HW138642   1.255   1.476  10.946 -0.9784 -0.1773  0.0763
 9061SOL    HW238643   1.108   1.528  10.972 -0.4868  1.8882  0.9735
 9062SOL     OW38644   1.418   0.540   5.673 -0.1223 -0.5741  0.1100
 9062SOL    HW138645   1.408   0.541   5.578 -0.0656 -2.4981  0.0832
 9062SOL    HW238646   1.390   0.628   5.697 -1.5197 -0.3963 -2.1385
 9063SOL     OW38647   1.840   2.635   7.877  0.1948  0.3656 -0.3585
 9063SOL    HW138648   1.799   2.557   7.839  1.1634 -0.1923 -0.2820
 9063SOL    HW238649   1.929   2.627   7.841  0.4211  0.5395  0.1638
 9064SOL     OW38650   2.729   4.337   4.842 -0.3809 -0.1514  1.0158
 9064SOL    HW138651   2.786   4.412   4.829 -1.0155  0.3737  1.2955
 9064SOL    HW238652   2.721   4.326   4.937 -0.0539  2.6462  1.3584
 9065SOL     OW38653   2.415   1.633  15.898 -0.3946 -0.2287  0.2637
 9065SOL    HW138654   2.460   1.571  15.840  0.2136 -0.3543  0.8766
 9065SOL    HW238655   2.336   1.589  15.927 -0.5589  0.1993  0.4645
 9066SOL     OW38656   0.208   0.790   5.963  0.3472  0.3755 -0.0896
 9066SOL    HW138657   0.154   0.868   5.949 -1.4262 -0.3685  2.5743
 9066SOL    HW238658   0.221   0.801   6.057 -1.2572  0.4385  0.1242
 9067SOL     OW38659   4.540   4.351   6.040 -0.0869  0.0600  0.3279
 9067SOL    HW138660   4.619   4.370   6.091  0.0006  0.1463  0.1583
 9067SOL    HW238661   4.477   4.329   6.109  1.0803  1.4242  1.8259
 9068SOL     OW38662   2.601   2.570   2.968  0.7747 -0.2215 -0.3075
 9068SOL    HW138663   2.597   2.663   2.947 -1.0500  0.0741  1.4502
 9068SOL    HW238664   2.526   2.564   3.026  1.3271 -1.2366  0.2936
 9069SOL     OW38665   0.002   1.187  14.479  0.5564  0.1641  0.2359
 9069SOL    HW138666   0.060   1.263  14.474  0.6963  0.1593  1.8324
 9069SOL    HW238667   0.065   1.116  14.463  0.3874 -0.0622  0.5797
 9070SOL     OW38668   2.480   0.405   4.522 -0.4428 -0.2783 -0.1391
 9070SOL    HW138669   2.554   0.444   4.569 -0.6119 -1.4725  1.1048
 9070SOL    HW238670   2.520   0.324   4.489 -0.0398  0.6924 -2.0370
 9071SOL     OW38671   1.883   4.287   5.002 -0.1196  0.2817  0.1749
 9071SOL    HW138672   1.953   4.246   5.053 -0.0806  1.7277  1.2937
 9071SOL    HW238673   1.804   4.273   5.055  0.5071  1.9079  1.5459
 9072SOL     OW38674   4.533   0.636  14.673  0.4085 -0.5707  0.4100
 9072SOL    HW138675   4.626   0.618  14.665  0.7002  0.5962  1.3115
 9072SOL    HW238676   4.532   0.707  14.610 -0.6770 -0.4328  0.5674
 9073SOL     OW38677   3.716   4.455   6.423  0.4082 -0.4465  0.0849
 9073SOL    HW138678   3.698   4.444   6.330  1.2814 -1.2712  0.0170
 9073SOL    HW238679   3.709   4.365   6.454  0.0314 -0.4904 -0.1337
 9074SOL     OW38680   0.530   1.268   5.991 -0.2382  0.1575  0.2671
 9074SOL    HW138681   0.573   1.189   5.958 -0.6850  0.9445 -2.1415
 9074SOL    HW238682   0.472   1.226   6.055 -2.5315  1.4669 -0.9382
 9075SOL     OW38683   2.987   3.179   1.758  0.3114  0.7390 -0.1432
 9075SOL    HW138684   3.002   3.098   1.806 -3.2955  0.6087  0.7913
 9075SOL    HW238685   3.058   3.232   1.796  1.4000 -1.3969  0.7596
 9076SOL     OW38686   1.852   1.343  13.379  0.1282 -0.3240  0.3923
 9076SOL    HW138687   1.812   1.419  13.335  0.5732 -0.7651 -0.7988
 9076SOL    HW238688   1.783   1.282  13.357 -0.0984  0.1028 -0.0982
 9077SOL     OW38689   4.178   0.958   0.445 -0.0419  0.0005  0.0191
 9077SOL    HW138690   4.176   0.884   0.506  1.2129  0.3595  0.4856
 9077SOL    HW238691   4.211   1.027   0.502  0.6266 -0.4076  0.1255
 9078SOL     OW38692   4.237   3.747  15.190  0.0697 -0.0047  0.7867
 9078SOL    HW138693   4.185   3.728  15.111  0.6165  0.7210  0.2492
 9078SOL    HW238694   4.251   3.657  15.220 -2.4269 -0.4371  0.6553
 9079SOL     OW38695   2.902   0.303  11.384  0.0640 -0.3141  0.0501
 9079SOL    HW138696   2.942   0.274  11.302  1.7449 -3.1320  1.8521
 9079SOL    HW238697   2.984   0.296  11.433 -0.4862  1.6398  1.2044
 9080SOL     OW38698   2.635   2.833   6.677 -0.0846  0.2789  0.6721
 9080SOL    HW138699   2.557   2.780   6.693  0.2454 -0.6293 -0.7729
 9080SOL    HW238700   2.647   2.881   6.759  0.6658 -2.1526  1.9761
 9081SOL     OW38701   0.271   3.052  11.382  0.1410  0.5333 -0.5567
 9081SOL    HW138702   0.231   2.981  11.333  1.0736 -0.9167  0.7888
 9081SOL    HW238703   0.359   3.055  11.346  0.8371 -1.5952  0.9772
 9082SOL     OW38704   1.498   2.426   4.419 -0.7539 -0.1680 -0.1884
 9082SOL    HW138705   1.560   2.390   4.482 -2.0989  2.2928  2.5800
 9082SOL    HW238706   1.420   2.384   4.455 -0.8743  0.2300  0.0240
 9083SOL     OW38707   2.885   1.718   2.832  0.2943 -0.0182  0.2373
 9083SOL    HW138708   2.897   1.652   2.765 -2.4472 -0.2645  0.0010
 9083SOL    HW238709   2.935   1.790   2.794 -0.5403  0.3024 -0.2469
 9084SOL     OW38710   2.316   2.983   7.476  0.6327 -0.2319 -0.3073
 9084SOL    HW138711   2.241   3.018   7.524  0.2778 -0.7028 -0.5118
 9084SOL    HW238712   2.374   2.965   7.550  1.7112  0.7967 -0.8975
 9085SOL     OW38713   0.156   0.890   4.443  0.1110 -0.2612  0.0686
 9085SOL    HW138714   0.100   0.869   4.517 -2.2270  1.9922 -1.0607
 9085SOL    HW238715   0.113   0.837   4.375  0.7959 -0.3709 -0.2859
 9086SOL     OW38716   1.396   1.310  10.744 -0.1795  0.0790 -0.8259
 9086SOL    HW138717   1.309   1.302  10.782  0.7200  0.8912  1.3925
 9086SOL    HW238718   1.383   1.239  10.680  1.5673 -1.8993  1.0102
 9087SOL     OW38719   1.828   1.838   6.576  0.1713  0.7702  0.1417
 9087SOL    HW138720   1.820   1.750   6.614  0.1272  1.0084  0.6799
 9087SOL    HW238721   1.807   1.890   6.653  0.8416  0.8039  0.3034
 9088SOL     OW38722   4.657   3.558   7.261 -0.5490  0.3960 -0.0885
 9088SOL    HW138723   4.675   3.597   7.347  1.6781 -0.1697 -0.2748
 9088SOL    HW238724   0.017   3.586   7.224 -0.8907  1.2978 -0.1564
 9089SOL     OW38725   2.558   1.820   6.987  0.6658 -0.5046  0.1475
 9089SOL    HW138726   2.638   1.869   7.002 -0.1928  0.3268  2.0273
 9089SOL    HW238727   2.517   1.824   7.074 -1.1349 -1.8140 -0.6191
 9090SOL     OW38728   1.100   3.258   3.610  0.1832 -0.7077  0.4791
 9090SOL    HW138729   1.055   3.289   3.688  0.2432  1.2767 -0.2857
 9090SOL    HW238730   1.181   3.218   3.642  2.4717  3.5809  0.0621
 9091SOL     OW38731   0.200   0.706  10.675 -0.3393  0.4832  0.5819
 9091SOL    HW138732   0.238   0.730  10.591 -0.9919  1.1929  0.4911
 9091SOL    HW238733   0.274   0.659  10.715 -0.2733 -0.4840 -0.7107
 9092SOL     OW38734   1.189   1.837   6.001  0.4632  0.2999  0.6465
 9092SOL    HW138735   1.117   1.852   5.939 -0.0060  0.8788  1.3254
 9092SOL    HW238736   1.259   1.847   5.937 -0.6007 -0.9224 -0.6960
 9093SOL     OW38737   3.795   0.785   3.895  0.8380  0.3721  0.3671
 9093SOL    HW138738   3.851   0.860   3.914  0.6783  0.7675 -0.7781
 9093SOL    HW238739   3.856   0.712   3.906  0.7847  0.0505 -1.4177
 9094SOL     OW38740   2.228   2.801   3.133 -0.3926 -0.3046  0.2651
 9094SOL    HW138741   2.250   2.838   3.048 -1.1237 -5.7368 -2.3067
 9094SOL    HW238742   2.208   2.877   3.187  1.3408  0.6488 -0.4340
 9095SOL     OW38743   4.701   1.792   0.857 -0.5013  0.1504  0.5781
 9095SOL    HW138744   0.042   1.862   0.845 -0.2591 -0.3081 -0.7431
 9095SOL    HW238745   0.036   1.724   0.890  1.3958  1.2751 -0.4870
 9096SOL     OW38746   4.205   4.591   4.304 -0.4460  0.1780 -0.2062
 9096SOL    HW138747   4.273   4.564   4.365 -0.1439 -1.4864 -1.2769
 9096SOL    HW238748   4.253   4.598   4.221  2.5358  1.1088  1.6314
 9097SOL     OW38749   1.618   3.888   7.179 -0.2394 -0.5426  0.1573
 9097SOL    HW138750   1.620   3.803   7.223 -1.3583 -0.4125  0.4620
 9097SOL    HW238751   1.562   3.881   7.102  0.1878 -1.0887 -0.1096
 9098SOL     OW38752   2.460   2.324   0.351  0.0783 -0.0032  0.5620
 9098SOL    HW138753   2.544   2.367   0.369  0.2012  0.2517 -0.5988
 9098SOL    HW238754   2.474   2.234   0.379 -1.7103 -0.8286 -1.2154
 9099SOL     OW38755   4.512   4.476   9.603  0.0988 -0.3323 -0.0427
 9099SOL    HW138756   4.555   4.450   9.522  0.4773 -1.0348  0.3872
 9099SOL    HW238757   4.432   4.511   9.565  0.3298 -1.7340 -1.8227
 9100SOL     OW38758   4.336   0.560   8.627  0.1000 -0.3327 -0.2798
 9100SOL    HW138759   4.241   0.573   8.639  0.1688  0.2206 -0.3025
 9100SOL    HW238760   4.362   0.578   8.717 -1.5842  2.2592 -0.2915
 9101SOL     OW38761   3.814   1.214  17.606  0.1804  0.2401 -0.0488
 9101SOL    HW138762   3.886   1.229  17.546 -2.1888  0.1141 -2.9224
 9101SOL    HW238763   3.853   1.251  17.685  0.3117  0.2939 -0.1394
 9102SOL     OW38764   3.079   4.485   6.669  0.4699 -0.8235  0.0718
 9102SOL    HW138765   3.157   4.537   6.647  0.7126 -1.0796  0.3256
 9102SOL    HW238766   3.047   4.531   6.747  3.5037 -0.9545  1.4194
 9103SOL     OW38767   1.384   0.560   2.046 -0.1249 -0.8025  0.1712
 9103SOL    HW138768   1.379   0.606   1.962  1.1098  0.7767  0.9721
 9103SOL    HW238769   1.310   0.602   2.089  1.8886  2.5805  0.3380
 9104SOL     OW38770   2.879   2.981   4.312  0.6545  0.1580  0.1481
 9104SOL    HW138771   2.913   2.898   4.346  0.5201 -0.5388 -1.4400
 9104SOL    HW238772   2.804   2.947   4.264  0.2373  1.9413 -0.4593
 9105SOL     OW38773   0.876   1.341  11.020  0.3158 -0.1621  0.0040
 9105SOL    HW138774   0.838   1.273  11.076  1.4617  0.8939  2.0707
 9105SOL    HW238775   0.911   1.284  10.951 -1.0096 -1.9243  0.7613
 9106SOL     OW38776   3.385   3.938   2.312  0.0921 -0.1700 -0.4287
 9106SOL    HW138777   3.477   3.915   2.323 -0.0780 -0.8677 -0.4503
 9106SOL    HW238778   3.361   3.973   2.398  2.1933 -0.6632  0.3567
 9107SOL     OW38779   4.436   2.517   0.937  0.0063 -0.0531  0.0720
 9107SOL    HW138780   4.469   2.604   0.916 -0.1748 -0.0773 -0.3052
 9107SOL    HW238781   4.371   2.497   0.870  0.0163 -1.2781  0.4295
 9108SOL     OW38782   2.608   2.443   8.357 -0.3756 -0.3815  0.8005
 9108SOL    HW138783   2.663   2.388   8.302 -2.0206 -1.4967  0.2788
 9108SOL    HW238784   2.669   2.516   8.374  2.0865 -2.5361  1.2706
 9109SOL     OW38785   2.768   1.993  12.294 -1.0225  0.4115 -0.4119
 9109SOL    HW138786   2.708   2.060  12.260  0.3118 -0.4387 -4.4204
 9109SOL    HW238787   2.737   1.918  12.244 -0.5339 -0.4514  0.5865
 9110SOL     OW38788   4.647   1.065   3.326  0.5462  0.0660  0.3778
 9110SOL    HW138789   4.708   1.132   3.357  0.9097  0.2610 -0.7752
 9110SOL    HW238790   4.639   1.104   3.239 -2.3795 -0.7564  0.2854
 9111SOL     OW38791   1.971   1.536  12.341 -0.2098  0.0204 -0.0894
 9111SOL    HW138792   1.943   1.593  12.270  0.6013  1.4384  0.7291
 9111SOL    HW238793   2.021   1.597  12.396 -0.6064  1.1173 -0.9660
 9112SOL     OW38794   1.133   0.590   7.013  0.0340 -0.5882  0.7092
 9112SOL    HW138795   1.163   0.500   7.029 -0.9793 -0.9122  0.7823
 9112SOL    HW238796   1.040   0.581   6.992 -0.2827  0.0508  1.8993
 9113SOL     OW38797   3.545   0.144   8.827  0.0939 -0.1856  0.1827
 9113SOL    HW138798   3.621   0.183   8.785  1.6996 -1.2989  2.0075
 9113SOL    HW238799   3.569   0.142   8.920  0.8078 -0.4558 -0.0071
 9114SOL     OW38800   1.359   0.530   6.200 -0.2013 -0.3807 -0.0698
 9114SOL    HW138801   1.305   0.533   6.121  0.3995 -1.3876 -0.5121
 9114SOL    HW238802   1.375   0.439   6.227  0.5512 -1.0246 -2.7651
 9115SOL     OW38803   0.912   3.332   3.148  0.4130 -0.0443  0.4856
 9115SOL    HW138804   0.832   3.281   3.158 -0.9659  1.3069 -3.6797
 9115SOL    HW238805   0.951   3.298   3.067 -0.3081 -0.3358  0.2613
 9116SOL     OW38806   3.659   2.893   4.124 -0.0090 -0.5926 -0.6548
 9116SOL    HW138807   3.582   2.943   4.098  0.1357  0.8804  1.7455
 9116SOL    HW238808   3.691   2.891   4.033  1.0668 -0.5349 -0.2803
 9117SOL     OW38809   1.896   0.165   2.273  0.1805  0.4947  0.6309
 9117SOL    HW138810   1.975   0.203   2.311  0.9476  0.1910 -0.6453
 9117SOL    HW238811   1.861   0.246   2.237 -0.2867 -0.3754 -0.8975
 9118SOL     OW38812   3.690   0.299  11.332  0.5434  0.0684 -0.3569
 9118SOL    HW138813   3.717   0.295  11.240  1.9451 -1.3836  0.1130
 9118SOL    HW238814   3.601   0.264  11.324  0.4137  0.4407 -0.5292
 9119SOL     OW38815   2.247   1.994   4.163 -0.1094  0.3459 -0.0517
 9119SOL    HW138816   2.291   1.958   4.239 -1.9605 -1.5361  0.0978
 9119SOL    HW238817   2.191   2.059   4.205 -0.9110 -0.3521 -0.0596
 9120SOL     OW38818   1.887   0.467   1.327  0.5660  0.9914  0.2346
 9120SOL    HW138819   1.826   0.442   1.257  0.9689  1.5292 -0.3079
 9120SOL    HW238820   1.823   0.471   1.398 -0.2885 -3.0296 -0.2870
 9121SOL     OW38821   2.046   0.165   7.854  0.3409  0.2679 -0.3252
 9121SOL    HW138822   2.045   0.158   7.758 -1.0751 -0.3835 -0.2623
 9121SOL    HW238823   2.101   0.089   7.871  1.6242  1.2727  0.0612
 9122SOL     OW38824   3.594   0.605   7.489 -0.2528 -0.3310 -0.9080
 9122SOL    HW138825   3.513   0.563   7.459 -0.3238 -2.4245  2.1620
 9122SOL    HW238826   3.637   0.527   7.524 -1.2242 -0.3068  0.3215
 9123SOL     OW38827   4.148   0.379  14.860 -0.0763 -0.1815  0.2612
 9123SOL    HW138828   4.190   0.454  14.816  1.5167  0.3076  2.6678
 9123SOL    HW238829   4.072   0.413  14.908 -0.2397 -1.3034  0.7869
 9124SOL     OW38830   3.682   0.259   7.032  0.3326  0.3196  0.6964
 9124SOL    HW138831   3.665   0.185   7.090 -0.9214 -0.8852 -1.1921
 9124SOL    HW238832   3.778   0.259   7.034  0.4054  0.6705 -1.9544
 9125SOL     OW38833   0.417   0.459  16.436  0.1541 -0.2158 -0.1228
 9125SOL    HW138834   0.449   0.510  16.511  0.5262  0.1225 -0.5110
 9125SOL    HW238835   0.342   0.408  16.467  0.7343 -0.0021  1.6465
 9126SOL     OW38836   1.864   0.353   7.929 -0.1194  0.1233 -0.0504
 9126SOL    HW138837   1.901   0.412   7.996  0.1993  0.0256 -0.1421
 9126SOL    HW238838   1.916   0.274   7.937 -0.8005 -0.2106  1.2475
 9127SOL     OW38839   1.554   1.853   7.959  0.4491  0.9231  0.2052
 9127SOL    HW138840   1.534   1.944   7.982 -0.4769  0.6411  0.5173
 9127SOL    HW238841   1.611   1.861   7.882 -0.7242 -0.1025 -0.7760
 9128SOL     OW38842   4.153   1.340   5.346  0.0682 -0.1079 -0.4004
 9128SOL    HW138843   4.209   1.386   5.283  2.1234 -3.0182 -0.6571
 9128SOL    HW238844   4.114   1.271   5.293 -0.0860  0.9299 -1.6410
 9129SOL     OW38845   0.591   0.839   6.712 -0.6267  0.0626  0.2618
 9129SOL    HW138846   0.526   0.832   6.782  0.3360  0.4181  1.1797
 9129SOL    HW238847   0.607   0.747   6.691 -0.1824 -0.1998  1.7308
 9130SOL     OW38848   4.676   0.733   5.410 -0.4727  0.2312  0.2332
 9130SOL    HW138849   0.037   0.699   5.440  0.4380  1.9753 -0.3223
 9130SOL    HW238850   4.617   0.658   5.409 -0.8301  0.5429 -1.6592
 9131SOL     OW38851   1.707   0.278  15.770  0.5226  0.3866 -0.0937
 9131SOL    HW138852   1.731   0.187  15.749 -1.5365 -0.5951  1.8032
 9131SOL    HW238853   1.755   0.327  15.704 -1.0470  0.7714 -0.9446
 9132SOL     OW38854   4.127   1.741   5.046  0.2331  0.7520 -0.1257
 9132SOL    HW138855   4.190   1.782   4.985 -0.5492  2.9626  0.5634
 9132SOL    HW238856   4.051   1.721   4.991 -1.4271 -0.0347  2.4753
 9133SOL     OW38857   2.105   0.323   1.303 -0.4218 -0.0294  0.2508
 9133SOL    HW138858   2.064   0.242   1.334  0.2984  0.6363  2.9943
 9133SOL    HW238859   2.035   0.386   1.315  0.3040  0.5101  1.6682
 9134SOL     OW38860   0.583   0.601   3.435 -0.0056 -0.1310 -0.1193
 9134SOL    HW138861   0.620   0.542   3.369 -0.3840 -1.3082  0.7071
 9134SOL    HW238862   0.610   0.556   3.515 -0.3515  1.4584  0.8841
 9135SOL     OW38863   1.445   1.755   7.102 -0.1974  0.4448 -0.3031
 9135SOL    HW138864   1.412   1.812   7.171 -1.8006  0.6477 -1.2452
 9135SOL    HW238865   1.445   1.672   7.151 -1.7037  1.0455  0.7064
 9136SOL     OW38866   3.930   2.555   6.871  0.0924 -0.7186 -0.1332
 9136SOL    HW138867   3.913   2.588   6.783  1.9620  0.6756  0.0268
 9136SOL    HW238868   3.859   2.584   6.928 -0.6699  2.7627 -2.8530
 9137SOL     OW38869   3.273   3.891   5.289  0.6742 -0.1481 -0.6171
 9137SOL    HW138870   3.367   3.904   5.300  0.6673 -0.9521  0.3452
 9137SOL    HW238871   3.243   3.915   5.376  1.8674  3.0833 -1.0951
 9138SOL     OW38872   2.120   2.466   4.691  0.4306  0.0333 -0.6208
 9138SOL    HW138873   2.063   2.515   4.630  0.7802  0.6050 -0.4874
 9138SOL    HW238874   2.151   2.542   4.740  2.4177  0.5535 -2.7152
 9139SOL     OW38875   4.316   1.020   8.527  0.2294 -0.1479  0.0036
 9139SOL    HW138876   4.391   0.960   8.531  0.8331  0.6175  0.2282
 9139SOL    HW238877   4.352   1.089   8.471 -2.3099  1.5594  0.5056
 9140SOL     OW38878   1.123   2.628  11.866 -0.1467  0.4819 -0.2496
 9140SOL    HW138879   1.029   2.618  11.879  0.0800  0.8768  1.7263
 9140SOL    HW238880   1.150   2.646  11.956 -1.1556 -0.7263  0.2783
 9141SOL     OW38881   0.689   0.699   6.204  0.0439 -0.1564  0.8018
 9141SOL    HW138882   0.678   0.775   6.262  0.7115  0.5212  0.0383
 9141SOL    HW238883   0.615   0.701   6.144 -0.0762 -2.1805  0.8742
 9142SOL     OW38884   1.745   3.309   5.785 -0.4755  0.5700 -0.4345
 9142SOL    HW138885   1.741   3.395   5.827 -0.0545  1.0809 -1.4325
 9142SOL    HW238886   1.678   3.253   5.824 -0.3358  0.1257 -0.8306
 9143SOL     OW38887   3.445   4.530  15.515  0.4441 -0.0623  0.1317
 9143SOL    HW138888   3.392   4.486  15.448  1.3760 -3.0388  1.3545
 9143SOL    HW238889   3.518   4.543  15.455 -0.0955 -0.3700 -0.5885
 9144SOL     OW38890   2.279   3.185   5.726  0.0636  0.2517 -0.1310
 9144SOL    HW138891   2.291   3.213   5.635  2.6246  0.2614  0.2180
 9144SOL    HW238892   2.203   3.240   5.744  0.9288  1.4133 -0.0585
 9145SOL     OW38893   0.564   4.646   6.565 -0.3001 -0.4165  0.5011
 9145SOL    HW138894   0.592   4.568   6.516 -1.0748 -0.0180 -0.5681
 9145SOL    HW238895   0.643   4.679   6.609 -0.4929 -0.1631  0.6525
 9146SOL     OW38896   4.409   2.521  13.512  0.4282  0.5402  0.1109
 9146SOL    HW138897   4.348   2.460  13.553  1.5238 -0.5415  0.1210
 9146SOL    HW238898   4.377   2.517  13.421  3.7147  1.4244 -1.0923
 9147SOL     OW38899   0.573   0.963  16.237  0.0166 -0.1935  0.6446
 9147SOL    HW138900   0.525   1.045  16.253 -0.6292 -0.1312 -1.6088
 9147SOL    HW238901   0.620   0.990  16.158  0.7450 -1.1654  0.7501
 9148SOL     OW38902   1.962   1.250   4.203  0.5114 -0.7760  0.3500
 9148SOL    HW138903   1.927   1.329   4.163 -1.8881 -0.8705  2.2259
 9148SOL    HW238904   1.914   1.247   4.286 -0.9578  0.1957 -0.4663
 9149SOL     OW38905   1.760   1.856   1.107 -0.0901  0.5338 -0.1047
 9149SOL    HW138906   1.774   1.806   1.026 -0.3947 -1.4222  1.0613
 9149SOL    HW238907   1.821   1.815   1.168  2.1198  2.7849 -0.8317
 9150SOL     OW38908   4.060   3.990   4.509  1.1437 -0.0774 -0.0206
 9150SOL    HW138909   4.109   3.999   4.427 -1.1446  2.8269 -1.0841
 9150SOL    HW238910   4.127   3.985   4.577  0.3410  1.9756  0.9396
 9151SOL     OW38911   3.690   4.338   7.177  0.2354 -0.2538 -0.1014
 9151SOL    HW138912   3.609   4.292   7.152 -0.5024  0.3797  1.1346
 9151SOL    HW238913   3.705   4.310   7.267  0.6977  0.5106  0.0584
 9152SOL     OW38914   1.731   1.144  10.093 -0.6169 -0.1894 -0.1197
 9152SOL    HW138915   1.711   1.077  10.158  1.7293 -1.5288 -0.8245
 9152SOL    HW238916   1.639   1.166  10.073 -1.1923 -0.1484  2.6279
 9153SOL     OW38917   2.700   0.996   4.836 -0.7937  0.0717  0.1569
 9153SOL    HW138918   2.621   1.041   4.805 -0.5810  0.6697  0.4913
 9153SOL    HW238919   2.705   1.030   4.925  0.2889  1.1411 -0.3181
 9154SOL     OW38920   4.164   2.144   8.302 -0.1869 -0.3463 -0.1622
 9154SOL    HW138921   4.148   2.109   8.390 -2.0320  2.3195  0.5472
 9154SOL    HW238922   4.236   2.205   8.317 -1.2201  0.4663  1.4456
 9155SOL     OW38923   2.272   0.048  17.516 -0.8998  0.0877 -0.2655
 9155SOL    HW138924   2.256   0.062  17.423 -1.0022  0.0537 -0.2531
 9155SOL    HW238925   2.344   0.109  17.528  1.1973 -2.6998  1.4194
 9156SOL     OW38926   1.104   3.994   4.746  0.0810 -0.3821  0.7198
 9156SOL    HW138927   1.033   4.048   4.782 -1.9931 -2.4167 -0.3207
 9156SOL    HW238928   1.160   3.975   4.821 -1.4441 -1.7865  1.4944
 9157SOL     OW38929   3.811   4.118  17.181  0.3555  0.9097  0.4784
 9157SOL    HW138930   3.781   4.097  17.092 -0.4192 -0.3242  1.0226
 9157SOL    HW238931   3.842   4.030  17.203 -1.8792  0.0281  0.1494
 9158SOL     OW38932   1.150   2.776  13.881  0.4166 -0.1741 -0.0370
 9158SOL    HW138933   1.073   2.729  13.915 -0.3004  1.1396  0.1555
 9158SOL    HW238934   1.227   2.731  13.916  0.7601 -1.1631 -2.0593
 9159SOL     OW38935   3.923   3.210   4.421 -0.5196  0.9172  0.7761
 9159SOL    HW138936   3.900   3.291   4.376  1.0625  0.9397  0.0004
 9159SOL    HW238937   3.842   3.162   4.403 -0.1109  0.1715  0.9478
 9160SOL     OW38938   4.537   1.866   5.956  0.2033  0.7821 -0.2883
 9160SOL    HW138939   4.496   1.941   5.998 -0.0978 -0.3924  1.5222
 9160SOL    HW238940   4.509   1.803   6.022  2.2475 -0.2833 -0.4309
 9161SOL     OW38941   2.978   1.606   5.451 -0.2806  0.1259  0.6507
 9161SOL    HW138942   2.885   1.611   5.428  0.7977  4.0738 -2.9077
 9161SOL    HW238943   3.009   1.696   5.448 -1.8274  0.6024 -0.8833
 9162SOL     OW38944   3.177   4.152   0.104  0.3122 -0.0817 -0.3854
 9162SOL    HW138945   3.255   4.109   0.069  0.0182 -0.4331 -0.6041
 9162SOL    HW238946   3.206   4.231   0.151  0.3838 -0.0481 -0.4838
 9163SOL     OW38947   1.085   1.037   6.384 -0.0539  0.1183  0.0844
 9163SOL    HW138948   1.148   1.049   6.313  0.3906 -0.6409  0.3487
 9163SOL    HW238949   1.159   1.031   6.444 -1.0136 -2.7696  0.9710
 9164SOL     OW38950   2.857   1.278   0.722  0.0007 -0.0765  0.5853
 9164SOL    HW138951   2.890   1.251   0.807 -1.2348 -1.5690  0.6029
 9164SOL    HW238952   2.815   1.197   0.693 -2.8414  1.9710 -1.0134
 9165SOL     OW38953   1.948   2.382   1.813  0.3375  0.8223 -0.0301
 9165SOL    HW138954   1.883   2.343   1.872  1.1423  1.7361  1.4657
 9165SOL    HW238955   1.994   2.447   1.866  0.2861 -0.0572  1.1056
 9166SOL     OW38956   0.098   3.149   1.830 -0.3297  0.0772  0.2091
 9166SOL    HW138957   0.121   3.205   1.903  0.4301  0.0119  0.0188
 9166SOL    HW238958   0.111   3.211   1.758 -0.3879  1.5046  1.4348
 9167SOL     OW38959   1.991   1.164  13.555 -0.3683  0.1519 -1.1671
 9167SOL    HW138960   2.032   1.110  13.488 -0.3733  0.4308 -1.3943
 9167SOL    HW238961   1.958   1.238  13.504 -2.4385  0.5961  0.8072
 9168SOL     OW38962   0.637   3.671   0.709 -0.3973 -0.0307 -0.6162
 9168SOL    HW138963   0.660   3.739   0.773 -4.7145  2.4081 -1.6178
 9168SOL    HW238964   0.628   3.595   0.767 -1.1211  0.1771 -0.4579
 9169SOL     OW38965   0.664   3.633   6.895  0.6266  0.2721 -0.3398
 9169SOL    HW138966   0.636   3.678   6.974 -1.7163 -1.5973 -0.0923
 9169SOL    HW238967   0.759   3.643   6.891  0.8701 -1.4374  1.3944
 9170SOL     OW38968   1.099   2.040   1.343  0.0804  0.3841 -0.8964
 9170SOL    HW138969   1.121   2.118   1.291  1.2423 -0.3192 -1.4520
 9170SOL    HW238970   1.072   1.975   1.278  1.9291 -1.4037  0.1526
 9171SOL     OW38971   0.407   3.716  13.272 -0.4712  0.4795  0.2159
 9171SOL    HW138972   0.341   3.722  13.204 -0.2671 -0.7795 -0.0816
 9171SOL    HW238973   0.363   3.769  13.339  0.0706 -0.4424  1.3171
 9172SOL     OW38974   0.470   3.259   0.990 -0.7595  0.3984 -0.1738
 9172SOL    HW138975   0.535   3.312   1.038  2.1367 -2.0977 -1.3213
 9172SOL    HW238976   0.524   3.185   0.963 -1.5917  0.0053 -0.7320
 9173SOL     OW38977   0.645   4.030  15.635 -0.4377 -0.6414  0.2343
 9173SOL    HW138978   0.609   4.030  15.724  1.6831  0.8978  1.0969
 9173SOL    HW238979   0.664   3.939  15.614 -1.8732 -0.7841 -0.4805
 9174SOL     OW38980   2.225   4.483   7.991 -0.2774 -0.0492  0.1775
 9174SOL    HW138981   2.165   4.446   7.926  2.2427  0.5063 -2.4539
 9174SOL    HW238982   2.162   4.504   8.061 -0.1351 -0.0229  0.2982
 9175SOL     OW38983   3.623   4.529   0.947 -0.0465 -0.2263 -0.2893
 9175SOL    HW138984   3.552   4.467   0.933  0.5058 -0.8896 -0.1304
 9175SOL    HW238985   3.650   4.538   0.855  0.7375 -1.8522 -0.2075
 9176SOL     OW38986   2.687   4.689  14.383 -0.0774 -0.7531  0.1122
 9176SOL    HW138987   2.645   0.027  14.322  3.1199  0.1116 -1.2223
 9176SOL    HW238988   2.636   4.710  14.461  1.0160 -2.4946  1.2866
 9177SOL     OW38989   3.463   3.049   4.024  0.1390  0.1088 -0.2793
 9177SOL    HW138990   3.369   3.046   4.004  0.2475 -1.9561 -0.4740
 9177SOL    HW238991   3.485   3.022   3.934  0.3764  0.2592 -0.2652
 9178SOL     OW38992   1.496   0.025  12.386 -0.3099  0.1898  0.3115
 9178SOL    HW138993   1.563   4.700  12.435 -0.6805 -0.6932 -0.0514
 9178SOL    HW238994   1.437   0.043  12.459 -0.5395  2.1198 -0.3458
 9179SOL     OW38995   3.141   0.717   6.432 -0.6162  0.6691  0.1984
 9179SOL    HW138996   3.182   0.709   6.519  0.8221 -1.5873 -0.6757
 9179SOL    HW238997   3.181   0.795   6.394 -0.9267  0.2997 -0.8918
 9180SOL     OW38998   3.067   0.003   3.989 -0.3628  0.3943 -0.1639
 9180SOL    HW138999   3.088   0.043   4.073  0.4991 -2.1567  0.8497
 9180SOL    HW239000   3.088   4.635   4.010  2.5146  1.3010  0.8868
 9181SOL     OW39001   0.512   3.961  14.711 -0.2949 -0.6026  0.4156
 9181SOL    HW139002   0.583   3.900  14.692  0.9554  0.3024  2.1495
 9181SOL    HW239003   0.438   3.911  14.676 -0.6777  0.6039 -0.5004
 9182SOL     OW39004   1.488   3.618   6.458  0.2426  0.0160 -0.4221
 9182SOL    HW139005   1.497   3.530   6.495  1.1220  0.6040  0.7476
 9182SOL    HW239006   1.439   3.597   6.379 -2.5048  2.6688  0.5619
 9183SOL     OW39007   2.645   4.404  11.651 -0.4407  0.4706 -0.1271
 9183SOL    HW139008   2.578   4.458  11.694  0.2234  1.5488 -0.4264
 9183SOL    HW239009   2.602   4.399  11.566  1.4759  1.1949 -1.1466
 9184SOL     OW39010   2.558   4.505   5.463  0.1619 -0.0255 -0.3728
 9184SOL    HW139011   2.548   4.429   5.521 -1.4883 -0.4859 -1.2551
 9184SOL    HW239012   2.532   4.583   5.512 -1.4360  0.6585 -2.2931
 9185SOL     OW39013   1.521   0.970   6.135  0.4702  0.3373 -0.2978
 9185SOL    HW139014   1.591   0.964   6.200 -1.4478 -2.8287  1.4890
 9185SOL    HW239015   1.503   0.876   6.139  2.4347  0.0169  1.5196
 9186SOL     OW39016   3.625   4.525  15.325 -0.0187  0.0853 -0.3616
 9186SOL    HW139017   3.672   4.584  15.266 -0.5389  1.6773  0.8153
 9186SOL    HW239018   3.637   4.441  15.280  0.5659 -1.0791  1.9798
 9187SOL     OW39019   2.686   1.326   2.499 -0.1673 -0.1201 -0.1110
 9187SOL    HW139020   2.643   1.404   2.464  1.3990  0.4706 -0.7602
 9187SOL    HW239021   2.606   1.285   2.531  1.8060 -2.1518  2.2391
 9188SOL     OW39022   2.670   0.667  11.626  0.3435 -0.2766  0.1851
 9188SOL    HW139023   2.584   0.708  11.636 -1.0144 -2.4652 -2.2033
 9188SOL    HW239024   2.679   0.666  11.530 -1.4343  1.3508  0.0199
 9189SOL     OW39025   3.293   3.236   7.583  0.6127 -0.9011  0.0203
 9189SOL    HW139026   3.271   3.284   7.663  2.4555 -1.0789  0.6290
 9189SOL    HW239027   3.288   3.315   7.528 -7.6649 -0.5509  1.3021
 9190SOL     OW39028   2.473   0.414  12.298  0.4402  0.5972 -0.2702
 9190SOL    HW139029   2.488   0.445  12.387 -1.9227 -0.9599  0.6781
 9190SOL    HW239030   2.377   0.418  12.300  0.4129  0.0202 -0.4668
 9191SOL     OW39031   4.342   0.081  15.191  0.3915 -0.1406  0.1196
 9191SOL    HW139032   4.338   0.140  15.116  2.1634  0.2323  0.3306
 9191SOL    HW239033   4.327   0.002  15.140  2.2171 -0.0003 -0.6244
 9192SOL     OW39034   4.505   1.290   7.405 -0.1297  0.1101  0.2031
 9192SOL    HW139035   4.416   1.279   7.437  0.3193  0.0428  1.4300
 9192SOL    HW239036   4.523   1.371   7.453  0.6622  0.2027 -0.2444
 9193SOL     OW39037   1.473   0.037   4.098  0.0308  0.0979 -0.1443
 9193SOL    HW139038   1.415   0.096   4.148 -1.3202 -1.8004  0.5536
 9193SOL    HW239039   1.493   4.689   4.158 -0.8964 -0.4682 -0.5124
 9194SOL     OW39040   2.016   1.838   7.363 -0.0036  0.6136  0.2408
 9194SOL    HW139041   2.022   1.894   7.441 -0.7875  3.4017 -1.6780
 9194SOL    HW239042   2.005   1.905   7.295 -0.7475  0.7782  0.5175
 9195SOL     OW39043   3.408   2.437  13.302 -0.0198  0.7842  0.5759
 9195SOL    HW139044   3.403   2.372  13.372  0.2447 -0.0494 -0.1796
 9195SOL    HW239045   3.445   2.395  13.224 -0.5436  1.0535  0.1792
 9196SOL     OW39046   2.999   2.858   7.408 -0.3536 -0.4914 -0.5369
 9196SOL    HW139047   3.082   2.906   7.408  0.3098 -1.6367  1.2323
 9196SOL    HW239048   3.022   2.790   7.345  3.4523  0.6444 -0.4132
 9197SOL     OW39049   2.577   4.409   7.064 -0.1529  0.6429  0.0640
 9197SOL    HW139050   2.525   4.350   7.119  0.6294 -0.4401 -0.3768
 9197SOL    HW239051   2.517   4.410   6.989  2.2063  0.9794 -1.8003
 9198SOL     OW39052   0.526   0.413   4.740 -0.0169  0.0899  0.2819
 9198SOL    HW139053   0.587   0.340   4.751 -1.7300 -1.3959 -0.1638
 9198SOL    HW239054   0.580   0.482   4.779  0.6239  0.0103 -0.4664
 9199SOL     OW39055   4.570   4.531   8.616 -0.6047 -0.5332  0.8348
 9199SOL    HW139056   4.515   4.608   8.601 -0.8101 -0.8748 -0.1738
 9199SOL    HW239057   4.565   4.524   8.711 -0.7742 -1.2363  0.7704
 9200SOL     OW39058   1.446   4.339   9.613  0.0100 -0.4376  0.1309
 9200SOL    HW139059   1.455   4.432   9.594  1.4736 -0.8775 -1.3380
 9200SOL    HW239060   1.448   4.336   9.708  0.1063  4.5538  0.2598
 9201SOL     OW39061   1.738   2.117   4.853 -0.1631 -0.1959  0.7035
 9201SOL    HW139062   1.825   2.154   4.869 -0.3853  0.7657 -0.2693
 9201SOL    HW239063   1.690   2.173   4.914  1.3828  0.1151  1.6450
 9202SOL     OW39064   2.504   2.081   1.084 -0.1654  0.6107 -0.2507
 9202SOL    HW139065   2.504   2.129   1.001  0.4526 -0.3755 -0.8159
 9202SOL    HW239066   2.462   2.142   1.144 -0.5701 -0.4006  0.4766
 9203SOL     OW39067   0.982   2.867   8.369 -0.2275  0.0212  0.4005
 9203SOL    HW139068   0.989   2.902   8.280  0.0115 -2.1652 -0.4383
 9203SOL    HW239069   0.960   2.948   8.415  1.7356  0.1288  1.1497
 9204SOL     OW39070   3.661   3.655   6.956 -0.2577 -0.4495  0.1791
 9204SOL    HW139071   3.732   3.661   7.019  1.1362 -0.7154 -1.3809
 9204SOL    HW239072   3.677   3.564   6.934  1.7887 -0.2643  0.9665
 9205SOL     OW39073   3.459   4.707   5.678  0.1862 -0.1793  0.7590
 9205SOL    HW139074   3.372   0.013   5.706 -0.0271  1.0221 -1.2070
 9205SOL    HW239075   3.442   4.675   5.590  0.7153 -0.6635  0.8292
 9206SOL     OW39076   2.673   0.810  11.172  0.2344 -0.0937  0.3449
 9206SOL    HW139077   2.706   0.741  11.230  0.1861 -0.3054  0.1225
 9206SOL    HW239078   2.583   0.779  11.168 -0.0332  1.2190 -3.5544
 9207SOL     OW39079   1.676   1.074   4.749  0.0373  0.4018  0.1091
 9207SOL    HW139080   1.597   1.125   4.730  0.7889  1.6103  0.1856
 9207SOL    HW239081   1.682   1.026   4.666 -1.8652 -2.1640  1.4894
 9208SOL     OW39082   3.505   3.439   3.404 -0.6438  0.0738  0.1508
 9208SOL    HW139083   3.410   3.449   3.404 -0.8152 -1.5435  0.8989
 9208SOL    HW239084   3.525   3.406   3.317 -0.3490  1.3828 -0.2760
 9209SOL     OW39085   3.004   3.458   6.544  0.2655  0.0410 -0.1579
 9209SOL    HW139086   2.982   3.416   6.627 -0.3929 -0.7263 -0.7182
 9209SOL    HW239087   3.068   3.524   6.570 -0.0327  0.0770  0.4728
 9210SOL     OW39088   0.143   3.817   8.775 -0.0495 -0.1749  0.7171
 9210SOL    HW139089   0.064   3.778   8.812 -0.2869  0.2027  0.6127
 9210SOL    HW239090   0.182   3.743   8.729 -2.3263 -1.0484  0.1872
 9211SOL     OW39091   1.356   1.769   2.295  0.1720 -0.3708 -0.2130
 9211SOL    HW139092   1.366   1.863   2.312 -3.3957  0.3807 -2.3156
 9211SOL    HW239093   1.282   1.748   2.351  0.5589  0.7431  0.7128
 9212SOL     OW39094   1.937   2.213   2.250  0.6966 -0.5981 -0.5923
 9212SOL    HW139095   1.999   2.148   2.217  1.2541 -0.8152  0.8942
 9212SOL    HW239096   1.859   2.169   2.216 -0.4641  1.1162 -0.1847
 9213SOL     OW39097   1.364   4.375   6.900  0.2845  0.7290  0.1565
 9213SOL    HW139098   1.412   4.452   6.869 -2.1278  1.6283 -1.2979
 9213SOL    HW239099   1.434   4.309   6.900 -0.3593  0.0522  0.7754
 9214SOL     OW39100   1.942   2.870  15.362 -0.5201 -0.0159  0.3388
 9214SOL    HW139101   1.885   2.902  15.432 -2.6350  1.2747 -1.9919
 9214SOL    HW239102   1.942   2.775  15.376 -0.1340 -0.3003 -1.6751
 9215SOL     OW39103   2.254   3.349   9.896 -0.1826 -0.0032 -0.0072
 9215SOL    HW139104   2.236   3.307   9.812  0.9314 -0.4490 -0.0064
 9215SOL    HW239105   2.348   3.365   9.897 -0.1408 -0.1416 -1.2309
 9216SOL     OW39106   2.516   0.641   4.080 -0.2030  0.0131 -0.6869
 9216SOL    HW139107   2.458   0.703   4.125  0.8966  1.9019 -1.8741
 9216SOL    HW239108   2.519   0.687   3.996  2.6601 -1.4780 -1.3940
 9217SOL     OW39109   3.192   3.843   8.746  0.1371 -0.0700  0.2168
 9217SOL    HW139110   3.209   3.875   8.657  3.2651  0.0162  0.8672
 9217SOL    HW239111   3.130   3.775   8.719  1.7631 -1.5129  0.0998
 9218SOL     OW39112   0.318   0.381   0.377 -0.1597  0.0372  0.4317
 9218SOL    HW139113   0.287   0.462   0.419  2.5557  1.4462 -0.2733
 9218SOL    HW239114   0.245   0.365   0.317 -0.7008 -1.0281  1.3829
 9219SOL     OW39115   4.176   1.800   5.767  0.4797 -0.4691 -0.2040
 9219SOL    HW139116   4.108   1.794   5.700 -0.9830  0.9759  1.1753
 9219SOL    HW239117   4.138   1.852   5.838 -1.3612  0.2333 -1.6913
 9220SOL     OW39118   2.413   3.839   2.187 -0.6849  0.1564 -0.2880
 9220SOL    HW139119   2.351   3.833   2.115 -0.8018  3.0454 -0.4568
 9220SOL    HW239120   2.470   3.908   2.155  0.7990 -1.4339 -1.0228
 9221SOL     OW39121   2.565   3.182  15.820  0.5470 -0.5751  0.1748
 9221SOL    HW139122   2.615   3.203  15.898  1.4321  2.7348 -1.2789
 9221SOL    HW239123   2.505   3.117  15.857  0.7940  0.6102  2.6204
 9222SOL     OW39124   2.471   4.586   7.910 -0.2500  0.9985 -0.0877
 9222SOL    HW139125   2.391   4.554   7.951  0.1001 -1.8377 -1.5970
 9222SOL    HW239126   2.535   4.549   7.971 -1.2554  0.3434  0.5638
 9223SOL     OW39127   3.353   2.091   7.386 -0.1665  0.3314 -0.2749
 9223SOL    HW139128   3.293   2.097   7.312  2.3922  0.2268 -2.3771
 9223SOL    HW239129   3.303   2.137   7.454 -0.6235 -1.0271  0.2917
 9224SOL     OW39130   4.042   1.650   6.103  0.2963 -0.1486  0.5777
 9224SOL    HW139131   4.107   1.672   6.037 -2.1053  0.9224 -1.4214
 9224SOL    HW239132   4.075   1.683   6.186  0.7659 -0.8477  0.6655
 9225SOL     OW39133   0.563   1.413   0.790 -0.5737 -0.5124 -0.0309
 9225SOL    HW139134   0.636   1.353   0.798 -1.6148 -1.8977 -0.9616
 9225SOL    HW239135   0.552   1.441   0.881  0.6130  1.1337 -0.4072
 9226SOL     OW39136   1.224   0.780   6.826  0.1609  0.0725  0.9110
 9226SOL    HW139137   1.244   0.722   6.752 -2.1996  0.7466 -0.2563
 9226SOL    HW239138   1.180   0.715   6.879 -1.7570  0.4448 -0.2250
 9227SOL     OW39139   3.583   0.520   8.553 -0.3092 -0.9074  0.3310
 9227SOL    HW139140   3.517   0.481   8.610  2.4536 -3.4359  1.7964
 9227SOL    HW239141   3.541   0.604   8.536  0.6423 -0.5570 -0.2678
 9228SOL     OW39142   0.697   4.639  11.505  0.0999 -0.7666  0.1514
 9228SOL    HW139143   0.756   4.700  11.461 -1.6690  1.9520  1.5948
 9228SOL    HW239144   0.658   4.709  11.557  0.3761 -0.7172  0.2922
 9229SOL     OW39145   3.569   3.484  15.230 -0.5639  0.5720 -0.3349
 9229SOL    HW139146   3.587   3.414  15.293  3.3371 -0.3395 -2.4209
 9229SOL    HW239147   3.481   3.509  15.257 -0.2990 -0.5579  1.5288
 9230SOL     OW39148   0.895   2.643   4.037  0.4234 -0.0214 -0.6075
 9230SOL    HW139149   0.961   2.658   4.105 -0.6599 -1.9040  0.8500
 9230SOL    HW239150   0.949   2.594   3.975 -1.4290  0.1859 -2.3718
 9231SOL     OW39151   0.191   2.494   4.057 -0.5488 -0.2246  0.2827
 9231SOL    HW139152   0.227   2.583   4.063 -0.4968 -0.2431  0.2437
 9231SOL    HW239153   0.259   2.436   4.091 -1.3053 -0.7089  0.9412
 9232SOL     OW39154   2.054   1.279   2.209 -0.5760 -0.5454  0.1101
 9232SOL    HW139155   2.097   1.247   2.131 -0.2230 -0.7062  0.3736
 9232SOL    HW239156   1.978   1.221   2.211 -0.9139 -0.1470 -1.2120
 9233SOL     OW39157   2.230   3.264  15.059 -0.3494 -0.3040 -0.0754
 9233SOL    HW139158   2.282   3.333  15.101 -1.0003  0.0890  0.0750
 9233SOL    HW239159   2.203   3.317  14.985  0.4907  1.0703  0.5950
 9234SOL     OW39160   1.289   3.921   7.151 -0.1399  0.3375  0.4052
 9234SOL    HW139161   1.252   3.902   7.238 -0.7185 -2.4297 -0.4337
 9234SOL    HW239162   1.293   3.835   7.108 -1.6856 -0.9168  2.7681
 9235SOL     OW39163   0.031   4.531  10.039 -0.3137 -0.1714 -0.6413
 9235SOL    HW139164   4.707   4.539   9.956  0.5268 -1.2610 -1.2181
 9235SOL    HW239165   4.715   4.598  10.095 -0.3376 -0.7964  0.0840
 9236SOL     OW39166   0.887   4.047   3.252  0.5909  0.0070  0.2913
 9236SOL    HW139167   0.889   4.075   3.160  0.7556  0.4575  0.4331
 9236SOL    HW239168   0.920   4.126   3.294  0.1239  0.3201  0.0786
 9237SOL     OW39169   3.862   4.700   9.228  0.3277 -0.0385  0.6827
 9237SOL    HW139170   3.864   4.606   9.246 -0.9228 -0.5165 -1.7034
 9237SOL    HW239171   3.872   4.690   9.133  0.0762 -4.2747  1.1184
 9238SOL     OW39172   2.118   0.451   7.445  0.2501  0.0685  0.4272
 9238SOL    HW139173   2.120   0.461   7.350  1.6778  0.1060  0.4568
 9238SOL    HW239174   2.172   0.523   7.477 -0.2604  0.1493  1.1034
 9239SOL     OW39175   1.087   0.860  15.288 -0.3913 -0.2942 -0.2205
 9239SOL    HW139176   1.012   0.920  15.283  0.6565  0.9743 -0.5017
 9239SOL    HW239177   1.138   0.891  15.362 -1.4506  0.5285  0.1713
 9240SOL     OW39178   0.148   0.047   8.004 -0.3548  0.2266 -0.1117
 9240SOL    HW139179   0.233   0.014   8.034 -0.6477 -0.3022  0.1307
 9240SOL    HW239180   0.130   0.094   8.086 -1.4269  1.4734 -1.0557
 9241SOL     OW39181   2.269   0.972  15.110 -0.6738 -0.0074 -0.1355
 9241SOL    HW139182   2.203   0.929  15.166 -0.1814  0.2873  0.6782
 9241SOL    HW239183   2.342   0.942  15.163  0.7975  1.7454 -1.1697
 9242SOL     OW39184   0.284   1.590  11.791  0.3814 -0.2270 -0.5603
 9242SOL    HW139185   0.357   1.538  11.758  0.5127  0.4706 -1.3472
 9242SOL    HW239186   0.247   1.527  11.853 -1.7418  1.6983  0.1566
 9243SOL     OW39187   1.243   3.266   5.406  0.3504 -0.6346  0.5720
 9243SOL    HW139188   1.325   3.246   5.361  0.0654 -1.3757  0.3848
 9243SOL    HW239189   1.265   3.333   5.471 -0.0020  0.1737 -0.1469
 9244SOL     OW39190   1.975   2.430   0.693  0.3133  0.1874 -0.7812
 9244SOL    HW139191   1.953   2.365   0.627 -2.7882  1.5683 -1.1190
 9244SOL    HW239192   2.005   2.498   0.633 -1.7771  1.7412 -0.0686
 9245SOL     OW39193   1.733   0.872   9.486 -0.2195 -0.1813 -0.0160
 9245SOL    HW139194   1.774   0.947   9.442  0.0342 -1.4468 -1.9704
 9245SOL    HW239195   1.660   0.914   9.531  0.7552  1.3896  0.1355
 9246SOL     OW39196   1.462   0.858   6.578  0.4470  0.1303  0.0783
 9246SOL    HW139197   1.534   0.852   6.641  1.0027 -1.7725 -0.7257
 9246SOL    HW239198   1.456   0.766   6.551 -3.5364  0.2479  0.5105
 9247SOL     OW39199   3.942   0.493   4.415 -0.0933  0.6112  0.2806
 9247SOL    HW139200   3.969   0.484   4.506 -0.4293  1.1807  0.4377
 9247SOL    HW239201   3.947   0.405   4.379  0.6151  0.0590  1.7375
 9248SOL     OW39202   2.629   0.308  16.181  0.7110 -0.3824 -0.4373
 9248SOL    HW139203   2.628   0.219  16.218  0.9648 -0.2073 -0.0104
 9248SOL    HW239204   2.724   0.312  16.177  0.5137  3.0389 -1.6078
 9249SOL     OW39205   2.036   3.770   6.290 -0.1772  0.4119 -0.2483
 9249SOL    HW139206   2.043   3.721   6.208 -0.4649  2.0921 -1.2848
 9249SOL    HW239207   2.125   3.793   6.317  0.3257 -0.5470 -1.0865
 9250SOL     OW39208   4.354   4.341   5.164 -0.0335 -0.0045 -0.2983
 9250SOL    HW139209   4.287   4.405   5.186 -0.1963 -0.3094  0.0993
 9250SOL    HW239210   4.309   4.271   5.117 -0.1062 -1.1203  1.4299
 9251SOL     OW39211   4.325   2.571   6.202 -0.0730 -0.2732 -0.5428
 9251SOL    HW139212   4.348   2.621   6.281 -1.3084 -1.0018  0.2833
 9251SOL    HW239213   4.260   2.633   6.169  0.3934  0.6903  0.3269
 9252SOL     OW39214   2.074   0.198   9.421  0.1189  0.4344 -0.0310
 9252SOL    HW139215   2.080   0.128   9.486 -0.2125  0.2102 -0.2442
 9252SOL    HW239216   2.079   0.276   9.478  0.2773 -0.8360  1.7040
 9253SOL     OW39217   0.661   1.651  10.421  0.7948 -1.0442 -0.1505
 9253SOL    HW139218   0.671   1.737  10.462  1.2963 -2.1897  2.1225
 9253SOL    HW239219   0.717   1.658  10.344  0.6706 -2.3040 -0.3574
 9254SOL     OW39220   2.127   4.049   7.756  0.4502  0.7363  0.7055
 9254SOL    HW139221   2.194   4.097   7.805 -0.6469  2.3499  0.6059
 9254SOL    HW239222   2.050   4.104   7.738  0.7722 -0.2411 -3.4968
 9255SOL     OW39223   1.006   0.294   8.965 -0.4635 -0.5340 -0.1980
 9255SOL    HW139224   0.960   0.247   9.035 -0.8685  0.2419  0.0524
 9255SOL    HW239225   0.947   0.363   8.935 -0.3446  0.2066  1.3100
 9256SOL     OW39226   2.137   4.154   9.353  0.5447  0.5310 -0.0928
 9256SOL    HW139227   2.153   4.090   9.284 -2.2190 -1.7059  1.3065
 9256SOL    HW239228   2.050   4.121   9.376  0.2256  0.8066 -0.9176
 9257SOL     OW39229   0.046   3.364   8.533  0.2335 -0.2101  0.5639
 9257SOL    HW139230   4.709   3.379   8.605  0.5354 -1.2097  1.0232
 9257SOL    HW239231   0.042   3.444   8.480 -2.0643  1.5448  3.3618
 9258SOL     OW39232   4.612   0.574   3.869  0.0131  0.1116  0.0714
 9258SOL    HW139233   4.587   0.593   3.960 -0.8508 -2.7694  0.4330
 9258SOL    HW239234   4.556   0.641   3.830 -0.6409 -0.0871  0.6580
 9259SOL     OW39235   1.764   2.787   7.145  0.6924 -0.1316 -0.2780
 9259SOL    HW139236   1.736   2.817   7.058  1.2679 -2.1601 -1.1565
 9259SOL    HW239237   1.857   2.766   7.139  0.9750  1.3485 -1.1209
 9260SOL     OW39238   4.442   4.525  14.609 -0.2873 -0.0549  0.8720
 9260SOL    HW139239   4.514   4.569  14.563 -1.7240  0.0926 -1.2873
 9260SOL    HW239240   4.368   4.563  14.561 -0.3995 -0.5726  0.6256
 9261SOL     OW39241   2.535   3.828   8.882 -0.4777 -0.3466  0.6537
 9261SOL    HW139242   2.546   3.923   8.880 -0.6718 -0.3183  0.8986
 9261SOL    HW239243   2.489   3.808   8.963  1.2621 -0.5292  1.6063
 9262SOL     OW39244   4.623   3.301   2.133 -0.4102  0.3339  0.2446
 9262SOL    HW139245   4.574   3.258   2.063 -0.6430 -0.2046  0.7442
 9262SOL    HW239246   4.679   3.358   2.078  1.0475 -0.8682  0.4885
 9263SOL     OW39247   4.309   4.348   3.240 -1.6748 -0.0863  0.6087
 9263SOL    HW139248   4.296   4.357   3.145  1.0896  0.6083  0.3073
 9263SOL    HW239249   4.374   4.415   3.260 -2.1403 -0.1954  2.5161
 9264SOL     OW39250   0.882   1.856   8.701 -0.1094  0.0845  0.5078
 9264SOL    HW139251   0.818   1.801   8.656  0.4188 -0.7618  0.7807
 9264SOL    HW239252   0.925   1.897   8.627  1.3206 -0.4090  1.0563
 9265SOL     OW39253   3.301   3.202   0.687 -0.4289  0.2621  0.2165
 9265SOL    HW139254   3.282   3.130   0.747 -2.4574  0.1301 -0.5865
 9265SOL    HW239255   3.385   3.172   0.651 -0.4614 -0.2246  0.5529
 9266SOL     OW39256   0.908   2.550   1.741 -0.0219  0.2628  0.4049
 9266SOL    HW139257   0.921   2.467   1.695 -0.2098  0.1704  0.5205
 9266SOL    HW239258   0.838   2.514   1.796  0.6715 -1.4919  0.1469
 9267SOL     OW39259   0.875   0.552   8.921 -0.1681 -0.7266 -0.2765
 9267SOL    HW139260   0.812   0.565   8.992  1.3396  2.8660  0.4130
 9267SOL    HW239261   0.949   0.605   8.949 -0.6037 -0.0944 -0.3160
 9268SOL     OW39262   4.379   0.387   7.076  0.1478 -0.1634 -0.0700
 9268SOL    HW139263   4.358   0.364   6.985 -0.1504 -2.0534  0.4721
 9268SOL    HW239264   4.296   0.398   7.122 -0.6549 -0.8284 -1.3445
 9269SOL     OW39265   4.085   1.220   8.566 -0.4952  0.3412 -0.1399
 9269SOL    HW139266   4.128   1.134   8.570  0.2146  0.6634 -0.7799
 9269SOL    HW239267   4.165   1.272   8.562 -0.9093  0.8864 -1.2876
 9270SOL     OW39268   1.534   2.317  15.097  0.0243  0.3806  0.3260
 9270SOL    HW139269   1.586   2.382  15.050 -0.7873  0.3643 -0.5943
 9270SOL    HW239270   1.455   2.331  15.044 -1.2262  1.4673  2.4465
 9271SOL     OW39271   4.465   2.617  10.991 -0.0178  0.1276  0.1083
 9271SOL    HW139272   4.492   2.601  10.901 -1.9104  2.1567 -0.8237
 9271SOL    HW239273   4.439   2.707  10.973 -0.5249  0.3377  1.8717
 9272SOL     OW39274   3.579   4.363   5.687  0.1963 -0.1935  0.3131
 9272SOL    HW139275   3.532   4.365   5.770  0.5504 -1.3847  0.5452
 9272SOL    HW239276   3.514   4.365   5.616 -0.2256  2.0198  0.7710
 9273SOL     OW39277   0.698   2.422  16.768 -0.0034  0.6537  0.2379
 9273SOL    HW139278   0.735   2.344  16.726 -2.1514 -0.5032  0.4715
 9273SOL    HW239279   0.629   2.444  16.705  1.2918  2.4730 -0.5554
 9274SOL     OW39280   0.930   0.766   3.757 -0.0422 -0.0365 -0.2185
 9274SOL    HW139281   0.982   0.845   3.772  1.3480 -0.6737 -1.6967
 9274SOL    HW239282   0.965   0.708   3.824 -0.2264  1.2066  0.9503
 9275SOL     OW39283   0.597   1.088   3.892  0.1555 -0.1959  0.5018
 9275SOL    HW139284   0.564   1.025   3.828  0.7323 -0.6634  0.6628
 9275SOL    HW239285   0.678   1.048   3.924  0.1324  0.9880  2.0361
 9276SOL     OW39286   0.758   2.185   2.941  0.4967 -0.6756 -0.1015
 9276SOL    HW139287   0.765   2.200   2.847 -0.2214 -1.0333 -0.2080
 9276SOL    HW239288   0.852   2.171   2.951  0.5596 -1.0923 -1.2205
 9277SOL     OW39289   2.749   4.357   6.340  0.6031  0.2293  0.2455
 9277SOL    HW139290   2.703   4.410   6.406  0.0020 -0.4938  0.4093
 9277SOL    HW239291   2.687   4.287   6.322 -0.0702  0.5476  1.2854
 9278SOL     OW39292   1.540   0.124   2.502 -0.0821 -0.3611 -0.3718
 9278SOL    HW139293   1.608   0.061   2.478 -0.7604 -1.2855  0.1308
 9278SOL    HW239294   1.519   0.136   2.409 -1.8878  1.2498  0.2705
 9279SOL     OW39295   0.895   0.396   7.029 -0.2555  0.5519  0.3552
 9279SOL    HW139296   0.833   0.328   7.056  2.6011 -1.4662  1.9549
 9279SOL    HW239297   0.938   0.351   6.956 -2.0205 -2.4260  1.1232
 9280SOL     OW39298   4.203   1.262   2.986  0.3745  0.2402  0.6946
 9280SOL    HW139299   4.147   1.185   2.999 -1.6263  1.6096  0.3307
 9280SOL    HW239300   4.140   1.334   2.989  0.0366 -0.1036  2.1982
 9281SOL     OW39301   2.408   2.878   4.358  0.1879  0.2306  0.1705
 9281SOL    HW139302   2.458   2.859   4.437 -1.2239 -1.3524  0.6883
 9281SOL    HW239303   2.433   2.969   4.340 -1.2124  0.7395  0.8155
 9282SOL     OW39304   3.596   0.152   7.829 -0.0885  0.4345  0.5666
 9282SOL    HW139305   3.504   0.128   7.832 -0.0848  0.2040 -1.1486
 9282SOL    HW239306   3.632   0.090   7.891  1.7276 -0.1311 -1.0445
 9283SOL     OW39307   3.032   2.397   4.474  0.6168 -0.1311  0.1314
 9283SOL    HW139308   2.958   2.338   4.465 -1.0902  1.8145  1.3605
 9283SOL    HW239309   3.078   2.360   4.550 -1.0482  1.1837  1.7720
 9284SOL     OW39310   0.604   2.519   8.820 -0.3030  0.0734  0.2635
 9284SOL    HW139311   0.634   2.438   8.862  2.1040  2.0517  2.3531
 9284SOL    HW239312   0.528   2.548   8.870 -0.3903 -0.0021  0.1738
 9285SOL     OW39313   1.169   1.842   3.207 -0.1255 -0.3954 -0.0359
 9285SOL    HW139314   1.217   1.898   3.268 -0.7750 -0.4294  0.4955
 9285SOL    HW239315   1.238   1.802   3.154  0.7366 -0.0818  0.8650
 9286SOL     OW39316   0.766   1.804   5.693 -0.8366  0.3949  0.1983
 9286SOL    HW139317   0.764   1.708   5.694 -0.0606  0.3948  2.4874
 9286SOL    HW239318   0.696   1.820   5.630 -0.9714 -0.3447  0.1637
 9287SOL     OW39319   0.908   0.603   6.703 -0.6859 -0.1733  0.1935
 9287SOL    HW139320   0.816   0.589   6.681 -1.0245  0.1176  1.4410
 9287SOL    HW239321   0.937   0.664   6.635 -0.0306 -1.2503 -0.4901
 9288SOL     OW39322   3.514   1.818   4.079  0.0026 -0.3539 -0.0250
 9288SOL    HW139323   3.486   1.887   4.019  0.7434  1.6764  1.9299
 9288SOL    HW239324   3.551   1.871   4.150 -1.6084  0.0597  0.5077
 9289SOL     OW39325   2.163   0.445   2.005 -0.3870 -0.0571 -0.1311
 9289SOL    HW139326   2.177   0.362   1.961  2.5839  0.1960  0.3230
 9289SOL    HW239327   2.069   0.463   2.001  0.1238  2.3554 -1.2001
 9290SOL     OW39328   1.624   3.726   8.064 -0.3176  0.6388 -0.8746
 9290SOL    HW139329   1.568   3.751   7.990  2.2561 -0.3603 -3.1909
 9290SOL    HW239330   1.701   3.783   8.052  0.1622  0.0271 -0.7022
 9291SOL     OW39331   2.974   0.274   1.797  0.2251 -0.1730 -0.2846
 9291SOL    HW139332   3.069   0.279   1.802  0.2863 -0.8912 -0.7176
 9291SOL    HW239333   2.936   0.349   1.841  0.2407  0.2593 -1.0140
 9292SOL     OW39334   1.897   0.677   8.813  0.3227  0.0850 -0.9124
 9292SOL    HW139335   1.838   0.608   8.843  3.6217 -2.0586  0.5905
 9292SOL    HW239336   1.926   0.654   8.725  0.7700  1.4152 -1.1113
 9293SOL     OW39337   3.093   1.265   6.435 -0.7480 -0.0456  0.8371
 9293SOL    HW139338   3.145   1.210   6.494 -0.2618 -1.8594 -1.3037
 9293SOL    HW239339   3.043   1.196   6.393  2.1918 -0.8044 -1.3925
 9294SOL     OW39340   3.279   3.073   2.421  0.3453  0.2424  0.5894
 9294SOL    HW139341   3.313   3.138   2.360  0.5594 -0.2518  0.1888
 9294SOL    HW239342   3.204   3.043   2.371 -1.2073 -0.0487  3.0759
 9295SOL     OW39343   3.177   1.080  10.161  0.1051  0.0210 -0.2890
 9295SOL    HW139344   3.083   1.070  10.180 -0.4082 -0.0590 -2.7315
 9295SOL    HW239345   3.186   1.163  10.115  2.2965  1.0891  2.1250
 9296SOL     OW39346   0.250   0.731   2.716  0.0074 -0.1922  0.7668
 9296SOL    HW139347   0.199   0.715   2.795 -1.0781  2.8495  0.6619
 9296SOL    HW239348   0.338   0.752   2.747  1.0895 -0.9998 -1.7641
 9297SOL     OW39349   1.096   3.138  11.095 -0.2609  0.3911 -0.4892
 9297SOL    HW139350   1.102   3.209  11.160  0.2647  0.5501 -0.7159
 9297SOL    HW239351   1.038   3.191  11.041 -0.4650 -0.3058 -0.9454
 9298SOL     OW39352   1.525   2.863  15.469 -0.4401 -0.2260  0.1311
 9298SOL    HW139353   1.568   2.867  15.384 -0.6626  0.4923  0.0462
 9298SOL    HW239354   1.604   2.869  15.522 -0.3647  3.1375 -0.3584
 9299SOL     OW39355   2.731   3.099   5.305  0.0337  0.0222 -0.0025
 9299SOL    HW139356   2.826   3.091   5.305  0.0527  0.2534  2.0286
 9299SOL    HW239357   2.718   3.116   5.399 -0.3808 -0.5303  0.0460
 9300SOL     OW39358   2.498   2.448   1.163 -0.1740 -0.5169  0.7141
 9300SOL    HW139359   2.549   2.428   1.085 -2.1162  2.6523 -1.3544
 9300SOL    HW239360   2.414   2.476   1.126  0.1168 -0.8720 -0.2176
 9301SOL     OW39361   1.532   1.379   6.729 -0.2334  0.3254 -0.1522
 9301SOL    HW139362   1.494   1.446   6.787  0.3852 -0.3398  1.0235
 9301SOL    HW239363   1.602   1.337   6.779 -0.5975  1.6238  1.4591
 9302SOL     OW39364   3.993   1.074   1.832  0.0966  0.5250 -0.4352
 9302SOL    HW139365   3.937   1.148   1.812 -0.6258  0.6422  2.0905
 9302SOL    HW239366   4.022   1.047   1.744  0.8728  1.2414 -0.3970
 9303SOL     OW39367   1.241   0.510   7.321 -0.5640 -0.0963 -0.3141
 9303SOL    HW139368   1.161   0.517   7.269 -1.1741  0.8369  0.7636
 9303SOL    HW239369   1.271   0.424   7.291  0.6110  0.3632 -0.4513
 9304SOL     OW39370   1.282   1.847   1.559  0.4999 -0.2336  0.0982
 9304SOL    HW139371   1.267   1.934   1.596 -0.0409 -0.8166  1.2551
 9304SOL    HW239372   1.268   1.856   1.464  0.2912  0.4166  0.1923
 9305SOL     OW39373   3.086   1.934   3.640 -0.1117 -0.3198 -0.3367
 9305SOL    HW139374   3.106   1.914   3.731  1.2988  1.1680 -0.3178
 9305SOL    HW239375   3.112   1.851   3.599 -0.2400 -0.7218  0.4086
 9306SOL     OW39376   3.580   1.451   2.151  0.0848 -0.7756 -0.0181
 9306SOL    HW139377   3.486   1.436   2.160  0.4326 -3.2942 -0.5478
 9306SOL    HW239378   3.605   1.387   2.084  0.9110  0.0376 -0.4841
 9307SOL     OW39379   4.217   1.874   9.861  0.1416  0.3165  0.0596
 9307SOL    HW139380   4.196   1.966   9.842 -2.1049 -0.0451  0.7487
 9307SOL    HW239381   4.245   1.838   9.778  0.2349  1.4331 -0.4007
 9308SOL     OW39382   4.446   1.746   2.661  0.5811 -0.6126 -0.4121
 9308SOL    HW139383   4.452   1.682   2.590  1.6258  1.2979 -2.0445
 9308SOL    HW239384   4.513   1.708   2.719 -0.4255 -1.3169  0.2769
 9309SOL     OW39385   3.978   0.100   6.065  0.3003 -0.6184 -0.1261
 9309SOL    HW139386   4.063   0.131   6.096 -1.6397  3.4400  1.1001
 9309SOL    HW239387   3.996   0.009   6.042 -0.4270 -0.2144 -2.2458
 9310SOL     OW39388   0.443   0.354   5.746 -0.6643  0.6606 -0.2089
 9310SOL    HW139389   0.364   0.398   5.776  0.8549  2.8809  0.5651
 9310SOL    HW239390   0.407   0.316   5.666  0.2694 -0.7975  0.0715
 9311SOL     OW39391   0.157   2.038  12.037 -0.2077 -0.3480 -0.0729
 9311SOL    HW139392   0.112   1.962  12.000  0.4734 -1.7102  1.8846
 9311SOL    HW239393   0.236   2.010  12.084 -0.1263  0.6000  0.3418
 9312SOL     OW39394   2.253   3.842   1.962 -0.4147 -0.5858 -0.2880
 9312SOL    HW139395   2.245   3.749   1.981 -1.6001 -0.3807  0.2162
 9312SOL    HW239396   2.163   3.874   1.973  0.1970  1.2237 -0.4590
 9313SOL     OW39397   2.664   0.152   9.899  0.7213 -0.0771  0.1980
 9313SOL    HW139398   2.682   0.066   9.935 -0.3929 -0.5296 -0.3285
 9313SOL    HW239399   2.568   0.155   9.895  0.8742 -0.3181 -3.4747
 9314SOL     OW39400   4.330   0.304   6.679 -0.5524  0.2930  0.3733
 9314SOL    HW139401   4.344   0.230   6.621 -1.0221 -0.4535  1.2047
 9314SOL    HW239402   4.419   0.331   6.700 -0.5300  0.7313 -0.2999
 9315SOL     OW39403   4.051   1.313  14.458 -0.3254 -0.0037 -0.6820
 9315SOL    HW139404   4.134   1.317  14.505 -1.2403 -0.7101  0.9970
 9315SOL    HW239405   4.049   1.225  14.421  0.2623  0.8633 -2.7988
 9316SOL     OW39406   3.083   2.769  13.586  0.4719 -0.0439  0.6735
 9316SOL    HW139407   3.147   2.810  13.644  1.2984 -1.4614  0.7550
 9316SOL    HW239408   3.007   2.813  13.624 -1.7962 -1.3001 -2.3697
 9317SOL     OW39409   1.720   2.548  11.568  0.2472 -0.1029  0.3797
 9317SOL    HW139410   1.752   2.458  11.568 -2.7133 -1.1308  0.2303
 9317SOL    HW239411   1.808   2.586  11.570 -0.4558  1.4382  2.1530
 9318SOL     OW39412   2.628   3.000   0.532  0.2797 -0.1323 -0.6810
 9318SOL    HW139413   2.597   3.056   0.603  1.5601  0.7411 -0.8234
 9318SOL    HW239414   2.555   3.012   0.470 -0.5346 -0.0140  0.3012
 9319SOL     OW39415   1.263   0.341   5.949 -0.0293 -0.1911  0.1070
 9319SOL    HW139416   1.356   0.337   5.927  0.4010 -2.6094  2.4058
 9319SOL    HW239417   1.220   0.393   5.881  0.0042  1.4418  1.3202
 9320SOL     OW39418   3.978   4.174   6.131  0.7070 -0.6459  0.4420
 9320SOL    HW139419   3.893   4.132   6.140 -0.8584  2.1002 -1.4076
 9320SOL    HW239420   3.978   4.243   6.198  0.9555 -0.8922  0.6939
 9321SOL     OW39421   1.480   0.502  17.373  0.3988 -0.4871 -0.5971
 9321SOL    HW139422   1.523   0.470  17.294  1.6331 -0.1562 -0.0571
 9321SOL    HW239423   1.455   0.415  17.405 -2.1895  0.8927  1.1951
 9322SOL     OW39424   3.889   0.393   4.081 -0.4086  0.3047 -0.5399
 9322SOL    HW139425   3.796   0.399   4.100 -0.3432 -0.9372  0.2016
 9322SOL    HW239426   3.910   0.345   4.161 -1.0433 -1.0520 -1.1849
 9323SOL     OW39427   0.589   4.687   7.070  0.1167 -0.5384 -0.2281
 9323SOL    HW139428   0.496   4.666   7.066 -0.7668  2.4915  3.8977
 9323SOL    HW239429   0.616   4.662   6.982 -2.0711  0.2793 -1.1260
 9324SOL     OW39430   4.110   3.716   3.764  0.5758 -0.6017  0.8155
 9324SOL    HW139431   4.053   3.710   3.687 -1.8569 -0.3807  2.6261
 9324SOL    HW239432   4.158   3.797   3.745  0.8774 -1.4511 -2.1251
 9325SOL     OW39433   3.323   1.575   8.578  0.8238 -0.3724  0.2433
 9325SOL    HW139434   3.390   1.604   8.641  1.6667  0.0481 -0.8337
 9325SOL    HW239435   3.375   1.502   8.543  2.7072  0.0446  2.1202
 9326SOL     OW39436   2.912   2.038   4.144 -0.7887  0.1939  0.6228
 9326SOL    HW139437   2.892   1.959   4.094  0.2672  0.7938 -0.7724
 9326SOL    HW239438   3.002   2.026   4.176 -1.1093  0.5889  1.6699
 9327SOL     OW39439   0.120   1.885   8.644 -0.5488  0.5908  0.1460
 9327SOL    HW139440   0.114   1.970   8.688 -0.4288 -0.3270  1.9559
 9327SOL    HW239441   0.196   1.905   8.589  1.4665 -1.4443  2.2113
 9328SOL     OW39442   1.570   4.269   5.691 -0.1415  0.1164  0.0943
 9328SOL    HW139443   1.622   4.325   5.748  0.3369 -1.4951  1.2461
 9328SOL    HW239444   1.519   4.338   5.648 -0.3842 -0.7691 -1.0384
 9329SOL     OW39445   4.501   1.542   1.610 -0.4628 -0.8777  0.4829
 9329SOL    HW139446   4.424   1.541   1.667 -3.1389  1.5061 -3.0460
 9329SOL    HW239447   4.474   1.506   1.525 -0.5895  3.8992 -1.5124
 9330SOL     OW39448   4.040   1.239   5.068 -0.1360 -0.1848  0.7654
 9330SOL    HW139449   4.014   1.193   4.989 -1.5174  0.3999  0.8757
 9330SOL    HW239450   3.963   1.292   5.084 -0.4225 -0.4851  0.3723
 9331SOL     OW39451   0.192   2.212   6.946 -0.0249 -0.2985  0.2293
 9331SOL    HW139452   0.122   2.160   6.906 -0.2919 -0.7803  1.3125
 9331SOL    HW239453   0.164   2.202   7.037 -0.6993  0.6386  0.1255
 9332SOL     OW39454   4.572   3.644  16.139 -0.1200 -0.5621  0.0525
 9332SOL    HW139455   4.521   3.712  16.183  0.4035 -1.0181  1.3649
 9332SOL    HW239456   4.660   3.677  16.118 -0.8438  1.2219 -0.1534
 9333SOL     OW39457   2.064   1.916  16.765 -0.2337  0.4286  0.4049
 9333SOL    HW139458   1.990   1.859  16.742 -0.6568  0.0989  2.5932
 9333SOL    HW239459   2.036   1.940  16.854 -1.2207  0.1571  0.1666
 9334SOL     OW39460   3.877   1.244   5.799  0.0901 -0.0180 -0.4598
 9334SOL    HW139461   3.803   1.250   5.739 -1.4969 -1.8228  1.2785
 9334SOL    HW239462   3.846   1.172   5.855  1.3577 -0.6664 -0.5973
 9335SOL     OW39463   4.621   3.463   4.406 -0.3896 -0.6283 -0.3544
 9335SOL    HW139464   4.533   3.490   4.381 -0.3021  2.3498  2.5914
 9335SOL    HW239465   4.681   3.528   4.371  0.3377  0.4276  2.8447
 9336SOL     OW39466   1.706   0.099   7.907  0.2653 -0.0544  0.2850
 9336SOL    HW139467   1.724   0.188   7.877  1.3326 -1.2437 -2.6033
 9336SOL    HW239468   1.679   0.122   7.996 -1.3231  3.7242 -1.1946
 9337SOL     OW39469   2.841   1.409   9.310  0.5018 -0.3379  0.1414
 9337SOL    HW139470   2.869   1.449   9.393 -1.8757  4.5874 -1.4685
 9337SOL    HW239471   2.790   1.475   9.263  0.6982  0.4823  1.0629
 9338SOL     OW39472   2.102   1.437  13.310  0.6007  0.3304 -0.2632
 9338SOL    HW139473   2.007   1.432  13.319  0.7262 -0.5036  0.6117
 9338SOL    HW239474   2.119   1.367  13.246 -3.3188 -0.5846 -0.2942
 9339SOL     OW39475   4.294   2.317   4.289  0.6112  0.4099 -0.0183
 9339SOL    HW139476   4.302   2.412   4.298 -0.2567  0.5998 -1.1923
 9339SOL    HW239477   4.354   2.297   4.361  0.3820  2.0218  0.6143
 9340SOL     OW39478   0.070   1.813   5.446 -0.0068 -0.1658  0.3498
 9340SOL    HW139479   0.051   1.856   5.529  0.0231 -2.0693  1.3478
 9340SOL    HW239480   4.709   1.770   5.431  0.9412 -1.7584 -0.5097
 9341SOL     OW39481   0.615   2.758  15.258 -0.1403 -0.0960 -0.4059
 9341SOL    HW139482   0.556   2.794  15.192  2.7371  1.2334 -2.2366
 9341SOL    HW239483   0.701   2.757  15.216  0.9710  0.1406  1.8531
 9342SOL     OW39484   1.217   1.607   4.701  0.5255 -0.0499  0.1485
 9342SOL    HW139485   1.131   1.622   4.739  0.7965  1.9869 -0.0505
 9342SOL    HW239486   1.196   1.621   4.608  0.6771 -0.2009  0.0922
 9343SOL     OW39487   0.057   0.526   8.399  0.1608 -0.2976  0.1565
 9343SOL    HW139488   0.117   0.542   8.326  0.1005  1.2826  0.4655
 9343SOL    HW239489   4.719   0.472   8.349  1.7273 -1.0800 -0.9140
 9344SOL     OW39490   3.701   1.771   0.277  0.1537 -0.4053 -0.7338
 9344SOL    HW139491   3.635   1.738   0.337 -0.9761  0.4767 -1.4998
 9344SOL    HW239492   3.680   1.864   0.287 -2.5663 -0.8702 -2.3878
 9345SOL     OW39493   0.440   3.633   5.942 -0.2353  0.7190 -0.3743
 9345SOL    HW139494   0.530   3.632   5.910  0.3071 -0.5336  1.1873
 9345SOL    HW239495   0.440   3.720   5.984 -3.0934  0.1562  0.7759
 9346SOL     OW39496   0.187   1.284  16.228 -0.3329  0.4417  0.2275
 9346SOL    HW139497   0.153   1.324  16.308  0.6751  2.1916 -0.2341
 9346SOL    HW239498   0.279   1.298  16.249 -0.7946  2.5799  0.7701
 9347SOL     OW39499   0.762   3.429   5.608  0.1775 -0.2269 -0.0181
 9347SOL    HW139500   0.845   3.382   5.616  0.4138  0.5139  2.1056
 9347SOL    HW239501   0.791   3.517   5.583 -1.2201  0.8380  2.1218
 9348SOL     OW39502   3.982   4.540   6.046  0.3560 -0.1937  0.0195
 9348SOL    HW139503   3.994   4.527   5.952  2.7017 -0.0068  0.2920
 9348SOL    HW239504   3.886   4.540   6.051  0.4393  0.1946  1.6698
 9349SOL     OW39505   0.047   1.395  11.689 -0.0888  0.1552  0.5204
 9349SOL    HW139506   0.053   1.391  11.784 -0.3274 -0.0931  0.5241
 9349SOL    HW239507   0.054   1.488  11.668  0.4800  0.0132  0.0760
 9350SOL     OW39508   1.741   1.679   1.671 -0.6343  0.0014 -0.5524
 9350SOL    HW139509   1.702   1.766   1.664 -0.0944  0.5401  2.8402
 9350SOL    HW239510   1.659   1.629   1.675  0.3853 -1.5675  0.5839
 9351SOL     OW39511   2.831   2.329   7.436  0.0216 -0.3594 -0.1580
 9351SOL    HW139512   2.749   2.284   7.415  0.0546 -1.1374  1.3307
 9351SOL    HW239513   2.817   2.333   7.531  0.5406 -1.3606 -0.0380
 9352SOL     OW39514   1.390   2.839   0.257  0.1676  0.2130  0.1854
 9352SOL    HW139515   1.412   2.780   0.184  2.0540  1.4902 -0.2587
 9352SOL    HW239516   1.296   2.819   0.250  0.0754 -1.4316  6.0236
 9353SOL     OW39517   1.271   0.212   3.736 -0.1730  0.1059  0.0335
 9353SOL    HW139518   1.277   0.119   3.758 -0.0387  0.3257  0.9326
 9353SOL    HW239519   1.198   0.213   3.674 -0.3536  2.0703  0.2816
 9354SOL     OW39520   2.474   3.633   8.728 -0.3325 -0.2783 -0.0979
 9354SOL    HW139521   2.500   3.696   8.796  1.0022 -0.0564 -0.8112
 9354SOL    HW239522   2.441   3.558   8.778  1.3240  0.2740  1.8356
 9355SOL     OW39523   2.949   1.670   1.711  0.1910 -0.0103  0.1548
 9355SOL    HW139524   2.962   1.746   1.768  2.2273 -0.1654 -0.0864
 9355SOL    HW239525   2.988   1.698   1.628  4.3376 -2.3673  1.2850
 9356SOL     OW39526   2.224   4.178   2.617  0.2040  0.5084 -0.3412
 9356SOL    HW139527   2.197   4.262   2.653  0.5685  0.2938  0.4557
 9356SOL    HW239528   2.139   4.140   2.596 -0.3073  1.3001  0.3207
 9357SOL     OW39529   2.193   4.681   4.075 -0.0556  0.9091  0.2474
 9357SOL    HW139530   2.244   0.010   4.013  0.3027  2.1593  1.6008
 9357SOL    HW239531   2.147   0.033   4.110 -0.7524  1.3594 -1.6758
 9358SOL     OW39532   3.395   1.090  13.798  0.0770  0.1251 -0.1298
 9358SOL    HW139533   3.409   0.996  13.783  1.3160  0.3845 -0.5634
 9358SOL    HW239534   3.488   1.114  13.795  0.0751  0.6503  4.0484
 9359SOL     OW39535   0.167   3.946   7.115  0.1034 -0.5460  0.1684
 9359SOL    HW139536   0.202   4.034   7.099 -1.4710  0.0084 -0.2841
 9359SOL    HW239537   0.188   3.937   7.207  0.0997 -2.1001  0.0156
 9360SOL     OW39538   2.852   1.444  13.520 -0.4592  0.3080  0.2222
 9360SOL    HW139539   2.789   1.515  13.512 -0.8674 -0.0297  0.3866
 9360SOL    HW239540   2.939   1.479  13.537  0.3920 -1.5382 -0.2414
 9361SOL     OW39541   1.131   2.556  10.249  0.1024 -0.3398 -0.3385
 9361SOL    HW139542   1.070   2.532  10.180  1.1863  0.6671 -1.6533
 9361SOL    HW239543   1.179   2.473  10.251 -0.9571 -0.9201  0.4609
 9362SOL     OW39544   2.141   1.669   6.281  0.0001 -0.4528  0.0938
 9362SOL    HW139545   2.211   1.629   6.229  0.4850 -1.0905  1.2533
 9362SOL    HW239546   2.109   1.600   6.338 -0.0255 -0.2869  0.2818
 9363SOL     OW39547   4.541   2.812   9.365 -0.1049 -0.2485  0.1526
 9363SOL    HW139548   4.599   2.742   9.335 -0.4569 -0.0079 -1.0788
 9363SOL    HW239549   4.518   2.858   9.284 -0.7087 -0.7667  0.0325
 9364SOL     OW39550   1.555   2.797  11.795 -0.3815 -0.1581  0.2669
 9364SOL    HW139551   1.509   2.740  11.734  0.4889 -1.6602  1.0165
 9364SOL    HW239552   1.646   2.779  11.771 -0.3659 -1.1285  1.0284
 9365SOL     OW39553   3.980   2.172   6.105 -0.0941  0.1492  0.7121
 9365SOL    HW139554   3.891   2.200   6.084 -0.3206 -2.0481 -1.2502
 9365SOL    HW239555   4.030   2.253   6.095  0.3071  0.0344  1.8682
 9366SOL     OW39556   4.536   0.971   2.245  0.5119 -0.1735 -0.0854
 9366SOL    HW139557   4.603   0.990   2.179  0.6998 -0.5631 -0.0030
 9366SOL    HW239558   4.477   0.919   2.191 -0.5702  0.8041  0.1520
 9367SOL     OW39559   3.198   0.596  16.031 -0.5408  0.3299 -0.3789
 9367SOL    HW139560   3.184   0.621  15.939 -0.4259 -0.8225 -0.7059
 9367SOL    HW239561   3.245   0.673  16.065  1.6070  0.0819 -2.7089
 9368SOL     OW39562   2.067   1.335   8.389 -0.6506  0.0926 -0.3374
 9368SOL    HW139563   2.135   1.280   8.428 -2.0658  0.4517  2.6738
 9368SOL    HW239564   2.100   1.345   8.300  2.1382 -0.9739  0.5762
 9369SOL     OW39565   2.448   0.531  16.191 -0.1906 -0.7622 -0.5912
 9369SOL    HW139566   2.415   0.511  16.103  0.4057  0.3356 -1.0602
 9369SOL    HW239567   2.505   0.456  16.205  0.6253 -0.3025 -1.4620
 9370SOL     OW39568   0.849   4.276   6.611 -0.4893 -0.0725 -0.1330
 9370SOL    HW139569   0.825   4.288   6.519 -0.3875 -1.2569 -0.3186
 9370SOL    HW239570   0.869   4.368   6.629 -1.8525  0.3124 -0.5748
 9371SOL     OW39571   4.041   2.032   4.822  0.0862  0.1868 -0.3701
 9371SOL    HW139572   4.077   2.068   4.904  0.4510 -0.0520 -0.4224
 9371SOL    HW239573   3.947   2.024   4.834  0.0835 -0.2703 -0.6957
 9372SOL     OW39574   2.160   3.747  11.030  0.6764 -0.2348  0.2865
 9372SOL    HW139575   2.231   3.718  10.973  0.5237  1.0938 -0.5816
 9372SOL    HW239576   2.084   3.703  10.991  0.1579  0.5503  0.4126
 9373SOL     OW39577   1.327   4.380   9.019 -0.6236 -0.7535 -0.3968
 9373SOL    HW139578   1.245   4.398   9.064 -0.1318 -0.2459  0.2969
 9373SOL    HW239579   1.341   4.288   9.043  0.4846 -0.5361 -0.2068
 9374SOL     OW39580   4.127   2.869   2.071 -0.5336 -0.4220 -0.4236
 9374SOL    HW139581   4.166   2.956   2.079 -0.0236 -0.6647 -0.2820
 9374SOL    HW239582   4.204   2.815   2.089 -0.1437  1.4313  3.4332
 9375SOL     OW39583   2.858   1.942   8.157  0.2273 -0.1782 -0.1451
 9375SOL    HW139584   2.846   1.881   8.084 -1.8706 -0.4633  0.4331
 9375SOL    HW239585   2.936   1.993   8.137 -0.6982  1.8771  1.6066
 9376SOL     OW39586   2.691   4.387   1.306 -0.2409  0.3086  0.4767
 9376SOL    HW139587   2.606   4.361   1.340 -1.0779  1.3826 -0.8072
 9376SOL    HW239588   2.680   4.424   1.219  0.0156 -0.9594 -0.0921
 9377SOL     OW39589   0.143   0.155   7.639 -0.3460 -0.0477  0.0341
 9377SOL    HW139590   0.213   0.091   7.653 -0.1245  0.4010  0.9371
 9377SOL    HW239591   0.150   0.215   7.713  1.0460 -0.5894  0.3335
 9378SOL     OW39592   3.727   3.363   7.899  0.1178 -0.1563 -0.3643
 9378SOL    HW139593   3.790   3.436   7.903 -1.3495  0.8505  4.0059
 9378SOL    HW239594   3.771   3.313   7.968 -0.0470 -1.3962 -1.1637
 9379SOL     OW39595   3.426   2.183  16.046  0.2239  0.2343  0.4355
 9379SOL    HW139596   3.366   2.241  15.998  1.7687  1.9689  0.6204
 9379SOL    HW239597   3.396   2.199  16.135  0.5471 -1.4918  0.8577
 9380SOL     OW39598   1.018   3.325   6.946 -0.0742  0.1926 -0.4523
 9380SOL    HW139599   1.091   3.357   6.893  0.0588  1.8025  0.7139
 9380SOL    HW239600   1.049   3.239   6.975 -1.5487 -0.4366 -0.7603
 9381SOL     OW39601   4.020   3.873  14.173 -0.0223 -0.4885  0.0524
 9381SOL    HW139602   4.062   3.959  14.179  0.2267 -0.6933  1.2202
 9381SOL    HW239603   3.945   3.886  14.115  1.7837  3.6004 -1.3941
 9382SOL     OW39604   3.007   2.547   5.525 -0.1561  0.3734 -0.4906
 9382SOL    HW139605   3.057   2.505   5.594 -0.1209 -2.1680 -2.0383
 9382SOL    HW239606   3.044   2.633   5.543 -1.6345  0.4509  2.1598
 9383SOL     OW39607   3.141   4.532   4.386  0.0681 -0.0997 -0.0864
 9383SOL    HW139608   3.126   4.447   4.344  1.2817 -0.1856 -0.3523
 9383SOL    HW239609   3.061   4.584   4.382  1.0654  1.3542 -1.8338
 9384SOL     OW39610   3.879   4.701   2.514  0.4112 -1.0480  0.3740
 9384SOL    HW139611   3.827   4.631   2.474 -2.5541  2.2138 -1.4848
 9384SOL    HW239612   3.814   0.047   2.523  1.3094  0.0153 -1.3152
 9385SOL     OW39613   1.719   4.387   7.525 -0.3189  0.3403  0.1797
 9385SOL    HW139614   1.707   4.472   7.568 -0.9754  0.4002 -0.1265
 9385SOL    HW239615   1.732   4.409   7.432 -0.0182  0.7880  0.3245
 9386SOL     OW39616   3.961   4.372   7.482  0.6663  0.1050  0.2338
 9386SOL    HW139617   4.051   4.381   7.513  1.0900  0.6591 -1.1762
 9386SOL    HW239618   3.957   4.434   7.409  0.4447  0.0534  0.2034
 9387SOL     OW39619   0.975   0.249   1.967  0.4128 -0.1312  0.1647
 9387SOL    HW139620   1.015   0.276   2.049  2.0460  0.9704 -0.9942
 9387SOL    HW239621   1.006   0.314   1.904 -0.2906  0.4062  0.3909
 9388SOL     OW39622   3.757   4.513   9.859 -0.6353  0.2811  0.1918
 9388SOL    HW139623   3.821   4.570   9.903 -0.7524  0.1930  0.4711
 9388SOL    HW239624   3.680   4.550   9.903 -0.0447 -0.0044  1.4707
 9389SOL     OW39625   2.851   0.514   1.396 -0.3310 -0.3786 -0.0162
 9389SOL    HW139626   2.761   0.511   1.431 -0.2846 -2.6267 -0.0855
 9389SOL    HW239627   2.842   0.552   1.309 -1.3425  0.2182  0.3419
 9390SOL     OW39628   4.025   2.843   2.689  0.5660 -0.0171 -0.0299
 9390SOL    HW139629   4.042   2.856   2.596 -1.1590  3.7778  0.1913
 9390SOL    HW239630   4.089   2.775   2.711  1.8441  0.8792 -0.9896
 9391SOL     OW39631   2.322   2.936   8.173  0.2910 -0.7071  0.2208
 9391SOL    HW139632   2.360   2.917   8.259  1.2660 -1.0172 -0.2692
 9391SOL    HW239633   2.397   2.986   8.139 -1.1777  0.2416 -1.6233
 9392SOL     OW39634   0.720   1.665   6.670  0.1435 -0.1106  0.1781
 9392SOL    HW139635   0.664   1.743   6.665  0.4062 -0.0182 -1.5488
 9392SOL    HW239636   0.756   1.676   6.757 -1.7670  2.4350  0.6772
 9393SOL     OW39637   3.912   0.842  12.098 -0.0395 -0.2304 -0.8294
 9393SOL    HW139638   3.864   0.832  12.017  1.0618 -0.0815 -1.5044
 9393SOL    HW239639   3.975   0.770  12.093  1.3773  0.7141  3.3310
 9394SOL     OW39640   1.206   3.698  12.436  0.1371 -0.0099  0.1355
 9394SOL    HW139641   1.200   3.719  12.343  0.3757 -1.4201 -0.1934
 9394SOL    HW239642   1.177   3.607  12.439  0.4013 -0.0705  0.9904
 9395SOL     OW39643   3.572   2.032  13.206  0.3929  0.0610  0.7873
 9395SOL    HW139644   3.643   2.025  13.142  0.7394  2.1697  0.9240
 9395SOL    HW239645   3.570   1.942  13.237  1.4492 -0.0458  0.5584
 9396SOL     OW39646   2.185   3.770   5.795  0.5336 -0.6718 -0.1237
 9396SOL    HW139647   2.125   3.799   5.864  0.0938 -2.8541  0.4045
 9396SOL    HW239648   2.123   3.731   5.734 -2.2021 -1.7314  3.2932
 9397SOL     OW39649   0.811   3.508   4.997 -0.4242 -0.2501  0.1880
 9397SOL    HW139650   0.880   3.443   4.984 -0.1810 -0.2630  1.4876
 9397SOL    HW239651   0.859   3.582   4.959  1.2689 -0.6911  1.4349
 9398SOL     OW39652   4.494   3.039   5.101  0.3143  0.0518 -0.3775
 9398SOL    HW139653   4.493   2.955   5.056 -2.6725  0.2005 -0.6199
 9398SOL    HW239654   4.540   3.088   5.034  2.8262  0.2368  1.4749
 9399SOL     OW39655   0.728   3.352   5.354  0.0074 -0.4099  0.0145
 9399SOL    HW139656   0.724   3.373   5.447  1.3078 -1.5017  0.3199
 9399SOL    HW239657   0.818   3.318   5.353  0.3415  0.4845 -0.5734
 9400SOL     OW39658   0.403   0.767   3.095 -0.5189  0.0697 -0.1786
 9400SOL    HW139659   0.434   0.826   3.163 -2.1286  0.6749  0.0413
 9400SOL    HW239660   0.309   0.785   3.096 -0.4465  0.4457 -0.1741
 9401SOL     OW39661   2.043   0.176   4.124 -0.5392 -0.4063 -0.2330
 9401SOL    HW139662   2.056   0.243   4.057  2.2537  2.4295  3.0880
 9401SOL    HW239663   2.013   0.224   4.201 -1.1505 -0.1854 -0.6132
 9402SOL     OW39664   0.510   0.634   0.858 -0.1997 -0.6326 -1.1404
 9402SOL    HW139665   0.544   0.555   0.816 -0.0766  0.5599 -3.2806
 9402SOL    HW239666   0.520   0.691   0.782  1.1187  1.0442  0.2919
 9403SOL     OW39667   0.283   0.532   9.033 -0.1470 -0.1604 -0.0023
 9403SOL    HW139668   0.349   0.474   9.068  2.3313  3.9459  2.1098
 9403SOL    HW239669   0.211   0.470   9.022  0.4175 -1.0705  1.5082
 9404SOL     OW39670   2.221   4.227   6.271  0.4035  0.0209 -0.0994
 9404SOL    HW139671   2.162   4.182   6.210  0.8279 -0.7005  0.0141
 9404SOL    HW239672   2.190   4.186   6.352 -0.3433  1.5066  0.3551
 9405SOL     OW39673   0.799   1.717   4.532  0.1646 -0.5932 -0.2356
 9405SOL    HW139674   0.717   1.732   4.579  0.1635  1.0477 -0.7553
 9405SOL    HW239675   0.771   1.688   4.445  1.0846 -0.4521 -0.5907
 9406SOL     OW39676   4.678   2.463   0.233 -1.2124 -0.0026 -0.2584
 9406SOL    HW139677   0.003   2.417   0.165  1.3056  2.8687 -0.4122
 9406SOL    HW239678   0.029   2.484   0.289 -1.6517  0.6374  0.0915
 9407SOL     OW39679   1.529   2.169   8.321 -0.2466 -0.0428 -0.0688
 9407SOL    HW139680   1.478   2.246   8.296  0.8424  0.4646 -0.7194
 9407SOL    HW239681   1.593   2.200   8.385  1.6248  0.8708 -2.3489
 9408SOL     OW39682   0.305   1.665   4.730  0.4769  0.4919  0.1569
 9408SOL    HW139683   0.293   1.755   4.761  0.3128  1.5089 -2.8222
 9408SOL    HW239684   0.267   1.612   4.800 -1.3937  0.1286 -1.1293
 9409SOL     OW39685   1.615   1.058   5.259  0.4223 -0.4206  0.8448
 9409SOL    HW139686   1.639   0.979   5.308  3.3331  0.2291  0.4637
 9409SOL    HW239687   1.696   1.102   5.234  1.2603 -2.0472  0.7048
 9410SOL     OW39688   1.381   1.038   1.997 -0.1331  0.7490  0.3909
 9410SOL    HW139689   1.419   0.958   1.962 -2.0988  0.0097 -0.0894
 9410SOL    HW239690   1.388   1.035   2.092 -0.7563  1.1161  0.4514
 9411SOL     OW39691   0.827   2.106  12.257 -0.1957 -0.5600 -0.2395
 9411SOL    HW139692   0.912   2.082  12.293  0.3019 -0.6285 -1.4612
 9411SOL    HW239693   0.813   2.195  12.291  0.6647 -0.5102 -0.0099
 9412SOL     OW39694   3.442   3.274   4.697 -0.2472 -0.2272  0.1347
 9412SOL    HW139695   3.502   3.212   4.738  1.6471  2.4530  1.3914
 9412SOL    HW239696   3.476   3.281   4.607 -2.1841  0.6229 -0.5387
 9413SOL     OW39697   1.952   2.820   3.520  0.1403  0.1573  0.5726
 9413SOL    HW139698   2.020   2.766   3.480  0.1632  1.1530 -0.7384
 9413SOL    HW239699   1.908   2.852   3.441 -1.6855 -0.8112  1.2045
 9414SOL     OW39700   0.316   3.312   7.208 -0.3196 -0.3343  0.2155
 9414SOL    HW139701   0.370   3.237   7.185  1.5880  0.6442  1.5640
 9414SOL    HW239702   0.300   3.305   7.302  2.8786 -2.5075  0.5610
 9415SOL     OW39703   3.498   2.715   7.654  0.0416  0.5322 -0.3949
 9415SOL    HW139704   3.469   2.643   7.598 -0.8278  0.0656  0.6585
 9415SOL    HW239705   3.575   2.742   7.605  2.2142 -1.4120  1.9520
 9416SOL     OW39706   1.532   0.809   7.679  0.3802 -0.0838  0.0426
 9416SOL    HW139707   1.506   0.762   7.600  1.3298 -0.2204 -0.1903
 9416SOL    HW239708   1.450   0.815   7.729  0.2407 -2.4592  0.0810
 9417SOL     OW39709   1.746   3.296   5.191 -0.3421  0.3432  0.4366
 9417SOL    HW139710   1.841   3.288   5.193 -0.2646  0.8708 -1.5405
 9417SOL    HW239711   1.731   3.307   5.285 -1.4726  0.4768  0.2429
 9418SOL     OW39712   0.477   4.704   7.356  0.4504 -0.0926  0.2146
 9418SOL    HW139713   0.572   4.716   7.351  0.6780 -2.5498 -1.3936
 9418SOL    HW239714   0.458   4.690   7.264 -1.0550 -1.8407  0.7943
 9419SOL     OW39715   0.870   1.516   7.295 -0.2030  0.4018  0.1014
 9419SOL    HW139716   0.802   1.545   7.235 -0.1795  0.1020 -0.0729
 9419SOL    HW239717   0.840   1.560   7.374 -0.1473  2.1939 -0.8945
 9420SOL     OW39718   3.399   3.667   6.844 -0.4753  0.0119  0.0752
 9420SOL    HW139719   3.492   3.645   6.850  0.0777  1.7708 -1.9910
 9420SOL    HW239720   3.368   3.675   6.934  1.8638 -3.1985  1.1688
 9421SOL     OW39721   2.108   2.172   6.991  0.3782 -0.1888 -0.1815
 9421SOL    HW139722   2.185   2.122   6.964 -0.1375  0.3362 -2.6917
 9421SOL    HW239723   2.129   2.258   6.954  1.0949  0.4452  1.7252
 9422SOL     OW39724   1.882   1.158   8.128  0.2041  0.3481 -0.4684
 9422SOL    HW139725   1.938   1.236   8.130  1.1418 -0.3056 -1.2720
 9422SOL    HW239726   1.830   1.158   8.208  0.6660 -1.4662 -0.1771
 9423SOL     OW39727   1.042   0.910   8.376 -0.5812  0.1132 -0.5548
 9423SOL    HW139728   0.991   0.988   8.355 -0.8615 -0.7971 -3.1667
 9423SOL    HW239729   1.122   0.941   8.419 -0.7966 -0.9806  0.6302
 9424SOL     OW39730   4.269   1.599   3.328 -0.0454  0.3363 -0.6547
 9424SOL    HW139731   4.178   1.622   3.306 -0.8519 -2.1670  0.1488
 9424SOL    HW239732   4.300   1.558   3.247 -0.8830  0.1184 -0.8710
 9425SOL     OW39733   3.637   2.082   7.067  0.1629  0.6989 -0.1630
 9425SOL    HW139734   3.637   2.148   6.998  0.3973  0.9546  0.0825
 9425SOL    HW239735   3.658   2.126   7.150  1.8537 -1.7274  0.6928
 9426SOL     OW39736   0.960   1.734   1.677 -0.5480  0.2142 -0.3465
 9426SOL    HW139737   0.886   1.719   1.619  1.9551  0.4658 -3.6142
 9426SOL    HW239738   0.968   1.829   1.670 -0.3601  0.2527  0.4272
 9427SOL     OW39739   1.979   1.667  13.582  0.0551 -0.2866 -0.2318
 9427SOL    HW139740   1.907   1.662  13.646  0.1204  0.9780 -0.0618
 9427SOL    HW239741   2.007   1.757  13.569 -0.3787  0.1428  1.8059
 9428SOL     OW39742   4.534   3.425   4.058  0.1477  0.6371  0.0283
 9428SOL    HW139743   4.470   3.474   4.110 -0.5370 -0.6424  0.3958
 9428SOL    HW239744   4.566   3.492   3.998  1.4210 -1.3843 -1.5310
 9429SOL     OW39745   3.749   4.163   0.354  0.3343  0.2624  0.3653
 9429SOL    HW139746   3.805   4.149   0.277  3.3098  2.0907  2.2325
 9429SOL    HW239747   3.676   4.105   0.331 -1.1564  2.1423  0.3505
 9430SOL     OW39748   4.050   1.817   9.187  0.1489 -0.1690  0.8179
 9430SOL    HW139749   4.000   1.882   9.236  1.1332 -0.3928  2.1532
 9430SOL    HW239750   4.122   1.862   9.144  0.1008 -0.3053  0.5949
 9431SOL     OW39751   1.097   3.455  12.673  0.3061  0.2566 -0.1482
 9431SOL    HW139752   1.070   3.398  12.745  0.8773 -0.7359 -0.7313
 9431SOL    HW239753   1.115   3.534  12.723  0.7729 -1.3285  2.2109
 9432SOL     OW39754   3.317   1.602   2.209  0.4309  0.1346 -0.2219
 9432SOL    HW139755   3.301   1.509   2.191  1.6914 -0.1589  0.1458
 9432SOL    HW239756   3.279   1.629   2.126  0.9500  2.0802  0.1786
 9433SOL     OW39757   2.062   4.307   9.855 -0.1677  0.1539  0.4075
 9433SOL    HW139758   2.092   4.367   9.787 -1.6581  1.3558  0.7949
 9433SOL    HW239759   2.146   4.298   9.900 -0.2344 -1.3416  0.2413
 9434SOL     OW39760   2.569   2.664  17.616  0.2114  0.4609 -0.4129
 9434SOL    HW139761   2.656   2.668  17.657  0.6674  1.4457 -1.4875
 9434SOL    HW239762   2.514   2.659  17.694  1.7161  1.8207  0.7528
 9435SOL     OW39763   3.833   1.622   7.039  0.5111  0.6741 -0.1299
 9435SOL    HW139764   3.795   1.707   7.014 -1.1504  0.3952  1.3929
 9435SOL    HW239765   3.746   1.584   7.053  0.3712  1.2208  0.4897
 9436SOL     OW39766   4.692   0.289   7.024  0.1663  0.3239  0.0947
 9436SOL    HW139767   4.706   0.326   7.112 -2.1298 -1.2678  1.1157
 9436SOL    HW239768   4.602   0.261   7.038 -0.7609  2.2875 -2.0776
 9437SOL     OW39769   4.435   1.196  10.359  0.3127 -0.5634 -0.1155
 9437SOL    HW139770   4.445   1.178  10.266 -2.9172  0.9016 -0.7614
 9437SOL    HW239771   4.351   1.241  10.351  0.1918 -0.2832  2.7261
 9438SOL     OW39772   2.731   1.261   0.214  0.3254 -0.1983  0.2867
 9438SOL    HW139773   2.747   1.279   0.121  1.3910 -0.2767  0.4543
 9438SOL    HW239774   2.677   1.338   0.233  0.0585 -0.3700  0.2297
 9439SOL     OW39775   1.689   2.804   3.660  0.8741  0.2598 -0.3462
 9439SOL    HW139776   1.772   2.791   3.615  2.1718  0.4716  1.9882
 9439SOL    HW239777   1.625   2.766   3.600  0.7733 -0.5646  0.2873
 9440SOL     OW39778   4.144   0.594   2.738  0.1745 -0.0350 -0.1826
 9440SOL    HW139779   4.187   0.527   2.685 -0.5855 -1.7094  1.3471
 9440SOL    HW239780   4.177   0.579   2.826 -0.5378 -0.8064 -0.0521
 9441SOL     OW39781   1.766   3.557   8.216  0.2086 -0.3039  0.1229
 9441SOL    HW139782   1.722   3.614   8.153  1.7749  1.7123  0.8754
 9441SOL    HW239783   1.741   3.471   8.182 -0.8994  0.0107  0.1459
 9442SOL     OW39784   1.623   2.870   8.913  0.6703 -0.7852  0.1401
 9442SOL    HW139785   1.639   2.959   8.947 -2.1610  0.1170 -0.9193
 9442SOL    HW239786   1.532   2.859   8.942  0.2176 -1.4658 -1.5729
 9443SOL     OW39787   2.043   0.361   4.547  0.5341  0.9357  0.1523
 9443SOL    HW139788   2.023   0.448   4.582 -2.1596  0.2580  0.2288
 9443SOL    HW239789   2.127   0.343   4.590 -0.1239 -0.8125  0.7071
 9444SOL     OW39790   2.710   0.063  16.282 -0.5918 -0.7418  0.2549
 9444SOL    HW139791   2.781   0.004  16.261 -0.1222  0.1528 -0.6366
 9444SOL    HW239792   2.714   0.054  16.378 -0.5773  0.8885  0.4098
 9445SOL     OW39793   1.101   1.042   9.895 -0.0878 -0.2666 -0.0145
 9445SOL    HW139794   1.050   0.968   9.862  0.7347  0.0613 -1.9585
 9445SOL    HW239795   1.167   0.985   9.935 -0.9835  0.8359  3.0690
 9446SOL     OW39796   1.116   0.299   1.207 -0.0428  0.3747  0.1857
 9446SOL    HW139797   1.172   0.370   1.240 -0.9180  1.1072  0.0876
 9446SOL    HW239798   1.165   0.275   1.129 -0.9883  0.6730 -0.4979
 9447SOL     OW39799   4.346   3.938  15.805 -0.4275  0.2957  0.0768
 9447SOL    HW139800   4.269   3.895  15.768  0.4818 -1.2032 -0.1051
 9447SOL    HW239801   4.417   3.906  15.750  0.1625  2.9498 -0.7105
 9448SOL     OW39802   0.725   1.716   2.518 -0.4947 -0.3603 -0.2506
 9448SOL    HW139803   0.745   1.801   2.557  0.0653 -0.9206  0.6981
 9448SOL    HW239804   0.724   1.661   2.597  0.1883  2.3066  1.6283
 9449SOL     OW39805   4.571   2.047  16.435 -0.3322 -0.0434 -0.0867
 9449SOL    HW139806   4.484   2.010  16.450  0.6688 -2.3970 -0.0799
 9449SOL    HW239807   4.567   2.125  16.490 -0.4003 -1.0855  1.3882
 9450SOL     OW39808   2.547   0.067   4.626 -0.0264 -0.5941 -0.6800
 9450SOL    HW139809   2.601   4.721   4.588  0.7577  0.7356 -1.9910
 9450SOL    HW239810   2.491   0.014   4.682 -0.5146  1.3212  0.6408
 9451SOL     OW39811   0.653   4.202   5.139  0.6657 -0.1715  0.2500
 9451SOL    HW139812   0.571   4.178   5.096  0.9406  0.8197 -0.8174
 9451SOL    HW239813   0.619   4.277   5.187 -0.9453  0.2483 -1.5802
 9452SOL     OW39814   1.701   3.595   8.487 -0.7035 -0.1492  0.8756
 9452SOL    HW139815   1.699   3.690   8.488  0.0828 -0.1216 -0.0619
 9452SOL    HW239816   1.730   3.584   8.396  1.7216 -1.5591  1.8033
 9453SOL     OW39817   1.360   3.370   3.993 -0.5066 -0.4517 -0.3365
 9453SOL    HW139818   1.439   3.354   3.942 -0.9493 -2.8124 -0.2710
 9453SOL    HW239819   1.372   3.361   4.087  0.4531 -0.3541 -0.4488
 9454SOL     OW39820   1.643   3.183   2.774  1.7468 -0.4842 -0.2735
 9454SOL    HW139821   1.629   3.272   2.806  0.8728 -0.1579 -1.5482
 9454SOL    HW239822   1.682   3.186   2.686  0.5514  2.1548 -0.7199
 9455SOL     OW39823   4.705   2.733   2.857 -0.4680  0.4507 -0.2261
 9455SOL    HW139824   0.013   2.643   2.850 -0.8523  0.1825  1.5477
 9455SOL    HW239825   0.020   2.778   2.782 -0.3032  1.9028  0.7329
 9456SOL     OW39826   0.125   1.789   3.711 -0.3037  0.3069  0.3627
 9456SOL    HW139827   0.141   1.870   3.662 -1.6695  0.3837  0.0320
 9456SOL    HW239828   0.169   1.802   3.796 -0.4422  0.3760  0.4248
 9457SOL     OW39829   2.039   2.254   0.896 -0.0510  0.0677 -0.1765
 9457SOL    HW139830   2.008   2.293   0.815 -2.9042 -0.0911  0.8474
 9457SOL    HW239831   2.048   2.166   0.859 -1.6557 -0.5356  0.8821
 9458SOL     OW39832   4.647   4.649   7.051 -0.4997  0.0595 -0.1265
 9458SOL    HW139833   4.654   4.614   6.962  0.3882 -1.1426  0.4148
 9458SOL    HW239834   4.612   0.008   7.019  0.1051  0.7964  1.1220
 9459SOL     OW39835   3.481   3.622   8.380 -0.0341  0.1464 -0.2973
 9459SOL    HW139836   3.548   3.638   8.446  0.5342 -0.8925 -0.6200
 9459SOL    HW239837   3.401   3.595   8.424 -0.1772  0.5447 -0.3164
 9460SOL     OW39838   3.601   3.929   6.453  0.2260 -0.1403 -0.2879
 9460SOL    HW139839   3.625   3.890   6.537 -0.3402 -0.5835 -0.3370
 9460SOL    HW239840   3.529   3.876   6.419  1.4310 -3.0157  1.6474
 9461SOL     OW39841   2.831   1.941   6.731 -0.9694  0.3924  0.1027
 9461SOL    HW139842   2.814   1.848   6.720 -0.0164  0.4023 -1.3903
 9461SOL    HW239843   2.842   1.945   6.826 -0.8335 -1.0046  0.1354
 9462SOL     OW39844   3.155   0.463  11.688 -0.1353  0.2636 -0.3461
 9462SOL    HW139845   3.230   0.496  11.638 -2.4872  3.4566 -1.7651
 9462SOL    HW239846   3.196   0.402  11.750 -0.2320  0.4623 -0.0894
 9463SOL     OW39847   1.545   2.985   1.721 -0.5287  0.1463  0.0691
 9463SOL    HW139848   1.616   2.920   1.717 -0.6227  0.1748 -1.8769
 9463SOL    HW239849   1.482   2.945   1.661  1.6899  0.7682 -2.6840
 9464SOL     OW39850   1.346   2.529   5.667  0.2697 -0.3869  0.1668
 9464SOL    HW139851   1.414   2.593   5.686 -1.9296  1.9984  0.0407
 9464SOL    HW239852   1.300   2.567   5.592  2.7272 -0.3289 -1.3140
 9465SOL     OW39853   0.733   1.169   2.958 -0.4138 -0.0689  0.4051
 9465SOL    HW139854   0.687   1.206   2.883  0.2210  3.1829  1.6464
 9465SOL    HW239855   0.661   1.121   2.998 -1.0374 -0.4325 -1.1605
 9466SOL     OW39856   0.314   4.665   7.123  0.2369  0.2515  0.0531
 9466SOL    HW139857   0.253   4.648   7.195 -0.1967  1.4837 -0.0265
 9466SOL    HW239858   0.277   0.016   7.076 -0.6965 -0.8882 -1.0183
 9467SOL     OW39859   2.811   1.262   6.685 -0.4497 -0.2141  0.4861
 9467SOL    HW139860   2.808   1.232   6.776 -0.3337 -0.4826  0.4032
 9467SOL    HW239861   2.826   1.177   6.644  0.3593  0.0602  0.2202
 9468SOL     OW39862   1.909   1.882  13.345  0.4193  0.1325  0.0763
 9468SOL    HW139863   1.839   1.837  13.392  2.5977 -0.1778  3.0706
 9468SOL    HW239864   1.972   1.912  13.411  0.9848  1.4991 -1.0923
 9469SOL     OW39865   4.338   3.238   6.439 -0.2809 -0.1177 -0.3950
 9469SOL    HW139866   4.396   3.313   6.429  0.2314 -0.5549 -0.7590
 9469SOL    HW239867   4.287   3.271   6.512 -0.3900  0.4986 -0.7547
 9470SOL     OW39868   1.846   3.345   9.335  0.4638  0.4787  0.2725
 9470SOL    HW139869   1.790   3.400   9.390  0.2769  0.4263  0.1341
 9470SOL    HW239870   1.812   3.261   9.365  1.7165 -0.3322 -0.5787
 9471SOL     OW39871   1.028   4.229   2.240  0.1526 -0.2801 -0.1470
 9471SOL    HW139872   1.044   4.179   2.159  1.2599  0.9060 -0.6436
 9471SOL    HW239873   1.071   4.171   2.302  1.4376 -1.8443 -2.4849
 9472SOL     OW39874   0.967   2.799   1.597  0.4880 -0.1493  0.2980
 9472SOL    HW139875   1.061   2.802   1.612  0.7531 -2.7367 -0.9231
 9472SOL    HW239876   0.926   2.752   1.670 -0.7978  0.3808 -0.0732
 9473SOL     OW39877   2.155   3.119   2.952  0.5459  0.0341 -0.1964
 9473SOL    HW139878   2.084   3.152   2.897  0.8177  1.7851  0.5051
 9473SOL    HW239879   2.225   3.183   2.940  0.0760  0.4639 -0.6612
 9474SOL     OW39880   0.218   3.722   3.771 -0.4954  0.0468  0.4250
 9474SOL    HW139881   0.257   3.809   3.773  0.7915 -0.4842 -1.2093
 9474SOL    HW239882   0.151   3.734   3.704  0.5442 -0.9277 -0.7963
 9475SOL     OW39883   0.885   1.923  10.761 -0.0169  0.1486 -0.0832
 9475SOL    HW139884   0.910   1.940  10.852 -1.1916 -2.0376  0.6639
 9475SOL    HW239885   0.972   1.905  10.726 -0.6414 -0.8993 -1.0894
 9476SOL     OW39886   3.113   3.361   8.674 -0.0022  0.0356  0.4846
 9476SOL    HW139887   3.062   3.341   8.752 -3.6505  1.0136 -1.6412
 9476SOL    HW239888   3.074   3.296   8.616 -0.6296  1.2308 -0.4103
 9477SOL     OW39889   3.683   4.309  15.978  0.1900 -0.0691  0.3886
 9477SOL    HW139890   3.676   4.253  15.901 -0.6371  0.4247  0.1002
 9477SOL    HW239891   3.644   4.261  16.051  0.1409 -0.5025  0.0786
 9478SOL     OW39892   2.097   4.069  10.474  0.0312  0.2348 -0.6599
 9478SOL    HW139893   2.002   4.081  10.484  0.1677  0.6171  0.1334
 9478SOL    HW239894   2.114   4.088  10.382 -2.4864 -0.8322 -1.3709
 9479SOL     OW39895   4.310   2.432   5.540  0.3576  0.2829 -0.0618
 9479SOL    HW139896   4.274   2.407   5.455  0.6991  1.6431 -0.6130
 9479SOL    HW239897   4.267   2.517   5.536 -1.2668 -0.5173  0.3940
 9480SOL     OW39898   0.283   4.050  10.039  0.2269 -0.7169  0.5363
 9480SOL    HW139899   0.269   4.017  10.128 -0.6846 -2.0803 -0.1127
 9480SOL    HW239900   0.322   4.131  10.070  1.4265 -0.6086 -1.2537
 9481SOL     OW39901   1.081   3.798   1.827 -0.3151 -0.3888 -0.1248
 9481SOL    HW139902   1.068   3.879   1.779 -1.6963 -0.9601 -0.7178
 9481SOL    HW239903   1.151   3.746   1.787 -0.9821 -0.7624 -0.8069
 9482SOL     OW39904   1.434   3.654   8.545  0.1656  0.0874  0.7799
 9482SOL    HW139905   1.402   3.616   8.627  1.0808 -3.1912 -0.3893
 9482SOL    HW239906   1.522   3.618   8.542  0.3611  0.5412  1.1377
 9483SOL     OW39907   0.987   4.513   1.537 -0.5082 -0.1298  0.0547
 9483SOL    HW139908   0.954   4.427   1.512  0.2986 -0.0389 -1.3422
 9483SOL    HW239909   1.078   4.501   1.512 -0.2839  0.1011  0.7654
 9484SOL     OW39910   2.477   2.473   7.411 -0.3537  0.3253  0.0997
 9484SOL    HW139911   2.512   2.422   7.338 -1.8461  2.4145 -2.0610
 9484SOL    HW239912   2.548   2.528   7.444 -0.5437 -1.2941  3.1931
 9485SOL     OW39913   2.701   4.087  11.079  0.2893  0.0404  0.4668
 9485SOL    HW139914   2.753   4.010  11.103  0.8306 -0.0516 -0.9909
 9485SOL    HW239915   2.623   4.039  11.051 -0.4857  1.6486 -0.1183
 9486SOL     OW39916   0.664   0.104  13.593 -0.1046 -0.4471  0.5347
 9486SOL    HW139917   0.609   0.026  13.587 -1.4047  0.6458 -2.1643
 9486SOL    HW239918   0.745   0.056  13.576  0.4905  1.0252 -0.7764
 9487SOL     OW39919   4.314   0.610   6.856  0.0853 -0.0034 -0.3633
 9487SOL    HW139920   4.301   0.690   6.907 -0.0409 -0.0621 -0.3044
 9487SOL    HW239921   4.286   0.642   6.771  0.9951  1.0046 -0.2848
 9488SOL     OW39922   0.337   4.243   2.441  0.0059 -0.3850  0.0059
 9488SOL    HW139923   0.333   4.150   2.418  0.3288 -0.5325  0.5406
 9488SOL    HW239924   0.422   4.240   2.485  0.0078  2.2994  0.1688
 9489SOL     OW39925   1.312   1.994  10.664  0.2933  0.4445  0.0281
 9489SOL    HW139926   1.298   1.903  10.688  1.3976  0.1999 -0.2982
 9489SOL    HW239927   1.387   1.983  10.606  0.5875 -0.5188  0.5942
 9490SOL     OW39928   2.426   0.091   8.664  0.1774  0.2017  0.0007
 9490SOL    HW139929   2.482   0.168   8.672 -1.6100  1.5807 -0.5575
 9490SOL    HW239930   2.418   0.054   8.751 -1.2210  0.7754  0.1176
 9491SOL     OW39931   1.153   3.745   6.120  0.2573 -0.7230  0.0982
 9491SOL    HW139932   1.099   3.666   6.126  0.4221 -1.0896 -3.2984
 9491SOL    HW239933   1.115   3.795   6.193  1.9147 -1.3864  1.4125
 9492SOL     OW39934   3.212   4.041  11.523  0.2199 -0.1903 -0.1711
 9492SOL    HW139935   3.130   4.030  11.570  0.5526 -2.7988 -0.2049
 9492SOL    HW239936   3.215   3.962  11.469 -3.8378 -0.2358 -0.3289
 9493SOL     OW39937   2.607   2.071  11.187 -0.4227 -0.1640  0.0043
 9493SOL    HW139938   2.640   2.002  11.245 -1.2092 -1.0186 -0.5609
 9493SOL    HW239939   2.520   2.047  11.154 -0.9496 -0.2226  1.4206
 9494SOL     OW39940   2.503   3.584   0.049 -0.3516  0.3630 -0.4868
 9494SOL    HW139941   2.428   3.556  17.692 -0.7393  2.2959 -0.9490
 9494SOL    HW239942   2.506   3.679   0.038  0.2455  0.4021 -0.0086
 9495SOL     OW39943   3.499   2.703   1.907  0.7745 -0.1173 -0.1126
 9495SOL    HW139944   3.544   2.704   1.822  1.0628 -0.7116  0.0351
 9495SOL    HW239945   3.478   2.611   1.919 -0.2664  0.1064 -0.2667
 9496SOL     OW39946   2.640   1.816   6.492 -0.1186  0.2954  0.3672
 9496SOL    HW139947   2.605   1.898   6.527 -1.4119 -0.5380  1.0431
 9496SOL    HW239948   2.565   1.759   6.513 -0.9731  0.9915 -0.7393
 9497SOL     OW39949   2.191   3.730  11.512  0.7075  0.2245 -0.2061
 9497SOL    HW139950   2.226   3.771  11.432 -1.2161 -1.3615 -1.8773
 9497SOL    HW239951   2.157   3.650  11.473  1.6756 -1.1403  1.8057
 9498SOL     OW39952   3.468   0.953   6.239  0.1443  0.0355 -0.4024
 9498SOL    HW139953   3.554   0.914   6.258 -0.3695 -0.6545  0.4650
 9498SOL    HW239954   3.435   0.913   6.159 -1.1560 -1.3094  0.8044
 9499SOL     OW39955   0.278   3.910   2.136  0.3343  0.7232 -0.1737
 9499SOL    HW139956   0.335   3.925   2.060 -0.5098 -1.2992 -1.2068
 9499SOL    HW239957   0.200   3.957   2.105 -0.4150  0.8846  1.9874
 9500SOL     OW39958   2.448   4.339   6.825  0.0251  0.5347  0.0717
 9500SOL    HW139959   2.454   4.263   6.768  0.1108 -1.8494  3.2259
 9500SOL    HW239960   2.361   4.317   6.859 -0.7726 -0.6953 -2.7750
 9501SOL     OW39961   2.745   1.571   4.006 -0.1753  0.5988  0.0971
 9501SOL    HW139962   2.690   1.519   3.948 -2.7356  1.3285  1.8769
 9501SOL    HW239963   2.771   1.639   3.944 -2.0995  1.7093  0.5106
 9502SOL     OW39964   3.039   4.638  15.835  0.3273 -0.0665  0.2886
 9502SOL    HW139965   3.041   4.546  15.808  0.6099 -0.4927  1.7350
 9502SOL    HW239966   3.129   4.640  15.869  0.7804 -2.2104 -0.7661
 9503SOL     OW39967   2.060   1.870   8.626  0.3278  0.0932 -0.6181
 9503SOL    HW139968   2.005   1.793   8.616  1.1367 -0.6260  0.4621
 9503SOL    HW239969   2.115   1.842   8.699 -2.2141 -0.4511  1.0571
 9504SOL     OW39970   0.127   1.199   2.651 -0.0937  0.2556 -0.3813
 9504SOL    HW139971   0.187   1.135   2.689 -0.1977  0.7947  0.6783
 9504SOL    HW239972   0.122   1.169   2.560 -0.3782 -0.1267 -0.2437
 9505SOL     OW39973   3.301   2.714   2.165 -0.0905 -0.1683 -0.5977
 9505SOL    HW139974   3.277   2.763   2.086  1.4342 -0.6945 -1.3785
 9505SOL    HW239975   3.315   2.622   2.143 -0.3143  0.0954 -1.8465
 9506SOL     OW39976   3.842   1.924  16.019  0.1022 -0.0028  0.3676
 9506SOL    HW139977   3.782   1.983  16.065  0.8814 -0.5806  2.1421
 9506SOL    HW239978   3.787   1.894  15.947  0.9012 -2.3055  0.7138
 9507SOL     OW39979   0.125   0.506   6.299 -0.5717 -0.1391  0.1316
 9507SOL    HW139980   0.163   0.572   6.357 -1.4563  0.4523  0.0396
 9507SOL    HW239981   0.050   0.557   6.268 -0.8484  1.3611  3.2381
 9508SOL     OW39982   3.012   1.912   5.044  0.2853  0.0945  0.2604
 9508SOL    HW139983   2.980   2.003   5.048 -0.7136 -0.2457 -0.0625
 9508SOL    HW239984   3.086   1.909   5.105  1.2572  0.0343 -0.9092
 9509SOL     OW39985   4.438   1.330  11.632  0.7342 -0.2964  0.9102
 9509SOL    HW139986   4.436   1.413  11.679  0.9688 -0.0449  0.4776
 9509SOL    HW239987   4.450   1.364  11.543 -5.3640 -0.7244 -0.1113
 9510SOL     OW39988   0.428   1.622   6.751  0.0451 -0.4722 -0.2220
 9510SOL    HW139989   0.377   1.632   6.671 -1.3015 -0.8318  0.5921
 9510SOL    HW239990   0.488   1.550   6.734  0.0733 -1.3061  3.3694
 9511SOL     OW39991   4.065   3.841   3.450  0.0879 -0.6774 -0.0318
 9511SOL    HW139992   4.119   3.898   3.506  0.1171  0.7168 -1.4798
 9511SOL    HW239993   4.005   3.908   3.418  1.2387 -1.6903 -4.2555
 9512SOL     OW39994   3.349   0.263  11.821  0.3667  0.0559 -0.4523
 9512SOL    HW139995   3.285   0.192  11.820  1.8019 -1.2174 -3.8103
 9512SOL    HW239996   3.431   0.215  11.828  2.2632  3.6383  1.7723
 9513SOL     OW39997   0.935   4.655  14.636  0.7152  0.1031 -0.8344
 9513SOL    HW139998   0.846   4.651  14.599  0.1538 -0.4432  0.5734
 9513SOL    HW239999   0.959   0.016  14.597  0.0835  0.3019 -0.7999
 9514SOL     OW40000   0.041   1.524   2.166  0.8304  0.4206 -0.3223
 9514SOL    HW140001   4.707   1.456   2.130 -1.3753  0.6541  2.7349
 9514SOL    HW240002   4.709   1.592   2.203 -0.0661  1.0918 -2.9387
 9515SOL     OW40003   4.479   0.052   8.529  0.0458  0.0621  0.8973
 9515SOL    HW140004   4.413   0.046   8.461  1.4817 -1.0241 -0.4014
 9515SOL    HW240005   4.429   0.115   8.581 -0.8973 -0.1027  0.1907
 9516SOL     OW40006   0.735   2.802   8.962 -0.1382  0.0564 -0.1127
 9516SOL    HW140007   0.691   2.829   9.042 -0.7477  1.4399 -0.9172
 9516SOL    HW240008   0.762   2.715   8.993 -1.5936 -0.8632 -1.3922
 9517SOL     OW40009   2.158   3.695   3.063 -0.0982  0.5202 -0.9672
 9517SOL    HW140010   2.122   3.634   3.127  1.9353  0.5950  0.2406
 9517SOL    HW240011   2.079   3.743   3.036  0.8327  0.6159 -3.5357
 9518SOL     OW40012   2.451   3.890  11.025 -0.3213 -0.3512 -0.4011
 9518SOL    HW140013   2.529   3.896  10.971  0.9717 -1.6074  1.3367
 9518SOL    HW240014   2.405   3.822  10.975 -2.2399 -0.2816  1.2669
 9519SOL     OW40015   4.514   3.216   4.222  0.3931 -1.0487 -0.1730
 9519SOL    HW140016   4.548   3.235   4.309  2.5992 -0.9759 -1.0361
 9519SOL    HW240017   4.491   3.304   4.191  2.0211 -0.0132  1.5669
 9520SOL     OW40018   3.698   4.185   8.881  0.0093  0.8829 -0.3350
 9520SOL    HW140019   3.651   4.124   8.824  0.5184 -1.5158  1.8366
 9520SOL    HW240020   3.624   4.217   8.932 -0.5329  0.0038 -0.5733
 9521SOL     OW40021   1.194   0.863   1.884  0.2811 -0.6816 -0.2142
 9521SOL    HW140022   1.257   0.919   1.930 -1.1588 -0.6696  1.7447
 9521SOL    HW240023   1.146   0.928   1.833 -1.2035 -0.9432  0.8333
 9522SOL     OW40024   4.043   4.225  13.954  0.1822 -0.3658  0.3023
 9522SOL    HW140025   3.998   4.303  13.922 -0.1936 -0.2472  1.1259
 9522SOL    HW240026   4.014   4.158  13.892  1.6681  0.7966 -1.6601
 9523SOL     OW40027   2.150   3.840  16.842 -0.4143 -0.3463 -0.2269
 9523SOL    HW140028   2.120   3.851  16.751 -0.2304 -2.2435 -0.5142
 9523SOL    HW240029   2.082   3.781  16.874 -2.5842  1.8691 -0.7623
 9524SOL     OW40030   3.084   1.355   9.164 -0.2793 -0.7881  0.2086
 9524SOL    HW140031   3.148   1.384   9.229 -0.3719 -1.5303  0.6222
 9524SOL    HW240032   2.999   1.369   9.206 -0.3124  3.1126 -1.1216
 9525SOL     OW40033   3.283   3.042  16.430 -0.9546 -0.0615  0.6316
 9525SOL    HW140034   3.371   3.070  16.406 -1.5594 -0.9024 -2.5237
 9525SOL    HW240035   3.240   3.127  16.438  2.1827  1.5423  0.4383
 9526SOL     OW40036   4.698   3.604   0.774 -0.0746  0.1263  0.4265
 9526SOL    HW140037   4.630   3.643   0.720  0.8771  2.6320  1.0253
 9526SOL    HW240038   4.654   3.559   0.846  1.9404 -2.6418 -0.0831
 9527SOL     OW40039   3.100   4.492   2.525  0.5030  0.0217 -0.4296
 9527SOL    HW140040   3.106   4.582   2.493 -0.2318  0.5343  0.8651
 9527SOL    HW240041   3.025   4.463   2.473 -0.2307  0.8940  0.1629
 9528SOL     OW40042   2.080   1.162   0.078  0.1191 -0.3146  0.4517
 9528SOL    HW140043   2.173   1.145   0.090  0.1237 -0.2732  0.4730
 9528SOL    HW240044   2.033   1.106   0.140 -0.8361  0.0160  0.0158
 9529SOL     OW40045   0.887   2.542  12.773 -0.5204  0.4066  0.1214
 9529SOL    HW140046   0.932   2.575  12.850  1.4419 -1.7690 -0.0843
 9529SOL    HW240047   0.942   2.566  12.699 -0.8714 -0.5044 -0.4341
 9530SOL     OW40048   2.061   0.299  11.457 -0.6586 -0.8335 -0.4448
 9530SOL    HW140049   1.984   0.285  11.513 -1.2143  0.7405 -0.7984
 9530SOL    HW240050   2.060   0.394  11.469 -1.5682 -0.6057 -2.3528
 9531SOL     OW40051   1.021   0.567   4.915  0.0486 -0.6572 -0.1222
 9531SOL    HW140052   0.976   0.550   4.832 -1.8403 -1.3790  1.0430
 9531SOL    HW240053   1.108   0.568   4.876 -0.1962 -0.3575 -0.6634
 9532SOL     OW40054   3.307   3.214   1.292  0.2133 -0.2290 -0.2096
 9532SOL    HW140055   3.353   3.183   1.371 -1.1841  3.0412  1.9060
 9532SOL    HW240056   3.259   3.140   1.255  1.4232 -1.2072  0.1957
 9533SOL     OW40057   0.375   1.397   8.808 -0.0559 -0.1008  0.3772
 9533SOL    HW140058   0.330   1.314   8.798 -0.2071 -0.2100  2.0229
 9533SOL    HW240059   0.312   1.461   8.775  1.6920  0.3259 -2.1240
 9534SOL     OW40060   2.187   4.334  17.075  0.1082  0.6060 -0.1250
 9534SOL    HW140061   2.246   4.374  17.138  0.0548  1.6101 -0.7221
 9534SOL    HW240062   2.129   4.405  17.049 -0.2883  1.1403  2.2414
 9535SOL     OW40063   3.479   3.349   1.084 -0.2521 -0.3184 -0.2309
 9535SOL    HW140064   3.411   3.320   1.144  0.0251 -1.4742 -0.4850
 9535SOL    HW240065   3.491   3.278   1.021 -0.4089  0.2498 -0.9017
 9536SOL     OW40066   2.723   2.826   5.465 -0.7003  0.2150  1.0816
 9536SOL    HW140067   2.719   2.805   5.372 -1.2969 -0.1440  1.1843
 9536SOL    HW240068   2.656   2.767   5.501 -0.2447 -0.1724  1.3040
 9537SOL     OW40069   0.239   0.390  13.249 -0.3276  0.1718 -0.0268
 9537SOL    HW140070   0.263   0.380  13.157  0.2584 -1.2704  0.2775
 9537SOL    HW240071   0.143   0.389  13.247 -0.3056 -0.0292 -1.0116
 9538SOL     OW40072   4.056   3.913  17.027  1.2342  0.2528 -0.7595
 9538SOL    HW140073   4.066   3.885  16.935  0.4238 -0.9851 -0.4803
 9538SOL    HW240074   4.121   3.983  17.029  1.7466 -0.2908  1.4214
 9539SOL     OW40075   2.149   0.498   7.076  0.5424  0.0498  0.2305
 9539SOL    HW140076   2.063   0.456   7.081  0.5644  0.0689  0.7763
 9539SOL    HW240077   2.151   0.528   6.985 -0.2904  0.3031  0.2927
 9540SOL     OW40078   3.261   1.733  14.810 -0.3373 -0.2987 -0.7077
 9540SOL    HW140079   3.223   1.819  14.790 -1.1716  0.0293  2.3278
 9540SOL    HW240080   3.329   1.767  14.868  0.0020 -1.7401 -0.2826
 9541SOL     OW40081   4.535   3.109   8.618  0.1249 -0.0298 -0.4520
 9541SOL    HW140082   4.462   3.114   8.555  0.2518 -0.8909 -0.6708
 9541SOL    HW240083   4.503   3.038   8.674  0.5188 -0.2827 -0.5489
 9542SOL     OW40084   0.708   3.057   4.139 -0.2517 -0.2635  0.0236
 9542SOL    HW140085   0.648   2.991   4.106 -0.3878 -0.9098  1.5826
 9542SOL    HW240086   0.680   3.125   4.078  0.7178  1.2466  1.2451
 9543SOL     OW40087   1.308   0.376   5.288 -0.2533  0.3035 -0.2765
 9543SOL    HW140088   1.358   0.448   5.327  1.1614 -1.5252  1.3291
 9543SOL    HW240089   1.370   0.309   5.260 -0.8498 -0.8711  1.2005
 9544SOL     OW40090   1.030   1.307   1.513 -0.0622 -0.0340 -0.3494
 9544SOL    HW140091   1.100   1.370   1.494  0.1671 -0.1267  0.1932
 9544SOL    HW240092   1.073   1.222   1.510  0.8004  0.4257 -1.0236
 9545SOL     OW40093   3.596   1.675   5.014  0.0785 -0.1012 -0.0614
 9545SOL    HW140094   3.522   1.658   4.955 -0.3122 -0.4039  0.5146
 9545SOL    HW240095   3.565   1.745   5.071  0.2113  0.4968 -0.7210
 9546SOL     OW40096   3.839   4.458  10.671  0.2931 -0.8762 -0.1605
 9546SOL    HW140097   3.787   4.464  10.750 -1.5645  0.1627 -1.4687
 9546SOL    HW240098   3.925   4.480  10.707 -0.2525 -0.6301  0.9654
 9547SOL     OW40099   4.676   3.194  14.501  0.0352 -0.0877 -0.1560
 9547SOL    HW140100   4.684   3.275  14.552  1.4346 -1.0569  1.1922
 9547SOL    HW240101   0.000   3.228  14.426  0.4125 -0.3960 -0.0585
 9548SOL     OW40102   4.131   2.922   6.746 -0.0173 -0.4312 -0.1654
 9548SOL    HW140103   4.075   2.982   6.795 -0.9758 -0.0377 -1.7471
 9548SOL    HW240104   4.200   2.900   6.809 -1.2577 -0.8820  1.0432
 9549SOL     OW40105   2.148   4.109   6.034 -0.0670  0.5106 -0.0796
 9549SOL    HW140106   2.097   4.161   5.972  0.6421 -1.1438 -2.0323
 9549SOL    HW240107   2.103   4.026   6.016  2.2179 -0.2841 -2.1200
 9550SOL     OW40108   4.224   0.395   3.851  0.0086  0.4181 -0.2469
 9550SOL    HW140109   4.229   0.479   3.805  0.9145 -1.1518 -2.9944
 9550SOL    HW240110   4.302   0.407   3.905 -0.6597 -0.5637  0.9436
 9551SOL     OW40111   3.155   2.457  14.246 -0.0186  0.6989 -0.3926
 9551SOL    HW140112   3.173   2.520  14.177  1.5616 -0.0202 -0.6415
 9551SOL    HW240113   3.066   2.486  14.266 -1.0440 -0.4370 -3.3222
 9552SOL     OW40114   2.713   4.605   5.037  0.3120  0.2924 -0.5385
 9552SOL    HW140115   2.620   4.598   5.014 -0.1646 -2.0481  2.0993
 9552SOL    HW240116   2.753   4.607   4.950  2.1223 -1.6198  0.2651
 9553SOL     OW40117   3.872   3.988  12.674  0.2297  0.0310  0.4944
 9553SOL    HW140118   3.898   3.939  12.595 -3.2047 -0.9496 -0.0572
 9553SOL    HW240119   3.944   4.051  12.671  0.9388 -0.7788  0.7068
 9554SOL     OW40120   0.198   3.917   2.959  0.2113  0.4310  0.3635
 9554SOL    HW140121   0.248   3.998   2.969  1.8547 -0.4511 -0.5610
 9554SOL    HW240122   0.110   3.950   2.977  0.2414  1.2810 -1.0473
 9555SOL     OW40123   1.982   2.956   1.631 -0.2427 -0.2861  0.0186
 9555SOL    HW140124   1.917   3.027   1.626  1.8934  1.5144 -2.2702
 9555SOL    HW240125   1.948   2.906   1.705 -1.9435  0.1051 -0.5010
 9556SOL     OW40126   4.630   3.037  11.077 -0.3536  0.6009  0.2273
 9556SOL    HW140127   4.562   3.092  11.039 -0.8060 -0.1845 -0.0936
 9556SOL    HW240128   4.604   3.039  11.169  3.1862  1.2894  1.2279
 9557SOL     OW40129   3.691   0.260   3.204 -0.6790 -0.8264  0.3252
 9557SOL    HW140130   3.613   0.209   3.222  0.1896 -2.2693 -0.0128
 9557SOL    HW240131   3.660   0.312   3.130  1.1065  0.1046  0.2238
 9558SOL     OW40132   2.960   0.882  14.857  0.1367 -0.1083  0.3680
 9558SOL    HW140133   2.918   0.820  14.917 -1.4639  1.2810  0.6987
 9558SOL    HW240134   2.917   0.964  14.883 -2.1989 -1.0080 -0.6284
 9559SOL     OW40135   0.116   3.517  14.895 -0.2214 -0.9643 -0.9214
 9559SOL    HW140136   0.164   3.599  14.901 -0.5317 -1.0571  2.4532
 9559SOL    HW240137   0.127   3.488  14.985 -0.0360 -0.1222 -0.6748
 9560SOL     OW40138   3.447   0.748   5.043 -0.3810 -0.0153  0.3059
 9560SOL    HW140139   3.355   0.769   5.026 -0.1417  0.8911  0.1416
 9560SOL    HW240140   3.489   0.760   4.959  0.0513 -1.1998  0.3513
 9561SOL     OW40141   0.358   3.401  11.761  0.1015  0.3668 -0.4424
 9561SOL    HW140142   0.370   3.413  11.855  0.2390  1.2171 -0.5718
 9561SOL    HW240143   0.304   3.321  11.763 -0.0663  0.5092  0.5022
 9562SOL     OW40144   3.296   4.592   6.602 -0.8807 -0.6007 -0.1947
 9562SOL    HW140145   3.291   4.658   6.532 -3.7018 -0.1235  0.4403
 9562SOL    HW240146   3.391   4.592   6.615 -1.1512  0.5381  1.6827
 9563SOL     OW40147   2.680   3.292   8.087 -0.2053 -0.2054 -0.3056
 9563SOL    HW140148   2.640   3.371   8.122  1.3592  0.8290 -0.8464
 9563SOL    HW240149   2.768   3.310   8.122 -1.0182  2.9460  0.1010
 9564SOL     OW40150   2.227   1.763  16.914 -0.2702  0.4157 -0.3360
 9564SOL    HW140151   2.159   1.815  16.869  0.1568 -0.7478 -2.3309
 9564SOL    HW240152   2.189   1.763  17.002  0.2248  1.9939 -0.1259
 9565SOL     OW40153   3.975   0.245  16.028 -0.2964 -0.2365  0.4723
 9565SOL    HW140154   3.933   0.163  16.004 -1.3421  0.7806 -1.2157
 9565SOL    HW240155   4.060   0.223  15.991  0.9490  1.7598  2.1224
   4.72345   4.72345  17.69558
