Membrane in water
40155
    1TCq1    O1    1   1.475   1.887  10.383 -0.3804  0.3037  0.1354
    1TCq1    C1    2   1.572   1.929  10.469  0.1449  0.8546  0.3693
    1TCq1    O2    3   1.662   2.004  10.445  0.7022 -0.4696 -0.1535
    1TCq1    C2    4   1.534   1.908  10.604 -0.4779  0.1229  0.2823
    1TCq1    C3    5   1.566   1.998  10.701  0.1126  0.2870  0.0169
    1TCq1    C4    6   1.513   1.977  10.827  0.6083 -0.3349  0.1871
    1TCq1    C5    7   1.445   1.869  10.854 -0.2996  0.8032 -0.4577
    1TCq1    C6    8   1.409   1.779  10.766  0.2984 -0.1791  0.3121
    1TCq1    C7    9   1.458   1.794  10.636  0.5144 -0.5083 -0.7182
    1TCq1    C8   10   1.319   1.676  10.810 -0.4030 -0.1339  0.6732
    1TCq1    O4   11   1.265   1.685  10.920  0.4327 -0.6222 -0.2764
    1TCq1    C9   12   1.529   2.081  10.925  0.2183  0.5050 -0.0830
    1TCq1    O5   13   1.592   2.186  10.886  0.3981  0.1256  0.2268
    1TCq1    O6   14   1.503   2.059  11.047 -0.3493  0.6324 -0.6227
    1TCq1    H1   15   1.439   1.809  10.429  2.1262 -1.4112 -0.7717
    1TCq1    H2   16   1.617   2.092  10.679 -0.5084  0.7162  0.3947
    1TCq1    H3   17   1.395   1.871  10.950 -3.5490 -2.2985 -2.1011
    1TCq1    H4   18   1.430   1.711  10.572  1.1123 -0.2500 -1.3110
    2MPD2     C   19   1.053   1.239  10.734 -0.2157 -0.2516 -0.2148
    2MPD2    C1   20   1.024   1.343  10.824 -0.4719 -0.1741 -0.1247
    2MPD2    C2   21   1.116   1.447  10.829  0.1681 -0.0253 -0.6217
    2MPD2    C3   22   1.233   1.450  10.748 -0.2316 -0.4947 -0.5277
    2MPD2    C4   23   1.259   1.339  10.668 -0.3092 -0.4040  0.2574
    2MPD2    C5   24   1.168   1.235  10.664 -0.4065 -0.2294 -0.1329
    2MPD2     H   25   1.090   1.523  10.902  1.7264 -1.5742  1.5426
    2MPD2    H1   26   1.351   1.334  10.610 -0.9439 -0.8772 -0.7107
    2MPD2    H2   27   0.990   1.155  10.709  0.6324 -0.8687 -0.2728
    2MPD2    H3   28   1.175   1.153  10.593  0.6244 -0.0395 -0.2477
    2MPD2     N   29   1.320   1.562  10.730  0.3469 -0.4916 -0.0736
    2MPD2    H5   30   1.396   1.556  10.663  0.2469  0.0382 -0.2364
    2MPD2    N1   31   0.905   1.344  10.903 -0.2024 -0.2480 -0.2540
    2MPD2    H7   32   0.893   1.425  10.963 -5.8518 -1.9407  0.9523
    3TCq1    O1   33   0.591   2.570   9.770 -0.2816 -0.3778 -0.4167
    3TCq1    C1   34   0.506   2.588   9.873  0.4980 -0.1292  0.3393
    3TCq1    O2   35   0.479   2.684   9.941 -0.2870 -0.7974 -0.0556
    3TCq1    C2   36   0.440   2.463   9.898  0.5749  0.2880  1.2431
    3TCq1    C3   37   0.512   2.345   9.879  0.0746  0.2445 -0.2718
    3TCq1    C4   38   0.486   2.242   9.957 -0.7854  0.0691  0.8352
    3TCq1    C5   39   0.387   2.238  10.047 -0.2156  0.4233  0.3026
    3TCq1    C6   40   0.310   2.353  10.054  0.4638  0.1921 -0.3064
    3TCq1    C7   41   0.337   2.471   9.989 -0.1459  0.5723  0.2720
    3TCq1    C8   42   0.206   2.344  10.157 -0.1794 -0.1838  0.5939
    3TCq1    O4   43   0.187   2.236  10.209  0.3432  0.7437 -0.1472
    3TCq1    C9   44   0.561   2.120   9.942  0.2947  0.0256 -0.3752
    3TCq1    O5   45   0.543   2.025  10.024 -0.2745 -0.6623  0.4930
    3TCq1    O6   46   0.619   2.113   9.831 -0.3270 -0.3099  0.2180
    3TCq1    H1   47   0.557   2.499   9.711 -1.1303 -0.2970 -0.0345
    3TCq1    H2   48   0.608   2.348   9.829 -1.4424 -1.5658 -3.3255
    3TCq1    H3   49   0.377   2.149  10.108 -0.7510 -1.2539 -2.2340
    3TCq1    H4   50   0.283   2.563  10.006 -0.8381  0.4576 -1.2922
    4MPD2     C   51   4.540   2.515  10.461 -0.2892 -0.1013  0.5069
    4MPD2    C1   52   4.621   2.632  10.421  0.7237  0.0663 -0.2383
    4MPD2    C2   53   0.013   2.602  10.341  0.5863  0.2423  0.2960
    4MPD2    C3   54   0.036   2.478  10.292  0.4965  0.1722  0.1775
    4MPD2    C4   55   4.683   2.369  10.329  0.6511 -0.5402 -0.2222
    4MPD2    C5   56   4.582   2.390  10.419 -0.4366 -0.0626  0.5290
    4MPD2     H   57   0.076   2.687  10.317  0.0256  0.7701  0.6851
    4MPD2    H1   58   4.706   2.270  10.293 -0.4956 -1.0260  0.3793
    4MPD2    H2   59   4.447   2.527  10.517 -0.7088 -0.0513 -0.2091
    4MPD2    H3   60   4.521   2.304  10.446  1.0607 -1.0109  0.9298
    4MPD2     N   61   0.140   2.464  10.194 -0.1470  0.5281 -0.7839
    4MPD2    H5   62   0.180   2.550  10.158 -0.0485  1.0463  0.5532
    4MPD2    N1   63   4.600   2.768  10.462  0.1766  0.7176 -0.4481
    4MPD2    H7   64   4.667   2.838  10.430 -0.7928  0.8467 -2.1864
    5TCq1    O1   65   1.567   3.975  11.384  0.0296 -0.1180 -0.2876
    5TCq1    C1   66   1.509   3.851  11.380 -0.4439 -0.5316 -0.5812
    5TCq1    O2   67   1.549   3.763  11.309 -0.0076 -0.2240  0.4954
    5TCq1    C2   68   1.374   3.886  11.398 -0.0114 -0.1399  0.1893
    5TCq1    C3   69   1.329   3.954  11.508 -1.0004 -0.4305  0.2301
    5TCq1    C4   70   1.190   3.965  11.524  0.4262  0.6815  0.1049
    5TCq1    C5   71   1.109   3.959  11.418  0.0539  0.0321  0.2939
    5TCq1    C6   72   1.163   3.918  11.298 -0.1468  0.2666  0.0197
    5TCq1    C7   73   1.293   3.871  11.291 -0.0651  0.1107 -0.2214
    5TCq1    C8   74   1.079   3.881  11.180  0.1490  0.3266 -0.2730
    5TCq1    O4   75   1.120   3.799  11.101 -0.7382 -0.3731  0.2355
    5TCq1    C9   76   1.140   4.023  11.639  0.8795 -0.5902  0.0883
    5TCq1    O5   77   1.015   4.034  11.651  0.1747  0.2637  0.4900
    5TCq1    O6   78   1.226   4.034  11.734  0.0880  0.0821  0.0030
    5TCq1    H1   79   1.505   4.048  11.407 -0.6132 -0.6474 -0.3392
    5TCq1    H2   80   1.386   3.974  11.598  0.8727 -0.2651 -0.9823
    5TCq1    H3   81   1.004   3.988  11.416 -0.1526 -0.7555 -0.1481
    5TCq1    H4   82   1.337   3.834  11.199 -0.4898  0.0591 -0.3999
    6MPD2     C   83   0.746   4.023  11.136  0.4668  0.2658 -0.0160
    6MPD2    C1   84   0.852   3.945  11.108  0.0301  0.0183 -0.3988
    6MPD2    C2   85   0.850   3.865  10.988  0.3314 -0.4056 -0.6808
    6MPD2    C3   86   0.737   3.860  10.909 -0.5819  0.0943 -0.4546
    6MPD2    C4   87   0.626   3.927  10.956  0.6007  0.6401 -0.1478
    6MPD2    C5   88   0.630   4.004  11.065  0.1747  0.2898  0.1856
    6MPD2     H   89   0.938   3.811  10.954  1.1199  0.0077  0.6821
    6MPD2    H1   90   0.533   3.935  10.900  0.3389  1.1965  0.3683
    6MPD2    H2   91   0.752   4.089  11.222 -0.7947  1.8158 -1.1135
    6MPD2    H3   92   0.549   4.066  11.104  0.2423 -0.3090  1.2713
    6MPD2     N   93   0.733   3.777  10.795 -0.0006  0.2946  0.4209
    6MPD2    H5   94   0.814   3.718  10.783 -0.0740 -0.1001  1.8001
    6MPD2    N1   95   0.963   3.949  11.195 -0.2344 -0.2833  0.3438
    6MPD2    H7   96   0.954   4.009  11.276  2.4066  0.3277  0.1629
    7TCq1    O1   97   2.521   3.745  12.872  0.2271 -0.4515 -0.0038
    7TCq1    C1   98   2.433   3.679  12.783 -0.0623 -0.1925 -0.0370
    7TCq1    O2   99   2.321   3.720  12.764  0.1515 -0.2447  0.4507
    7TCq1    C2  100   2.478   3.543  12.736  0.3052  0.1547 -0.4347
    7TCq1    C3  101   2.383   3.450  12.707 -0.2521 -0.1151 -0.5779
    7TCq1    C4  102   2.436   3.333  12.657 -0.2226 -0.7449 -0.7657
    7TCq1    C5  103   2.571   3.304  12.662  0.1230  0.3761 -0.2165
    7TCq1    C6  104   2.656   3.395  12.709  0.2461 -0.1049 -0.4113
    7TCq1    C7  105   2.613   3.522  12.721 -0.0022 -0.1183  0.1324
    7TCq1    C8  106   2.794   3.358  12.744 -0.1321  0.3736 -0.5427
    7TCq1    O4  107   2.833   3.246  12.708 -0.2591  0.0615  0.2592
    7TCq1    C9  108   2.347   3.219  12.638 -0.6342  0.0511 -0.0404
    7TCq1    O5  109   2.227   3.235  12.677 -0.4618 -0.2018 -0.5569
    7TCq1    O6  110   2.401   3.108  12.616  0.1812 -0.4314 -0.2404
    7TCq1    H1  111   2.597   3.687  12.894 -0.2455 -1.1779 -0.3055
    7TCq1    H2  112   2.278   3.474  12.719 -0.1997 -0.1792  0.0018
    7TCq1    H3  113   2.615   3.206  12.650 -0.3945  0.0037  0.9242
    7TCq1    H4  114   2.685   3.603  12.718  0.0999 -0.2888 -2.0315
    8MPD2     C  115   3.227   3.375  13.017 -0.4941  0.3756  0.5274
    8MPD2    C1  116   3.161   3.271  12.955 -0.2383  0.1588  0.2829
    8MPD2    C2  117   3.040   3.286  12.895 -0.2051  0.0705 -0.3520
    8MPD2    C3  118   2.992   3.417  12.879 -0.1435  0.2305 -0.4456
    8MPD2    C4  119   3.062   3.524  12.937 -0.3395  0.1636 -0.4365
    8MPD2    C5  120   3.179   3.504  13.010  0.0803  0.4118  0.3292
    8MPD2     H  121   2.988   3.196  12.866 -1.1274 -0.1511  2.0479
    8MPD2    H1  122   3.024   3.625  12.946  0.4506  0.3703  0.6299
    8MPD2    H2  123   3.316   3.360  13.078  0.7069  1.4077 -0.9919
    8MPD2    H3  124   3.233   3.585  13.059  0.5668 -0.3940  1.1395
    8MPD2     N  125   2.872   3.446  12.813 -0.2788  0.6252 -0.2605
    8MPD2    H5  126   2.835   3.540  12.822  1.1796  0.9105  2.6738
    8MPD2    N1  127   3.215   3.144  12.982  0.2150 -0.0242 -0.1329
    8MPD2    H7  128   3.289   3.131  13.049  1.7800 -2.0407 -2.2338
    9TCq1    O1  129   1.162   1.867  10.051 -0.2156  0.5427 -0.1723
    9TCq1    C1  130   1.135   1.988  10.104 -0.2442  0.7961  0.3505
    9TCq1    O2  131   1.190   2.098  10.077  0.1525 -0.7177 -0.3500
    9TCq1    C2  132   1.030   1.975  10.207 -0.2565 -0.2775  0.8741
    9TCq1    C3  133   0.924   1.885  10.195 -0.2194 -0.6547  1.4352
    9TCq1    C4  134   0.832   1.897  10.296 -0.6718  0.4305 -0.2508
    9TCq1    C5  135   0.848   1.988  10.397 -0.7618 -0.8402 -0.1578
    9TCq1    C6  136   0.949   2.076  10.398  0.3049 -0.1667 -0.0206
    9TCq1    C7  137   1.043   2.076  10.300  0.1865  0.5533  0.0583
    9TCq1    C8  138   0.916   2.209  10.447  0.6560 -0.0249 -0.1029
    9TCq1    O4  139   0.989   2.300  10.407  0.3210  0.0807  0.2557
    9TCq1    C9  140   0.714   1.814  10.285  0.3039  0.7247  0.4106
    9TCq1    O5  141   0.641   1.806  10.387 -0.1063  0.4813 -0.1657
    9TCq1    O6  142   0.675   1.786  10.171  0.0570 -0.0324  0.0017
    9TCq1    H1  143   1.124   1.803  10.115  0.0746 -0.0938 -0.6337
    9TCq1    H2  144   0.907   1.817  10.112 -2.4099 -1.1406  2.2826
    9TCq1    H3  145   0.778   1.977  10.479 -1.5500  1.0331 -0.5857
    9TCq1    H4  146   1.123   2.149  10.294 -0.1972  1.1292  2.0985
   10MPD2     C  147   0.834   2.469  10.568 -0.3067 -0.2155 -0.2524
   10MPD2    C1  148   0.777   2.342  10.604  0.0317 -0.1792 -0.7712
   10MPD2    C2  149   0.712   2.326  10.726 -0.3500  0.3848 -0.3904
   10MPD2    C3  150   0.691   2.439  10.812  0.4905  0.4000  0.0641
   10MPD2    C4  151   0.742   2.561  10.771 -0.1749 -0.4117  0.7075
   10MPD2    C5  152   0.807   2.576  10.654 -0.0792  0.0246 -0.3119
   10MPD2     H  153   0.670   2.230  10.756 -0.5214  0.9746  1.2339
   10MPD2    H1  154   0.737   2.641  10.844  0.8833  0.6251 -0.3291
   10MPD2    H2  155   0.888   2.480  10.475  3.2436  0.3301  1.8670
   10MPD2    H3  156   0.839   2.676  10.628  1.3055  0.2140  2.1083
   10MPD2     N  157   0.625   2.440  10.942  0.0687  1.2677 -0.3304
   10MPD2    H5  158   0.596   2.526  10.989 -0.5476  0.0045  1.6290
   10MPD2    N1  159   0.809   2.219  10.538 -0.2090  0.6113  0.2345
   10MPD2    H7  160   0.755   2.137  10.565  0.4547 -0.4703 -1.7714
   11TCq1    O1  161   0.973   2.832  13.405  0.1256  0.7488 -0.3245
   11TCq1    C1  162   1.074   2.760  13.455 -0.0994 -0.2282  0.5573
   11TCq1    O2  163   1.181   2.798  13.499 -0.5982 -0.1207 -0.1752
   11TCq1    C2  164   1.026   2.623  13.473  0.8587  0.0215  0.1953
   11TCq1    C3  165   1.107   2.541  13.546  0.2397  0.1925 -1.4567
   11TCq1    C4  166   1.064   2.416  13.575 -0.5843  0.2580 -1.0036
   11TCq1    C5  167   0.949   2.366  13.526 -0.6470 -0.2292 -0.8481
   11TCq1    C6  168   0.876   2.445  13.442 -0.2571  0.4508 -0.3521
   11TCq1    C7  169   0.912   2.576  13.416  0.3621 -0.0157  0.1577
   11TCq1    C8  170   0.738   2.401  13.392 -0.1326 -0.4967 -0.2421
   11TCq1    O4  171   0.669   2.487  13.342  0.0012  0.0860 -0.2112
   11TCq1    C9  172   1.160   2.334  13.649  0.1735  0.5799 -0.3546
   11TCq1    O5  173   1.262   2.388  13.705 -0.0909 -0.2387 -0.0654
   11TCq1    O6  174   1.138   2.209  13.651  0.0853 -0.5788  0.1447
   11TCq1    H1  175   0.885   2.787  13.410  0.5038  0.2552  1.8365
   11TCq1    H2  176   1.206   2.568  13.580 -0.1444  3.1341 -2.6742
   11TCq1    H3  177   0.927   2.263  13.550  1.2521 -0.7081 -1.1510
   11TCq1    H4  178   0.847   2.629  13.347 -2.1486 -0.7128  2.0112
   12MPD2     C  179   0.492   2.263  13.326  0.0866  0.4444 -0.0116
   12MPD2    C1  180   0.619   2.204  13.320 -0.2997 -0.3796  0.1732
   12MPD2    C2  181   0.632   2.065  13.285  0.2446  0.1474  0.1523
   12MPD2    C3  182   0.517   1.996  13.246  0.5604  0.6305 -1.1048
   12MPD2    C4  183   0.400   2.063  13.237 -0.9382  0.1481  0.8679
   12MPD2    C5  184   0.380   2.189  13.282 -0.8229 -0.5659 -0.8427
   12MPD2     H  185   0.730   2.019  13.293  0.2841  0.2638  0.3303
   12MPD2    H1  186   0.321   2.020  13.177  0.4811 -0.3080 -0.6587
   12MPD2    H2  187   0.465   2.361  13.364 -0.6902  0.7127 -1.2619
   12MPD2    H3  188   0.283   2.236  13.294 -0.7114 -0.6974  0.6038
   12MPD2     N  189   0.514   1.861  13.218 -0.3400 -1.3576  1.0185
   12MPD2    H5  190   0.429   1.820  13.181  0.7185 -2.2873 -0.4447
   12MPD2    N1  191   0.736   2.268  13.359  0.2549  0.1445 -0.2147
   12MPD2    H7  192   0.826   2.221  13.361  0.2624  0.0795 -2.0029
   13TCq1    O1  193   1.171   2.782  10.817 -0.0962 -0.2582  0.6679
   13TCq1    C1  194   1.169   2.673  10.735 -0.2009  0.2087 -0.4884
   13TCq1    O2  195   1.190   2.680  10.615 -0.2351 -0.8308 -0.5680
   13TCq1    C2  196   1.186   2.551  10.817 -0.4932  0.2303 -0.1101
   13TCq1    C3  197   1.183   2.561  10.951  0.1449 -0.3287  0.2327
   13TCq1    C4  198   1.209   2.439  11.024  0.0074 -0.2689 -0.3858
   13TCq1    C5  199   1.228   2.321  10.964 -0.1811  0.0788 -0.5202
   13TCq1    C6  200   1.221   2.312  10.827  0.1299 -0.3843 -0.2254
   13TCq1    C7  201   1.195   2.427  10.753 -0.1599  0.3848  0.4235
   13TCq1    C8  202   1.189   2.193  10.763 -0.7401  0.5311 -0.3153
   13TCq1    O4  203   1.257   2.157  10.669 -0.0755 -0.5176 -0.6090
   13TCq1    C9  204   1.193   2.436  11.165  0.0436 -0.1024 -0.2158
   13TCq1    O5  205   1.262   2.353  11.231 -0.0436  0.4343  0.3248
   13TCq1    O6  206   1.122   2.528  11.225 -0.1438 -0.0218 -0.5329
   13TCq1    H1  207   1.118   2.781  10.899 -0.1069  0.6695  0.6803
   13TCq1    H2  208   1.172   2.651  11.011 -1.3362 -1.7664  2.1165
   13TCq1    H3  209   1.231   2.238  11.034 -0.0317 -0.4036 -1.1043
   13TCq1    H4  210   1.188   2.419  10.645 -0.3316 -0.0480  0.4672
   14MPD2     C  211   1.087   1.921  10.703  0.2760  0.4706 -0.2190
   14MPD2    C1  212   1.037   2.003  10.802 -0.6316 -0.9617  0.3170
   14MPD2    C2  213   0.921   1.970  10.862  0.7768  0.3160  0.4499
   14MPD2    C3  214   0.842   1.858  10.816 -0.0215 -0.4824  0.7149
   14MPD2    C4  215   0.894   1.774  10.720 -0.5447  0.9646 -0.6712
   14MPD2    C5  216   1.015   1.813  10.669  0.3300  0.6515  0.4058
   14MPD2     H  217   0.888   2.039  10.938 -1.5750 -0.5817  0.2652
   14MPD2    H1  218   0.832   1.694  10.680 -0.9510  0.5522  0.7794
   14MPD2    H2  219   1.186   1.927  10.661  1.1045  1.3141  1.8785
   14MPD2    H3  220   1.056   1.752  10.589 -1.8733  0.2012 -0.3825
   14MPD2     N  221   0.722   1.838  10.875  0.1178 -0.1807  0.8313
   14MPD2    H5  222   0.694   1.910  10.940 -0.0121  1.5281 -1.1302
   14MPD2    N1  223   1.095   2.125  10.837 -0.3124 -0.4477  0.7140
   14MPD2    H7  224   1.051   2.172  10.916 -1.7577 -2.3731  1.0671
   15TCq1    O1  225   2.056   0.472   1.401 -0.1331  0.0802  0.3611
   15TCq1    C1  226   2.085   0.350   1.351  0.1304 -0.4502  0.3132
   15TCq1    O2  227   2.146   0.263   1.415 -0.0743 -0.4521  0.5280
   15TCq1    C2  228   2.092   0.369   1.209  0.6719  0.2256  0.2105
   15TCq1    C3  229   1.989   0.435   1.147 -0.0224 -0.7084 -0.0797
   15TCq1    C4  230   1.992   0.442   1.007  0.2423  0.0037 -0.1994
   15TCq1    C5  231   2.095   0.388   0.938 -0.4510 -0.0508  0.1722
   15TCq1    C6  232   2.194   0.324   1.003 -0.5545 -0.0702 -0.3843
   15TCq1    C7  233   2.190   0.310   1.140  0.5224 -0.7406  0.5833
   15TCq1    C8  234   2.297   0.249   0.933  0.1351  0.6012  0.7026
   15TCq1    O4  235   2.393   0.202   0.992 -0.3567 -0.8562 -0.5654
   15TCq1    C9  236   1.889   0.507   0.932 -0.4846  0.6229 -0.2004
   15TCq1    O5  237   1.912   0.532   0.810 -0.2744 -0.0575  0.2018
   15TCq1    O6  238   1.790   0.555   0.993  0.0822 -0.3611  0.4616
   15TCq1    H1  239   2.028   0.539   1.335  0.4757 -0.6023 -0.5883
   15TCq1    H2  240   1.920   0.488   1.211 -1.6316 -1.2405 -1.3748
   15TCq1    H3  241   2.094   0.405   0.830  1.4697 -0.3366  0.1030
   15TCq1    H4  242   2.260   0.243   1.189  2.0926  1.4162  1.2952
   16MPD2     C  243   2.301   0.184   0.566  0.6682  0.0832 -0.3606
   16MPD2    C1  244   2.356   0.179   0.697 -0.4345  0.4465  0.3177
   16MPD2    C2  245   2.487   0.143   0.714  0.5243  0.2502  0.0586
   16MPD2    C3  246   2.564   0.109   0.605 -0.9918  0.0717 -0.1177
   16MPD2    C4  247   2.505   0.101   0.477  0.3056 -0.2894  0.4254
   16MPD2    C5  248   2.379   0.149   0.462  0.7081  0.1584  0.1287
   16MPD2     H  249   2.535   0.138   0.811 -3.4371  0.8913  2.0421
   16MPD2    H1  250   2.565   0.070   0.392  1.4780 -0.5730  1.3596
   16MPD2    H2  251   2.199   0.218   0.556 -0.0108 -0.7816  3.7456
   16MPD2    H3  252   2.336   0.151   0.362  0.2014 -1.2858  0.3193
   16MPD2     N  253   2.701   0.082   0.638  0.2839 -0.0319  0.7265
   16MPD2    H5  254   2.733   0.073   0.734  1.0321  1.9138  0.6703
   16MPD2    N1  255   2.278   0.241   0.797 -0.6297 -0.4061  0.2276
   16MPD2    H7  256   2.192   0.284   0.765  0.6093  1.1293 -1.0426
   17TCq1    O1  257   0.409   0.094   9.106  0.0970  0.0907  0.0763
   17TCq1    C1  258   0.391   0.195   9.200  0.3011 -0.7900  0.7209
   17TCq1    O2  259   0.372   0.310   9.169  0.0003 -0.0356  0.2882
   17TCq1    C2  260   0.395   0.147   9.341 -0.8228  0.3256  0.1378
   17TCq1    C3  261   0.391   0.013   9.366 -0.0047  0.1508  0.2134
   17TCq1    C4  262   0.427   4.691   9.494  0.0124  0.5436  1.0233
   17TCq1    C5  263   0.454   0.065   9.597 -0.1020 -0.8447 -0.1561
   17TCq1    C6  264   0.467   0.194   9.557 -0.4702  0.0581  0.6907
   17TCq1    C7  265   0.442   0.232   9.428 -0.2448  0.9324 -0.1635
   17TCq1    C8  266   0.487   0.289   9.665  0.1270 -0.2881 -0.0101
   17TCq1    O4  267   0.434   0.263   9.770  0.1812  0.4053  0.4711
   17TCq1    C9  268   0.421   4.551   9.518  0.3333  0.2544 -0.3416
   17TCq1    O5  269   0.473   4.512   9.628 -0.5744  0.1738 -0.1018
   17TCq1    O6  270   0.348   4.485   9.438 -0.3457  0.1694 -0.0177
   17TCq1    H1  271   0.448   0.011   9.142  0.4590  0.9174  1.5997
   17TCq1    H2  272   0.354   4.665   9.292  0.4625  0.9733 -0.8065
   17TCq1    H3  273   0.489   0.027   9.693  0.5946  1.3274  0.4495
   17TCq1    H4  274   0.454   0.337   9.404  1.3114  0.5317 -1.1315
   18MPD2     C  275   0.553   0.516   9.836  1.3109  0.6229  0.8035
   18MPD2    C1  276   0.621   0.488   9.718  0.0094 -0.3485  0.0476
   18MPD2    C2  277   0.724   0.563   9.677  0.6819 -0.3035  1.0146
   18MPD2    C3  278   0.774   0.665   9.756  1.0304 -0.4776 -0.2011
   18MPD2    C4  279   0.704   0.696   9.875  0.1997  0.4156  0.1365
   18MPD2    C5  280   0.597   0.622   9.912 -0.0196 -0.2987 -0.1137
   18MPD2     H  281   0.768   0.536   9.582  1.5536 -0.6873  1.5250
   18MPD2    H1  282   0.745   0.768   9.944  1.4426 -1.9601  1.8999
   18MPD2    H2  283   0.476   0.449   9.872  1.5095 -0.7508 -1.3050
   18MPD2    H3  284   0.548   0.639  10.008  0.7797 -2.4117  0.6708
   18MPD2     N  285   0.881   0.744   9.716  0.2920 -0.0904  0.1496
   18MPD2    H5  286   0.908   0.826   9.769 -1.4428  1.4537 -1.3383
   18MPD2    N1  287   0.579   0.389   9.630 -0.2252  0.2917 -0.9123
   18MPD2    H7  288   0.639   0.373   9.551  0.7324 -2.1408  0.2994
   19TMC2    C1  289   1.967   1.583  13.368  0.3707 -0.1709  0.4723
   19TMC2    C2  290   1.955   1.673  13.258  0.2094 -0.4135  0.2094
   19TMC2    C3  291   1.879   1.783  13.272 -0.2718 -0.1545  0.9321
   19TMC2    C4  292   1.908   1.606  13.490  0.3957  0.2490  0.0430
   19TMC2    C5  293   1.821   1.712  13.494  0.4235  0.9485  0.1523
   19TMC2    C6  294   1.807   1.804  13.389  0.3642  0.4423  0.3978
   19TMC2     C  295   2.078   1.486  13.360  0.7482  0.5025  0.1254
   19TMC2     O  296   2.117   1.439  13.254 -0.0300 -0.3718 -0.6293
   19TMC2     H  297   2.006   1.656  13.165  0.2350 -2.1513  0.5256
   19TMC2    H1  298   1.917   1.537  13.573  1.4429 -0.1291 -0.3741
   19TMC2    H2  299   1.753   1.896  13.406  0.0666  0.1524  1.0411
   19TMC2    C7  300   1.697   1.690  13.572  0.2038  0.0263 -0.3194
   19TMC2    C8  301   1.864   1.863  13.147  0.2742  0.0686  0.7272
   19TMC2    O1  302   1.722   1.615  13.666  0.2515  0.1373 -0.3223
   19TMC2    O2  303   1.933   1.847  13.050 -0.1826  0.3895 -0.2917
   19TMC2    O5  304   1.764   1.962  13.161 -0.2347  0.0159  0.7013
   19TMC2    H5  305   1.690   1.946  13.224  0.8725 -1.1019  1.6934
   20MPD2     C  306   2.312   1.303  13.406  0.4439 -0.0455  0.2031
   20MPD2    C1  307   2.279   1.422  13.481  0.2087 -0.9195 -0.3504
   20MPD2    C2  308   2.372   1.464  13.573 -0.1755  0.0265  0.0990
   20MPD2    C3  309   2.493   1.403  13.578  0.0546  0.2504  0.6722
   20MPD2    C4  310   2.530   1.301  13.495 -0.6607  0.2022 -0.0379
   20MPD2    C5  311   2.440   1.241  13.411  0.0054 -0.6533 -0.3470
   20MPD2     H  312   2.352   1.553  13.631 -2.4416 -1.2602  1.2841
   20MPD2    H1  313   2.630   1.261  13.508 -1.2276 -0.9891  0.6432
   20MPD2    H2  314   2.249   1.254  13.333  0.5506  0.7620 -0.4231
   20MPD2    H3  315   2.462   1.154  13.351  0.3603 -1.4421  0.9293
   20MPD2     N  316   2.588   1.444  13.682 -0.4216 -0.5964  0.4375
   20MPD2    H5  317   2.664   1.378  13.694  0.3342 -0.5225 -4.0094
   20MPD2    N1  318   2.155   1.493  13.468  0.0075 -0.2882  0.0885
   20MPD2    H7  319   2.139   1.561  13.542  0.2689  0.9701 -1.0021
   21MPD2     C  320   4.224   2.362  13.632  0.0595 -0.4447 -0.2687
   21MPD2    C1  321   4.313   2.269  13.680  0.5966  0.0942 -0.5044
   21MPD2    C2  322   4.276   2.198  13.795  0.2970  0.5559  0.3302
   21MPD2    C3  323   4.160   2.230  13.871  0.3014  0.1424  1.1377
   21MPD2    C4  324   4.070   2.318  13.812 -0.9583 -1.0651 -0.2054
   21MPD2    C5  325   4.109   2.377  13.693 -0.9565 -0.5708 -0.3933
   21MPD2     H  326   4.356   2.131  13.828 -0.6445  0.5464  2.6096
   21MPD2    H1  327   3.975   2.346  13.857  0.6926 -0.4985  2.8648
   21MPD2    H2  328   4.250   2.408  13.537  1.0256 -1.6202 -0.5686
   21MPD2    H3  329   4.056   2.455  13.639 -2.3344 -1.2193  0.0400
   21MPD2     N  330   4.115   2.166  13.990 -0.1047 -0.6764  0.3818
   21MPD2    H5  331   4.020   2.190  14.019  0.1256  0.2385  0.3683
   21MPD2    N1  332   4.435   2.242  13.617 -0.0425 -0.1953 -0.1661
   21MPD2    H7  333   4.490   2.163  13.651 -1.4371 -0.4196  1.5558
   22TCq2    C1  334   4.186   2.078  14.062 -0.2949  0.0204  0.3314
   22TCq2    O2  335   4.305   2.041  14.054 -0.2245 -0.4153  1.0431
   22TCq2    C2  336   4.111   2.017  14.176 -0.1944  0.7878  0.4990
   22TCq2    C3  337   4.175   1.931  14.257  0.3690 -0.1914  0.2536
   22TCq2    C4  338   4.106   1.867  14.357  0.6997  0.0327  0.2369
   22TCq2    C5  339   3.974   1.880  14.367 -0.4998  0.1470  0.3692
   22TCq2    C6  340   3.914   1.969  14.280 -0.7566 -0.2831 -0.0061
   22TCq2    C7  341   3.975   2.029  14.178  0.3889  0.1361 -0.1916
   22TCq2    C8  342   3.765   1.977  14.282  0.4545 -0.4298  0.7070
   22TCq2    O4  343   3.712   1.877  14.336 -0.4505 -0.2034 -0.2160
   22TCq2    C9  344   4.172   1.773  14.451 -0.3841  0.2312 -0.2853
   22TCq2    O5  345   4.106   1.734  14.556  0.7667  0.0103 -0.1945
   22TCq2    O6  346   4.292   1.745  14.432 -0.4778 -0.2730  0.1201
   22TCq2    H2  347   4.283   1.920  14.251  0.2206 -0.2091 -2.2834
   22TCq2    H3  348   3.925   1.818  14.442  2.4875 -0.9162  1.4193
   22TCq2    H4  349   3.912   2.079  14.104 -0.5060 -2.0107 -0.8810
   23MPD2     C  350   1.469   3.301  14.397  0.4808 -0.0571 -0.0616
   23MPD2    C1  351   1.427   3.166  14.407  0.2862 -0.4177 -0.1397
   23MPD2    C2  352   1.323   3.133  14.330 -0.4674  0.0046  0.0813
   23MPD2    C3  353   1.273   3.225  14.233  0.0452 -0.1866 -0.1536
   23MPD2    C4  354   1.325   3.352  14.219 -0.6445  0.1822  0.3162
   23MPD2    C5  355   1.427   3.389  14.303  0.3740  0.1173 -0.1680
   23MPD2     H  356   1.297   3.028  14.335 -1.2398  0.2625  1.5423
   23MPD2    H1  357   1.283   3.435  14.162  2.9208  0.1901 -2.3009
   23MPD2    H2  358   1.538   3.347  14.467  0.7266 -0.7680  0.1670
   23MPD2    H3  359   1.449   3.495  14.307  1.5960 -0.0804 -1.7747
   23MPD2     N  360   1.161   3.195  14.151 -0.0544  0.1501  0.0536
   23MPD2    H5  361   1.151   3.253  14.067 -1.6313 -1.5397 -0.9202
   23MPD2    N1  362   1.482   3.071  14.496  0.4363 -0.4544  0.2564
   23MPD2    H7  363   1.441   2.979  14.490  2.9971 -1.5411 -0.4539
   24TCq2    C1  364   1.064   3.097  14.177 -0.0272 -0.5619 -0.1601
   24TCq2    O2  365   1.068   3.012  14.268  0.0273 -0.1945  0.2598
   24TCq2    C2  366   0.957   3.091  14.081  0.4430 -1.2230 -0.2161
   24TCq2    C3  367   0.856   3.000  14.102 -0.0756 -0.4188 -0.1545
   24TCq2    C4  368   0.743   2.995  14.019  0.0724  0.0161  0.4101
   24TCq2    C5  369   0.737   3.080  13.910  0.6993 -0.3432  0.1558
   24TCq2    C6  370   0.836   3.176  13.895 -0.0180  0.5113  0.3674
   24TCq2    C7  371   0.949   3.179  13.977  0.3318 -0.6153  0.1018
   24TCq2    C8  372   0.790   3.312  13.854 -0.9020  1.1765  0.1901
   24TCq2    O4  373   0.880   3.399  13.866 -0.1470  0.5722  0.2825
   24TCq2    C9  374   0.637   2.903  14.050  0.3505 -0.6124 -0.2267
   24TCq2    O5  375   0.560   2.881  13.954 -0.7769 -0.6171  0.0118
   24TCq2    O6  376   0.655   2.842  14.157  0.0588 -0.7375  0.2244
   24TCq2    H2  377   0.867   2.932  14.185 -2.9185 -0.1823  0.4325
   24TCq2    H3  378   0.649   3.082  13.848  1.8043 -0.0944 -1.4180
   24TCq2    H4  379   1.038   3.237  13.959 -1.1938  1.6813 -0.0131
   25TMC2    C1  380   4.344   0.570  10.786 -0.5153 -0.1142 -0.2443
   25TMC2    C2  381   4.436   0.608  10.694  0.3868  0.0532 -0.4283
   25TMC2    C3  382   4.535   0.686  10.746  0.6610 -0.6885 -0.2366
   25TMC2    C4  383   4.347   0.601  10.922  0.1671 -0.4759 -1.0650
   25TMC2    C5  384   4.447   0.682  10.961 -1.0007  0.7593  0.3418
   25TMC2    C6  385   4.549   0.716  10.879 -0.1740  0.7496  0.3772
   25TMC2     C  386   4.258   0.457  10.747  0.0343  0.2907  0.5082
   25TMC2     O  387   4.155   0.441  10.808  0.4388 -0.2540 -0.5901
   25TMC2     H  388   4.431   0.590  10.587 -2.6531 -1.0446 -0.0859
   25TMC2    H1  389   4.267   0.568  10.988  1.2900  1.0897  1.0689
   25TMC2    H2  390   4.638   0.759  10.922 -0.5461  0.2481  1.6681
   25TMC2    C7  391   4.454   0.720  11.099 -0.5213 -0.3294  0.0439
   25TMC2    C8  392   4.660   0.703  10.675  0.1607  0.1258  0.9726
   25TMC2    O1  393   4.383   0.654  11.170  0.1500 -0.2676 -0.3309
   25TMC2    O2  394   4.697   0.629  10.585 -0.0314 -0.1226  0.1012
   25TMC2    O5  395   4.702   0.827  10.696  0.4791  0.4305 -0.3884
   25TMC2    H5  396   4.653   0.881  10.762 -1.1397  0.7133 -1.8146
   26MPD2     C  397   4.171   0.016  10.494  0.0324  0.9372  0.9015
   26MPD2    C1  398   4.078   0.100  10.546 -0.4907 -0.1358 -0.3355
   26MPD2    C2  399   4.120   0.222  10.602  0.0926  0.3502  0.1900
   26MPD2    C3  400   4.254   0.251  10.606 -0.4413 -0.1539  0.1719
   26MPD2    C4  401   4.351   0.160  10.565  0.3756  0.2381  0.1324
   26MPD2    C5  402   4.301   0.043  10.507  0.2769  0.2122  0.6104
   26MPD2     H  403   4.051   0.295  10.642 -0.2732  0.7061 -1.0965
   26MPD2    H1  404   4.458   0.178  10.565  0.3118  0.4909 -3.0685
   26MPD2    H2  405   4.141   4.642  10.453  0.9109  0.7431  0.7097
   26MPD2    H3  406   4.376   4.701  10.461 -0.6294 -1.5347  1.5897
   26MPD2     N  407   4.321   0.368  10.665 -0.0325  0.1722 -0.5126
   26MPD2    H5  408   4.421   0.375  10.649  0.0324 -1.5202 -0.7991
   26MPD2    N1  409   3.943   0.059  10.533  0.1793 -0.5142 -0.1309
   26MPD2    H7  410   3.942   4.697  10.476  1.6039 -0.4984 -0.1853
   27TMC2    C1  411   3.867   2.853  11.469  0.4637  1.0879 -0.2390
   27TMC2    C2  412   3.985   2.781  11.450 -0.3301 -0.4843  0.3993
   27TMC2    C3  413   4.104   2.849  11.477  0.4282  0.0975 -0.2546
   27TMC2    C4  414   3.870   2.978  11.527  0.1880 -0.5208  0.1564
   27TMC2    C5  415   3.992   3.035  11.566 -0.3179 -0.3681  0.0030
   27TMC2    C6  416   4.106   2.976  11.531  0.2451 -0.5552  1.0722
   27TMC2     C  417   3.770   2.761  11.514  0.2826 -0.0916  0.5341
   27TMC2     O  418   3.749   2.653  11.453 -0.3467 -0.2370 -0.1435
   27TMC2     H  419   3.991   2.682  11.407 -2.3005 -0.2468 -0.4149
   27TMC2    H1  420   3.780   3.036  11.544  2.0087  1.7362  2.0997
   27TMC2    H2  421   4.200   3.013  11.571  0.9678 -2.6719  1.3535
   27TMC2    C7  422   3.995   3.051  11.709  0.3181 -0.2739  0.5868
   27TMC2    C8  423   4.223   2.778  11.509  0.2573 -0.0036  0.1901
   27TMC2    O1  424   4.015   2.950  11.778 -0.2935 -0.0130 -0.3364
   27TMC2    O2  425   4.216   2.664  11.555 -0.3039 -0.5231  0.7074
   27TMC2    O5  426   4.320   2.831  11.430  0.5417 -0.1357  1.0818
   27TMC2    H5  427   4.301   2.903  11.365 -0.7566 -0.9183  0.5899
   28MPD2     C  428   3.504   2.594  11.901 -0.6778 -0.1007 -0.4647
   28MPD2    C1  429   3.488   2.735  11.903  0.5171 -0.5783  0.3810
   28MPD2    C2  430   3.562   2.808  11.813 -0.7910 -0.4794 -0.1453
   28MPD2    C3  431   3.637   2.734  11.719  0.9005 -0.0759 -0.0969
   28MPD2    C4  432   3.644   2.598  11.719  0.2858  0.9281  0.2275
   28MPD2    C5  433   3.576   2.521  11.813  0.4402  0.5692 -0.1861
   28MPD2     H  434   3.562   2.916  11.809  0.0393 -0.5121 -1.3355
   28MPD2    H1  435   3.708   2.542  11.651 -0.1234  0.4892  0.2030
   28MPD2    H2  436   3.450   2.532  11.971 -0.0512  0.9783  0.9725
   28MPD2    H3  437   3.576   2.413  11.813  1.3771  0.5687 -1.5618
   28MPD2     N  438   3.709   2.811  11.628  0.0946 -0.4244 -0.3941
   28MPD2    H5  439   3.717   2.912  11.641 -1.8588 -0.2614 -0.4973
   28MPD2    N1  440   3.394   2.785  11.997  0.4327 -0.0354  0.5183
   28MPD2    H7  441   3.353   2.725  12.069  0.0200  0.7295  0.9162
   29MPD2     C  442   2.825   0.138  13.759  0.1834 -0.8137  0.2445
   29MPD2    C1  443   2.878   0.065  13.864  0.0129  0.1863 -0.2636
   29MPD2    C2  444   2.883   0.119  13.995 -0.1831  0.3733  0.7789
   29MPD2    C3  445   2.829   0.244  14.020 -0.4068 -1.1229 -0.7654
   29MPD2    C4  446   2.775   0.314  13.913 -0.5674 -0.3525 -0.3853
   29MPD2    C5  447   2.770   0.256  13.785  0.5942  0.1802  0.2702
   29MPD2     H  448   2.939   0.066  14.071  1.1270  1.5786  0.6364
   29MPD2    H1  449   2.735   0.414  13.919  1.1987  0.3908 -1.1800
   29MPD2    H2  450   2.819   0.108  13.655  0.5155  0.7752 -0.2351
   29MPD2    H3  451   2.734   0.309  13.697 -1.9355 -1.8722  0.0835
   29MPD2     N  452   2.833   0.314  14.144  0.2542 -0.3965 -0.1966
   29MPD2    H5  453   2.780   0.401  14.139 -0.2386 -0.6200  1.0036
   29MPD2    N1  454   2.948   4.669  13.848 -0.0726 -0.2223  0.5212
   29MPD2    H7  455   3.004   4.643  13.929  0.7458 -2.5257 -0.7979
   30TCq2    C1  456   2.908   0.273  14.252 -0.1716  0.5517 -0.1127
   30TCq2    O2  457   2.954   0.161  14.280 -0.9637 -1.3085  0.1313
   30TCq2    C2  458   2.924   0.375  14.347 -0.2889  0.1460 -0.0221
   30TCq2    C3  459   2.980   0.341  14.465  0.5285  0.3468  0.1172
   30TCq2    C4  460   3.041   0.439  14.535 -0.4241 -0.2352  0.5829
   30TCq2    C5  461   3.046   0.570  14.501 -0.5010  0.7955  0.1852
   30TCq2    C6  462   2.992   0.595  14.379  0.9707  0.2617  0.0314
   30TCq2    C7  463   2.928   0.504  14.305  0.2509  0.4972 -0.6656
   30TCq2    C8  464   3.001   0.727  14.312 -0.5011 -0.0745 -0.2717
   30TCq2    O4  465   2.921   0.749  14.220 -0.7409  0.3178 -0.2202
   30TCq2    C9  466   3.094   0.392  14.667 -0.0560  0.0718 -0.1116
   30TCq2    O5  467   3.146   0.481  14.742  0.2131  0.2990 -0.2381
   30TCq2    O6  468   3.055   0.283  14.714  0.0735 -0.4553 -0.2356
   30TCq2    H2  469   3.004   0.239  14.495 -1.5225  0.4450  2.1300
   30TCq2    H3  470   3.087   0.647  14.565 -0.1403  0.6956  0.0765
   30TCq2    H4  471   2.901   0.526  14.202  1.7597 -1.9096 -1.6010
   31MPD2     C  472   0.539   3.789  14.001 -0.7013  0.6448  0.4518
   31MPD2    C1  473   0.543   3.909  14.078  0.0163 -0.7619 -0.0480
   31MPD2    C2  474   0.530   3.901  14.218 -0.1661  0.5432  0.1940
   31MPD2    C3  475   0.510   3.771  14.273  0.2582  0.2293  0.3016
   31MPD2    C4  476   0.534   3.662  14.193  0.1059 -0.7246 -0.1672
   31MPD2    C5  477   0.547   3.667  14.060  1.1453  0.5456  0.3626
   31MPD2     H  478   0.517   3.993  14.275  0.8619  1.4536 -1.0601
   31MPD2    H1  479   0.534   3.560  14.228 -0.9606 -0.5650  0.2835
   31MPD2    H2  480   0.542   3.797  13.893  1.5976  1.3837  0.5665
   31MPD2    H3  481   0.558   3.572  14.010  0.8454  0.6183  0.1647
   31MPD2     N  482   0.465   3.754  14.409  0.5442  0.7218  0.8638
   31MPD2    H5  483   0.453   3.658  14.441 -1.5242  0.3425 -1.0199
   31MPD2    N1  484   0.553   4.029  14.003 -0.6359 -0.2391 -0.1759
   31MPD2    H7  485   0.525   4.021  13.906 -0.4748  2.8954 -0.4609
   32TCq2    C1  486   0.411   3.848  14.493 -0.0535  0.0378  0.0345
   32TCq2    O2  487   0.379   3.963  14.467 -0.1685  0.0354 -0.2489
   32TCq2    C2  488   0.356   3.799  14.618 -0.8589 -0.3231 -0.0795
   32TCq2    C3  489   0.253   3.877  14.665  0.9785  0.2683 -0.2889
   32TCq2    C4  490   0.223   3.863  14.794 -0.1063  0.4323  1.0204
   32TCq2    C5  491   0.295   3.778  14.874  0.3620 -0.0045  0.5550
   32TCq2    C6  492   0.392   3.698  14.828 -0.0292 -0.1134 -0.4308
   32TCq2    C7  493   0.430   3.710  14.696 -0.3055  0.2657  0.1964
   32TCq2    C8  494   0.476   3.622  14.917 -0.2219  0.0242 -0.3168
   32TCq2    O4  495   0.587   3.586  14.875 -0.6898  0.2094 -0.6893
   32TCq2    C9  496   0.118   3.943  14.855  0.7070  0.1054  0.7704
   32TCq2    O5  497   0.088   3.914  14.968  0.2701 -0.3894  0.2896
   32TCq2    O6  498   0.108   4.061  14.810  0.2832 -1.0478  0.1122
   32TCq2    H2  499   0.185   3.929  14.599  0.6272 -1.7777 -1.5574
   32TCq2    H3  500   0.294   3.801  14.980 -3.0100  0.7724  0.3633
   32TCq2    H4  501   0.509   3.649  14.654 -1.9348 -3.0615  1.9374
   33MPD2     C  502   1.443   1.349   9.764 -0.7042  0.0857  0.2656
   33MPD2    C1  503   1.341   1.317   9.679  0.7243 -0.4386 -0.1520
   33MPD2    C2  504   1.275   1.428   9.622  0.6943  0.2041 -0.9212
   33MPD2    C3  505   1.339   1.554   9.619 -0.4529 -0.3544 -0.2297
   33MPD2    C4  506   1.453   1.576   9.686  0.4515  0.5348  0.0219
   33MPD2    C5  507   1.503   1.475   9.764  0.2472  0.6437 -0.2741
   33MPD2     H  508   1.180   1.413   9.572 -0.2255  1.2548  0.5083
   33MPD2    H1  509   1.506   1.670   9.685  0.2478  0.6147 -2.3219
   33MPD2    H2  510   1.485   1.262   9.814 -0.9563  1.4649  2.8719
   33MPD2    H3  511   1.597   1.490   9.815  0.0725  1.0885 -0.0849
   33MPD2     N  512   1.299   1.661   9.533  0.2875  0.1523  0.1256
   33MPD2    H5  513   1.357   1.742   9.517  0.6732 -0.2941 -0.7041
   33MPD2    N1  514   1.310   1.178   9.669 -0.1599  0.6378 -0.8759
   33MPD2    H7  515   1.373   1.112   9.711  0.5063  1.8303 -0.0206
   34TCq2    C1  516   1.172   1.677   9.478 -0.2850 -0.0250 -0.1359
   34TCq2    O2  517   1.078   1.597   9.467  0.4543  0.4510  0.0947
   34TCq2    C2  518   1.162   1.808   9.416  0.0380  0.1357 -0.2711
   34TCq2    C3  519   1.042   1.833   9.367 -0.5486  0.1033  0.0555
   34TCq2    C4  520   1.020   1.965   9.327 -0.0353  0.6654  0.2325
   34TCq2    C5  521   1.125   2.049   9.312 -0.7165  0.9067  0.3504
   34TCq2    C6  522   1.252   2.012   9.356 -0.3889  0.1841 -0.5794
   34TCq2    C7  523   1.269   1.893   9.415  0.0790 -0.3200  0.3232
   34TCq2    C8  524   1.366   2.089   9.319  0.0856  0.0034 -0.6607
   34TCq2    O4  525   1.461   2.098   9.393 -0.4751 -0.2960  0.3946
   34TCq2    C9  526   0.882   2.008   9.287 -0.4738  0.3464  0.4977
   34TCq2    O5  527   0.788   1.934   9.323 -0.3580  0.2081  0.0892
   34TCq2    O6  528   0.862   2.129   9.263 -0.1546 -0.2268  0.1759
   34TCq2    H2  529   0.961   1.762   9.382 -1.2006  0.5872 -1.1791
   34TCq2    H3  530   1.104   2.152   9.285  0.8142  1.3631  0.8908
   34TCq2    H4  531   1.372   1.870   9.442 -0.0297  1.2781  2.1720
   35MPD2     C  532   3.061   3.168  11.385  0.0133  0.1036  0.6124
   35MPD2    C1  533   3.031   3.040  11.431 -0.1822  0.1863  0.3668
   35MPD2    C2  534   2.950   2.963  11.348 -0.4455  0.2844 -0.2192
   35MPD2    C3  535   2.896   3.012  11.230 -0.3554 -0.4768  0.4673
   35MPD2    C4  536   2.935   3.142  11.188  0.0244 -0.2842 -0.6082
   35MPD2    C5  537   3.014   3.220  11.269 -0.3638 -0.2904 -0.7460
   35MPD2     H  538   2.921   2.862  11.373  0.2201  0.2095  0.2436
   35MPD2    H1  539   2.888   3.183  11.100 -1.8442 -1.6529 -0.2505
   35MPD2    H2  540   3.116   3.239  11.445 -1.3105 -0.6256  2.7016
   35MPD2    H3  541   3.044   3.318  11.232 -1.3840  0.2869 -0.0583
   35MPD2     N  542   2.823   2.921  11.152  0.2184  0.2320  0.7548
   35MPD2    H5  543   2.790   2.832  11.187 -0.5937  0.8014  1.4557
   35MPD2    N1  544   3.091   2.995  11.551 -0.4956  0.2458  0.7692
   35MPD2    H7  545   3.141   3.052  11.618  0.9965 -0.0522 -0.0803
   36TCq2    C1  546   2.779   2.947  11.019  0.0691 -1.0816  1.0039
   36TCq2    O2  547   2.802   3.039  10.942 -0.0412 -0.2268  0.0183
   36TCq2    C2  548   2.691   2.849  10.956  0.2172  0.2200  0.8197
   36TCq2    C3  549   2.662   2.860  10.830 -0.3109 -0.4357  0.4185
   36TCq2    C4  550   2.579   2.769  10.778  0.2554  0.1135 -0.4543
   36TCq2    C5  551   2.512   2.676  10.852 -0.2875 -0.0025 -0.2090
   36TCq2    C6  552   2.546   2.669  10.982 -0.5022 -0.0065  0.4920
   36TCq2    C7  553   2.634   2.754  11.040 -0.1089  0.1538  0.1570
   36TCq2    C8  554   2.487   2.564  11.059 -0.2346 -0.1180  0.4101
   36TCq2    O4  555   2.382   2.518  11.012  0.5258 -0.0543  0.1676
   36TCq2    C9  556   2.557   2.782  10.634  0.4005  0.1356 -0.3538
   36TCq2    O5  557   2.474   2.703  10.588 -0.0572  0.2520  0.4052
   36TCq2    O6  558   2.640   2.850  10.568 -0.5415  0.3337  0.4387
   36TCq2    H2  559   2.711   2.937  10.772 -0.6471  0.9168  1.9271
   36TCq2    H3  560   2.456   2.603  10.795 -1.0271 -2.2995  3.4846
   36TCq2    H4  561   2.645   2.765  11.147 -0.7629  1.0246  0.1352
   37TMC2    C1  562   4.576   3.523  11.168  0.2691  0.7351 -0.1299
   37TMC2    C2  563   4.558   3.600  11.055 -0.2238 -0.3764 -0.3650
   37TMC2    C3  564   4.637   3.572  10.953  0.4101 -0.3194 -0.4152
   37TMC2    C4  565   4.685   3.455  11.180 -0.4231  0.0840 -0.7373
   37TMC2    C5  566   0.045   3.431  11.070  0.4526  0.1065 -0.7530
   37TMC2    C6  567   0.021   3.486  10.945  0.5713  0.2823 -0.4098
   37TMC2     C  568   4.472   3.521  11.272 -0.6299  0.6362 -0.5665
   37TMC2     O  569   4.392   3.612  11.274  0.0003 -0.2889  0.1896
   37TMC2     H  570   4.476   3.670  11.048 -1.5838 -1.8176  1.1215
   37TMC2    H1  571   0.002   3.407  11.270 -0.6011 -3.1649 -2.3914
   37TMC2    H2  572   0.090   3.488  10.861 -1.4451  3.3025 -1.9749
   37TMC2    C7  573   0.168   3.343  11.089  0.3678 -0.0494  0.0369
   37TMC2    C8  574   4.594   3.631  10.828 -0.6342 -1.0343  0.6813
   37TMC2    O1  575   0.186   3.291  11.199 -0.1449  0.2598  0.1763
   37TMC2    O2  576   4.499   3.709  10.827  0.1381  0.4585 -0.0745
   37TMC2    O5  577   4.607   3.527  10.744 -0.3702  0.1176 -0.0957
   37TMC2    H5  578   4.677   3.463  10.771 -0.0739 -0.0268 -1.1899
   38MPD2     C  579   4.328   3.360  11.740 -0.1421  0.7187 -0.2342
   38MPD2    C1  580   4.443   3.297  11.698  0.3884  0.3987 -0.1156
   38MPD2    C2  581   4.488   3.306  11.567  0.4876  1.2397  0.2783
   38MPD2    C3  582   4.431   3.399  11.483  0.1442  0.3929 -0.1682
   38MPD2    C4  583   4.320   3.472  11.522 -0.1110  0.0757 -0.1713
   38MPD2    C5  584   4.264   3.441  11.646  0.5325 -0.3261  0.4900
   38MPD2     H  585   4.575   3.248  11.535 -0.1396  1.6234 -2.0542
   38MPD2    H1  586   4.274   3.545  11.455  0.0370  0.4620  0.1455
   38MPD2    H2  587   4.279   3.344  11.834 -0.8979 -0.7964 -0.8929
   38MPD2    H3  588   4.160   3.464  11.662  0.3043  0.0143 -1.4826
   38MPD2     N  589   4.488   3.414  11.356 -0.0860  0.4713  0.1480
   38MPD2    H5  590   4.560   3.346  11.332 -0.0126  0.5687  0.0936
   38MPD2    N1  591   4.519   3.211  11.781 -0.3131  0.2956  0.2201
   38MPD2    H7  592   4.598   3.164  11.739  0.2672  0.8337  0.7196
   39MPD2     C  593   2.998   4.304   0.702 -0.2578  0.1984 -0.3590
   39MPD2    C1  594   2.938   4.364   0.808 -0.2766 -0.2123 -0.0025
   39MPD2    C2  595   2.802   4.388   0.803 -0.0036  0.0426  0.5393
   39MPD2    C3  596   2.729   4.376   0.685 -0.4434  0.1568 -0.8489
   39MPD2    C4  597   2.803   4.330   0.575  0.1088  0.6945 -0.3146
   39MPD2    C5  598   2.931   4.297   0.586  0.2852  0.3028 -0.1761
   39MPD2     H  599   2.747   4.423   0.889 -1.1065  2.2289 -1.0343
   39MPD2    H1  600   2.752   4.295   0.486 -0.0483 -1.2198  0.5357
   39MPD2    H2  601   3.103   4.277   0.710 -0.0396  0.7292 -1.5735
   39MPD2    H3  602   2.989   4.249   0.508  0.1056 -0.4850  0.1697
   39MPD2     N  603   2.596   4.419   0.665  0.1044  0.1445  0.0404
   39MPD2    H5  604   2.551   4.410   0.574  1.6632  2.7930 -0.9749
   39MPD2    N1  605   3.024   4.399   0.908  0.2493 -0.0689 -0.0167
   39MPD2    H7  606   3.118   4.362   0.901 -0.0524 -1.4061  2.6696
   40TCq2    C1  607   2.991   4.476   1.016 -0.1688 -0.6716 -0.1348
   40TCq2    O2  608   2.888   4.542   1.039  0.2387 -0.0233  0.2011
   40TCq2    C2  609   3.114   4.510   1.085  0.1498 -0.6293 -0.0140
   40TCq2    C3  610   3.102   4.620   1.160 -0.2345 -0.1085 -0.2028
   40TCq2    C4  611   3.192   4.657   1.255  0.3407 -0.0811  0.3324
   40TCq2    C5  612   3.307   4.584   1.266  0.4600 -0.4574 -0.4738
   40TCq2    C6  613   3.319   4.464   1.193  0.7790  0.7464  0.8459
   40TCq2    C7  614   3.224   4.427   1.102  0.2421 -0.4728 -0.0729
   40TCq2    C8  615   3.456   4.405   1.161  0.1090  0.1907  0.0634
   40TCq2    O4  616   3.461   4.295   1.104 -0.1497  0.3461  0.0423
   40TCq2    C9  617   3.169   0.052   1.338  0.4398  0.2149 -0.1525
   40TCq2    O5  618   3.057   0.105   1.314 -0.5173 -0.1002 -0.0791
   40TCq2    O6  619   3.273   0.096   1.396  0.2946  0.6697 -0.1947
   40TCq2    H2  620   3.011   4.679   1.157 -0.2355 -0.0766  0.5803
   40TCq2    H3  621   3.377   4.609   1.345  0.1159 -0.9184 -0.0170
   40TCq2    H4  622   3.234   4.327   1.060 -0.4941  0.4196 -2.3470
   41TMC2    C1  623   1.818   3.194  13.035  0.0436  0.8786  0.0586
   41TMC2    C2  624   1.950   3.209  13.075  0.1584  0.2495 -0.2899
   41TMC2    C3  625   2.043   3.260  12.994 -0.2359  0.4789 -0.3596
   41TMC2    C4  626   1.780   3.238  12.910  0.3067 -0.7149  0.3199
   41TMC2    C5  627   1.877   3.296  12.828 -0.1122 -1.0523 -0.0060
   41TMC2    C6  628   2.009   3.309  12.873  0.4578 -0.3463  0.2211
   41TMC2     C  629   1.733   3.091  13.096  0.0952  0.3295 -0.1723
   41TMC2     O  630   1.671   3.019  13.023 -0.0798 -0.1734 -0.5421
   41TMC2     H  631   1.987   3.175  13.171  2.0432 -0.9646 -1.4512
   41TMC2    H1  632   1.677   3.223  12.881  0.1236  1.3333 -0.0372
   41TMC2    H2  633   2.077   3.372  12.818  0.7737 -1.8241 -1.1027
   41TMC2    C7  634   1.846   3.302  12.690 -0.3946  0.4624 -0.4273
   41TMC2    C8  635   2.169   3.291  13.054  0.0881 -0.5178 -0.4085
   41TMC2    O1  636   1.729   3.300  12.667 -0.4664  0.2873  0.1171
   41TMC2    O2  637   2.188   3.275  13.174 -0.1457 -0.1713  0.3615
   41TMC2    O5  638   2.270   3.306  12.962 -0.2149 -0.4436 -0.0893
   41TMC2    H5  639   2.232   3.293  12.873 -1.0122 -1.5895  0.4084
   42MPD2     C  640   1.559   2.963  13.305  0.1684  0.3504  0.7345
   42MPD2    C1  641   1.676   3.025  13.340 -0.0382 -0.0636  0.3241
   42MPD2    C2  642   1.716   3.032  13.472  0.0774 -0.0471  0.2524
   42MPD2    C3  643   1.643   2.958  13.573  0.2436 -0.2646  0.2444
   42MPD2    C4  644   1.525   2.894  13.530 -0.1056  0.4241 -0.5902
   42MPD2    C5  645   1.486   2.902  13.403  0.7288  0.8047 -0.3145
   42MPD2     H  646   1.811   3.079  13.494  1.3309 -2.3327 -0.1827
   42MPD2    H1  647   1.458   2.843  13.599 -0.0021  0.6195 -0.3437
   42MPD2    H2  648   1.524   2.963  13.202  1.2892  0.1926  0.3521
   42MPD2    H3  649   1.393   2.848  13.387  0.5981  1.3852 -1.4824
   42MPD2     N  650   1.677   2.962  13.709 -0.3723  0.1761  0.5431
   42MPD2    H5  651   1.604   2.918  13.764 -2.6041  1.5137 -1.2990
   42MPD2    N1  652   1.758   3.088  13.232 -0.8299  0.4680 -0.1285
   42MPD2    H7  653   1.820   3.160  13.269  1.2551 -0.1816 -2.4298
   43MPD2     C  654   3.762   1.477   0.119  0.4319  0.4407  0.6959
   43MPD2    C1  655   3.813   1.422   0.237 -0.1373  0.2732 -0.5006
   43MPD2    C2  656   3.747   1.437   0.355 -0.7002  0.2072 -0.1825
   43MPD2    C3  657   3.630   1.510   0.369  0.2301 -0.0905  0.0771
   43MPD2    C4  658   3.571   1.556   0.255  0.6732  0.2709 -0.6572
   43MPD2    C5  659   3.634   1.542   0.133  0.4048 -0.0622 -0.1989
   43MPD2     H  660   3.782   1.373   0.436  0.3708 -1.5743 -2.0466
   43MPD2    H1  661   3.475   1.605   0.262 -0.2307 -1.7365  0.8106
   43MPD2    H2  662   3.803   1.467   0.020  0.2024  2.0831  0.4411
   43MPD2    H3  663   3.584   1.581   0.045  2.9031 -0.3256 -1.7488
   43MPD2     N  664   3.553   1.513   0.491  0.4823 -0.0080  0.0949
   43MPD2    H5  665   3.461   1.555   0.489  1.5333  2.2620 -1.2570
   43MPD2    N1  666   3.932   1.341   0.238 -0.0600  0.2399  1.0802
   43MPD2    H7  667   3.957   1.300   0.327  0.4953 -0.8922  0.4019
   44TCq2    C1  668   3.527   1.586   1.070 -0.1999  0.6337  0.6029
   44TCq2    O2  669   3.636   1.638   1.068  0.1145  0.2586  0.5334
   44TCq2    C2  670   3.471   1.533   0.949 -0.3776  0.4538 -0.3578
   44TCq2    C3  671   3.356   1.470   0.944 -0.9372  0.0420  0.3630
   44TCq2    C4  672   3.314   1.408   0.833  0.7176  0.1585  0.3843
   44TCq2    C5  673   3.377   1.425   0.713 -0.2881  0.3725  0.6129
   44TCq2    C6  674   3.496   1.500   0.720 -0.4490  0.1399  0.2323
   44TCq2    C7  675   3.542   1.556   0.838  0.4481  0.4160  0.6071
   44TCq2    C8  676   3.590   1.468   0.616  0.5490 -0.0732 -0.6111
   44TCq2    O4  677   3.707   1.436   0.654  0.2246 -0.5119  0.4727
   44TCq2    C9  678   3.217   1.302   0.842 -0.3935  0.3124 -0.0590
   44TCq2    O5  679   3.170   1.274   0.956  0.3218 -0.0389 -0.6407
   44TCq2    O6  680   3.178   1.247   0.738 -0.0896 -0.6901  0.5209
   44TCq2    H2  681   3.284   1.456   1.024  1.1759 -3.7983  1.6292
   44TCq2    H3  682   3.358   1.367   0.624  0.0329  0.0479  0.7577
   44TCq2    H4  683   3.639   1.605   0.833  0.6425  0.0646  0.8970
   45TMC2    C1  684   4.012   3.576   8.639 -0.6488  0.7355 -0.7772
   45TMC2    C2  685   4.142   3.607   8.644 -0.0024 -0.4037  0.4346
   45TMC2    C3  686   4.172   3.741   8.634  0.2797 -0.4640  0.1452
   45TMC2    C4  687   3.907   3.667   8.639 -0.1815  0.2225 -0.6311
   45TMC2    C5  688   3.944   3.803   8.644  0.4066  0.3878  0.2140
   45TMC2    C6  689   4.074   3.836   8.641 -0.4477  0.3720 -0.3904
   45TMC2     C  690   3.987   3.433   8.674  0.3399  0.4007 -0.0224
   45TMC2     O  691   4.090   3.367   8.679 -0.2457  0.0496 -0.0086
   45TMC2     H  692   4.230   3.546   8.627  1.1082  0.6857  2.2705
   45TMC2    H1  693   3.800   3.647   8.643  0.0067 -1.0026 -1.7639
   45TMC2    H2  694   4.101   3.941   8.629 -0.8064  0.5424  0.3121
   45TMC2    C7  695   3.838   3.907   8.644 -0.2602 -0.3099  1.2221
   45TMC2    C8  696   4.311   3.782   8.637  0.6928 -0.2650 -0.7218
   45TMC2    O1  697   3.728   3.871   8.609  0.1212  0.3716 -0.5074
   45TMC2    O2  698   4.401   3.715   8.689  0.2161  0.6312  0.1619
   45TMC2    O5  699   4.347   3.881   8.555 -0.2737 -0.6139  0.5813
   45TMC2    H5  700   4.286   3.914   8.485 -1.6338 -0.6573  1.7480
   46MPD2     C  701   3.896   3.160   8.741  1.0624  0.1338  0.6691
   46MPD2    C1  702   3.813   3.271   8.730  0.2591 -0.1620  0.3487
   46MPD2    C2  703   3.676   3.244   8.738 -0.7393  0.1394  0.0100
   46MPD2    C3  704   3.637   3.107   8.733  0.1978  0.7899 -0.1670
   46MPD2    C4  705   3.724   3.002   8.740  0.2637  0.5560 -0.0473
   46MPD2    C5  706   3.853   3.029   8.750  0.0427  0.1368 -0.5055
   46MPD2     H  707   3.600   3.319   8.722 -0.0963  0.6920 -0.4255
   46MPD2    H1  708   3.710   2.895   8.742  1.3624  0.4000 -1.1083
   46MPD2    H2  709   3.999   3.170   8.775  0.8800  0.7151  1.0581
   46MPD2    H3  710   3.933   2.956   8.748  1.1634  1.3026  1.4084
   46MPD2     N  711   3.502   3.091   8.695  0.0744  0.2091  0.0729
   46MPD2    H5  712   3.443   3.174   8.694 -1.2766 -0.7548 -0.3542
   46MPD2    N1  713   3.861   3.401   8.711  0.2601  0.4423 -0.1466
   46MPD2    H7  714   3.788   3.466   8.683  2.2586  2.6495 -0.1797
   47TMC2    C1  715   1.525   4.297   9.170 -0.5666  0.1455  0.5633
   47TMC2    C2  716   1.439   4.390   9.124 -0.0720  0.1925  0.5478
   47TMC2    C3  717   1.308   4.358   9.112 -0.2405  0.7399 -0.3872
   47TMC2    C4  718   1.490   4.168   9.199  0.4065  0.1745  0.4178
   47TMC2    C5  719   1.353   4.147   9.199  0.5109  0.4286  0.5444
   47TMC2    C6  720   1.262   4.236   9.155 -0.3314 -0.3981  0.6796
   47TMC2     C  721   1.669   4.324   9.152  0.0870  0.1023  0.0506
   47TMC2     O  722   1.693   4.436   9.124 -0.7928 -0.0070  0.4110
   47TMC2     H  723   1.479   4.491   9.115  0.3608  0.2452  3.0043
   47TMC2    H1  724   1.566   4.093   9.218 -1.1671 -0.8509  2.6050
   47TMC2    H2  725   1.158   4.207   9.167 -0.2234 -1.2668 -0.5056
   47TMC2    C7  726   1.312   4.018   9.245 -0.0318 -0.1102  0.2207
   47TMC2    C8  727   1.210   4.464   9.116  0.4060  0.0327  0.0596
   47TMC2    O1  728   1.201   3.974   9.201  0.3095 -0.3451  0.5446
   47TMC2    O2  729   1.237   4.577   9.152 -0.0465 -0.5082  0.7222
   47TMC2    O5  730   1.100   4.407   9.064 -0.0488  0.3913  0.8387
   47TMC2    H5  731   1.117   4.324   9.015  1.5512  1.0712  0.2292
   48MPD2     C  732   1.955   4.333   9.185  0.7281 -0.4539  0.5069
   48MPD2    C1  733   1.885   4.219   9.157  0.3824 -0.3098  0.4337
   48MPD2    C2  734   1.960   4.106   9.143  0.5633  0.1629  0.4860
   48MPD2    C3  735   2.097   4.109   9.156  0.4581 -0.2481  0.2761
   48MPD2    C4  736   2.167   4.221   9.184  0.3114 -0.6863  0.1652
   48MPD2    C5  737   2.093   4.342   9.190 -0.4180 -0.7489  1.0514
   48MPD2     H  738   1.921   4.008   9.119 -0.1306  0.9609 -1.6249
   48MPD2    H1  739   2.274   4.222   9.197  0.1195  0.6819  1.6684
   48MPD2    H2  740   1.906   4.430   9.181 -0.4453 -1.1490 -2.2408
   48MPD2    H3  741   2.148   4.434   9.204  1.4302 -1.6539 -0.2651
   48MPD2     N  742   2.165   3.981   9.147  0.0607  0.1453  1.3387
   48MPD2    H5  743   2.114   3.901   9.109  4.9381 -2.3993  0.2135
   48MPD2    N1  744   1.750   4.210   9.149  0.8842  0.3179 -0.1829
   48MPD2    H7  745   1.704   4.120   9.134 -0.1933  1.1370 -1.7604
   49MPD2     C  746   3.949   0.869   9.389 -0.0982 -0.8265  0.1557
   49MPD2    C1  747   3.918   0.770   9.484 -0.2386 -0.2566  0.2040
   49MPD2    C2  748   3.992   0.772   9.603  0.2897  0.5384 -0.0770
   49MPD2    C3  749   4.104   0.853   9.615  0.2211  0.4091 -0.1361
   49MPD2    C4  750   4.141   0.945   9.520  0.0254 -0.3104  1.6270
   49MPD2    C5  751   4.051   0.958   9.415 -0.5914 -0.2412  0.6067
   49MPD2     H  752   3.963   0.702   9.680 -1.7364  0.1642 -1.1806
   49MPD2    H1  753   4.226   1.009   9.535 -1.0016  1.5353 -0.5003
   49MPD2    H2  754   3.871   0.895   9.319  0.3151 -1.2162 -0.4506
   49MPD2    H3  755   4.052   1.044   9.349 -2.5371 -1.7915 -1.4658
   49MPD2     N  756   4.178   0.852   9.737  0.5774 -0.2832  0.3543
   49MPD2    H5  757   4.236   0.935   9.742  0.1497  0.0018  0.5131
   49MPD2    N1  758   3.816   0.681   9.467  0.0434  0.5903  0.1632
   49MPD2    H7  759   3.810   0.602   9.530 -0.3076  1.8614  1.7179
   50TCq2    C1  760   3.721   0.680   9.367  0.7131 -0.1753  0.2596
   50TCq2    O2  761   3.705   0.756   9.267  0.3895 -0.2473  0.8939
   50TCq2    C2  762   3.623   0.574   9.397  0.1394  0.0366 -0.4620
   50TCq2    C3  763   3.564   0.507   9.298  0.0949 -0.1549  0.1930
   50TCq2    C4  764   3.475   0.411   9.332  0.8953 -0.1436  0.9679
   50TCq2    C5  765   3.444   0.380   9.465 -0.0916  0.5313  0.4638
   50TCq2    C6  766   3.487   0.468   9.560  0.7904  0.8140 -0.0758
   50TCq2    C7  767   3.575   0.562   9.526  0.6147 -0.3099  0.0318
   50TCq2    C8  768   3.435   0.472   9.691 -0.3714 -0.2514  0.3545
   50TCq2    O4  769   3.482   0.555   9.765  0.2704 -0.4816  0.1927
   50TCq2    C9  770   3.414   0.327   9.233  0.4269  0.2819  0.1244
   50TCq2    O5  771   3.307   0.269   9.269  0.4148 -0.0242 -0.5193
   50TCq2    O6  772   3.460   0.341   9.118 -0.4537 -0.1935 -0.5412
   50TCq2    H2  773   3.602   0.508   9.197  0.4391 -2.3174  0.3077
   50TCq2    H3  774   3.386   0.291   9.486  0.3244 -0.3532 -2.0437
   50TCq2    H4  775   3.605   0.644   9.591 -0.1725 -0.7507  0.9584
   51MPD2     C  776   0.315   4.107   1.013 -0.5760  0.2113 -0.1117
   51MPD2    C1  777   0.285   3.975   1.040 -0.2974  0.5467  0.2530
   51MPD2    C2  778   0.349   3.913   1.146  0.3160 -0.1231  1.3761
   51MPD2    C3  779   0.442   3.989   1.220  0.2397 -0.1722  0.1241
   51MPD2    C4  780   0.461   4.124   1.197  0.7012  0.1515  0.2535
   51MPD2    C5  781   0.398   4.178   1.096 -0.9690  0.1722  0.3911
   51MPD2     H  782   0.339   3.807   1.165  4.0013 -0.4878  1.3109
   51MPD2    H1  783   0.539   4.183   1.244  1.2615 -1.6960  1.6376
   51MPD2    H2  784   0.254   4.155   0.937 -2.4712  0.5976  1.6854
   51MPD2    H3  785   0.415   4.285   1.089  0.5278  0.0779  2.6410
   51MPD2     N  786   0.524   3.926   1.316  0.0991  0.8208  0.5124
   51MPD2    H5  787   0.594   3.990   1.352  1.2740 -0.2085  0.0749
   51MPD2    N1  788   0.198   3.901   0.957 -1.1206 -1.0631 -0.9576
   51MPD2    H7  789   0.159   3.814   0.994 -1.6814 -0.2887  0.2474
   52TCq2    C1  790   0.515   3.802   1.370  0.1740  0.0261  0.5609
   52TCq2    O2  791   0.440   3.711   1.350 -0.0897  0.6447  0.1934
   52TCq2    C2  792   0.617   3.774   1.466  0.2798  0.5072 -0.2220
   52TCq2    C3  793   0.657   3.645   1.476  0.2938 -0.5562 -0.5643
   52TCq2    C4  794   0.737   3.613   1.580 -0.0374 -0.1306  0.0608
   52TCq2    C5  795   0.794   3.715   1.658  0.1984  0.4792  0.4610
   52TCq2    C6  796   0.738   3.837   1.658 -0.0196 -0.3561 -0.4450
   52TCq2    C7  797   0.644   3.870   1.561  0.1320 -0.1801 -0.5333
   52TCq2    C8  798   0.825   3.942   1.691  0.7220 -0.3437 -0.1629
   52TCq2    O4  799   0.772   4.047   1.724  0.0319 -0.0108  0.1850
   52TCq2    C9  800   0.794   3.477   1.585  0.4255 -0.4347 -0.5609
   52TCq2    O5  801   0.757   3.394   1.501  0.3545  0.5459 -0.0079
   52TCq2    O6  802   0.905   3.486   1.634  0.0782 -0.3575 -0.6740
   52TCq2    H2  803   0.623   3.579   1.396 -0.0791 -0.6258 -0.3521
   52TCq2    H3  804   0.864   3.686   1.736  1.1497 -1.5429 -1.1350
   52TCq2    H4  805   0.596   3.968   1.555 -1.1819 -0.8331 -0.7594
   53TMC2    C1  806   0.865   3.258  11.267 -0.9692  0.1955 -0.3304
   53TMC2    C2  807   0.977   3.202  11.299  0.4348  0.1278 -0.9151
   53TMC2    C3  808   1.028   3.226  11.425 -0.8694 -0.6401  0.5635
   53TMC2    C4  809   0.790   3.328  11.357  0.7417 -0.1168  0.2385
   53TMC2    C5  810   0.839   3.336  11.486  0.0787 -0.6362  0.1868
   53TMC2    C6  811   0.965   3.287  11.526 -0.4574 -0.2726 -0.1605
   53TMC2     C  812   0.809   3.225  11.137 -0.3222  0.3521 -0.3179
   53TMC2     O  813   0.877   3.206  11.038  0.4377 -0.2633 -0.1570
   53TMC2     H  814   1.038   3.150  11.226  0.2344 -1.1138 -0.2039
   53TMC2    H1  815   0.709   3.392  11.322  1.6529  0.8295 -0.1469
   53TMC2    H2  816   1.005   3.313  11.623  1.5670  1.3025 -1.4226
   53TMC2    C7  817   0.736   3.350  11.588  0.0529  0.7896  0.0387
   53TMC2    C8  818   1.160   3.165  11.455 -0.6077  0.1753  0.6079
   53TMC2    O1  819   0.621   3.370  11.548 -0.8717 -0.0619 -0.6130
   53TMC2    O2  820   1.234   3.137  11.361  0.3806 -0.6695  0.3180
   53TMC2    O5  821   1.191   3.160  11.586 -0.3355  0.3234 -0.3891
   53TMC2    H5  822   1.119   3.181  11.649 -0.0855  0.4634 -0.1468
   54MPD2     C  823   0.613   3.211  10.902  0.2608 -0.0649  0.6971
   54MPD2    C1  824   0.571   3.222  11.033 -0.0264 -0.0658 -0.8816
   54MPD2    C2  825   0.437   3.252  11.054  0.5329 -0.6459  0.0228
   54MPD2    C3  826   0.351   3.268  10.950 -0.1069 -0.0038 -0.5629
   54MPD2    C4  827   0.392   3.262  10.819  0.5822 -0.2013 -0.3872
   54MPD2    C5  828   0.524   3.224  10.795  0.1511  0.4094  0.2537
   54MPD2     H  829   0.413   3.269  11.158 -1.3057  1.1126 -0.6822
   54MPD2    H1  830   0.325   3.270  10.734  0.5135 -2.2491 -0.5273
   54MPD2    H2  831   0.715   3.197  10.868  0.4018  0.7648  0.8017
   54MPD2    H3  832   0.559   3.199  10.696 -1.2840  0.2441 -0.2203
   54MPD2     N  833   0.218   3.315  10.967  0.3854  0.8176 -0.0890
   54MPD2    H5  834   0.170   3.344  10.883 -0.4060 -0.3316 -0.0457
   54MPD2    N1  835   0.671   3.232  11.146  0.2596 -1.2207  0.2258
   54MPD2    H7  836   0.633   3.240  11.240  0.1248 -1.1749  0.1672
   55MPD2     C  837   1.463   0.672   0.113 -0.7814  0.6755 -0.1025
   55MPD2    C1  838   1.361   0.614   0.181  0.2594  0.8995  0.1129
   55MPD2    C2  839   1.231   0.672   0.178  0.1954  0.3092  0.5453
   55MPD2    C3  840   1.208   0.785   0.098  0.5162  0.2283  0.0215
   55MPD2    C4  841   1.314   0.840   0.031  0.0610 -0.2168 -0.0138
   55MPD2    C5  842   1.449   0.792   0.051 -0.2156 -0.1549 -0.4160
   55MPD2     H  843   1.148   0.651   0.245 -1.2845 -1.5275 -1.8798
   55MPD2    H1  844   1.299   0.921  17.649 -1.1098 -0.1597  0.3039
   55MPD2    H2  845   1.565   0.637   0.114 -1.6764 -1.9995 -1.6768
   55MPD2    H3  846   1.529   0.845   0.000  0.5756 -1.2769 -0.3258
   55MPD2     N  847   1.084   0.843   0.084 -0.2803 -0.6670 -0.5134
   55MPD2    H5  848   1.012   0.809   0.147  1.1494 -2.1912  0.2908
   55MPD2    N1  849   1.396   0.512   0.273 -0.4168  0.8493 -0.1293
   55MPD2    H7  850   1.494   0.485   0.277 -1.1706 -1.7958 -0.0094
   56TCq2    C1  851   1.313   0.442   0.354 -0.1330  0.4182  0.7057
   56TCq2    O2  852   1.192   0.434   0.342  0.1691  0.7926  0.4437
   56TCq2    C2  853   1.388   0.335   0.421  0.1249 -0.5761 -0.2763
   56TCq2    C3  854   1.496   0.372   0.497  0.4769  0.1222  0.0577
   56TCq2    C4  855   1.541   0.298   0.600  0.0175  0.5044 -0.0127
   56TCq2    C5  856   1.465   0.194   0.641 -0.2818  0.6376  0.1829
   56TCq2    C6  857   1.347   0.169   0.577  0.4506  0.2348  0.0052
   56TCq2    C7  858   1.311   0.234   0.463 -0.3221 -0.1562  0.1178
   56TCq2    C8  859   1.264   0.063   0.633 -0.6886  0.3575  0.8040
   56TCq2    O4  860   1.310   4.706   0.713  0.1782  0.1011 -0.0802
   56TCq2    C9  861   1.664   0.329   0.667 -0.1139 -0.0851  0.0912
   56TCq2    O5  862   1.707   0.234   0.742 -0.2994 -0.3831  0.2100
   56TCq2    O6  863   1.720   0.440   0.641 -0.1408  0.4186 -0.0234
   56TCq2    H2  864   1.543   0.467   0.470  1.9358 -0.4096  0.7189
   56TCq2    H3  865   1.492   0.137   0.729 -1.0421  0.4014  0.2646
   56TCq2    H4  866   1.221   0.213   0.407  0.0041 -1.3265  0.0257
   57TMC2    C1  867   0.150   2.226  12.468 -0.1372  0.2396  0.6690
   57TMC2    C2  868   0.153   2.129  12.371  0.3666  0.2485  0.4616
   57TMC2    C3  869   0.266   2.119  12.289  0.1023  0.0476  0.9683
   57TMC2    C4  870   0.267   2.296  12.502  0.2099 -0.9351  0.3060
   57TMC2    C5  871   0.377   2.275  12.426 -0.4776 -0.1592 -0.3052
   57TMC2    C6  872   0.381   2.189  12.317  0.3426 -0.4492  0.0683
   57TMC2     C  873   0.074   2.186  12.578  0.5587  0.7626  0.0233
   57TMC2     O  874   0.123   2.189  12.686  0.4870  0.3417 -0.2463
   57TMC2     H  875   0.076   2.053  12.364  0.8622 -0.2602  0.5416
   57TMC2    H1  876   0.272   2.367  12.584 -0.1822  0.8021 -1.1484
   57TMC2    H2  877   0.472   2.185  12.258 -0.5171 -0.4583 -1.2362
   57TMC2    C7  878   0.505   2.308  12.495 -0.1045 -0.1029 -0.2929
   57TMC2    C8  879   0.248   2.020  12.178  0.2974 -0.2807 -0.1553
   57TMC2    O1  880   0.499   2.386  12.589 -0.0907 -0.3800 -0.1025
   57TMC2    O2  881   0.338   1.973  12.111  0.3066  0.9021  0.4958
   57TMC2    O5  882   0.131   2.055  12.131 -0.0322 -0.3596  0.0182
   57TMC2    H5  883   0.074   2.109  12.190 -0.4749  2.2487 -2.8071
   58MPD2     C  884   4.353   2.010  12.787  1.1536  0.0306  0.0800
   58MPD2    C1  885   4.460   2.075  12.840 -0.1558  0.1084 -0.2219
   58MPD2    C2  886   4.567   2.119  12.762  0.2363 -0.7636  0.6366
   58MPD2    C3  887   4.564   2.112  12.625 -0.3313  0.1832 -0.0928
   58MPD2    C4  888   4.445   2.061  12.571  0.4171 -0.2413  0.3442
   58MPD2    C5  889   4.350   2.005  12.652 -0.3356  0.9470 -0.2145
   58MPD2     H  890   4.647   2.180  12.803 -1.2616  2.1898 -0.8286
   58MPD2    H1  891   4.431   2.037  12.466  0.3712  0.4715  0.1922
   58MPD2    H2  892   4.276   1.963  12.846  0.4081 -0.3564 -1.2128
   58MPD2    H3  893   4.267   1.947  12.614 -0.7164 -0.0195  2.0450
   58MPD2     N  894   4.667   2.170  12.538  0.3248  0.2680  0.4445
   58MPD2    H5  895   4.647   2.169  12.438 -1.1098 -1.4255  0.7400
   58MPD2    N1  896   4.473   2.099  12.980  0.0496 -0.3866 -0.1240
   58MPD2    H7  897   4.570   2.122  13.002  0.3358 -2.0031  0.3426
   59MPD2     C  898   3.419   1.806  12.660 -0.8223  0.5501  0.0426
   59MPD2    C1  899   3.523   1.880  12.607  0.0697  0.2423 -0.8305
   59MPD2    C2  900   3.593   1.972  12.683  0.0508 -0.0647 -0.4456
   59MPD2    C3  901   3.537   2.006  12.808  0.2691  0.1180 -0.0913
   59MPD2    C4  902   3.438   1.932  12.861  0.2661 -1.5290 -0.5856
   59MPD2    C5  903   3.377   1.829  12.788  0.1729  0.0674  0.0887
   59MPD2     H  904   3.664   2.034  12.629  1.1418  1.3111  2.5969
   59MPD2    H1  905   3.396   1.965  12.955  2.9118  1.1514 -0.3557
   59MPD2    H2  906   3.358   1.731  12.610  0.7503 -1.4593  1.1170
   59MPD2    H3  907   3.286   1.783  12.823 -0.0217 -0.4198 -1.0970
   59MPD2     N  908   3.576   2.122  12.878 -0.0805  0.6626  0.0828
   59MPD2    H5  909   3.528   2.138  12.966 -1.3272 -1.3584 -0.2216
   59MPD2    N1  910   3.553   1.870  12.471 -0.0717  0.8630 -0.0366
   59MPD2    H7  911   3.624   1.934  12.437  0.7583 -0.7063 -1.2786
   60TCq2    C1  912   3.472   1.817  12.369  0.4955 -0.0872 -0.1479
   60TCq2    O2  913   3.353   1.786  12.372  0.1304 -0.3743  0.1202
   60TCq2    C2  914   3.547   1.839  12.245 -0.4427  0.6585 -0.4489
   60TCq2    C3  915   3.667   1.771  12.232  0.1040  0.1998 -0.3665
   60TCq2    C4  916   3.709   1.745  12.105 -0.1521 -0.7846  0.1858
   60TCq2    C5  917   3.659   1.808  11.993 -0.3056 -0.9128  0.3544
   60TCq2    C6  918   3.545   1.880  12.009  0.0674 -0.5304 -0.1329
   60TCq2    C7  919   3.484   1.883  12.133  0.3754 -0.1042  0.0691
   60TCq2    C8  920   3.497   1.935  11.885  0.0044  0.0378  0.4646
   60TCq2    O4  921   3.569   1.917  11.790  0.8913  0.1420  0.1120
   60TCq2    C9  922   3.819   1.656  12.089  0.0953  0.4668  0.2435
   60TCq2    O5  923   3.855   1.639  11.968  0.5416 -0.2597  0.4427
   60TCq2    O6  924   3.822   1.567  12.175  0.3563  0.2890  0.2283
   60TCq2    H2  925   3.721   1.730  12.316  1.2353  0.7795 -0.8182
   60TCq2    H3  926   3.710   1.800  11.897  0.4987  0.2535  0.6846
   60TCq2    H4  927   3.392   1.940  12.141  0.2352 -0.1168 -1.4193
   61MPD2     C  928   2.119   3.286  13.928 -0.6354  0.1157  0.2355
   61MPD2    C1  929   2.194   3.362  14.010 -0.3348 -0.3445 -0.5600
   61MPD2    C2  930   2.192   3.498  13.999  0.1368 -0.6425 -0.3325
   61MPD2    C3  931   2.125   3.570  13.902  0.0623 -0.3700  0.5561
   61MPD2    C4  932   2.048   3.487  13.820 -0.3204 -1.4281 -0.3868
   61MPD2    C5  933   2.044   3.353  13.837  0.8622 -0.6036  0.4586
   61MPD2     H  934   2.240   3.559  14.074 -0.9458  0.4088 -0.5006
   61MPD2    H1  935   1.991   3.524  13.736 -0.6049 -2.3500 -0.5977
   61MPD2    H2  936   2.106   3.179  13.931 -0.8889  0.0792 -2.1641
   61MPD2    H3  937   1.983   3.292  13.772  0.8469 -0.4019  0.2869
   61MPD2     N  938   2.134   3.710  13.893  0.2667 -0.4456  0.2211
   61MPD2    H5  939   2.062   3.758  13.841  0.8332  0.6100  0.3994
   61MPD2    N1  940   2.262   3.307  14.124 -0.7635  0.1846 -0.1612
   61MPD2    H7  941   2.324   3.369  14.176 -0.3133 -0.3812 -0.0335
   62TCq2    C1  942   2.233   3.187  14.183  0.1383 -0.4133 -0.3670
   62TCq2    O2  943   2.184   3.082  14.144 -0.6597  0.0040  0.0257
   62TCq2    C2  944   2.237   3.203  14.328  0.3552 -0.1193 -0.2422
   62TCq2    C3  945   2.268   3.097  14.404  0.5478 -0.2241  0.1542
   62TCq2    C4  946   2.265   3.118  14.541  0.0439  0.1412 -0.0906
   62TCq2    C5  947   2.231   3.250  14.589 -0.0773 -0.3241 -0.5073
   62TCq2    C6  948   2.194   3.349  14.504  0.0804 -0.0350  0.7466
   62TCq2    C7  949   2.194   3.328  14.368 -0.3120  0.4155  0.0579
   62TCq2    C8  950   2.174   3.482  14.555  0.5509 -0.3238 -0.2822
   62TCq2    O4  951   2.213   3.569  14.485 -0.5427 -0.2524 -0.0169
   62TCq2    C9  952   2.304   3.011  14.635  0.2057  0.8916 -0.4790
   62TCq2    O5  953   2.315   2.898  14.582 -0.2952 -0.2403  0.2925
   62TCq2    O6  954   2.319   3.043  14.755  0.1122 -0.2330 -0.0915
   62TCq2    H2  955   2.285   2.997  14.366  3.9332 -0.1531  1.4582
   62TCq2    H3  956   2.231   3.266  14.697 -1.0508 -0.3067 -0.5034
   62TCq2    H4  957   2.155   3.397  14.295 -0.6582 -0.5112 -0.6386
   63TMC2    C1  958   1.945   3.489  10.530  0.1927  0.6079  0.6545
   63TMC2    C2  959   2.045   3.526  10.615 -0.5823  0.4132 -0.5950
   63TMC2    C3  960   2.171   3.505  10.557  0.0544  0.0137  0.7721
   63TMC2    C4  961   1.969   3.445  10.405 -0.1067  0.0119  0.8359
   63TMC2    C5  962   2.089   3.442  10.353  0.8389  0.5552  0.1904
   63TMC2    C6  963   2.194   3.466  10.428  0.1836 -0.2870 -1.5529
   63TMC2     C  964   1.830   3.441  10.595  0.9903  0.3977 -0.3879
   63TMC2     O  965   1.805   3.493  10.706  0.1300  0.0566  0.5267
   63TMC2     H  966   2.029   3.570  10.712 -0.1135  0.9275 -0.7532
   63TMC2    H1  967   1.886   3.435  10.336  0.2428 -2.6935  0.8006
   63TMC2    H2  968   2.298   3.470  10.399  0.2432 -3.8246 -1.7290
   63TMC2    C7  969   2.107   3.465  10.211  0.2858  0.6848 -0.2046
   63TMC2    C8  970   2.284   3.531  10.644  0.1940 -0.6371  0.6581
   63TMC2    O1  971   2.008   3.441  10.142 -0.1864 -0.0320  0.4642
   63TMC2    O2  972   2.399   3.557  10.605 -0.4261 -0.1673 -0.3413
   63TMC2    O5  973   2.256   3.498  10.776 -0.2519 -0.5437  0.1763
   63TMC2    H5  974   2.169   3.456  10.795 -0.7915 -0.4168 -2.0031
   64MPD2     C  975   1.691   2.985  10.751 -0.1558 -0.5232 -0.2319
   64MPD2    C1  976   1.696   2.978  10.611 -0.5442  0.2702  0.3199
   64MPD2    C2  977   1.701   3.098  10.543  0.0469 -0.0874 -0.5553
   64MPD2    C3  978   1.727   3.219  10.611  0.0301  0.6034  0.3804
   64MPD2    C4  979   1.723   3.221  10.747 -1.2700  0.6331  0.2657
   64MPD2    C5  980   1.706   3.102  10.817  0.1943  0.2670  0.1191
   64MPD2     H  981   1.710   3.100  10.435 -3.7682 -0.5184 -0.8660
   64MPD2    H1  982   1.740   3.311  10.805 -2.3773 -0.7521  2.7297
   64MPD2    H2  983   1.693   2.902  10.821  0.6200  1.1929  1.7640
   64MPD2    H3  984   1.719   3.106  10.924 -0.6172  1.6446  0.1667
   64MPD2     N  985   1.777   3.329  10.539  0.4646 -0.6089 -0.0445
   64MPD2    H5  986   1.798   3.307  10.442  0.5570  0.1420 -0.1966
   64MPD2    N1  987   1.703   2.857  10.540 -0.1725  0.1757 -0.0830
   64MPD2    H7  988   1.714   2.868  10.440 -0.4334  0.9085 -0.0274
   65MPD2     C  989   2.358   3.277  15.609 -0.4413  0.2372  0.5034
   65MPD2    C1  990   2.394   3.260  15.479 -0.1253 -0.1645 -0.7760
   65MPD2    C2  991   2.434   3.140  15.434 -0.0147  1.0163  0.0757
   65MPD2    C3  992   2.443   3.026  15.515 -0.5455  0.0287 -0.6224
   65MPD2    C4  993   2.402   3.039  15.638 -0.2497 -0.3159  0.3621
   65MPD2    C5  994   2.361   3.159  15.682  0.0044  1.1056  0.7550
   65MPD2     H  995   2.473   3.142  15.333 -2.3949  2.0457 -0.8211
   65MPD2    H1  996   2.388   2.952  15.700  1.2007 -2.2846 -2.0578
   65MPD2    H2  997   2.330   3.373  15.650  1.6684 -0.0085  2.4946
   65MPD2    H3  998   2.323   3.171  15.783 -1.0267  0.7402  0.4148
   65MPD2     N  999   2.502   2.902  15.466  0.0973  0.3246  0.1724
   65MPD2    H5 1000   2.543   2.856  15.546 -2.5800  0.4817  1.6066
   65MPD2    N1 1001   2.399   3.360  15.379 -0.5023  0.0582  0.0295
   65MPD2    H7 1002   2.432   3.332  15.288  0.9815 -0.0600  0.6128
   66TCq2    C1 1003   2.360   3.489  15.401  0.0642 -0.0161 -0.5098
   66TCq2    O2 1004   2.363   3.558  15.502 -0.2895 -0.9890 -0.1879
   66TCq2    C2 1005   2.338   3.556  15.273  0.3763  0.3130  0.4960
   66TCq2    C3 1006   2.317   3.476  15.161 -0.3222  0.2631 -0.3357
   66TCq2    C4 1007   2.352   3.531  15.038 -0.2585 -0.5829 -0.0832
   66TCq2    C5 1008   2.404   3.657  15.030 -0.4045  0.0256 -0.0730
   66TCq2    C6 1009   2.415   3.731  15.143 -0.0942  0.1511  0.6570
   66TCq2    C7 1010   2.382   3.679  15.262 -0.0210 -0.5451 -0.3136
   66TCq2    C8 1011   2.536   3.811  15.138  0.4817  0.0993 -0.8130
   66TCq2    O4 1012   2.627   3.761  15.069  0.0832  0.5000 -0.1858
   66TCq2    C9 1013   2.350   3.452  14.920 -0.2509  0.3420 -0.0759
   66TCq2    O5 1014   2.442   3.474  14.839  0.2533  0.2541 -0.0826
   66TCq2    O6 1015   2.280   3.348  14.926  0.4246 -0.1596 -0.0879
   66TCq2    H2 1016   2.287   3.372  15.163  1.2343 -0.1802  0.4384
   66TCq2    H3 1017   2.447   3.699  14.939 -0.1874  1.7036  0.8111
   66TCq2    H4 1018   2.407   3.735  15.351 -1.3240  1.2110 -1.0409
   67MPD2     C 1019   2.912   2.479  13.771 -0.8661  0.4949 -0.3883
   67MPD2    C1 1020   2.806   2.476  13.858  0.3957  0.7837  0.0097
   67MPD2    C2 1021   2.679   2.473  13.796 -0.6235 -0.0206  0.1757
   67MPD2    C3 1022   2.662   2.484  13.656  0.5572 -0.3739  0.7875
   67MPD2    C4 1023   2.769   2.469  13.580 -0.3452  0.7150  0.2608
   67MPD2    C5 1024   2.898   2.466  13.635 -0.4256 -0.2968  0.2053
   67MPD2     H 1025   2.597   2.476  13.867 -1.2507  0.3091 -0.5745
   67MPD2    H1 1026   2.761   2.451  13.474  2.4585  0.4444  0.0999
   67MPD2    H2 1027   3.015   2.474  13.803 -0.7404 -0.8233 -0.9855
   67MPD2    H3 1028   2.987   2.456  13.574 -0.3246 -1.8581  0.6036
   67MPD2     N 1029   2.541   2.483  13.597 -0.5707 -0.1262  0.2198
   67MPD2    H5 1030   2.532   2.464  13.498 -1.3339 -2.5154  0.7517
   67MPD2    N1 1031   2.819   2.498  13.991 -0.1480 -0.3442 -0.0067
   67MPD2    H7 1032   2.734   2.506  14.046 -1.4884 -0.1906 -2.1102
   68TCq2    C1 1033   2.929   2.474  14.063 -0.0613  0.9447  0.1128
   68TCq2    O2 1034   3.037   2.428  14.026  0.1676  0.0799  0.1581
   68TCq2    C2 1035   2.915   2.513  14.201  0.2885 -0.2949  0.2345
   68TCq2    C3 1036   2.794   2.571  14.238  0.0262  0.2822  0.0096
   68TCq2    C4 1037   2.790   2.648  14.356 -0.1996  0.1135  0.2102
   68TCq2    C5 1038   2.900   2.668  14.431 -0.1438 -0.2210 -0.2702
   68TCq2    C6 1039   3.020   2.621  14.384 -0.4496  0.0020 -0.5248
   68TCq2    C7 1040   3.031   2.542  14.271 -0.2709 -0.0403 -0.0957
   68TCq2    C8 1041   3.134   2.611  14.480 -0.5768 -0.1595  0.4156
   68TCq2    O4 1042   3.234   2.569  14.428  0.7599 -0.6381  0.0790
   68TCq2    C9 1043   2.664   2.696  14.396 -1.4510  1.0148  0.0142
   68TCq2    O5 1044   2.564   2.669  14.326 -0.2979  0.1136 -0.5181
   68TCq2    O6 1045   2.648   2.746  14.507 -0.4787 -0.2985  0.5009
   68TCq2    H2 1046   2.696   2.557  14.194  0.2067  1.1121 -0.6588
   68TCq2    H3 1047   2.895   2.731  14.519 -2.3898 -0.2140 -0.4016
   68TCq2    H4 1048   3.124   2.493  14.243 -0.3809 -0.0657 -0.4184
   69TMC2    C1 1049   0.555   3.707  11.699  0.0089  0.3955 -0.1155
   69TMC2    C2 1050   0.474   3.778  11.617 -0.4613  0.2095  0.3219
   69TMC2    C3 1051   0.519   3.812  11.499  0.5568 -0.2332  0.5543
   69TMC2    C4 1052   0.681   3.673  11.667  0.7779  0.3072 -0.3193
   69TMC2    C5 1053   0.715   3.703  11.537 -0.1555 -0.3523  0.1841
   69TMC2    C6 1054   0.637   3.768  11.448  0.0557 -0.0972 -0.6992
   69TMC2     C 1055   0.511   3.724  11.834 -0.7272  0.1731 -0.0416
   69TMC2     O 1056   0.391   3.720  11.860 -0.9613  0.1169  0.2034
   69TMC2     H 1057   0.373   3.804  11.644 -1.1157 -0.4595 -1.4628
   69TMC2    H1 1058   0.732   3.602  11.732  1.9321  2.2647  0.9009
   69TMC2    H2 1059   0.664   3.786  11.344  1.7192 -0.5357 -0.3316
   69TMC2    C7 1060   0.849   3.666  11.493 -0.3361 -0.4639  0.1899
   69TMC2    C8 1061   0.445   3.914  11.444  0.5083 -0.2243 -0.1291
   69TMC2    O1 1062   0.863   3.649  11.369  0.8752 -0.1075 -0.0670
   69TMC2    O2 1063   0.334   3.947  11.479  0.5687 -0.3600  0.0909
   69TMC2    O5 1064   0.530   4.005  11.387 -0.5297 -0.6265  0.7152
   69TMC2    H5 1065   0.623   3.986  11.411 -0.2176  0.3920  0.2813
   70MPD2     C 1066   0.705   3.875  12.116  0.9377 -0.3262  0.1693
   70MPD2    C1 1067   0.594   3.822  12.054 -0.1840  0.7707 -0.5895
   70MPD2    C2 1068   0.480   3.792  12.121 -0.2585  0.4199 -0.2157
   70MPD2    C3 1069   0.481   3.828  12.256 -0.0067 -0.9646 -0.3944
   70MPD2    C4 1070   0.591   3.882  12.316 -0.3532 -0.2674  0.1626
   70MPD2    C5 1071   0.705   3.909  12.248 -0.4985  0.5475  0.1102
   70MPD2     H 1072   0.387   3.752  12.083  0.8153 -0.1733 -2.2014
   70MPD2    H1 1073   0.595   3.897  12.424  1.3237  2.4150 -0.2803
   70MPD2    H2 1074   0.789   3.913  12.061 -0.7184  1.8777 -0.8273
   70MPD2    H3 1075   0.784   3.965  12.297  2.0768 -2.7821 -0.2926
   70MPD2     N 1076   0.376   3.788  12.344 -0.7761 -0.0363 -0.1604
   70MPD2    H5 1077   0.401   3.794  12.442 -1.5874  1.2428 -0.0272
   70MPD2    N1 1078   0.611   3.771  11.916  0.1257  0.4097  0.1060
   70MPD2    H7 1079   0.700   3.790  11.872  0.4222  1.0580  0.9994
   71TMC2    C1 1080   2.684   4.076   1.065  0.0340 -0.0579  0.2822
   71TMC2    C2 1081   2.789   4.147   1.122  0.7505  0.4343  0.0396
   71TMC2    C3 1082   2.787   4.182   1.249 -0.1246  0.4497 -0.2885
   71TMC2    C4 1083   2.569   4.061   1.140  0.3354 -0.5374 -0.4645
   71TMC2    C5 1084   2.575   4.109   1.273  0.3030  0.1421 -0.4504
   71TMC2    C6 1085   2.679   4.170   1.329  0.1706 -0.0769 -0.4346
   71TMC2     C 1086   2.704   4.008   0.940  0.1036  0.1642  0.6370
   71TMC2     O 1087   2.813   4.022   0.887 -0.0034  1.0728  0.1143
   71TMC2     H 1088   2.876   4.169   1.062  0.0260  1.6434 -0.5613
   71TMC2    H1 1089   2.485   4.000   1.110 -0.0043  0.7634 -2.1733
   71TMC2    H2 1090   2.693   4.201   1.432 -1.1036 -1.0474  0.0225
   71TMC2    C7 1091   2.455   4.126   1.356  0.4191  0.6128 -0.5085
   71TMC2    C8 1092   2.879   4.279   1.305 -0.1879  0.2224 -0.0344
   71TMC2    O1 1093   2.473   4.148   1.472  0.5939 -0.2018 -0.3247
   71TMC2    O2 1094   3.004   4.264   1.310 -0.2440 -0.2998 -0.3417
   71TMC2    O5 1095   2.809   4.382   1.351  0.1078  0.2069  0.2424
   71TMC2    H5 1096   2.714   4.373   1.330  0.1867 -0.1874  0.0628
   72MPD2     C 1097   2.585   3.656   0.586 -0.4384 -0.1862  0.4678
   72MPD2    C1 1098   2.694   3.740   0.601 -0.2900 -0.1768 -0.7081
   72MPD2    C2 1099   2.693   3.827   0.711 -0.0756  0.5830  0.2243
   72MPD2    C3 1100   2.597   3.832   0.807 -0.3342 -0.5430 -0.3212
   72MPD2    C4 1101   2.492   3.744   0.795 -0.3279 -0.0062  0.1958
   72MPD2    C5 1102   2.491   3.655   0.688  0.0289 -0.7980 -0.2088
   72MPD2     H 1103   2.771   3.902   0.712  1.3968 -0.9231 -0.9411
   72MPD2    H1 1104   2.425   3.739   0.880 -1.8015 -1.8321 -1.0834
   72MPD2    H2 1105   2.558   3.590   0.504 -0.9965 -1.6877  1.8486
   72MPD2    H3 1106   2.410   3.586   0.667 -2.8259  1.3065  3.7450
   72MPD2     N 1107   2.603   3.913   0.926  0.0550  0.0040 -0.3635
   72MPD2    H5 1108   2.526   3.901   0.990 -0.8739 -2.9879 -2.0559
   72MPD2    N1 1109   2.804   3.757   0.513 -0.0407  0.2490 -0.4508
   72MPD2    H7 1110   2.866   3.835   0.528  0.0670  0.2002 -0.6361
   73TMC2    C1 1111   1.995   1.347  13.887 -0.3177  0.9786  0.1500
   73TMC2    C2 1112   2.009   1.482  13.864 -0.4847 -0.2862  0.1191
   73TMC2    C3 1113   2.125   1.541  13.909  0.6096 -0.1121 -0.2758
   73TMC2    C4 1114   2.093   1.283  13.964 -0.1645 -0.7773  0.0530
   73TMC2    C5 1115   2.210   1.340  13.991 -0.5078 -0.2234 -1.1921
   73TMC2    C6 1116   2.229   1.473  13.967  0.1190  0.0170 -0.1214
   73TMC2     C 1117   1.965   1.268  13.766 -0.4200 -0.3239 -0.1149
   73TMC2     O 1118   2.029   1.165  13.750  0.0219  0.0446  0.1440
   73TMC2     H 1119   1.927   1.532  13.813  0.7948  0.7101 -0.9502
   73TMC2    H1 1120   2.067   1.183  13.998 -1.8548 -0.3073  0.0970
   73TMC2    H2 1121   2.327   1.513  13.992 -0.0509  0.4933 -0.2177
   73TMC2    C7 1122   2.329   1.264  13.951 -0.9117  0.0480  0.6580
   73TMC2    C8 1123   2.142   1.661  13.827  0.0013  0.2210  0.1315
   73TMC2    O1 1124   2.442   1.298  13.988  0.3335 -0.6143 -0.3858
   73TMC2    O2 1125   2.107   1.673  13.711  0.1663 -0.6912  0.5675
   73TMC2    O5 1126   2.252   1.718  13.876  0.7965 -0.0932 -0.0510
   73TMC2    H5 1127   2.267   1.705  13.972  1.4388 -0.5964 -0.2213
   74MPD2     C 1128   1.735   1.141  13.335  0.7272  0.0853  0.1876
   74MPD2    C1 1129   1.856   1.109  13.386  0.4599 -0.0776  0.1098
   74MPD2    C2 1130   1.902   1.170  13.504 -0.1340 -0.4455 -0.5928
   74MPD2    C3 1131   1.819   1.254  13.577 -0.2961 -0.5629 -0.2484
   74MPD2    C4 1132   1.695   1.279  13.524  0.5130  0.1789 -0.6737
   74MPD2    C5 1133   1.660   1.224  13.402  0.1691  0.2884 -0.0909
   74MPD2     H 1134   2.005   1.146  13.525  0.1466  0.9455 -0.3521
   74MPD2    H1 1135   1.623   1.343  13.574  0.3409 -1.3691  1.0487
   74MPD2    H2 1136   1.694   1.093  13.247  1.6857  1.4267 -0.9977
   74MPD2    H3 1137   1.561   1.242  13.362 -0.1911 -0.0659  0.6374
   74MPD2     N 1138   1.858   1.315  13.693  0.3920 -0.0852  0.5322
   74MPD2    H5 1139   1.798   1.391  13.723 -0.7349 -0.1090 -1.6172
   74MPD2    N1 1140   1.942   1.032  13.311 -0.2501 -0.7237 -0.1973
   74MPD2    H7 1141   1.914   1.005  13.217  1.0128 -2.8006  0.0073
   75TCq2    C1 1142   2.417   2.495  13.666  0.0265  0.1180  0.2960
   75TCq2    O2 1143   2.394   2.484  13.786  0.2819 -0.2897  0.0315
   75TCq2    C2 1144   2.306   2.507  13.572  0.4246  0.3495 -0.1551
   75TCq2    C3 1145   2.190   2.449  13.616  0.5904 -0.2741 -0.3231
   75TCq2    C4 1146   2.077   2.455  13.537  0.3487  0.1919  0.0643
   75TCq2    C5 1147   2.084   2.525  13.421 -0.3479  0.0965  0.3241
   75TCq2    C6 1148   2.188   2.613  13.395  0.3734  0.9445  0.2737
   75TCq2    C7 1149   2.308   2.592  13.458 -0.3034  0.2966 -1.0127
   75TCq2    C8 1150   2.177   2.692  13.273  0.4472 -0.0345  0.2073
   75TCq2    O4 1151   2.090   2.660  13.194  0.0786 -0.2211  0.6040
   75TCq2    C9 1152   1.957   2.385  13.566 -0.0309 -0.3539 -0.4313
   75TCq2    O5 1153   1.970   2.283  13.639  0.3728  0.0637 -0.3852
   75TCq2    O6 1154   1.862   2.395  13.486  0.2774  0.2553  0.1113
   75TCq2    H2 1155   2.185   2.387  13.705  3.0771  1.6782  1.1972
   75TCq2    H3 1156   1.993   2.546  13.366  0.3968 -0.9906 -1.3205
   75TCq2    H4 1157   2.396   2.642  13.419 -0.0924  0.8759  0.2086
   76MPD2     C 1158   1.984   3.211  11.239 -0.2224 -0.1409 -0.0100
   76MPD2    C1 1159   1.857   3.153  11.214 -0.9149  0.4781  0.3572
   76MPD2    C2 1160   1.842   3.020  11.212 -0.0474 -0.0662  0.1124
   76MPD2    C3 1161   1.948   2.940  11.246 -0.2822 -0.2659 -0.0858
   76MPD2    C4 1162   2.072   2.993  11.269 -0.2888 -0.2060 -0.2840
   76MPD2    C5 1163   2.089   3.129  11.268  0.4343 -0.2524  0.3100
   76MPD2     H 1164   1.755   2.983  11.160 -1.3678  2.4144  0.5875
   76MPD2    H1 1165   2.157   2.927  11.281 -0.1238  0.4874  2.4453
   76MPD2    H2 1166   1.993   3.319  11.235 -0.8620 -0.1122 -0.7563
   76MPD2    H3 1167   2.188   3.171  11.278 -0.2784  1.3601  0.5993
   76MPD2     N 1168   1.949   2.797  11.257 -0.0463 -0.4211 -0.2977
   76MPD2    H5 1169   2.042   2.756  11.262 -0.2657 -0.7446  1.0628
   76MPD2    N1 1170   1.746   3.228  11.184 -0.2015 -0.1524  0.0051
   76MPD2    H7 1171   1.655   3.186  11.170  0.7363 -2.0616 -0.2586
   77TCq2    C1 1172   1.838   2.716  11.252 -0.2757 -0.3268 -0.4005
   77TCq2    O2 1173   1.719   2.749  11.250  0.3962 -0.9460 -0.1714
   77TCq2    C2 1174   1.869   2.580  11.299 -0.1385 -0.6953  0.1720
   77TCq2    C3 1175   1.766   2.492  11.285 -0.5876 -0.3025  0.6079
   77TCq2    C4 1176   1.762   2.369  11.342 -0.6230  0.0240 -0.2578
   77TCq2    C5 1177   1.873   2.330  11.408  0.3169  0.1770 -0.4978
   77TCq2    C6 1178   1.981   2.414  11.427  0.0064  0.6600 -0.0500
   77TCq2    C7 1179   1.983   2.547  11.375 -0.0263 -0.8206 -0.3099
   77TCq2    C8 1180   2.080   2.373  11.527  0.4999 -0.1418  0.2417
   77TCq2    O4 1181   2.075   2.267  11.585 -0.0207 -1.1170  0.1512
   77TCq2    C9 1182   1.653   2.276  11.329 -0.6460  0.2571  0.5251
   77TCq2    O5 1183   1.665   2.163  11.387  0.4182 -0.0343  0.4860
   77TCq2    O6 1184   1.553   2.313  11.259 -0.0166  0.4930 -0.3816
   77TCq2    H2 1185   1.680   2.525  11.228  1.7606  0.7371 -2.3343
   77TCq2    H3 1186   1.867   2.235  11.460  0.9288  0.9844  1.0649
   77TCq2    H4 1187   2.073   2.608  11.379 -2.0185  2.0191  0.9917
   78MPD1     C 1188   3.851   1.896   1.406  0.3806  0.5661  0.0814
   78MPD1    C1 1189   3.845   1.874   1.541 -0.1646  0.1171  0.4005
   78MPD1    C2 1190   3.814   1.981   1.627 -0.6658 -0.0302 -0.3352
   78MPD1    C3 1191   3.798   2.106   1.572  0.0640 -0.1504 -0.1047
   78MPD1    C4 1192   3.807   2.122   1.436 -0.0215  0.1253  0.2924
   78MPD1    C5 1193   3.822   2.017   1.354  0.0736 -0.8355 -0.2453
   78MPD1     H 1194   3.822   1.956   1.732  1.7733  0.1834 -0.4702
   78MPD1    H1 1195   3.815   2.223   1.397  0.1913  1.2167  3.1174
   78MPD1    H2 1196   3.877   1.810   1.345  0.1164  1.4099 -1.2210
   78MPD1    H3 1197   3.841   2.031   1.248  1.8165 -1.1460  0.0249
   78MPD1     N 1198   3.789   2.231   1.649  0.7734  0.2241 -0.4214
   78MPD1    H5 1199   3.788   2.315   1.593  1.4889  0.5326  0.0247
   78MPD1    N1 1200   3.876   1.742   1.588  0.1752  0.4722  0.1853
   78MPD1    H6 1201   3.838   1.725   1.681 -1.4985 -1.5263 -0.8557
   78MPD1    H7 1202   3.830   1.677   1.525  0.6299 -0.1365  0.4836
   79TCq2    C1 1203   3.791   2.221   1.790 -0.6591  0.0568 -0.0255
   79TCq2    O2 1204   3.793   2.125   1.863 -0.2506  0.4032 -0.1366
   79TCq2    C2 1205   3.809   2.350   1.853  0.0079 -0.3369 -0.6647
   79TCq2    C3 1206   3.863   2.356   1.972  0.2029  0.2234 -0.4859
   79TCq2    C4 1207   3.866   2.467   2.040 -0.1993 -0.5944 -0.1670
   79TCq2    C5 1208   3.810   2.579   1.983 -0.1529  0.3624 -0.5199
   79TCq2    C6 1209   3.763   2.567   1.858 -0.0485 -0.5670 -0.5657
   79TCq2    C7 1210   3.765   2.453   1.786 -0.2187  0.7141 -0.5382
   79TCq2    C8 1211   3.717   2.691   1.793 -0.1504 -0.2709 -0.0044
   79TCq2    O4 1212   3.762   2.794   1.838  0.3008 -0.4159  0.5383
   79TCq2    C9 1213   3.906   2.472   2.178 -0.5370 -0.4146  0.8756
   79TCq2    O5 1214   3.881   2.585   2.227  0.3523  0.2980 -0.3064
   79TCq2    O6 1215   3.984   2.383   2.216 -0.1266  0.2218  0.5090
   79TCq2    H2 1216   3.886   2.261   2.020 -0.2538  0.2851 -0.1493
   79TCq2    H3 1217   3.806   2.673   2.038  0.7621  1.9153 -3.1060
   79TCq2    H4 1218   3.732   2.450   1.683 -2.2367 -0.4103  0.1274
   80MPD2     C 1219   0.736   3.003  11.803  0.5015  0.7037  0.0793
   80MPD2    C1 1220   0.626   2.994  11.720  0.0967 -0.4955 -1.1044
   80MPD2    C2 1221   0.494   3.000  11.769 -0.5296 -0.7130  0.0395
   80MPD2    C3 1222   0.481   3.018  11.910  0.5511 -0.4065  0.2613
   80MPD2    C4 1223   0.589   3.019  11.993  0.0469 -0.0137  0.0048
   80MPD2    C5 1224   0.714   3.020  11.940  0.3386 -0.1606  0.3287
   80MPD2     H 1225   0.406   2.977  11.710  0.5007  2.7125 -2.8400
   80MPD2    H1 1226   0.572   3.042  12.098  0.4280 -0.3242  0.1351
   80MPD2    H2 1227   0.840   2.996  11.774  0.3398 -0.5343 -0.1797
   80MPD2    H3 1228   0.800   3.040  12.003  0.4311  0.1309  0.1078
   80MPD2     N 1229   0.348   3.040  11.971 -0.1881 -0.0792  0.6345
   80MPD2    H5 1230   0.340   3.061  12.070  1.5558 -1.9445  1.1592
   80MPD2    N1 1231   0.647   2.978  11.581  0.1607 -0.1835  0.3612
   80MPD2    H7 1232   0.571   2.965  11.515  2.7829 -0.6746 -2.5593
   81TCq2    C1 1233   0.767   2.977  11.516 -0.1507 -0.2790  0.8700
   81TCq2    O2 1234   0.881   2.982  11.563  0.7041 -0.5633 -0.0417
   81TCq2    C2 1235   0.747   2.937  11.373 -0.4604 -0.0362 -0.3482
   81TCq2    C3 1236   0.863   2.913  11.307 -0.2499 -0.0805  0.2334
   81TCq2    C4 1237   0.864   2.861  11.178 -0.8072  1.0219 -0.1149
   81TCq2    C5 1238   0.748   2.845  11.112 -0.6306  0.8458  0.7109
   81TCq2    C6 1239   0.633   2.853  11.189 -0.2063  0.1848 -0.0484
   81TCq2    C7 1240   0.625   2.908  11.312 -0.4743 -0.3355  0.1621
   81TCq2    C8 1241   0.514   2.790  11.129 -0.9052  0.4755 -0.6617
   81TCq2    O4 1242   0.534   2.725  11.027 -0.5932  0.1856 -0.3676
   81TCq2    C9 1243   0.996   2.835  11.122  0.4211 -0.0827  0.3368
   81TCq2    O5 1244   1.094   2.834  11.198  0.6052  0.0855 -0.5478
   81TCq2    O6 1245   1.005   2.813  10.998  0.2610  0.6524 -0.4794
   81TCq2    H2 1246   0.954   2.924  11.366  0.7365 -1.4410 -1.0410
   81TCq2    H3 1247   0.744   2.798  11.014 -2.5650  0.3826  1.0084
   81TCq2    H4 1248   0.530   2.923  11.363 -1.6166 -2.6819 -1.2570
   82MPD2     C 1249   2.750   2.072  10.202  0.2325  0.4590  1.0827
   82MPD2    C1 1250   2.886   2.080  10.169 -0.3279 -0.7584  0.2573
   82MPD2    C2 1251   2.986   2.074  10.265  0.0611  0.1764 -0.4768
   82MPD2    C3 1252   2.947   2.082  10.398 -0.5870  0.3209  0.9326
   82MPD2    C4 1253   2.810   2.072  10.432  0.1997  0.2987 -0.2784
   82MPD2    C5 1254   2.714   2.059  10.336  0.4705  0.0682 -0.5700
   82MPD2     H 1255   3.091   2.082  10.238  0.5790  0.1987  1.5246
   82MPD2    H1 1256   2.774   2.061  10.533 -1.7535 -0.7732 -1.0834
   82MPD2    H2 1257   2.669   2.068  10.130 -0.7322  2.2201  2.0632
   82MPD2    H3 1258   2.611   2.048  10.365  0.9915 -0.4324  1.0761
   82MPD2     N 1259   3.038   2.092  10.509  0.4270 -0.3589  0.9562
   82MPD2    H5 1260   3.016   2.059  10.602 -0.0581  0.1258  1.0140
   82MPD2    N1 1261   2.911   2.110  10.033  0.2751  0.4293 -0.1308
   82MPD2    H7 1262   2.828   2.129   9.977  0.6203  3.1980  0.3131
   83TCq2    C1 1263   3.172   2.107  10.482  0.5428  0.0413  0.2418
   83TCq2    O2 1264   3.227   2.158  10.386  0.3742  0.6332 -0.5796
   83TCq2    C2 1265   3.256   2.037  10.580  0.9069  0.3034 -0.1107
   83TCq2    C3 1266   3.382   2.072  10.616  0.2740 -0.3008  0.0701
   83TCq2    C4 1267   3.462   1.989  10.698  0.2664  0.6131  0.2195
   83TCq2    C5 1268   3.422   1.864  10.721 -0.4261 -0.3544  0.1263
   83TCq2    C6 1269   3.298   1.832  10.685  0.0516 -0.6416  0.1753
   83TCq2    C7 1270   3.209   1.918  10.628 -0.4948 -0.6422 -0.3745
   83TCq2    C8 1271   3.248   1.709  10.738 -0.0470  0.3516  0.1592
   83TCq2    O4 1272   3.271   1.694  10.858 -0.2714  0.2483  0.1467
   83TCq2    C9 1273   3.595   2.031  10.721  0.8981 -0.2054 -0.6604
   83TCq2    O5 1274   3.658   1.947  10.785  0.3146  0.3537  0.0923
   83TCq2    O6 1275   3.641   2.136  10.669  0.2657 -0.0023  0.0941
   83TCq2    H2 1276   3.419   2.166  10.576  0.1386 -1.0032 -1.6866
   83TCq2    H3 1277   3.484   1.797  10.779  1.2414  1.3943  0.3774
   83TCq2    H4 1278   3.109   1.882  10.605 -0.9458  1.0002 -0.9267
   84TCq2    C1 1279   4.154   0.786   9.856  0.1855 -0.1661 -0.2833
   84TCq2    O2 1280   4.061   0.713   9.887  0.1185 -0.2538 -0.3214
   84TCq2    C2 1281   4.229   0.841   9.965 -0.4245  0.7002  0.2673
   84TCq2    C3 1282   4.350   0.896   9.946  0.2793 -0.3330  1.8887
   84TCq2    C4 1283   4.401   0.980  10.040 -0.1981  0.5071  0.0541
   84TCq2    C5 1284   4.330   1.012  10.155 -0.0456 -0.0951 -0.4546
   84TCq2    C6 1285   4.200   0.964  10.159 -0.6226 -0.2480  0.6316
   84TCq2    C7 1286   4.148   0.872  10.072  0.3617 -0.2019  0.4524
   84TCq2    C8 1287   4.123   1.004  10.281 -0.1939  0.1548  0.2376
   84TCq2    O4 1288   4.191   1.072  10.358  0.8395  0.6111  0.1866
   84TCq2    C9 1289   4.523   1.046  10.015  0.0210 -0.1024 -0.0229
   84TCq2    O5 1290   4.562   1.126  10.111 -0.2059 -0.4540  0.0053
   84TCq2    O6 1291   4.587   1.020   9.910 -0.2740 -0.4216 -0.1822
   84TCq2    H2 1292   4.407   0.880   9.855 -1.6915 -1.8173  0.9195
   84TCq2    H3 1293   4.366   1.083  10.228  2.2056 -0.1313 -1.5281
   84TCq2    H4 1294   4.048   0.831  10.084  0.1701  0.0448 -0.2911
   85MPD2     C 1295   0.411   3.660  16.003  0.1188  0.2027  0.2469
   85MPD2    C1 1296   0.379   3.709  15.875  0.6500 -0.7791  0.1398
   85MPD2    C2 1297   0.466   3.783  15.797 -0.0747  0.6006  0.1853
   85MPD2    C3 1298   0.589   3.821  15.854 -1.1153  0.2014  0.1573
   85MPD2    C4 1299   0.619   3.774  15.983  0.2945 -0.6388 -0.1499
   85MPD2    C5 1300   0.530   3.696  16.050  0.2713  0.3988  0.4607
   85MPD2     H 1301   0.441   3.815  15.696 -2.0374 -2.1638 -0.2048
   85MPD2    H1 1302   0.714   3.792  16.033  0.9884  0.6796 -1.9536
   85MPD2    H2 1303   0.349   3.597  16.064 -0.4359  1.7481  1.2805
   85MPD2    H3 1304   0.567   3.654  16.143  3.3512  2.5403  0.2265
   85MPD2     N 1305   0.676   3.894  15.782 -0.6404 -1.1548  0.3360
   85MPD2    H5 1306   0.659   3.902  15.682 -1.3272  0.7165  0.6049
   85MPD2    N1 1307   0.257   3.667  15.820 -0.3654 -0.3680  0.1711
   85MPD2    H7 1308   0.250   3.664  15.719  0.9906 -0.7062  0.0839
   86TCq2    C1 1309   0.773   3.974  15.836  0.3546 -0.9535  0.0659
   86TCq2    O2 1310   0.802   3.987  15.953 -0.7094  0.8387 -0.5646
   86TCq2    C2 1311   0.845   4.052  15.738 -0.6201  0.1200  0.2119
   86TCq2    C3 1312   0.966   4.094  15.779  0.7312  0.4673 -0.1634
   86TCq2    C4 1313   1.054   4.163  15.701  0.0872  0.6766 -0.0402
   86TCq2    C5 1314   1.025   4.176  15.567 -0.5269  0.2231 -0.0593
   86TCq2    C6 1315   0.898   4.138  15.530  0.2558  0.1216  0.2521
   86TCq2    C7 1316   0.805   4.070  15.610  0.2108 -0.0170  0.1727
   86TCq2    C8 1317   0.865   4.146  15.388  0.3094  0.0897  0.0451
   86TCq2    O4 1318   0.749   4.167  15.359  0.5546 -0.2745  0.9680
   86TCq2    C9 1319   1.184   4.206  15.753  0.5988  0.4275 -0.1998
   86TCq2    O5 1320   1.199   4.196  15.878 -0.1082 -0.4190  0.3544
   86TCq2    O6 1321   1.259   4.271  15.674  0.6423  0.3433 -0.3451
   86TCq2    H2 1322   1.007   4.067  15.875  0.4191 -1.1132 -0.4680
   86TCq2    H3 1323   1.088   4.231  15.498  2.6806 -1.3988  1.5616
   86TCq2    H4 1324   0.702   4.059  15.578 -0.1132 -1.6645  1.8122
   87MPD2     C 1325   2.024   2.944   1.042  0.2354  0.1545 -0.5343
   87MPD2    C1 1326   2.094   2.870   0.954  0.5944 -1.2774  0.5578
   87MPD2    C2 1327   2.086   2.907   0.823 -0.3389 -0.1769 -0.5627
   87MPD2    C3 1328   1.991   2.996   0.775 -0.1149 -0.4637  0.8558
   87MPD2    C4 1329   1.919   3.071   0.863 -0.2460  0.0562 -0.2682
   87MPD2    C5 1330   1.938   3.044   1.001  0.9507  0.1263 -0.2625
   87MPD2     H 1331   2.160   2.862   0.757  0.1011 -1.4293  0.7864
   87MPD2    H1 1332   1.858   3.157   0.837 -2.6347 -1.5553  0.0661
   87MPD2    H2 1333   2.023   2.927   1.149 -0.3608 -2.4455 -0.9660
   87MPD2    H3 1334   1.886   3.101   1.077  0.1828  2.3742 -2.4718
   87MPD2     N 1335   1.982   3.028   0.635 -0.0747  0.1136  0.0902
   87MPD2    H5 1336   1.922   3.108   0.614  0.9847  0.5846 -1.1280
   87MPD2    N1 1337   2.190   2.770   1.010 -0.1849  0.1204  0.4342
   87MPD2    H7 1338   2.185   2.755   1.110  0.5935  1.5362  0.6782
   88TCq2    C1 1339   2.286   2.702   0.939 -0.5967 -0.5023 -0.2082
   88TCq2    O2 1340   2.302   2.691   0.819  0.0926  0.0545 -0.3829
   88TCq2    C2 1341   2.370   2.612   1.020 -0.2509  0.0190  0.3150
   88TCq2    C3 1342   2.306   2.544   1.123  0.9409  0.9706 -0.5290
   88TCq2    C4 1343   2.341   2.413   1.149  0.1390 -0.0245 -0.6230
   88TCq2    C5 1344   2.435   2.348   1.077 -0.3824 -0.0432  1.0332
   88TCq2    C6 1345   2.494   2.424   0.977  0.3731  0.0081 -0.5664
   88TCq2    C7 1346   2.461   2.551   0.951  0.6201  0.4835  0.1574
   88TCq2    C8 1347   2.610   2.372   0.902  0.1601  0.2242  0.1822
   88TCq2    O4 1348   2.657   2.435   0.809 -0.5410  0.5372 -0.2867
   88TCq2    C9 1349   2.265   2.338   1.250 -0.4801  0.8036  1.0214
   88TCq2    O5 1350   2.177   2.395   1.321 -0.4389 -0.4810  0.4676
   88TCq2    O6 1351   2.288   2.217   1.263  0.1269  0.2308  0.9931
   88TCq2    H2 1352   2.229   2.586   1.186 -1.3753  0.6376 -3.1684
   88TCq2    H3 1353   2.468   2.252   1.115  2.4811  0.9691  1.0673
   88TCq2    H4 1354   2.513   2.612   0.878  1.3398  3.2695  2.9310
   89MPD2     C 1355   3.741   4.336   1.174  0.7122  0.3830  0.5167
   89MPD2    C1 1356   3.698   4.460   1.189  0.1978 -0.5721  0.0395
   89MPD2    C2 1357   3.786   4.562   1.205  0.3459 -0.2545 -0.0306
   89MPD2    C3 1358   3.926   4.540   1.202  0.5464 -0.0152  0.2045
   89MPD2    C4 1359   3.966   4.412   1.171 -0.9079 -0.5264  0.0497
   89MPD2    C5 1360   3.874   4.313   1.162 -0.4100  0.1194  0.0978
   89MPD2     H 1361   3.750   4.663   1.223 -1.1678 -0.9053  0.5766
   89MPD2    H1 1362   4.069   4.392   1.146 -1.0688 -2.1485  0.7084
   89MPD2    H2 1363   3.670   4.254   1.176 -0.3123  1.2550 -0.4297
   89MPD2    H3 1364   3.915   4.212   1.156  1.7599  0.8166  3.2039
   89MPD2     N 1365   4.017   4.651   1.206  0.7458  0.7185  0.5539
   89MPD2    H5 1366   3.984   0.023   1.227 -2.9171 -0.4392 -0.1386
   89MPD2    N1 1367   3.559   4.490   1.206 -0.9122 -0.1718 -0.0200
   89MPD2    H7 1368   3.531   4.582   1.240 -1.4558 -1.4135  2.9523
   90TCq2    C1 1369   4.157   4.646   1.221  0.1428  0.0863 -0.2145
   90TCq2    O2 1370   4.228   4.545   1.211  0.4788  0.2101  0.1915
   90TCq2    C2 1371   4.220   0.052   1.232  0.4563  0.2160 -0.2974
   90TCq2    C3 1372   4.157   0.166   1.280  0.2057  0.2237  0.1026
   90TCq2    C4 1373   4.218   0.286   1.262 -0.5046 -0.2647  0.3322
   90TCq2    C5 1374   4.347   0.295   1.215  0.3003  0.2747  0.6575
   90TCq2    C6 1375   4.409   0.180   1.178  0.4554  0.5142  0.2260
   90TCq2    C7 1376   4.349   0.057   1.188  0.1564  0.2535 -0.4056
   90TCq2    C8 1377   4.551   0.180   1.159 -0.1196 -0.4272 -0.5114
   90TCq2    O4 1378   4.609   0.072   1.178  0.5384  0.0107  0.0619
   90TCq2    C9 1379   4.147   0.403   1.306  0.0860 -0.4835 -0.4528
   90TCq2    O5 1380   4.030   0.387   1.357 -0.8164  0.0763  0.2303
   90TCq2    O6 1381   4.215   0.501   1.321  0.6535 -0.0094  0.2989
   90TCq2    H2 1382   4.065   0.162   1.338 -0.3444  0.1916 -0.7817
   90TCq2    H3 1383   4.402   0.387   1.204  0.5459 -0.0075 -0.4312
   90TCq2    H4 1384   4.414   4.692   1.190 -2.1760 -1.3986  3.0232
   91TMC2    C1 1385   1.288   0.075  16.694 -0.5867  0.1938 -0.6126
   91TMC2    C2 1386   1.364   0.159  16.775 -0.2483 -0.2605  0.6193
   91TMC2    C3 1387   1.312   0.179  16.898 -0.6762 -0.2234  0.2682
   91TMC2    C4 1388   1.171   0.013  16.743 -0.1513  0.2627 -1.1944
   91TMC2    C5 1389   1.134   0.032  16.872  0.4423  0.4776  0.2648
   91TMC2    C6 1390   1.209   0.112  16.957 -0.5143 -0.7264  0.8445
   91TMC2     C 1391   1.344   0.012  16.579 -0.4138  0.1164  0.1743
   91TMC2     O 1392   1.303   4.622  16.558  0.3871  0.5683 -0.5090
   91TMC2     H 1393   1.447   0.213  16.731 -0.8326 -1.0863 -1.5150
   91TMC2    H1 1394   1.114   4.671  16.676 -1.5251  0.8825 -0.6122
   91TMC2    H2 1395   1.173   0.132  17.057 -0.6441  0.1519  0.6148
   91TMC2    C7 1396   0.993   0.049  16.902 -0.1964 -0.2824  0.4573
   91TMC2    C8 1397   1.353   0.290  16.964 -0.0421  0.3862 -0.1554
   91TMC2    O1 1398   0.960   0.023  17.016 -0.0323 -0.2894 -1.0307
   91TMC2    O2 1399   1.386   0.393  16.907  0.3509  0.4399  0.1208
   91TMC2    O5 1400   1.382   0.258  17.099  0.3524  0.2326  0.2209
   91TMC2    H5 1401   1.371   0.164  17.122 -0.5425  0.4213  0.5603
   92MPD2     C 1402   1.506   4.667  16.343  0.1227 -0.2000  0.2892
   92MPD2    C1 1403   1.472   0.077  16.382 -0.2340 -0.1014 -0.1978
   92MPD2    C2 1404   1.514   0.190  16.313 -0.4118  0.2732  0.1594
   92MPD2    C3 1405   1.589   0.174  16.199  0.2489  0.0438  0.4752
   92MPD2    C4 1406   1.615   0.044  16.161  0.8220 -0.9223 -0.4919
   92MPD2    C5 1407   1.576   4.651  16.226 -0.4434  0.7095  0.1315
   92MPD2     H 1408   1.490   0.287  16.355 -0.9196  0.5405 -0.7518
   92MPD2    H1 1409   1.659   0.014  16.067  3.9678 -1.1674  1.0346
   92MPD2    H2 1410   1.474   4.573  16.385 -1.8732 -1.1324 -3.2355
   92MPD2    H3 1411   1.599   4.554  16.182 -2.1369  1.0717 -1.5474
   92MPD2     N 1412   1.619   0.288  16.122 -0.3125 -0.5618  0.8066
   92MPD2    H5 1413   1.601   0.375  16.171 -0.6499 -0.1117 -0.1088
   92MPD2    N1 1414   1.410   0.106  16.506 -0.4907 -0.1617 -0.0614
   92MPD2    H7 1415   1.398   0.202  16.535 -0.0198 -0.2301  0.3620
   93MPD2     C 1416   1.984   0.555  13.346 -0.0975 -0.5754 -0.3100
   93MPD2    C1 1417   1.952   0.607  13.468  0.2733  0.2671  0.5759
   93MPD2    C2 1418   1.821   0.652  13.499 -0.3669 -0.2485  0.3028
   93MPD2    C3 1419   1.732   0.667  13.392  0.8724  0.3336  0.0844
   93MPD2    C4 1420   1.769   0.617  13.269  0.0023 -0.3120 -0.0009
   93MPD2    C5 1421   1.889   0.552  13.250 -0.7791 -0.0086  0.0455
   93MPD2     H 1422   1.794   0.694  13.595 -0.8378 -2.1951  1.0274
   93MPD2    H1 1423   1.691   0.629  13.195 -1.4374 -0.3381  1.5091
   93MPD2    H2 1424   2.078   0.511  13.317 -0.0835  1.6885 -3.6137
   93MPD2    H3 1425   1.913   0.498  13.159 -2.2786 -2.9915  1.4359
   93MPD2     N 1426   1.612   0.736  13.395 -0.0469 -0.1776  0.5111
   93MPD2    H5 1427   1.569   0.740  13.304 -1.5446 -0.1928  1.2090
   93MPD2    N1 1428   2.044   0.634  13.571  0.5430 -0.2977 -0.2295
   93MPD2    H7 1429   2.018   0.690  13.651  1.8239 -0.2362  0.1460
   94TCq2    C1 1430   2.177   0.601  13.564  0.2628  0.9426 -0.1302
   94TCq2    O2 1431   2.235   0.523  13.487 -0.1888  0.1393  0.2195
   94TCq2    C2 1432   2.254   0.644  13.686 -0.7140 -0.5143 -0.9641
   94TCq2    C3 1433   2.195   0.637  13.811 -0.0390 -0.0063  0.5373
   94TCq2    C4 1434   2.289   0.647  13.907  0.2666 -0.0161  0.1513
   94TCq2    C5 1435   2.421   0.659  13.886 -0.3495 -0.0306  0.6916
   94TCq2    C6 1436   2.480   0.644  13.763 -1.0652  0.3523  0.0454
   94TCq2    C7 1437   2.393   0.629  13.658 -0.3012  0.3227  0.2249
   94TCq2    C8 1438   2.628   0.641  13.753  0.2050  0.1162 -0.3954
   94TCq2    O4 1439   2.694   0.679  13.852 -0.4755  0.1361 -0.5743
   94TCq2    C9 1440   2.234   0.645  14.040  0.5603  0.1449 -0.5718
   94TCq2    O5 1441   2.120   0.691  14.063  0.4650  0.3310  0.3300
   94TCq2    O6 1442   2.305   0.576  14.120  0.0858  0.3410  0.1441
   94TCq2    H2 1443   2.094   0.619  13.844  0.4527 -1.7218  1.1191
   94TCq2    H3 1444   2.486   0.685  13.969 -0.9384  1.9997  0.5275
   94TCq2    H4 1445   2.416   0.612  13.553 -1.4759 -0.3446  0.0812
   95TMC2    C1 1446   2.142   2.068  15.922  0.8158  0.1538 -0.2309
   95TMC2    C2 1447   2.102   1.937  15.899  0.2145 -0.0475 -0.7562
   95TMC2    C3 1448   2.030   1.877  15.988 -0.3204  0.0303 -0.2499
   95TMC2    C4 1449   2.096   2.144  16.024  0.2352  0.4996  0.8295
   95TMC2    C5 1450   2.021   2.078  16.117  0.1822  0.7022 -0.2257
   95TMC2    C6 1451   1.995   1.945  16.101  0.2669 -0.7510  0.1872
   95TMC2     C 1452   2.261   2.114  15.848 -0.3336 -0.6697 -0.2928
   95TMC2     O 1453   2.293   2.230  15.872  0.3411 -0.3394  0.2322
   95TMC2     H 1454   2.135   1.872  15.819 -1.9293 -1.4789 -0.4917
   95TMC2    H1 1455   2.125   2.248  16.031  3.2745 -0.3394  0.6965
   95TMC2    H2 1456   1.931   1.889  16.168  1.9879 -2.6215  0.2892
   95TMC2    C7 1457   2.043   2.128  16.253  0.5530 -0.0657  0.7158
   95TMC2    C8 1458   2.012   1.730  15.975  1.2486 -1.4444  0.1389
   95TMC2    O1 1459   2.117   2.225  16.255  0.0029  0.3660 -0.3706
   95TMC2    O2 1460   2.007   1.660  16.074  0.4884  0.0088 -0.8170
   95TMC2    O5 1461   1.947   1.705  15.859  0.8757  0.3922 -0.6232
   95TMC2    H5 1462   1.960   1.773  15.789 -1.3320 -0.5365 -1.9381
   96MPD2     C 1463   2.628   2.046  15.482 -0.1675 -1.1219 -0.3418
   96MPD2    C1 1464   2.554   2.158  15.517 -0.4028 -0.0501  0.3461
   96MPD2    C2 1465   2.460   2.152  15.629  0.8049 -0.0582 -0.0954
   96MPD2    C3 1466   2.421   2.027  15.680  0.7558 -0.2807  0.4493
   96MPD2    C4 1467   2.490   1.915  15.639 -0.5933 -0.6662  0.3244
   96MPD2    C5 1468   2.591   1.928  15.549  0.3133 -0.8740 -0.1466
   96MPD2     H 1469   2.404   2.233  15.676  3.1331  1.4768  0.0375
   96MPD2    H1 1470   2.484   1.816  15.683 -2.4136 -0.6260  0.1634
   96MPD2    H2 1471   2.698   2.048  15.400 -0.7781 -2.0668 -0.8934
   96MPD2    H3 1472   2.636   1.837  15.512  1.5405 -0.6613  0.7920
   96MPD2     N 1473   2.326   2.011  15.780 -0.0496  0.5221 -0.0949
   96MPD2    H5 1474   2.307   1.917  15.813  1.9000 -1.0381 -3.3873
   96MPD2    N1 1475   2.586   2.277  15.445 -0.1914  0.4749  1.2210
   96MPD2    H7 1476   2.654   2.276  15.370 -1.5887 -0.8779 -0.0490
   97MPD2     C 1477   4.216   3.652   0.549  0.2940 -0.6438  0.0432
   97MPD2    C1 1478   4.270   3.774   0.532  0.2749 -0.5111 -0.4745
   97MPD2    C2 1479   4.276   3.825   0.407 -0.3420 -0.3054  0.4116
   97MPD2    C3 1480   4.239   3.751   0.300  0.0427  0.3531 -0.1608
   97MPD2    C4 1481   4.181   3.632   0.316  0.2806 -0.0859 -0.2552
   97MPD2    C5 1482   4.173   3.575   0.439  0.0038  0.7197  0.2871
   97MPD2     H 1483   4.318   3.922   0.384 -3.9363  1.3281  0.5871
   97MPD2    H1 1484   4.139   3.579   0.230 -0.3708  0.0169 -0.0056
   97MPD2    H2 1485   4.212   3.599   0.644 -0.6414  1.4727  1.1709
   97MPD2    H3 1486   4.140   3.472   0.443  0.7883  0.2962 -4.2277
   97MPD2     N 1487   4.251   3.796   0.176 -0.0912 -0.1949 -0.5796
   97MPD2    H5 1488   4.195   3.754   0.102  0.2056  3.0539 -2.6920
   97MPD2    N1 1489   4.299   3.853   0.652 -0.0577  0.3072  0.1774
   97MPD2    H7 1490   4.277   3.812   0.743  0.3875  1.9503  1.0201
   98TCq2    C1 1491   4.344   3.888   0.123  0.1367 -0.3249  0.9137
   98TCq2    O2 1492   4.426   3.957   0.177 -0.1842  0.9624  0.1802
   98TCq2    C2 1493   4.328   3.912  17.669 -0.2883  0.5575  0.3811
   98TCq2    C3 1494   4.208   3.883  17.614  0.3430  0.0811 -0.2182
   98TCq2    C4 1495   4.140   3.963  17.524 -0.2973 -0.4648  0.5582
   98TCq2    C5 1496   4.201   4.072  17.476 -0.4960 -0.1406 -0.2719
   98TCq2    C6 1497   4.323   4.104  17.532 -1.0986  0.0372  0.4982
   98TCq2    C7 1498   4.390   4.022  17.621 -0.2424 -0.3226 -0.0479
   98TCq2    C8 1499   4.378   4.232  17.500 -0.0339 -0.6269 -1.3234
   98TCq2    O4 1500   4.483   4.259  17.556  0.4971 -0.4887  0.3669
   98TCq2    C9 1501   4.011   3.920  17.468 -0.1591  0.0824 -0.1422
   98TCq2    O5 1502   3.955   3.819  17.517 -0.1066  0.3919  0.8608
   98TCq2    O6 1503   3.946   4.008  17.404 -0.5373 -0.3911 -0.2914
   98TCq2    H2 1504   4.155   3.793  17.641  0.4568 -0.0633 -0.4761
   98TCq2    H3 1505   4.157   4.119  17.389  1.5621  1.0176 -0.6990
   98TCq2    H4 1506   4.475   4.056  17.678 -0.4403  0.4514 -0.2066
   99MPD2     C 1507   3.472   1.759   1.554  0.1702  0.2156  1.2292
   99MPD2    C1 1508   3.416   1.637   1.543  0.0932 -0.7628  0.3423
   99MPD2    C2 1509   3.407   1.571   1.421  0.0155 -0.2418  0.5196
   99MPD2    C3 1510   3.456   1.628   1.307 -0.3511  0.1307  0.6934
   99MPD2    C4 1511   3.511   1.755   1.313  0.0852 -0.4871 -0.0751
   99MPD2    C5 1512   3.525   1.818   1.434 -0.0959  0.6272 -1.3380
   99MPD2     H 1513   3.367   1.471   1.410  0.2556 -0.4823  1.7843
   99MPD2    H1 1514   3.556   1.811   1.232 -2.4037  0.1854 -0.9961
   99MPD2    H2 1515   3.491   1.803   1.652 -0.6748  0.9439  1.0661
   99MPD2    H3 1516   3.572   1.915   1.439 -0.6280  0.7866  0.4621
   99MPD2     N 1517   3.451   1.555   1.184 -0.2527 -0.0664 -0.0378
   99MPD2    H5 1518   3.389   1.474   1.181  0.1528 -0.4233  1.1160
   99MPD2    N1 1519   3.378   1.565   1.657 -0.0179 -0.5147  1.0091
   99MPD2    H7 1520   3.330   1.477   1.646 -0.0099 -0.4168  0.2152
  100TCq2    C1 1521   3.416   1.587   1.790  0.2933 -0.0240 -0.5257
  100TCq2    O2 1522   3.474   1.682   1.844 -0.0313 -0.3215 -0.3860
  100TCq2    C2 1523   3.383   1.467   1.869  0.3894  0.6298  0.1974
  100TCq2    C3 1524   3.394   1.480   2.004  0.8680 -0.0238  0.1141
  100TCq2    C4 1525   3.382   1.368   2.083  0.0323 -0.0356  0.2699
  100TCq2    C5 1526   3.357   1.247   2.028  0.3186 -0.3674  0.2802
  100TCq2    C6 1527   3.357   1.234   1.889  0.2673 -0.0657  0.3372
  100TCq2    C7 1528   3.365   1.345   1.801 -0.3554  0.0562 -0.8834
  100TCq2    C8 1529   3.332   1.098   1.851  0.0357  0.0168  0.5877
  100TCq2    O4 1530   3.383   1.017   1.925  0.1243 -0.0379  0.7346
  100TCq2    C9 1531   3.382   1.390   2.227  0.0443  0.3461 -0.5621
  100TCq2    O5 1532   3.417   1.502   2.261  1.1825  0.0064  0.4266
  100TCq2    O6 1533   3.373   1.282   2.293  0.4965  0.6704 -0.1332
  100TCq2    H2 1534   3.394   1.572   2.062 -0.2398 -0.3506  0.6197
  100TCq2    H3 1535   3.328   1.164   2.091  1.1044 -1.9560 -1.4605
  100TCq2    H4 1536   3.372   1.323   1.695  0.1663  0.7142 -0.9865
  101MPD2     C 1537   4.175   2.940  12.709 -0.4731  0.6899  0.5443
  101MPD2    C1 1538   4.044   2.959  12.711 -0.5906 -0.4773  0.1104
  101MPD2    C2 1539   3.968   2.875  12.780 -0.0610 -0.1892  0.1741
  101MPD2    C3 1540   4.032   2.769  12.848  0.4903  0.9439  0.5752
  101MPD2    C4 1541   4.165   2.742  12.833 -0.1883  0.0053  0.7974
  101MPD2    C5 1542   4.239   2.832  12.760  0.1125  0.1092  0.1644
  101MPD2     H 1543   3.860   2.880  12.778 -0.0186  1.0686  0.9496
  101MPD2    H1 1544   4.217   2.663  12.885 -0.2983  0.5126  1.6679
  101MPD2    H2 1545   4.235   3.005  12.646  1.5409 -0.3070  1.4355
  101MPD2    H3 1546   4.346   2.817  12.753 -0.2530 -2.5550  0.2618
  101MPD2     N 1547   3.949   2.681  12.924 -0.6082 -0.1297 -0.1011
  101MPD2    H5 1548   3.853   2.716  12.925 -0.4797  0.2628 -1.8623
  101MPD2    N1 1549   3.988   3.061  12.628 -0.0901 -0.3041  0.1569
  101MPD2    H7 1550   4.048   3.115  12.567 -0.1990 -0.5502 -0.1695
  102TCq2    C1 1551   4.009   3.370  12.246 -0.4156  0.3118  0.1823
  102TCq2    O2 1552   4.122   3.335  12.286  0.1348 -0.4261  0.0511
  102TCq2    C2 1553   3.895   3.329  12.336 -0.6056  0.1960 -0.5143
  102TCq2    C3 1554   3.775   3.396  12.343 -0.3350 -0.6566 -0.5160
  102TCq2    C4 1555   3.680   3.363  12.432  0.0787  0.4358 -0.1432
  102TCq2    C5 1556   3.715   3.278  12.530 -0.5690  0.4460 -1.0540
  102TCq2    C6 1557   3.839   3.211  12.528  0.4399  0.2053  0.2810
  102TCq2    C7 1558   3.922   3.231  12.423  0.1298 -0.3179 -0.2611
  102TCq2    C8 1559   3.854   3.091  12.612  0.1568 -0.0999  0.7449
  102TCq2    O4 1560   3.756   3.056  12.677 -0.1969 -0.1042 -0.0737
  102TCq2    C9 1561   3.562   3.445  12.438 -0.7167 -0.1294  0.5316
  102TCq2    O5 1562   3.546   3.534  12.346  0.3653 -0.2479  0.2676
  102TCq2    O6 1563   3.471   3.407  12.519  0.4887 -0.3066 -0.1401
  102TCq2    H2 1564   3.747   3.473  12.272 -0.3765  0.9028  1.1928
  102TCq2    H3 1565   3.647   3.247  12.608  0.3172 -0.1440 -0.5198
  102TCq2    H4 1566   4.014   3.174  12.411 -0.0863 -0.6393 -0.3965
  103TMC2    C1 1567   2.386   2.964  11.945 -0.0809  0.5185  0.2308
  103TMC2    C2 1568   2.523   2.962  11.954 -0.2350  0.6102 -0.0354
  103TMC2    C3 1569   2.577   3.054  12.034  0.6385  0.1286  0.2628
  103TMC2    C4 1570   2.305   3.053  12.014  0.1722 -0.4087  0.2909
  103TMC2    C5 1571   2.361   3.152  12.086  0.4015  0.1444  0.8150
  103TMC2    C6 1572   2.494   3.142  12.106 -0.2200 -0.3616 -0.3596
  103TMC2     C 1573   2.318   2.852  11.878 -0.0737 -0.3451  0.1393
  103TMC2     O 1574   2.199   2.861  11.845  0.3731 -0.2984  0.4203
  103TMC2     H 1575   2.586   2.913  11.881 -0.7002 -0.9567  0.5907
  103TMC2    H1 1576   2.200   3.026  12.009  0.0789  0.3099 -1.6000
  103TMC2    H2 1577   2.542   3.222  12.160  1.6514 -2.2455  0.7915
  103TMC2    C7 1578   2.277   3.203  12.196  0.4496  0.6736 -0.7850
  103TMC2    C8 1579   2.719   3.042  12.066 -0.4685  0.1438  0.0181
  103TMC2    O1 1580   2.325   3.203  12.307  0.0292  0.1367  0.1151
  103TMC2    O2 1581   2.804   3.005  11.985 -0.0155 -0.6090  0.0848
  103TMC2    O5 1582   2.745   3.113  12.179 -0.0744 -0.0696 -0.2718
  103TMC2    H5 1583   2.668   3.111  12.240  0.9814  0.1128  1.0562
  104MPD2     C 1584   2.461   2.516  11.821  0.7127 -0.6327  0.0633
  104MPD2    C1 1585   2.371   2.622  11.811  0.1750  0.7777 -0.0121
  104MPD2    C2 1586   2.268   2.601  11.729  0.7490  0.1445 -0.0624
  104MPD2    C3 1587   2.245   2.480  11.670 -0.7893 -0.1502  0.4129
  104MPD2    C4 1588   2.326   2.369  11.682  0.0763 -0.8954  0.6591
  104MPD2    C5 1589   2.438   2.396  11.762  0.2796  0.5130  0.6369
  104MPD2     H 1590   2.189   2.672  11.705 -0.8252 -2.1430 -1.6568
  104MPD2    H1 1591   2.298   2.271  11.644 -0.4101 -0.4570 -0.0973
  104MPD2    H2 1592   2.554   2.522  11.877  0.2153  0.7316  0.7543
  104MPD2    H3 1593   2.510   2.315  11.765 -0.2742 -0.1018 -1.9858
  104MPD2     N 1594   2.140   2.485  11.579  0.1804  0.4590 -0.2707
  104MPD2    H5 1595   2.104   2.577  11.556 -0.6320  0.4560  1.0052
  104MPD2    N1 1596   2.404   2.749  11.865  0.6121 -0.3968  0.3396
  104MPD2    H7 1597   2.494   2.771  11.905  1.4156  1.8594 -2.6901
  105MPD2     C 1598   3.767   1.931  17.571  0.0901  0.1290 -0.0956
  105MPD2    C1 1599   3.703   2.048  17.549  0.8225 -0.3360  0.9639
  105MPD2    C2 1600   3.596   2.081  17.629 -0.2262  0.1717  0.6188
  105MPD2    C3 1601   3.555   2.013   0.054  0.0303 -0.5589  0.1511
  105MPD2    C4 1602   3.621   1.894   0.080 -0.1073  0.3631  0.4250
  105MPD2    C5 1603   3.718   1.847  17.673 -0.0256  0.6767 -0.1282
  105MPD2     H 1604   3.542   2.172  17.603 -2.1575  0.1159  4.4328
  105MPD2    H1 1605   3.609   1.834   0.170  1.6275 -0.1092  0.3341
  105MPD2    H2 1606   3.846   1.891  17.509  0.8330  0.9781  0.3177
  105MPD2    H3 1607   3.778   1.761   0.010  0.4024  1.1658  0.5509
  105MPD2     N 1608   3.454   2.074   0.130  0.1329 -0.7842  0.0702
  105MPD2    H5 1609   3.431   2.172   0.117  1.9605 -0.6941 -2.4586
  105MPD2    N1 1610   3.720   2.140  17.446 -0.5225  0.3669  0.3523
  105MPD2    H7 1611   3.661   2.222  17.440  1.8452  1.9313 -1.2653
  106TCq2    C1 1612   3.398   2.012   0.241 -0.7125  0.0192 -0.0878
  106TCq2    O2 1613   3.404   1.894   0.279  0.0433 -0.4020 -0.2070
  106TCq2    C2 1614   3.283   2.088   0.290  0.2994 -0.2842 -0.1201
  106TCq2    C3 1615   3.285   2.222   0.299 -0.0129 -0.0053 -0.3969
  106TCq2    C4 1616   3.174   2.286   0.347  0.4821  0.1563 -0.2192
  106TCq2    C5 1617   3.068   2.224   0.393 -0.6732 -1.0723 -0.0788
  106TCq2    C6 1618   3.066   2.090   0.384  0.2928 -0.0618  0.8430
  106TCq2    C7 1619   3.172   2.020   0.328 -0.3833 -0.1918 -0.1207
  106TCq2    C8 1620   2.994   2.017   0.479  0.3453 -0.1357 -0.3386
  106TCq2    O4 1621   2.999   1.896   0.480  0.2066 -0.2023  0.2618
  106TCq2    C9 1622   3.168   2.430   0.318  0.0612  0.0781  0.9739
  106TCq2    O5 1623   3.266   2.478   0.257  0.2525 -0.1550 -0.2184
  106TCq2    O6 1624   3.058   2.485   0.352  0.5281  0.0294 -0.8579
  106TCq2    H2 1625   3.367   2.277   0.256 -1.2266  0.7714 -1.7187
  106TCq2    H3 1626   2.973   2.273   0.408  0.1265 -0.4445  2.8154
  106TCq2    H4 1627   3.182   1.912   0.327 -0.8406 -0.2499  2.2366
  107TMC2    C1 1628   3.916   1.332  11.165 -0.4642 -0.0914  0.2597
  107TMC2    C2 1629   4.022   1.411  11.132 -0.3418 -0.3870 -0.0881
  107TMC2    C3 1630   4.072   1.398  11.011  0.1927 -0.3203 -0.2716
  107TMC2    C4 1631   3.847   1.252  11.080  0.3499  0.5507  0.6468
  107TMC2    C5 1632   3.914   1.230  10.959  0.2067 -0.1511 -0.3935
  107TMC2    C6 1633   4.023   1.305  10.920 -0.1288  0.0215 -0.7143
  107TMC2     C 1634   3.890   1.323  11.310  0.5269  0.0575  0.1933
  107TMC2     O 1635   3.929   1.416  11.383  0.6984 -0.8434  0.7031
  107TMC2     H 1636   4.065   1.478  11.205 -0.5783 -0.3938  0.0569
  107TMC2    H1 1637   3.760   1.194  11.109  0.1809  0.2806 -0.3747
  107TMC2    H2 1638   4.056   1.303  10.817  0.2727 -1.0198 -0.5647
  107TMC2    C7 1639   3.847   1.151  10.854 -0.5171 -0.3229 -0.6098
  107TMC2    C8 1640   4.160   1.495  10.958  0.1835 -0.0136 -0.4744
  107TMC2    O1 1641   3.746   1.096  10.901  0.2168 -0.4393  0.4432
  107TMC2    O2 1642   4.211   1.473  10.851 -0.2827  0.3156  0.5199
  107TMC2    O5 1643   4.113   1.613  11.003  0.4544  0.3685  0.1826
  107TMC2    H5 1644   4.053   1.604  11.081  2.4882  0.1484  1.7276
  108MPD2     C 1645   3.798   1.040  11.518  0.6473 -0.3800 -0.6518
  108MPD2    C1 1646   3.798   1.170  11.475 -0.1210 -1.0169 -0.5110
  108MPD2    C2 1647   3.750   1.258  11.568  0.4035  0.0666  0.3819
  108MPD2    C3 1648   3.708   1.218  11.692 -0.1946  0.6833  0.4092
  108MPD2    C4 1649   3.715   1.083  11.732  0.0417  0.2855 -0.4422
  108MPD2    C5 1650   3.762   0.995  11.643  0.3509 -0.2962 -1.1633
  108MPD2     H 1651   3.760   1.362  11.541  2.3769 -0.5034 -1.0607
  108MPD2    H1 1652   3.692   1.045  11.831  0.2028 -0.4404 -0.6885
  108MPD2    H2 1653   3.838   0.967  11.448  2.5758  2.3387 -2.4025
  108MPD2    H3 1654   3.790   0.896  11.677 -0.5945  0.4202  1.6516
  108MPD2     N 1655   3.660   1.306  11.794  0.5658  0.3306 -0.2854
  108MPD2    H5 1656   3.638   1.259  11.881 -1.9813  0.7799 -0.7048
  108MPD2    N1 1657   3.843   1.202  11.344 -0.0490  0.5616  0.2118
  108MPD2    H7 1658   3.857   1.128  11.276  2.6885  0.9981  0.2676
  109MPD2     C 1659   4.326   3.085   1.681  0.2047 -0.5993  0.1847
  109MPD2    C1 1660   4.301   3.217   1.650  0.3580 -0.2504  0.2664
  109MPD2    C2 1661   4.417   3.303   1.645 -0.0376  0.5985 -0.6973
  109MPD2    C3 1662   4.542   3.263   1.687 -1.7422 -0.6852  0.3125
  109MPD2    C4 1663   4.560   3.134   1.717  0.4774 -0.0474 -0.9912
  109MPD2    C5 1664   4.455   3.044   1.719 -0.1009 -0.1341 -0.5832
  109MPD2     H 1665   4.393   3.409   1.636  0.9700  0.7245 -1.7931
  109MPD2    H1 1666   4.656   3.090   1.742  1.7790  1.1423 -3.8520
  109MPD2    H2 1667   4.242   3.019   1.700 -0.6392  0.3548 -0.2708
  109MPD2    H3 1668   4.474   2.943   1.753 -2.3801 -0.8188 -1.3532
  109MPD2     N 1669   4.639   3.366   1.701 -0.1658  0.0272 -0.0430
  109MPD2    H5 1670   4.606   3.461   1.689 -1.5346 -0.5987 -1.2521
  109MPD2    N1 1671   4.172   3.250   1.605 -0.0657 -0.6163  0.1060
  109MPD2    H7 1672   4.107   3.171   1.607 -0.1525 -0.5661 -0.8268
  110TCq2    C1 1673   0.046   3.349   1.740 -0.1284  0.8427  0.5016
  110TCq2    O2 1674   0.103   3.265   1.806 -0.4048 -0.3032  0.1289
  110TCq2    C2 1675   0.122   3.469   1.695 -0.1980  0.2818 -0.6333
  110TCq2    C3 1676   0.234   3.487   1.765 -0.3668 -0.3435  0.6913
  110TCq2    C4 1677   0.308   3.602   1.729 -0.8643 -0.1950  0.1620
  110TCq2    C5 1678   0.274   3.677   1.622  0.6820 -0.0248 -0.7629
  110TCq2    C6 1679   0.159   3.646   1.551  0.5390  0.5983 -0.3313
  110TCq2    C7 1680   0.093   3.532   1.577 -0.3794  0.0053  0.2017
  110TCq2    C8 1681   0.100   3.743   1.464 -0.0502 -0.5930 -0.0939
  110TCq2    O4 1682   0.031   3.694   1.377  0.3093 -0.5385 -0.2782
  110TCq2    C9 1683   0.420   3.639   1.802 -0.2915 -0.5119 -0.3512
  110TCq2    O5 1684   0.435   3.763   1.821 -0.9014 -0.2750 -0.5806
  110TCq2    O6 1685   0.475   3.551   1.873 -0.0273 -0.2671  0.2993
  110TCq2    H2 1686   0.269   3.429   1.850 -0.5524 -0.1666  0.8898
  110TCq2    H3 1687   0.348   3.751   1.596  0.5656 -0.7148 -3.0603
  110TCq2    H4 1688   4.721   3.519   1.524 -0.3894  0.1510  0.1837
  111TMC2    C1 1689   4.593   4.090  10.934 -1.3878  0.1033  0.3839
  111TMC2    C2 1690   4.539   4.210  10.970 -0.3192 -0.0572  0.1336
  111TMC2    C3 1691   4.573   4.249  11.096 -0.3310 -0.0437 -0.2716
  111TMC2    C4 1692   4.671   4.013  11.015  0.0827 -0.5199 -0.1815
  111TMC2    C5 1693   4.698   4.058  11.134 -0.6704 -0.6646  0.6301
  111TMC2    C6 1694   4.646   4.176  11.179 -0.0227  0.2949 -0.2850
  111TMC2     C 1695   4.561   4.044  10.802 -0.3664  0.0225  0.0563
  111TMC2     O 1696   4.467   4.097  10.743  0.0305 -0.8199 -0.5074
  111TMC2     H 1697   4.480   4.267  10.900  2.1168  1.8032 -0.4238
  111TMC2    H1 1698   4.707   3.920  10.972  0.7612 -0.2617 -0.1609
  111TMC2    H2 1699   4.668   4.206  11.281  2.6449 -2.6490 -0.0200
  111TMC2    C7 1700   0.017   3.956  11.233 -0.1224 -0.5387 -0.6437
  111TMC2    C8 1701   4.502   4.352  11.161  0.0859 -0.1505 -0.3204
  111TMC2    O1 1702   4.686   3.950  11.342 -0.2166 -0.7888  0.5831
  111TMC2    O2 1703   4.550   4.459  11.187 -0.9051  0.5751  0.2859
  111TMC2    O5 1704   4.425   4.287  11.251 -0.0588 -0.0840 -0.3679
  111TMC2    H5 1705   4.394   4.200  11.217  0.7769 -0.6635  0.3612
  112MPD2     C 1706   4.603   3.744  10.390  0.7212  0.7342  0.9963
  112MPD2    C1 1707   4.491   3.813  10.447 -0.0160  0.3144  0.0001
  112MPD2    C2 1708   4.504   3.888  10.565 -0.6095  0.0169 -0.3649
  112MPD2    C3 1709   4.631   3.904  10.624 -0.1493 -0.2287  0.1054
  112MPD2    C4 1710   0.016   3.837  10.556  0.2246  0.4289 -0.2005
  112MPD2    C5 1711   0.002   3.758  10.446  0.3114 -0.6765 -0.3445
  112MPD2     H 1712   4.414   3.936  10.602 -1.1390 -1.5197  0.3667
  112MPD2    H1 1713   0.116   3.849  10.596  0.0975  2.7160 -0.5552
  112MPD2    H2 1714   4.592   3.686  10.298 -0.1920  1.5143  0.6115
  112MPD2    H3 1715   0.089   3.704  10.413  0.0395 -1.0494 -0.4550
  112MPD2     N 1716   4.665   3.974  10.741  0.1831  0.2551  0.1667
  112MPD2    H5 1717   0.036   3.954  10.775 -1.2986 -3.4865  2.0257
  112MPD2    N1 1718   4.368   3.811  10.373  0.1597  0.1522  0.6672
  112MPD2    H7 1719   4.294   3.869  10.411  1.5048  2.0330  0.4034
  113MPD2     C 1720   2.407   1.053   0.473  0.7758  0.1009  0.3778
  113MPD2    C1 1721   2.348   1.174   0.467  0.5735 -0.1607 -0.2528
  113MPD2    C2 1722   2.214   1.181   0.434 -0.2439  0.2079  0.4366
  113MPD2    C3 1723   2.140   1.067   0.401  0.0745 -0.1194  0.2157
  113MPD2    C4 1724   2.201   0.944   0.401 -0.0147 -0.1941 -0.2555
  113MPD2    C5 1725   2.334   0.937   0.442 -0.4229 -0.4233 -0.2634
  113MPD2     H 1726   2.158   1.273   0.440 -1.6407 -0.6074 -0.0053
  113MPD2    H1 1727   2.155   0.850   0.373  0.0742  0.1378 -1.5334
  113MPD2    H2 1728   2.511   1.037   0.499  1.0395 -0.6176 -1.0722
  113MPD2    H3 1729   2.379   0.838   0.443 -0.8131 -0.5884  0.7975
  113MPD2     N 1730   2.001   1.070   0.366  0.2689 -0.6765  0.1706
  113MPD2    H5 1731   1.959   0.980   0.343 -3.2462  0.8672  0.4593
  113MPD2    N1 1732   2.415   1.297   0.494  0.1093 -0.4983 -0.4804
  113MPD2    H7 1733   2.377   1.382   0.453 -0.9711 -0.9618 -0.4492
  114TCq2    C1 1734   1.927   1.184   0.336 -0.2512 -0.2871  0.2370
  114TCq2    O2 1735   1.976   1.292   0.305 -0.3721 -0.0146  0.4710
  114TCq2    C2 1736   1.784   1.163   0.326  0.2875  1.1371 -0.0339
  114TCq2    C3 1737   1.710   1.244   0.249 -0.2853 -0.7750  0.0870
  114TCq2    C4 1738   1.574   1.232   0.252 -0.6256 -0.5793 -0.3454
  114TCq2    C5 1739   1.511   1.128   0.317  0.1271 -0.2093 -0.6520
  114TCq2    C6 1740   1.593   1.054   0.401 -0.0282  0.0327  0.2848
  114TCq2    C7 1741   1.729   1.058   0.400 -0.1860  0.4082  0.5715
  114TCq2    C8 1742   1.524   0.955   0.497  0.1016  0.1272 -0.2312
  114TCq2    O4 1743   1.600   0.901   0.577  0.0716  0.0100 -0.6123
  114TCq2    C9 1744   1.492   1.314   0.164 -0.1628 -0.2762  0.0106
  114TCq2    O5 1745   1.544   1.425   0.140  0.7398 -0.1367 -0.4893
  114TCq2    O6 1746   1.375   1.279   0.145 -0.4564  0.3312 -0.4149
  114TCq2    H2 1747   1.756   1.318   0.184  1.1247  0.0135  1.9857
  114TCq2    H3 1748   1.402   1.132   0.313  0.2349  1.3030 -1.9888
  114TCq2    H4 1749   1.783   0.994   0.468 -0.2219  0.7569  0.9267
  115TMC2    C1 1750   3.201   4.180  17.310 -0.4166 -0.0036 -0.5464
  115TMC2    C2 1751   3.322   4.128  17.306  0.3398 -0.3168 -0.3710
  115TMC2    C3 1752   3.424   4.208  17.273 -0.2569  0.4317  0.4302
  115TMC2    C4 1753   3.171   4.308  17.269 -0.0523 -0.6337 -0.1850
  115TMC2    C5 1754   3.279   4.390  17.234 -0.1757 -0.2956  0.0278
  115TMC2    C6 1755   3.409   4.337  17.233  0.0655 -0.3639 -0.1993
  115TMC2     C 1756   3.095   4.101  17.368  0.1531 -0.1283 -0.4163
  115TMC2     O 1757   3.100   3.985  17.342  0.4839  0.1017 -0.0543
  115TMC2     H 1758   3.341   4.022  17.320 -0.0409 -0.1334  1.5809
  115TMC2    H1 1759   3.068   4.341  17.269  0.3426  0.5775 -0.5002
  115TMC2    H2 1760   3.491   4.395  17.192  1.3283 -1.5305  0.7105
  115TMC2    C7 1761   3.240   4.511  17.165  0.2448 -0.5795 -0.1444
  115TMC2    C8 1762   3.571   4.170  17.290  0.8427 -0.4115 -0.1159
  115TMC2    O1 1763   3.125   4.546  17.190  0.4066  0.7026  0.2286
  115TMC2    O2 1764   3.662   4.247  17.259  0.2103  0.1724  0.0741
  115TMC2    O5 1765   3.584   4.036  17.264 -0.0561  0.8735  0.7307
  115TMC2    H5 1766   3.526   3.969  17.305  0.4134  0.2395  0.3645
  116MPD2     C 1767   2.602   4.037  17.537 -0.5765 -0.1608  0.1395
  116MPD2    C1 1768   2.676   3.957  17.446  0.1044  0.3002  0.1601
  116MPD2    C2 1769   2.804   3.998  17.418  0.7822  0.3744 -0.5214
  116MPD2    C3 1770   2.862   4.113  17.463  0.8023  0.7035 -0.2929
  116MPD2    C4 1771   2.783   4.193  17.542 -0.0764  0.5328  0.2470
  116MPD2    C5 1772   2.658   4.150  17.588 -0.0403  0.9367 -0.5912
  116MPD2     H 1773   2.861   3.932  17.354 -0.6334  1.3227 -2.7935
  116MPD2    H1 1774   2.816   4.292  17.573 -0.5187  0.3773  1.2235
  116MPD2    H2 1775   2.519   3.982  17.579 -0.8867  0.5304  0.4163
  116MPD2    H3 1776   2.608   4.210  17.662  2.7035  1.7751  0.5672
  116MPD2     N 1777   2.988   4.166  17.423 -0.0180 -0.5907  0.0806
  116MPD2    H5 1778   3.010   4.263  17.445 -0.5191 -1.1527  3.0257
  116MPD2    N1 1779   2.613   3.835  17.402 -0.1457  0.1590  0.1428
  116MPD2    H7 1780   2.529   3.810  17.452 -1.4057  0.3588 -1.8967
  117TMC2    C1 1781   1.172   0.980  13.762 -0.4331 -0.4029 -0.8360
  117TMC2    C2 1782   1.222   0.904  13.865 -0.2564  0.9997 -0.5429
  117TMC2    C3 1783   1.327   0.964  13.936 -0.0330  0.2090 -0.3216
  117TMC2    C4 1784   1.240   1.082  13.699  0.2854  0.8973 -0.8589
  117TMC2    C5 1785   1.338   1.139  13.778 -0.3489 -0.2703 -0.8452
  117TMC2    C6 1786   1.382   1.081  13.896 -0.2122 -0.1091  0.2441
  117TMC2     C 1787   1.079   0.909  13.676  0.0712  0.0546 -0.2493
  117TMC2     O 1788   1.081   0.786  13.667 -0.2247 -0.5413  0.1487
  117TMC2     H 1789   1.151   0.828  13.896 -0.5319  1.5095  0.0597
  117TMC2    H1 1790   1.206   1.127  13.607  0.5677  0.4717 -1.1689
  117TMC2    H2 1791   1.458   1.129  13.956  0.5607  2.0045 -2.4297
  117TMC2    C7 1792   1.392   1.269  13.749  0.1570 -0.6297 -0.1712
  117TMC2    C8 1793   1.364   0.920  14.065 -0.5526  0.1016  0.1449
  117TMC2    O1 1794   1.507   1.300  13.786 -0.0171 -0.1984 -0.3388
  117TMC2    O2 1795   1.415   0.990  14.143  0.0430 -0.4053  0.0265
  117TMC2    O5 1796   1.311   0.806  14.092  0.6118  0.1571  0.2128
  117TMC2    H5 1797   1.286   0.753  14.013  2.5069  0.9276 -0.8737
  118MPD2     C 1798   1.217   1.528  13.553  0.4253 -0.3118  0.4626
  118MPD2    C1 1799   1.325   1.474  13.630  0.0564  1.0026  0.7555
  118MPD2    C2 1800   1.442   1.551  13.628  0.1282  0.2768  0.4206
  118MPD2    C3 1801   1.457   1.667  13.550  0.6191  0.1489  0.3557
  118MPD2    C4 1802   1.347   1.721  13.484 -0.7831  0.2901  0.0199
  118MPD2    C5 1803   1.235   1.641  13.479 -0.2532  0.7293  0.2001
  118MPD2     H 1804   1.525   1.494  13.670  0.5639 -0.9717 -2.1163
  118MPD2    H1 1805   1.351   1.817  13.434 -0.9252  0.7699  0.9341
  118MPD2    H2 1806   1.126   1.471  13.536  0.4659  0.1283 -1.2058
  118MPD2    H3 1807   1.163   1.678  13.407  1.5858  1.1750 -1.4137
  118MPD2     N 1808   1.577   1.724  13.517  0.0865  0.1501  0.1557
  118MPD2    H5 1809   1.579   1.792  13.442 -0.4274 -0.0096 -0.0031
  118MPD2    N1 1810   1.307   1.339  13.670 -0.4407  0.1622 -0.0788
  118MPD2    H7 1811   1.214   1.301  13.654 -0.3482  0.2780 -0.8850
  119MPD2     C 1812   4.544   2.630  12.769  0.9072  0.0757 -0.1336
  119MPD2    C1 1813   4.449   2.531  12.786 -0.5004 -0.1183 -0.1753
  119MPD2    C2 1814   4.382   2.479  12.676  0.6178 -0.2953 -0.1298
  119MPD2    C3 1815   4.412   2.531  12.545  0.4141  0.2046  0.0340
  119MPD2    C4 1816   4.514   2.623  12.536  0.3704  0.1852  0.6578
  119MPD2    C5 1817   4.576   2.674  12.644 -0.2243 -0.5894 -0.8247
  119MPD2     H 1818   4.307   2.403  12.692 -1.5822  1.8127 -0.4448
  119MPD2    H1 1819   4.538   2.660  12.438 -0.6921 -0.3426  0.1960
  119MPD2    H2 1820   4.592   2.675  12.856 -2.6628  1.1451  1.2858
  119MPD2    H3 1821   4.656   2.744  12.621  1.4714 -2.0193  0.7396
  119MPD2     N 1822   4.363   2.484  12.421  0.0638 -0.2817 -0.6134
  119MPD2    H5 1823   4.418   2.496  12.337  1.9033 -0.2268  0.6164
  119MPD2    N1 1824   4.397   2.491  12.912  0.3535  0.6600  0.0416
  119MPD2    H7 1825   4.323   2.422  12.903  0.0984  0.8122  1.0389
  120TCq2    C1 1826   4.251   2.406  12.420 -0.5343  0.0701  0.0110
  120TCq2    O2 1827   4.158   2.399  12.495 -0.1462 -0.2167  0.2750
  120TCq2    C2 1828   4.267   2.315  12.306 -0.6325 -0.5422 -0.0622
  120TCq2    C3 1829   4.391   2.274  12.258  0.3455  0.0918  0.4057
  120TCq2    C4 1830   4.401   2.151  12.202 -0.5537  0.9494 -0.3411
  120TCq2    C5 1831   4.295   2.069  12.179  0.8160 -0.4945 -0.3762
  120TCq2    C6 1832   4.173   2.116  12.232 -0.8264  0.4425 -0.2107
  120TCq2    C7 1833   4.160   2.231  12.294  0.0606  0.7310  0.0170
  120TCq2    C8 1834   4.076   2.011  12.262 -0.9810 -0.7076  1.0689
  120TCq2    O4 1835   4.068   1.924  12.180 -0.0249 -0.0305  0.8636
  120TCq2    C9 1836   4.529   2.087  12.192  0.2973  0.2185  0.3295
  120TCq2    O5 1837   4.625   2.155  12.236 -0.3338  0.1867  0.0555
  120TCq2    O6 1838   4.532   1.963  12.165 -0.2076  0.2521  0.2033
  120TCq2    H2 1839   4.481   2.324  12.290  1.7416 -2.5521  0.6253
  120TCq2    H3 1840   4.301   1.963  12.158 -0.8213 -0.4315 -1.2266
  120TCq2    H4 1841   4.060   2.262  12.320 -0.2730  0.7472 -1.2905
  121TMC2    C1 1842   1.504   4.558  13.611 -0.3193  0.0591 -0.4752
  121TMC2    C2 1843   1.538   4.654  13.707 -0.0892  0.3679  0.0089
  121TMC2    C3 1844   1.450   4.680  13.812  0.5177 -0.4851  0.3479
  121TMC2    C4 1845   1.385   4.493  13.622  0.5975  0.1585  0.1824
  121TMC2    C5 1846   1.297   4.527  13.720 -0.1215  0.5941 -0.3450
  121TMC2    C6 1847   1.327   4.622  13.820  0.4032 -0.4240  0.7145
  121TMC2     C 1848   1.622   4.483  13.569  0.2577  0.8684 -0.0051
  121TMC2     O 1849   1.687   4.438  13.662 -0.3293 -0.3571  0.3731
  121TMC2     H 1850   1.639   4.691  13.725 -0.4715  1.4443 -0.0674
  121TMC2    H1 1851   1.355   4.414  13.554 -0.3519  0.3546  0.3675
  121TMC2    H2 1852   1.258   4.632  13.903  0.7317  1.4950  0.7559
  121TMC2    C7 1853   1.203   4.419  13.758 -0.2219  1.0950 -0.0464
  121TMC2    C8 1854   1.498   0.060  13.914 -0.5662 -0.7264  0.0876
  121TMC2    O1 1855   1.210   4.384  13.873  0.2914 -0.3483  0.0996
  121TMC2    O2 1856   1.557   0.157  13.873 -0.1218  0.6417  0.2660
  121TMC2    O5 1857   1.423   0.050  14.022 -0.4199  0.3687  0.0528
  121TMC2    H5 1858   1.392   4.679  14.036  2.5916 -0.2298  2.8518
  122MPD2     C 1859   1.887   4.393  13.444  0.6689  0.4789  0.1376
  122MPD2    C1 1860   1.780   4.456  13.380 -0.3395  0.5594 -0.4925
  122MPD2    C2 1861   1.801   4.478  13.243  0.2384  0.4691  0.2215
  122MPD2    C3 1862   1.905   4.440  13.162 -0.9168  0.0461  0.0078
  122MPD2    C4 1863   2.011   4.382  13.232  0.2576  0.1040 -0.6314
  122MPD2    C5 1864   2.002   4.365  13.372 -0.0166 -0.2437 -0.2278
  122MPD2     H 1865   1.727   4.541  13.195  1.1111 -0.2515 -2.0439
  122MPD2    H1 1866   2.094   4.344  13.172  0.5115  1.3712 -1.0760
  122MPD2    H2 1867   1.892   4.365  13.549 -1.6031 -1.0820 -0.1685
  122MPD2    H3 1868   2.076   4.312  13.432 -1.3881 -2.1970 -0.2540
  122MPD2     N 1869   1.906   4.449  13.016 -0.2557  0.4558 -0.3846
  122MPD2    H5 1870   1.988   4.411  12.970 -0.5569  0.4472 -0.9109
  122MPD2    N1 1871   1.657   4.489  13.435  0.1801  0.3156 -0.2577
  122MPD2    H7 1872   1.591   4.544  13.382 -1.4013  0.0855  1.4572
  123MPD2     C 1873   4.498   2.009  10.046  0.2559 -0.4263 -0.4425
  123MPD2    C1 1874   4.489   1.953   9.929  0.1053  0.0630  0.3573
  123MPD2    C2 1875   4.573   2.013   9.831 -0.3746  0.0340 -0.3470
  123MPD2    C3 1876   4.638   2.134   9.841 -0.4626  0.6449  0.0263
  123MPD2    C4 1877   4.623   2.196   9.963 -0.5156  0.0505  0.1966
  123MPD2    C5 1878   4.572   2.122  10.067  0.9835  0.4645  0.1988
  123MPD2     H 1879   4.593   1.964   9.736 -2.9468 -0.6697 -0.5292
  123MPD2    H1 1880   4.676   2.286   9.993 -3.2944  2.0586 -0.9288
  123MPD2    H2 1881   4.443   1.979  10.134 -0.5070  1.0316 -0.4220
  123MPD2    H3 1882   4.577   2.158  10.169  2.4212 -0.6088  0.5178
  123MPD2     N 1883   4.720   2.185   9.741 -0.1739  0.0191  0.8310
  123MPD2    H5 1884   4.721   2.131   9.655  0.4105 -0.1392  0.9414
  123MPD2    N1 1885   4.406   1.840   9.900  0.1774 -0.4163  0.2213
  123MPD2    H7 1886   4.420   1.798   9.809  1.9349  0.4528  0.0938
  124TCq2    C1 1887   0.072   2.295   9.738 -0.2618  0.4347 -0.0094
  124TCq2    O2 1888   0.074   2.386   9.817 -0.3468 -0.0357 -0.4364
  124TCq2    C2 1889   0.125   2.324   9.608  0.1903 -0.0061  0.0599
  124TCq2    C3 1890   0.261   2.343   9.603  0.4043 -0.1981 -0.5642
  124TCq2    C4 1891   0.333   2.315   9.486  0.0739 -0.1460  0.3050
  124TCq2    C5 1892   0.270   2.257   9.383 -0.6286 -0.3741  0.2486
  124TCq2    C6 1893   0.134   2.236   9.391  0.3390  0.0727 -0.6153
  124TCq2    C7 1894   0.061   2.271   9.504 -0.1911 -0.0488 -0.7549
  124TCq2    C8 1895   0.073   2.126   9.319 -0.2210  0.2107 -0.2541
  124TCq2    O4 1896   4.698   2.070   9.371  0.1166 -0.6130 -0.1110
  124TCq2    C9 1897   0.475   2.344   9.493 -0.3039  1.2802  0.0502
  124TCq2    O5 1898   0.544   2.292   9.400  0.4422 -0.1932  0.7283
  124TCq2    O6 1899   0.513   2.390   9.601  0.2115  0.1205  0.0054
  124TCq2    H2 1900   0.303   2.381   9.695  0.9360 -3.8345  0.7001
  124TCq2    H3 1901   0.331   2.228   9.299 -0.5187 -0.7671  0.4663
  124TCq2    H4 1902   4.675   2.257   9.499 -0.1647 -0.2557 -0.7623
  125TMC2    C1 1903   1.038   3.216   9.164 -0.7584 -0.1943 -0.3693
  125TMC2    C2 1904   0.969   3.117   9.228 -0.0326 -0.5339  0.0785
  125TMC2    C3 1905   0.954   3.138   9.362  0.3281 -0.1291  0.6909
  125TMC2    C4 1906   1.109   3.316   9.227 -0.2937 -1.0617  0.6582
  125TMC2    C5 1907   1.088   3.326   9.360  0.6659 -0.0656 -0.2540
  125TMC2    C6 1908   1.017   3.237   9.431  0.3814 -0.1807  0.0186
  125TMC2     C 1909   1.062   3.197   9.022 -0.5331  0.1457 -0.7409
  125TMC2     O 1910   1.043   3.086   8.976 -0.4525  0.2464 -0.1183
  125TMC2     H 1911   0.922   3.030   9.183  1.2138 -2.0556  1.6921
  125TMC2    H1 1912   1.173   3.391   9.182 -2.3688 -0.5718 -1.4326
  125TMC2    H2 1913   1.023   3.233   9.540 -2.2387  0.6498  0.1868
  125TMC2    C7 1914   1.185   3.406   9.433  0.3754 -0.3921  0.5100
  125TMC2    C8 1915   0.863   3.043   9.429  0.5505  1.0473  0.9318
  125TMC2    O1 1916   1.207   3.367   9.545 -0.3018  0.0183  0.4653
  125TMC2    O2 1917   0.837   2.933   9.384  0.2579  0.3201  1.1150
  125TMC2    O5 1918   0.775   3.129   9.486  0.3247  0.2913  0.0485
  125TMC2    H5 1919   0.791   3.224   9.463  0.3857  0.6191  1.4580
  126MPD1     C 1920   1.217   3.367   8.567  0.0693 -0.3486 -0.4806
  126MPD1    C1 1921   1.188   3.478   8.642 -0.2912  0.0441  0.0867
  126MPD1    C2 1922   1.148   3.456   8.771 -0.1509  0.1136 -0.0670
  126MPD1    C3 1923   1.135   3.332   8.828  0.1137 -0.1757 -0.5627
  126MPD1    C4 1924   1.172   3.224   8.753 -0.1066  0.1997  0.4303
  126MPD1    C5 1925   1.208   3.240   8.627  0.5585  0.1436 -0.1936
  126MPD1     H 1926   1.119   3.539   8.834  1.5252 -0.3254  1.2562
  126MPD1    H1 1927   1.180   3.124   8.793 -1.6215  0.4327  1.3059
  126MPD1    H2 1928   1.256   3.365   8.465  3.2966 -0.7227  0.7795
  126MPD1    H3 1929   1.253   3.152   8.581 -0.8390 -0.7325  0.1438
  126MPD1     N 1930   1.087   3.315   8.963 -0.0997  0.4222 -0.8276
  126MPD1    H5 1931   1.070   3.401   9.015  0.5427 -0.0330  0.1479
  126MPD1    N1 1932   1.195   3.604   8.581 -0.4168 -0.0387 -0.0822
  126MPD1    H6 1933   1.225   3.678   8.644  0.0668  0.1336 -0.5113
  126MPD1    H7 1934   1.264   3.608   8.506 -0.8467 -1.0771 -0.5285
  127MPD2     C 1935   2.066   3.070   8.774  0.1180  0.1650 -0.1238
  127MPD2    C1 1936   2.112   3.045   8.899  0.7783  0.4551 -0.2497
  127MPD2    C2 1937   2.172   3.150   8.968 -0.0715 -0.1846  0.2759
  127MPD2    C3 1938   2.185   3.277   8.916  0.4607 -0.3479  0.8615
  127MPD2    C4 1939   2.137   3.302   8.787  0.5971 -0.5411 -0.3877
  127MPD2    C5 1940   2.067   3.197   8.723  0.7629  0.5079 -0.6882
  127MPD2     H 1941   2.211   3.130   9.067  1.0800  1.4433  0.1358
  127MPD2    H1 1942   2.144   3.391   8.725  0.3256  0.0494  0.4381
  127MPD2    H2 1943   2.032   2.986   8.714  0.5316 -1.0832  1.3798
  127MPD2    H3 1944   2.022   3.221   8.627 -0.3276 -0.2874 -0.3731
  127MPD2     N 1945   2.249   3.381   8.994  0.2714 -0.6074  0.7686
  127MPD2    H5 1946   2.287   3.345   9.081  1.3681 -0.9125  0.1583
  127MPD2    N1 1947   2.087   2.915   8.956  0.1711  0.4867 -0.6127
  127MPD2    H7 1948   2.040   2.851   8.892 -1.2933 -0.0734  1.0419
  128TCq2    C1 1949   2.112   2.875   9.088  0.4843 -1.0801 -0.2974
  128TCq2    O2 1950   2.163   2.938   9.179  0.7952  0.1668 -0.1801
  128TCq2    C2 1951   2.085   2.735   9.119  0.8359  0.6702 -0.4454
  128TCq2    C3 1952   2.152   2.671   9.218  0.2749 -0.0976  0.1512
  128TCq2    C4 1953   2.119   2.539   9.248 -0.2752  0.9064 -0.3145
  128TCq2    C5 1954   2.009   2.477   9.189  0.5205 -0.2481  0.5821
  128TCq2    C6 1955   1.939   2.545   9.097  1.0140  0.1531  0.2687
  128TCq2    C7 1956   1.977   2.670   9.054  0.8556  0.1231  0.0484
  128TCq2    C8 1957   1.830   2.479   9.026  0.9864 -0.6066  0.3706
  128TCq2    O4 1958   1.796   2.540   8.926  0.2522  0.1490 -0.1137
  128TCq2    C9 1959   2.201   2.463   9.336 -0.5196 -0.3162 -0.7264
  128TCq2    O5 1960   2.182   2.339   9.337 -0.1309  0.2717 -0.0071
  128TCq2    O6 1961   2.284   2.519   9.411 -0.4983 -0.1195  0.3028
  128TCq2    H2 1962   2.238   2.717   9.266 -0.8211  0.8322  1.2175
  128TCq2    H3 1963   2.002   2.370   9.209  1.0653 -0.6752 -1.5100
  128TCq2    H4 1964   1.916   2.724   8.983  0.8700  1.2389  0.8755
  129MPD2     C 1965   4.442   3.310   1.303 -0.3283  0.1209  0.2492
  129MPD2    C1 1966   4.577   3.336   1.292  0.4789  0.1381  0.0712
  129MPD2    C2 1967   4.620   3.426   1.193  0.3545  0.7748  0.2418
  129MPD2    C3 1968   4.529   3.481   1.101 -0.6485  0.0603 -0.0605
  129MPD2    C4 1969   4.391   3.451   1.111  0.4083  0.3058  0.5969
  129MPD2    C5 1970   4.355   3.372   1.217 -0.0986 -0.3795 -0.3528
  129MPD2     H 1971   0.002   3.452   1.171 -0.2916  1.8442 -1.5507
  129MPD2    H1 1972   4.322   3.495   1.040 -2.0474 -0.7894  2.3008
  129MPD2    H2 1973   4.400   3.252   1.384  0.7867 -1.5998 -0.4131
  129MPD2    H3 1974   4.252   3.359   1.248 -0.3855 -0.9115 -1.5055
  129MPD2     N 1975   4.580   3.561   0.994 -0.0798 -1.0394  0.2397
  129MPD2    H5 1976   4.678   3.580   1.012  0.3917 -0.4427 -2.9547
  129MPD2    N1 1977   4.682   3.253   1.360 -0.2158  0.1076 -0.3147
  129MPD2    H7 1978   4.658   3.176   1.422  0.4177 -1.3493 -1.8691
  130TCq2    C1 1979   0.094   3.251   1.335 -0.1541 -0.1345 -1.3493
  130TCq2    O2 1980   0.159   3.337   1.279 -0.1261 -0.4287 -0.2833
  130TCq2    C2 1981   0.171   3.148   1.403 -0.2547  0.7163  0.3507
  130TCq2    C3 1982   0.310   3.144   1.392 -0.1333  0.1529  0.0305
  130TCq2    C4 1983   0.373   3.040   1.461 -0.3793  0.0499  0.2770
  130TCq2    C5 1984   0.307   2.944   1.531 -0.6432 -0.0537  0.0977
  130TCq2    C6 1985   0.172   2.951   1.526 -0.1869  0.1075  0.3454
  130TCq2    C7 1986   0.102   3.045   1.461  0.5087  0.2860 -0.5741
  130TCq2    C8 1987   0.091   2.847   1.592 -0.4711 -0.5576 -0.2010
  130TCq2    O4 1988   4.688   2.846   1.564  0.2978 -0.6562  0.2762
  130TCq2    C9 1989   0.516   3.031   1.453  1.2210 -0.8494 -0.0756
  130TCq2    O5 1990   0.578   3.128   1.403  0.3439 -0.2479  0.3364
  130TCq2    O6 1991   0.573   2.936   1.515  0.1073  0.0709  0.4152
  130TCq2    H2 1992   0.366   3.215   1.332 -0.8589 -1.4615 -2.5563
  130TCq2    H3 1993   0.363   2.868   1.584 -3.4438 -2.5887 -0.5669
  130TCq2    H4 1994   4.716   3.044   1.474  0.3351 -2.0628 -2.1874
  131MPD2     C 1995   4.090   1.830   9.112  0.1390 -0.0189  0.5124
  131MPD2    C1 1996   4.185   1.891   9.193  0.0143  0.5647  0.3454
  131MPD2    C2 1997   4.203   1.844   9.321 -0.0749 -0.9334  0.1088
  131MPD2    C3 1998   4.119   1.750   9.377  0.2030 -0.1414  0.6916
  131MPD2    C4 1999   4.027   1.689   9.298  0.4823 -0.4029  0.7183
  131MPD2    C5 2000   4.018   1.726   9.162  0.8035 -0.3775  0.3895
  131MPD2     H 2001   4.269   1.889   9.393 -2.5758  0.6426  1.4078
  131MPD2    H1 2002   3.969   1.601   9.323 -1.4855  0.2593 -1.4850
  131MPD2    H2 2003   4.067   1.851   9.008  0.1697 -0.3113  0.4469
  131MPD2    H3 2004   3.939   1.688   9.099 -0.2797  1.1327  0.8427
  131MPD2     N 2005   4.141   1.714   9.514 -0.5213  0.1717  0.3216
  131MPD2    H5 2006   4.227   1.744   9.559 -1.7337 -0.0452  2.7711
  131MPD2    N1 2007   4.266   1.989   9.134 -0.2066 -0.1321  0.4916
  131MPD2    H7 2008   4.259   2.001   9.034 -0.5620  1.0865  0.6623
  132TCq2    C1 2009   4.657   2.438   9.199 -0.1137 -0.8705  0.6803
  132TCq2    O2 2010   4.619   2.445   9.317  0.7826 -0.4959  0.6352
  132TCq2    C2 2011   4.585   2.334   9.124  0.2325 -0.1366 -0.5434
  132TCq2    C3 2012   4.593   2.335   8.984  0.2511 -0.0825  1.1640
  132TCq2    C4 2013   4.512   2.245   8.915 -0.0334 -0.2094  0.0637
  132TCq2    C5 2014   4.433   2.156   8.983 -0.2557 -0.4947 -0.0095
  132TCq2    C6 2015   4.423   2.172   9.121 -0.4325  0.1842 -0.6739
  132TCq2    C7 2016   4.495   2.261   9.193 -0.1901 -0.3224  0.5801
  132TCq2    C8 2017   4.339   2.081   9.208  0.2540  0.7748  0.3402
  132TCq2    O4 2018   4.339   2.094   9.328  0.1014 -0.0584 -0.2623
  132TCq2    C9 2019   4.541   2.235   8.775  0.3025  0.7425  0.1077
  132TCq2    O5 2020   4.497   2.132   8.718  0.6353 -0.0077  0.1962
  132TCq2    O6 2021   4.614   2.325   8.727  0.5971 -0.4051 -0.1786
  132TCq2    H2 2022   4.677   2.386   8.937  0.2776 -0.2742  1.0057
  132TCq2    H3 2023   4.378   2.082   8.926  1.8616 -3.0740  1.2390
  132TCq2    H4 2024   4.479   2.266   9.300 -0.3099 -0.5289  0.5713
  133MPD2     C 2025   3.174   3.777   8.813  0.2538 -0.3301  0.5634
  133MPD2    C1 2026   3.281   3.691   8.812  0.5697 -0.1873  0.5147
  133MPD2    C2 2027   3.273   3.571   8.745 -0.1386  0.2172  0.0706
  133MPD2    C3 2028   3.150   3.529   8.690  0.0896  0.1203  0.1199
  133MPD2    C4 2029   3.038   3.606   8.713  0.1134  0.4510 -0.6668
  133MPD2    C5 2030   3.053   3.728   8.769  0.4762 -0.7868 -0.6561
  133MPD2     H 2031   3.354   3.500   8.759  0.6209  1.3739  1.6197
  133MPD2    H1 2032   2.942   3.564   8.683 -0.4063  0.9005  0.3720
  133MPD2    H2 2033   3.180   3.876   8.856 -2.7659 -0.4533  1.3075
  133MPD2    H3 2034   2.965   3.789   8.786  1.7731  1.4611 -1.9382
  133MPD2     N 2035   3.131   3.393   8.642 -0.8037 -0.2205 -0.1862
  133MPD2    H5 2036   3.042   3.372   8.598 -1.3352  2.2942 -0.3221
  133MPD2    N1 2037   3.396   3.736   8.871  0.2866 -0.3682  0.1316
  133MPD2    H7 2038   3.396   3.816   8.933 -0.4818  1.3486 -2.0932
  134TCq2    C1 2039   3.521   3.674   8.862  0.0980  0.1095 -0.2976
  134TCq2    O2 2040   3.562   3.591   8.786 -0.3847  0.0245 -0.0199
  134TCq2    C2 2041   3.622   3.760   8.929 -0.9793  0.4323 -0.1373
  134TCq2    C3 2042   3.603   3.877   8.995 -1.0185  0.0536  0.6887
  134TCq2    C4 2043   3.711   3.935   9.054  0.8046 -0.0839  0.5496
  134TCq2    C5 2044   3.836   3.889   9.048 -0.2640  0.3550 -0.0516
  134TCq2    C6 2045   3.853   3.769   8.983 -0.3178 -0.5562 -0.1253
  134TCq2    C7 2046   3.751   3.703   8.925 -0.4284 -0.0913 -0.8889
  134TCq2    C8 2047   3.972   3.690   8.996 -0.0059  0.3210 -0.6212
  134TCq2    O4 2048   3.964   3.571   8.973 -0.3824 -0.6211 -0.1903
  134TCq2    C9 2049   3.695   4.057   9.136  0.2485 -0.0583  0.0699
  134TCq2    O5 2050   3.798   4.111   9.184 -0.4673  0.6434 -0.1485
  134TCq2    O6 2051   3.578   4.078   9.184  0.6213  0.1030 -0.1122
  134TCq2    H2 2052   3.509   3.929   9.006 -1.4534 -0.7094  0.5800
  134TCq2    H3 2053   3.919   3.939   9.096  0.5011  2.0793 -3.1537
  134TCq2    H4 2054   3.772   3.605   8.884 -0.4885  0.2104 -1.6480
  135MPD2     C 2055   1.106   0.336   9.013  0.6900 -0.0811  0.6275
  135MPD2    C1 2056   1.157   0.218   9.067 -0.4661 -0.0283 -0.7695
  135MPD2    C2 2057   1.285   0.172   9.045 -0.1223 -0.3314 -0.2686
  135MPD2    C3 2058   1.371   0.247   8.964 -0.5270 -0.6091 -0.7715
  135MPD2    C4 2059   1.318   0.368   8.918  0.9310 -0.2159  0.3992
  135MPD2    C5 2060   1.191   0.412   8.941  0.9376 -0.0332  0.3609
  135MPD2     H 2061   1.313   0.072   9.074 -0.1906 -0.5084 -0.8083
  135MPD2    H1 2062   1.373   0.440   8.857 -0.2747  2.2634  2.2202
  135MPD2    H2 2063   1.007   0.375   9.030  1.5817  1.3749  2.4861
  135MPD2    H3 2064   1.170   0.509   8.897  2.1902 -0.0972 -0.3787
  135MPD2     N 2065   1.502   0.220   8.934  0.4337  0.0555 -0.2418
  135MPD2    H5 2066   1.558   0.281   8.875  0.3324  2.0743  1.7757
  135MPD2    N1 2067   1.073   0.124   9.141 -0.1254  0.2122 -0.4712
  135MPD2    H7 2068   1.120   0.038   9.167 -1.1865  0.0271  0.8484
  136TCq2    C1 2069   0.941   0.136   9.163 -0.4076 -0.2114 -0.2645
  136TCq2    O2 2070   0.860   0.221   9.132  0.4128 -0.0759 -0.3545
  136TCq2    C2 2071   0.898   0.019   9.237 -0.5835  0.1146  0.0596
  136TCq2    C3 2072   0.776   4.694   9.204 -0.0175 -0.4858  0.4227
  136TCq2    C4 2073   0.741   4.569   9.244  0.0035 -0.3820  0.5008
  136TCq2    C5 2074   0.828   4.492   9.313  0.2116  0.6007 -0.6798
  136TCq2    C6 2075   0.945   4.544   9.352  0.0067  0.2299  0.0210
  136TCq2    C7 2076   0.983   4.672   9.313  0.4538  0.0540  0.0738
  136TCq2    C8 2077   1.038   4.465   9.433 -0.0931  0.0436 -0.1861
  136TCq2    O4 2078   1.143   4.515   9.469 -0.6766  0.1606  0.2595
  136TCq2    C9 2079   0.626   4.515   9.180 -0.0142  0.6420 -0.8146
  136TCq2    O5 2080   0.620   4.390   9.169 -0.0939  0.1311  0.1228
  136TCq2    O6 2081   0.534   4.598   9.155  0.1481 -0.0956  0.1341
  136TCq2    H2 2082   0.721   0.026   9.127 -0.2455  0.3960  1.1924
  136TCq2    H3 2083   0.797   4.390   9.332 -1.8213  1.4527  0.6370
  136TCq2    H4 2084   1.077   4.708   9.354  0.0271  1.6384 -0.3227
  137MPD2     C 2085   1.110   2.317   8.740  0.4336  0.5219 -0.5519
  137MPD2    C1 2086   1.227   2.381   8.732  0.4787  0.2293 -0.3257
  137MPD2    C2 2087   1.278   2.431   8.850 -0.2173 -0.2334  0.4600
  137MPD2    C3 2088   1.220   2.410   8.980 -0.8801 -0.9738 -0.2172
  137MPD2    C4 2089   1.113   2.328   8.982  0.5490  0.2127 -0.1204
  137MPD2    C5 2090   1.052   2.291   8.867 -0.4777 -0.0616  0.1034
  137MPD2     H 2091   1.372   2.484   8.848 -1.6034  2.1815 -0.9526
  137MPD2    H1 2092   1.052   2.306   9.069 -2.1145 -1.4714 -2.4052
  137MPD2    H2 2093   1.058   2.277   8.654  3.0337 -0.0154 -1.8594
  137MPD2    H3 2094   0.953   2.247   8.865 -0.5820  0.1477  0.7832
  137MPD2     N 2095   1.272   2.473   9.101  0.3593 -0.2919 -0.0902
  137MPD2    H5 2096   1.352   2.533   9.084  2.2506 -1.4370  4.7637
  137MPD2    N1 2097   1.279   2.398   8.601  0.3318 -0.4603  0.4071
  137MPD2    H7 2098   1.219   2.396   8.520 -0.9198  0.9357  1.2968
  138TCq2    C1 2099   1.407   2.442   8.581  0.2912 -0.1372 -0.4102
  138TCq2    O2 2100   1.506   2.445   8.658  0.0620  0.0300 -0.0013
  138TCq2    C2 2101   1.429   2.506   8.459 -0.1605 -0.3035 -0.2970
  138TCq2    C3 2102   1.551   2.490   8.399  0.1076 -1.0375 -0.8557
  138TCq2    C4 2103   1.575   2.562   8.289  0.2722 -0.6775  0.1992
  138TCq2    C5 2104   1.494   2.662   8.247 -0.2484  0.0101 -0.6286
  138TCq2    C6 2105   1.376   2.682   8.307  0.4245  0.2823  0.1776
  138TCq2    C7 2106   1.334   2.602   8.416  0.2981 -0.6385 -0.5491
  138TCq2    C8 2107   1.318   2.810   8.283 -0.4477  0.3230 -1.1145
  138TCq2    O4 2108   1.383   2.886   8.215 -0.4919  0.1212 -0.4987
  138TCq2    C9 2109   1.694   2.536   8.209 -0.4725 -0.2535  0.1199
  138TCq2    O5 2110   1.709   2.604   8.100  0.2659  0.9166 -0.1315
  138TCq2    O6 2111   1.773   2.448   8.256 -0.0440 -0.3270 -0.5935
  138TCq2    H2 2112   1.629   2.422   8.430  0.2668 -0.6082 -0.3181
  138TCq2    H3 2113   1.520   2.712   8.154  2.5349 -0.6266 -0.1781
  138TCq2    H4 2114   1.268   2.649   8.488 -0.2003 -0.6644 -0.9914
  139TMC2    C1 2115   1.452   1.956  12.802  0.2992 -0.2817 -0.1479
  139TMC2    C2 2116   1.486   2.022  12.687 -0.2806  0.0363 -0.2393
  139TMC2    C3 2117   1.444   2.146  12.663 -0.2282  0.2864 -0.4118
  139TMC2    C4 2118   1.367   2.021  12.897  0.1206 -0.0462  0.0300
  139TMC2    C5 2119   1.326   2.151  12.870  0.3406  0.3365 -0.0860
  139TMC2    C6 2120   1.360   2.209  12.753 -0.0495 -0.3991  0.1210
  139TMC2     C 2121   1.520   1.829  12.819 -0.0134  0.2183  0.1763
  139TMC2     O 2122   1.585   1.790  12.725 -0.1526 -0.1601 -0.2245
  139TMC2     H 2123   1.523   1.967  12.601 -2.4881  0.4363 -1.4606
  139TMC2    H1 2124   1.322   1.975  12.985 -0.9719  2.2085  0.6412
  139TMC2    H2 2125   1.313   2.301  12.721  2.8825  2.1967  3.3423
  139TMC2    C7 2126   1.197   2.198  12.925  0.4164 -0.1271 -0.2086
  139TMC2    C8 2127   1.445   2.186  12.526  0.2639 -0.3940 -0.7367
  139TMC2    O1 2128   1.192   2.319  12.926 -0.2283 -0.1554  0.4863
  139TMC2    O2 2129   1.349   2.155  12.450 -0.4581 -0.2132  0.1716
  139TMC2    O5 2130   1.572   2.185  12.494 -0.0770 -0.2342 -0.3322
  139TMC2    H5 2131   1.626   2.203  12.573  0.9380  3.3114 -1.8309
  140MPD2     C 2132   1.544   1.619  13.132 -1.2472 -0.6167  0.0408
  140MPD2    C1 2133   1.574   1.667  13.004 -1.0394  0.7246  0.8433
  140MPD2    C2 2134   1.672   1.603  12.930 -0.1535 -0.0108 -0.3196
  140MPD2    C3 2135   1.737   1.499  12.983  0.5820  0.4080  0.8106
  140MPD2    C4 2136   1.713   1.459  13.107 -0.1917  1.2252 -0.2684
  140MPD2    C5 2137   1.611   1.517  13.187 -1.0096 -0.5269  0.0308
  140MPD2     H 2138   1.693   1.629  12.827 -0.1293  0.5761 -0.1698
  140MPD2    H1 2139   1.773   1.382  13.156 -1.4457  0.1542 -0.4188
  140MPD2    H2 2140   1.459   1.660  13.186 -1.7436 -0.5935 -0.7706
  140MPD2    H3 2141   1.582   1.475  13.282  2.6424  0.0632  1.4171
  140MPD2     N 2142   1.830   1.431  12.901 -0.5133 -0.4973  0.1576
  140MPD2    H5 2143   1.827   1.461  12.804  0.5718  3.7631  1.4369
  140MPD2    N1 2144   1.507   1.781  12.949 -0.2225  0.6525  0.1552
  140MPD2    H7 2145   1.446   1.839  13.007  1.3577  0.5732  1.8811
  141TCq2    C1 2146   1.778   3.021  13.776  0.3135 -0.7436 -0.0121
  141TCq2    O2 2147   1.862   3.104  13.739 -0.0875  0.3571 -0.1729
  141TCq2    C2 2148   1.762   3.000  13.915 -0.6045  0.3739  0.3595
  141TCq2    C3 2149   1.694   2.887  13.964  0.1011  0.2281 -0.5961
  141TCq2    C4 2150   1.691   2.868  14.097  0.6567 -0.1451  0.0130
  141TCq2    C5 2151   1.738   2.962  14.187 -0.3594 -0.3218 -0.6823
  141TCq2    C6 2152   1.791   3.079  14.133 -0.8854 -1.2141 -0.4603
  141TCq2    C7 2153   1.808   3.098  14.001 -0.0860  0.2327 -0.4274
  141TCq2    C8 2154   1.835   3.174  14.233  0.3416 -0.6473  0.4698
  141TCq2    O4 2155   1.843   3.137  14.350  0.0709  0.2369 -0.0433
  141TCq2    C9 2156   1.651   2.733  14.138  0.8543 -0.3202 -0.1018
  141TCq2    O5 2157   1.667   2.633  14.064 -0.1354 -0.2003  0.3981
  141TCq2    O6 2158   1.633   2.728  14.262 -0.1561  0.2921 -0.0398
  141TCq2    H2 2159   1.674   2.798  13.905 -2.0645 -1.9018  3.3195
  141TCq2    H3 2160   1.735   2.945  14.294 -2.0472 -1.4884 -0.9155
  141TCq2    H4 2161   1.861   3.177  13.950 -1.2519 -0.7268 -3.1322
  142MPD2     C 2162   4.206   1.252   9.833 -0.3926  0.2413  0.6918
  142MPD2    C1 2163   4.109   1.232   9.735  0.2873  0.0655  0.2677
  142MPD2    C2 2164   4.132   1.280   9.604  0.1609  0.5883 -0.3384
  142MPD2    C3 2165   4.253   1.343   9.575 -0.2698 -0.0073  0.1315
  142MPD2    C4 2166   4.345   1.370   9.676 -0.2014 -0.3479  0.0428
  142MPD2    C5 2167   4.321   1.319   9.799 -0.7028 -0.0212  0.0629
  142MPD2     H 2168   4.056   1.263   9.529 -0.0055  0.9220 -0.2438
  142MPD2    H1 2169   4.442   1.410   9.651 -0.4220 -0.5916 -1.2126
  142MPD2    H2 2170   4.191   1.216   9.934  0.4450  2.5244  1.6037
  142MPD2    H3 2171   4.396   1.324   9.877  1.7891 -1.0940 -2.2596
  142MPD2     N 2172   4.281   1.393   9.443 -0.2283  0.2303 -0.0540
  142MPD2    H5 2173   4.374   1.428   9.423 -0.7520  2.0771  0.7937
  142MPD2    N1 2174   3.993   1.164   9.771 -0.5102  0.0993 -0.0528
  142MPD2    H7 2175   3.989   1.113   9.859  0.9523 -0.4553 -0.3135
  143TCq2    C1 2176   4.208   1.374   9.331 -0.0717  0.5530 -0.1061
  143TCq2    O2 2177   4.100   1.320   9.315  0.1799 -0.4940 -0.1552
  143TCq2    C2 2178   4.251   1.446   9.208 -0.3472  0.4322 -0.2535
  143TCq2    C3 2179   4.184   1.424   9.087 -0.8042 -0.1004 -0.5245
  143TCq2    C4 2180   4.215   1.506   8.981  0.3705  0.5530  0.1438
  143TCq2    C5 2181   4.311   1.602   8.989 -0.1259 -0.2884 -0.3696
  143TCq2    C6 2182   4.370   1.626   9.108 -0.2644  0.5789  0.1708
  143TCq2    C7 2183   4.344   1.545   9.220 -0.3865  0.3435 -0.3017
  143TCq2    C8 2184   4.484   1.717   9.127  0.8919  0.3384 -0.2480
  143TCq2    O4 2185   4.511   1.740   9.242 -0.5135 -0.2383  0.0747
  143TCq2    C9 2186   4.134   1.504   8.859 -0.5948 -0.1330  0.3639
  143TCq2    O5 2187   4.157   1.585   8.763  0.9652  0.0197 -0.6323
  143TCq2    O6 2188   4.044   1.419   8.854  0.7444  0.3282  0.1890
  143TCq2    H2 2189   4.104   1.352   9.072 -0.7915  0.1887 -1.8867
  143TCq2    H3 2190   4.324   1.657   8.897  3.0522 -1.4709 -0.6450
  143TCq2    H4 2191   4.391   1.573   9.314 -2.2293  0.8332  0.4709
  144MPD2     C 2192   2.272   0.556   0.339 -0.2199  0.6499  0.1468
  144MPD2    C1 2193   2.307   0.489   0.221 -0.6494 -0.1976  0.5295
  144MPD2    C2 2194   2.438   0.429   0.212 -0.2054  0.2179  0.1447
  144MPD2    C3 2195   2.535   0.449   0.311 -0.0655  0.0413  0.0865
  144MPD2    C4 2196   2.491   0.517   0.423  0.3771  0.2152 -0.7370
  144MPD2    C5 2197   2.364   0.569   0.437 -0.0676  1.1293 -0.1111
  144MPD2     H 2198   2.465   0.377   0.120 -2.0737  2.3315 -1.5891
  144MPD2    H1 2199   2.556   0.528   0.509 -3.1445  1.3519  1.7855
  144MPD2    H2 2200   2.178   0.607   0.356 -1.1037 -0.5965 -1.0372
  144MPD2    H3 2201   2.336   0.633   0.520 -1.2849 -0.7361  0.9079
  144MPD2     N 2202   2.667   0.394   0.304 -0.2458  0.1661  0.5298
  144MPD2    H5 2203   2.723   0.419   0.385 -1.5093 -0.1160  1.5056
  144MPD2    N1 2204   2.230   0.477   0.100  0.2413  0.1322 -0.5096
  144MPD2    H7 2205   2.264   0.411   0.030  1.1421 -2.0516  2.0243
  145TCq2    C1 2206   2.725   0.340   0.193 -0.1055  0.1969 -0.1500
  145TCq2    O2 2207   2.680   0.343   0.083  0.3119  0.4685 -0.1616
  145TCq2    C2 2208   2.860   0.287   0.219  0.9769  0.6750  0.5532
  145TCq2    C3 2209   2.900   0.197   0.124 -0.6538  0.4338 -0.0795
  145TCq2    C4 2210   3.029   0.158   0.152 -0.2609 -0.1452 -0.1885
  145TCq2    C5 2211   3.098   0.188   0.267 -0.8111  0.5164 -0.1211
  145TCq2    C6 2212   3.042   0.272   0.359  0.4294  0.2113 -0.7231
  145TCq2    C7 2213   2.926   0.330   0.332  0.6290 -0.4597 -0.1885
  145TCq2    C8 2214   3.112   0.300   0.483  0.0182  0.1793  0.3349
  145TCq2    O4 2215   3.219   0.242   0.492 -0.1601  0.3517  0.2966
  145TCq2    C9 2216   3.097   0.077   0.049 -0.1513 -0.3198  0.2632
  145TCq2    O5 2217   3.216   0.050   0.076 -0.6045  0.3715 -0.5943
  145TCq2    O6 2218   3.029   0.021  17.647  0.3558 -0.7864  0.1324
  145TCq2    H2 2219   2.840   0.171   0.038 -2.1379 -0.3241  1.1945
  145TCq2    H3 2220   3.196   0.148   0.288 -0.6524  0.9064 -0.1227
  145TCq2    H4 2221   2.897   0.416   0.392 -0.4367  0.9571 -2.7241
  146TMC2    C1 2222   3.830   4.584  12.409 -0.1784 -0.2258 -1.0577
  146TMC2    C2 2223   3.782   4.659  12.308 -0.0778 -0.3367  0.7140
  146TMC2    C3 2224   3.701   4.597  12.219  0.1829  0.0929 -0.1978
  146TMC2    C4 2225   3.794   4.454  12.427 -0.6632 -0.4807 -0.6097
  146TMC2    C5 2226   3.711   4.394  12.333  0.0671 -0.3703 -0.3602
  146TMC2    C6 2227   3.672   4.462  12.230  0.1146  0.3004  0.1407
  146TMC2     C 2228   3.896   4.654  12.521 -0.4661  0.7035  0.1666
  146TMC2     O 2229   3.940   0.044  12.497  0.3002  0.8860  0.1300
  146TMC2     H 2230   3.815   0.041  12.306  1.6735 -0.8720  2.1799
  146TMC2    H1 2231   3.843   4.389  12.498  0.4033  2.1678  1.0999
  146TMC2    H2 2232   3.610   4.415  12.155  2.9485 -0.8893 -1.4385
  146TMC2    C7 2233   3.674   4.251  12.340  0.4299  0.0991 -0.0401
  146TMC2    C8 2234   3.659   4.674  12.104  0.4756  0.7045 -0.4778
  146TMC2    O1 2235   3.647   4.201  12.234 -0.3781 -0.1171  0.4013
  146TMC2    O2 2236   3.544   4.673  12.066  0.0287 -0.3237  0.1900
  146TMC2    O5 2237   3.743   0.049  12.068 -0.3590  0.5129 -0.2225
  146TMC2    H5 2238   3.832   0.048  12.109 -0.4302  0.1234 -0.0803
  147MPD2     C 2239   3.703   3.776  12.534  0.1379 -0.1800 -0.3571
  147MPD2    C1 2240   3.780   3.867  12.606 -0.0400 -0.7951 -0.0768
  147MPD2    C2 2241   3.767   4.002  12.582 -0.3409  0.6733 -0.0266
  147MPD2    C3 2242   3.685   4.054  12.482 -0.0072  0.2820 -0.3062
  147MPD2    C4 2243   3.619   3.970  12.399 -0.3792  0.6053  0.3215
  147MPD2    C5 2244   3.625   3.839  12.435  0.5092  0.3396 -0.0929
  147MPD2     H 2245   3.821   4.079  12.636 -0.6934  0.3354  0.7899
  147MPD2    H1 2246   3.555   4.002  12.317 -0.1094  0.2052 -0.0459
  147MPD2    H2 2247   3.719   3.671  12.554  1.5079  0.4031  1.5818
  147MPD2    H3 2248   3.563   3.766  12.384  0.2740  0.7193 -0.3441
  147MPD2     N 2249   3.695   4.189  12.459  0.6276 -0.3537 -0.2214
  147MPD2    H5 2250   3.733   4.248  12.533 -0.5662  0.1465  0.0022
  147MPD2    N1 2251   3.866   3.811  12.702 -0.1331  0.1495  0.2213
  147MPD2    H7 2252   3.870   3.710  12.708 -0.6927  0.0658 -0.7328
  148MPD2     C 2253   3.637   2.558  10.439  0.7963 -0.0766  1.4141
  148MPD2    C1 2254   3.719   2.564  10.332  0.2181 -0.4774  0.1016
  148MPD2    C2 2255   3.677   2.512  10.211  0.7484 -0.1122 -0.1845
  148MPD2    C3 2256   3.558   2.433  10.198 -0.1162 -0.3652 -0.3408
  148MPD2    C4 2257   3.480   2.418  10.314  0.4921 -0.2850 -0.0982
  148MPD2    C5 2258   3.524   2.472  10.432  0.1450 -0.1169 -0.3493
  148MPD2     H 2259   3.751   2.509  10.133  1.6113  0.1986  0.6161
  148MPD2    H1 2260   3.393   2.353  10.321 -1.3326  2.1293 -0.2278
  148MPD2    H2 2261   3.659   2.594  10.538 -1.8158 -2.4996  2.8981
  148MPD2    H3 2262   3.457   2.472  10.517 -0.2162  1.1209 -0.6366
  148MPD2     N 2263   3.530   2.362  10.085  0.2829 -0.2484  0.1009
  148MPD2    H5 2264   3.462   2.287  10.095  0.9520 -0.8389  0.1722
  148MPD2    N1 2265   3.848   2.628  10.347 -1.4089  0.4526  0.2545
  148MPD2    H7 2266   3.910   2.614  10.268 -0.6554  0.5547  0.8326
  149TCq2    C1 2267   3.896   2.695  10.458  0.0697  0.4691  0.3139
  149TCq2    O2 2268   3.839   2.758  10.548 -0.1755  0.6719 -0.1546
  149TCq2    C2 2269   4.042   2.728  10.437 -0.8318  0.4696  0.3056
  149TCq2    C3 2270   4.068   2.861  10.428  0.2189 -0.0425 -0.5257
  149TCq2    C4 2271   4.167   2.903  10.340 -0.3848  0.0497 -0.0462
  149TCq2    C5 2272   4.228   2.814  10.257 -0.1027 -0.5982 -0.1540
  149TCq2    C6 2273   4.206   2.686  10.272  0.7778  0.1879  1.0280
  149TCq2    C7 2274   4.115   2.643  10.368  0.4533  0.4526  0.3980
  149TCq2    C8 2275   4.200   2.602  10.155 -0.1777  0.3669  0.2234
  149TCq2    O4 2276   4.095   2.536  10.144  0.8697  0.7237 -0.7079
  149TCq2    C9 2277   4.171   3.042  10.310 -0.3966 -0.2703 -0.1836
  149TCq2    O5 2278   4.268   3.088  10.251  0.3503 -0.4997  0.3290
  149TCq2    O6 2279   4.067   3.110  10.331  0.1139 -0.3924 -0.5518
  149TCq2    H2 2280   3.996   2.926  10.475  0.8141  2.6690 -3.3614
  149TCq2    H3 2281   4.294   2.850  10.179 -0.6136 -0.4627 -0.5189
  149TCq2    H4 2282   4.087   2.538  10.370 -0.8559  0.7367 -2.6768
  150MPD2     C 2283   0.523   2.642  11.786  0.1610  0.4891  0.0510
  150MPD2    C1 2284   0.590   2.610  11.669  0.6819 -0.2263 -0.1639
  150MPD2    C2 2285   0.729   2.605  11.676 -0.6347 -0.4745  0.2414
  150MPD2    C3 2286   0.801   2.631  11.787 -0.5619 -0.3041  0.0509
  150MPD2    C4 2287   0.734   2.669  11.902  0.2310  0.3917  0.0550
  150MPD2    C5 2288   0.592   2.672  11.894  0.9126 -0.2421  0.2417
  150MPD2     H 2289   0.772   2.557  11.589  0.0211 -0.3098  0.4790
  150MPD2    H1 2290   0.781   2.672  12.000  1.6353  1.4184 -0.6465
  150MPD2    H2 2291   0.415   2.646  11.789  0.1578  0.0893  0.3597
  150MPD2    H3 2292   0.543   2.700  11.987  1.3293 -0.2320  0.4617
  150MPD2     N 2293   0.943   2.614  11.784  0.1691 -0.2319  0.3710
  150MPD2    H5 2294   0.980   2.584  11.694  0.3310  0.4153  0.2226
  150MPD2    N1 2295   0.522   2.566  11.553  0.3908  0.0622 -0.4338
  150MPD2    H7 2296   0.422   2.555  11.565  0.2171 -0.6552 -2.4770
  151TCq2    C1 2297   1.028   2.642  11.884  0.2526 -0.9666 -0.1794
  151TCq2    O2 2298   1.013   2.681  11.999  0.4746 -0.0847 -0.7155
  151TCq2    C2 2299   1.170   2.609  11.846  0.8624  0.2634 -0.2928
  151TCq2    C3 2300   1.204   2.596  11.714  0.0231  0.4695 -0.0146
  151TCq2    C4 2301   1.335   2.592  11.682  0.2109  0.4212 -0.1325
  151TCq2    C5 2302   1.430   2.592  11.781 -0.0910  0.3589 -0.2633
  151TCq2    C6 2303   1.392   2.598  11.917 -0.1347  0.2157  0.0195
  151TCq2    C7 2304   1.261   2.615  11.950  0.8118 -0.7131  0.3737
  151TCq2    C8 2305   1.494   2.564  12.023  0.2916 -0.1159  0.0109
  151TCq2    O4 2306   1.478   2.614  12.136  0.1201  0.1456  0.6434
  151TCq2    C9 2307   1.370   2.577  11.545 -0.6405  0.0059 -0.1284
  151TCq2    O5 2308   1.491   2.548  11.515  0.0544 -0.3545 -0.0883
  151TCq2    O6 2309   1.274   2.547  11.473 -0.2013  0.2002  0.1371
  151TCq2    H2 2310   1.122   2.594  11.643 -0.9321 -0.6156  1.1329
  151TCq2    H3 2311   1.531   2.585  11.742 -0.4700 -1.4143 -0.9169
  151TCq2    H4 2312   1.238   2.617  12.055  1.7076 -0.8301  0.5751
  152MPD2     C 2313   0.575   2.537  12.230 -0.4996  0.1521 -0.1137
  152MPD2    C1 2314   0.628   2.441  12.140 -0.2686 -0.7173  0.0789
  152MPD2    C2 2315   0.541   2.365  12.058  0.0871 -0.0714 -0.2704
  152MPD2    C3 2316   0.405   2.388  12.059  1.1366 -0.6657  0.3661
  152MPD2    C4 2317   0.359   2.492  12.139  0.2681 -0.0928  0.8489
  152MPD2    C5 2318   0.441   2.561  12.227  0.1916  0.0818  0.3665
  152MPD2     H 2319   0.579   2.291  11.989 -0.5416 -0.1030 -0.5845
  152MPD2    H1 2320   0.254   2.518  12.140 -0.0855 -1.3094 -3.1476
  152MPD2    H2 2321   0.629   2.608  12.292 -0.7522  1.2240 -1.1266
  152MPD2    H3 2322   0.394   2.636  12.290 -1.6515 -0.5232 -0.2913
  152MPD2     N 2323   0.320   2.313  11.973 -0.2648 -0.3137  0.2286
  152MPD2    H5 2324   0.360   2.239  11.917 -0.3837 -1.7481  2.0515
  152MPD2    N1 2325   0.768   2.435  12.142  0.5419 -0.2870 -0.2979
  152MPD2    H7 2326   0.814   2.507  12.196 -2.2306  1.2170  0.0697
  153TCq2    C1 2327   0.836   2.339  12.075  0.3834 -0.0067  0.3183
  153TCq2    O2 2328   0.801   2.256  11.990  0.4222  0.2889 -0.0884
  153TCq2    C2 2329   0.980   2.338  12.103 -0.4462  0.0081 -0.0957
  153TCq2    C3 2330   1.056   2.294  12.001  0.6566 -0.2353  0.1603
  153TCq2    C4 2331   1.193   2.298  12.015  0.7271 -0.1465 -0.2208
  153TCq2    C5 2332   1.245   2.355  12.133 -0.8114 -0.1774 -0.2309
  153TCq2    C6 2333   1.163   2.392  12.236 -0.3493 -0.7326 -1.2784
  153TCq2    C7 2334   1.030   2.388  12.220 -0.1876  0.1180 -0.1503
  153TCq2    C8 2335   1.206   2.469  12.358 -0.3818  0.8170 -0.3556
  153TCq2    O4 2336   1.121   2.498  12.448 -0.2688 -0.5088 -0.4957
  153TCq2    C9 2337   1.275   2.235  11.913  0.1105 -0.0060  0.2848
  153TCq2    O5 2338   1.395   2.219  11.942  0.5241 -0.3315  0.0799
  153TCq2    O6 2339   1.231   2.207  11.799 -0.2216 -0.3947 -0.5548
  153TCq2    H2 2340   1.016   2.258  11.908  1.1362 -0.0547 -0.1155
  153TCq2    H3 2341   1.351   2.350  12.153 -1.0293 -2.0174  0.5256
  153TCq2    H4 2342   0.958   2.422  12.294  1.7655  1.0833  1.3091
  154MPD2     C 2343   3.330   2.049  17.156  0.2124  0.1562 -0.1358
  154MPD2    C1 2344   3.216   1.987  17.193 -0.2515  0.2511 -0.2879
  154MPD2    C2 2345   3.126   2.043  17.283 -1.0342 -0.6159  0.0562
  154MPD2    C3 2346   3.150   2.172  17.330  0.1096  0.1559  0.3457
  154MPD2    C4 2347   3.259   2.242  17.282  0.0795  0.0273 -0.6302
  154MPD2    C5 2348   3.351   2.178  17.206  0.1417 -0.3434  0.1679
  154MPD2     H 2349   3.054   1.976  17.328 -0.5948 -0.4792  0.9683
  154MPD2    H1 2350   3.277   2.342  17.318  2.1874  0.4242 -2.7537
  154MPD2    H2 2351   3.405   2.009  17.089 -0.5547 -1.5769  0.0305
  154MPD2    H3 2352   3.441   2.229  17.172  0.4189 -0.3329  0.9130
  154MPD2     N 2353   3.056   2.235  17.407  0.5215 -0.0304  0.1571
  154MPD2    H5 2354   2.995   2.169  17.454  1.9915 -1.9125 -0.5973
  154MPD2    N1 2355   3.213   1.851  17.148  0.2136  0.4975  0.2775
  154MPD2    H7 2356   3.281   1.821  17.078  0.1610  0.4314  0.2546
  155TCq2    C1 2357   3.110   1.772  17.174  0.2668  0.5871 -0.0613
  155TCq2    O2 2358   3.011   1.785  17.241  0.0008  0.2943  0.3652
  155TCq2    C2 2359   3.120   1.640  17.120 -0.1164 -0.3561 -0.2937
  155TCq2    C3 2360   3.241   1.573  17.115 -0.0986 -0.1124  0.4473
  155TCq2    C4 2361   3.245   1.444  17.069 -0.8061  0.1188 -0.2640
  155TCq2    C5 2362   3.130   1.382  17.028 -0.8410 -0.3076 -0.5789
  155TCq2    C6 2363   3.011   1.456  17.034  0.0145 -0.1757 -0.5949
  155TCq2    C7 2364   3.002   1.581  17.090  0.8219 -0.0859 -0.2080
  155TCq2    C8 2365   2.884   1.388  17.012  0.4081  0.1055  0.0974
  155TCq2    O4 2366   2.778   1.451  17.011  0.1363 -0.2653  0.4414
  155TCq2    C9 2367   3.370   1.373  17.066  0.3394 -0.2202  0.0077
  155TCq2    O5 2368   3.456   1.395  17.149  0.1964  0.5997  0.0871
  155TCq2    O6 2369   3.369   1.268  16.999  0.4680 -0.2425 -0.3639
  155TCq2    H2 2370   3.336   1.619  17.138 -0.0943 -0.6146  1.4223
  155TCq2    H3 2371   3.137   1.280  16.993 -0.7198 -0.2748 -0.6511
  155TCq2    H4 2372   2.907   1.633  17.094  1.2095  0.6319 -0.3745
  156MPD2     C 2373   0.828   4.322  11.423 -0.4455 -0.3139 -0.1066
  156MPD2    C1 2374   0.724   4.387  11.359 -0.0315  0.3305 -0.7013
  156MPD2    C2 2375   0.648   4.477  11.438  0.4265 -0.3187  0.0447
  156MPD2    C3 2376   0.681   4.506  11.570  0.2222 -0.8568 -0.2301
  156MPD2    C4 2377   0.779   4.434  11.628 -0.0801  0.4261  0.0030
  156MPD2    C5 2378   0.847   4.341  11.557  0.1136  0.1543  0.3425
  156MPD2     H 2379   0.573   4.541  11.393  1.4280  0.1193 -1.0188
  156MPD2    H1 2380   0.790   4.432  11.736  0.6235  0.4159 -0.0665
  156MPD2    H2 2381   0.890   4.251  11.368 -0.6364 -0.4975 -0.0856
  156MPD2    H3 2382   0.914   4.278  11.613 -2.6682 -0.5991  2.8639
  156MPD2     N 2383   0.595   4.602  11.630 -0.3568  0.2074 -0.4769
  156MPD2    H5 2384   0.526   4.650  11.573  2.3615  2.2971 -2.0057
  156MPD2    N1 2385   0.709   4.367  11.221 -0.0515 -0.1857 -0.4119
  156MPD2    H7 2386   0.781   4.315  11.172  1.8251  2.4966 -0.5290
  157TCq2    C1 2387   0.613   4.424  11.137 -0.3999  0.7016  0.0286
  157TCq2    O2 2388   0.525   4.504  11.170 -0.0073 -0.0208 -0.4689
  157TCq2    C2 2389   0.644   4.401  10.999  0.4620 -0.8451  0.1097
  157TCq2    C3 2390   0.764   4.334  10.976  0.4305  1.1467 -0.1421
  157TCq2    C4 2391   0.778   4.260  10.865 -0.3621  0.1812 -0.6521
  157TCq2    C5 2392   0.665   4.253  10.778  0.5273  0.2475 -0.1576
  157TCq2    C6 2393   0.545   4.308  10.810 -0.0343  0.4389 -1.0509
  157TCq2    C7 2394   0.535   4.392  10.919 -0.3261 -0.1649 -0.5912
  157TCq2    C8 2395   0.463   4.341  10.696  0.8411 -0.6428 -0.4433
  157TCq2    O4 2396   0.426   4.245  10.631  0.1569  0.1593 -0.7170
  157TCq2    C9 2397   0.907   4.206  10.836 -0.1249 -0.1139  0.2267
  157TCq2    O5 2398   0.984   4.190  10.936  0.1208 -0.5444 -0.1199
  157TCq2    O6 2399   0.944   4.198  10.718  0.2340 -0.2597  0.4769
  157TCq2    H2 2400   0.850   4.345  11.042 -0.4907 -1.5181  1.5111
  157TCq2    H3 2401   0.667   4.213  10.677  1.1125 -0.1178  0.0010
  157TCq2    H4 2402   0.439   4.437  10.944  0.1756 -0.7009  2.2163
  158TMC2    C1 2403   1.426   3.354  13.416 -0.0549 -0.0884  0.6100
  158TMC2    C2 2404   1.527   3.425  13.356 -0.0357 -0.7227  0.2346
  158TMC2    C3 2405   1.502   3.479  13.235 -0.4287 -0.0071 -0.5931
  158TMC2    C4 2406   1.298   3.353  13.367 -0.2100 -0.0479 -0.3652
  158TMC2    C5 2407   1.277   3.394  13.240 -0.5674 -0.3653 -0.7027
  158TMC2    C6 2408   1.376   3.469  13.177 -0.8545  0.1690 -0.0424
  158TMC2     C 2409   1.452   3.322  13.554 -0.4766 -0.1209 -0.1683
  158TMC2     O 2410   1.556   3.355  13.605 -0.0582 -0.2446  0.3332
  158TMC2     H 2411   1.614   3.445  13.417  0.1733  3.4309 -1.4885
  158TMC2    H1 2412   1.221   3.293  13.415  0.3674 -0.7829 -0.3517
  158TMC2    H2 2413   1.355   3.515  13.081  2.0459 -1.2210 -1.3561
  158TMC2    C7 2414   1.151   3.378  13.169  1.2709 -0.8264  0.5529
  158TMC2    C8 2415   1.599   3.570  13.186 -0.1968 -0.3300  0.9923
  158TMC2    O1 2416   1.126   3.455  13.080 -0.1905 -0.3855  0.3537
  158TMC2    O2 2417   1.714   3.539  13.188  0.5202 -0.0516 -0.1066
  158TMC2    O5 2418   1.544   3.695  13.197  0.4812  0.4140 -0.5934
  158TMC2    H5 2419   1.446   3.704  13.190  0.5078 -0.2325 -1.8787
  159MPD2     C 2420   1.364   3.018  13.962  0.0886 -0.2229 -0.1451
  159MPD2    C1 2421   1.261   3.006  13.871 -0.5424  0.2651  0.3069
  159MPD2    C2 2422   1.259   3.083  13.760  0.0815 -0.0954 -0.2650
  159MPD2    C3 2423   1.356   3.180  13.735  0.0326 -0.6617 -0.2880
  159MPD2    C4 2424   1.448   3.205  13.832  0.3056  0.4751  0.9157
  159MPD2    C5 2425   1.460   3.124  13.941 -0.1408 -0.7105 -0.5410
  159MPD2     H 2426   1.182   3.070  13.686 -3.6909  0.9004  3.4703
  159MPD2    H1 2427   1.514   3.290  13.822 -0.2293  1.1171  2.9008
  159MPD2    H2 2428   1.373   2.962  14.055  2.5248 -0.3569 -0.4664
  159MPD2    H3 2429   1.534   3.153  14.014  0.5520 -1.3299 -1.0012
  159MPD2     N 2430   1.360   3.236  13.603 -0.1402 -0.7399 -0.1805
  159MPD2    H5 2431   1.280   3.208  13.547 -0.1717  0.3241 -0.6740
  159MPD2    N1 2432   1.168   2.899  13.885 -0.1049  0.7885  0.2405
  159MPD2    H7 2433   1.185   2.839  13.965  1.4453 -0.6972 -1.1767
  160TMC2    C1 2434   1.031   0.786   1.149  0.3241 -0.1936  0.0261
  160TMC2    C2 2435   1.147   0.716   1.171  0.1874 -0.6971  0.0388
  160TMC2    C3 2436   1.252   0.746   1.095 -0.1532 -0.5782  0.3745
  160TMC2    C4 2437   1.015   0.871   1.044 -0.9899  0.7767 -0.3031
  160TMC2    C5 2438   1.123   0.896   0.968  0.6039  0.4315 -0.4888
  160TMC2    C6 2439   1.253   0.849   1.003  0.6432  0.2607  0.0151
  160TMC2     C 2440   0.921   0.767   1.242  0.0321 -0.3566 -0.1354
  160TMC2     O 2441   0.938   0.667   1.307  0.2141 -0.7968  0.2125
  160TMC2     H 2442   1.163   0.644   1.251  1.0345 -2.2980 -1.5628
  160TMC2    H1 2443   0.918   0.916   1.027 -1.5245 -1.0537 -2.1555
  160TMC2    H2 2444   1.336   0.852   0.933 -1.1395  0.2290 -2.0941
  160TMC2    C7 2445   1.113   1.015   0.878 -0.2072  0.1218 -0.0853
  160TMC2    C8 2446   1.373   0.674   1.141  0.2171  0.1953  0.3780
  160TMC2    O1 2447   0.996   1.038   0.850  0.2198 -0.3554 -0.8118
  160TMC2    O2 2448   1.384   0.582   1.222 -0.2221  0.0182 -0.2665
  160TMC2    O5 2449   1.468   0.769   1.138  0.1465  0.5246  0.2575
  160TMC2    H5 2450   1.441   0.837   1.073  0.2598 -0.2735 -0.6430
  161MPD2     C 2451   0.649   0.733   1.345 -0.0507 -0.2622  0.4167
  161MPD2    C1 2452   0.704   0.857   1.304  0.3270 -0.4580  0.0368
  161MPD2    C2 2453   0.635   0.979   1.325  0.5276  0.4789  0.3249
  161MPD2    C3 2454   0.504   0.972   1.376 -0.3362  0.4636  0.6883
  161MPD2    C4 2455   0.451   0.849   1.419  0.3476 -0.2785 -0.0097
  161MPD2    C5 2456   0.526   0.734   1.406 -0.4827  0.0042 -0.5693
  161MPD2     H 2457   0.686   1.069   1.293 -1.7232  1.3379 -0.8435
  161MPD2    H1 2458   0.351   0.838   1.460 -0.2893 -0.0813 -1.5210
  161MPD2    H2 2459   0.702   0.639   1.337  1.6186  0.8673 -1.8564
  161MPD2    H3 2460   0.490   0.634   1.432 -0.7910 -0.2137 -1.8604
  161MPD2     N 2461   0.420   1.080   1.397 -0.6105 -0.2279  1.0642
  161MPD2    H5 2462   0.335   1.050   1.443 -1.2461 -1.0556 -0.6757
  161MPD2    N1 2463   0.832   0.868   1.252 -0.0907 -0.1540  0.2906
  161MPD2    H7 2464   0.859   0.963   1.227  0.5458 -0.1427  0.9832
  162TMC2    C1 2465   3.685   2.997   1.058  0.7746  0.5114  0.0912
  162TMC2    C2 2466   3.577   2.915   1.046  0.2277  0.0418 -0.2402
  162TMC2    C3 2467   3.558   2.824   1.143  1.1255 -0.6316 -0.6478
  162TMC2    C4 2468   3.773   2.982   1.156  0.4750 -0.0525 -0.5755
  162TMC2    C5 2469   3.749   2.895   1.258  0.1043 -0.6154  0.0578
  162TMC2    C6 2470   3.635   2.815   1.255 -0.3796  0.9187 -0.0665
  162TMC2     C 2471   3.745   3.022   0.932 -0.3377 -0.2331 -0.9385
  162TMC2     O 2472   3.836   2.946   0.896  0.5037  0.5401  0.6850
  162TMC2     H 2473   3.516   2.922   0.957  2.1676 -1.3090 -1.6759
  162TMC2    H1 2474   3.873   3.023   1.152 -0.1824  1.7366  1.1137
  162TMC2    H2 2475   3.628   2.735   1.328 -0.2796  1.1169  0.1639
  162TMC2    C7 2476   3.847   2.893   1.366 -0.2383  0.1596 -0.6704
  162TMC2    C8 2477   3.491   2.698   1.106 -0.2996  0.3585 -0.4077
  162TMC2    O1 2478   3.903   2.997   1.401  0.2429 -0.5563 -0.6709
  162TMC2    O2 2479   3.520   2.589   1.153 -0.3833  0.1823 -0.2910
  162TMC2    O5 2480   3.367   2.749   1.081  0.0793 -0.0635 -0.4455
  162TMC2    H5 2481   3.370   2.843   1.054  1.8858  0.0893  0.2729
  163MPD2     C 2482   3.733   3.220   0.453 -0.7768  0.1032 -0.4788
  163MPD2    C1 2483   3.823   3.139   0.513 -0.3255 -0.1264 -0.0846
  163MPD2    C2 2484   3.803   3.114   0.648  0.1676 -0.5960 -0.0880
  163MPD2    C3 2485   3.696   3.158   0.718  0.5739  0.2026  0.3529
  163MPD2    C4 2486   3.612   3.251   0.660 -0.0166  0.8163 -0.0043
  163MPD2    C5 2487   3.629   3.278   0.526 -0.8875 -0.2098  0.8362
  163MPD2     H 2488   3.871   3.048   0.701 -0.2457 -0.4473  0.6270
  163MPD2    H1 2489   3.540   3.299   0.727  0.6330  1.2670  0.3732
  163MPD2    H2 2490   3.742   3.245   0.348  2.3422 -1.0758 -0.5107
  163MPD2    H3 2491   3.565   3.351   0.476  0.0231 -0.5765 -0.8629
  163MPD2     N 2492   3.680   3.122   0.856 -0.2536 -0.1572  0.8327
  163MPD2    H5 2493   3.604   3.173   0.900 -2.5488 -0.4171 -2.8839
  163MPD2    N1 2494   3.933   3.089   0.437  0.1756  0.2873 -0.7518
  163MPD2    H7 2495   3.948   3.125   0.344 -0.0928 -1.0809 -1.3290
  164TCq2    C1 2496   4.493   2.809  10.541  0.1878 -0.4571  0.0203
  164TCq2    O2 2497   4.385   2.752  10.575  0.2567 -0.5145  0.1756
  164TCq2    C2 2498   4.502   2.945  10.580 -0.2521 -0.5434 -0.3498
  164TCq2    C3 2499   4.628   3.005  10.593 -0.3908  0.0963  0.0869
  164TCq2    C4 2500   4.642   3.125  10.655  0.3343 -0.0137  0.4825
  164TCq2    C5 2501   4.528   3.199  10.676 -0.3903 -0.2168 -0.6028
  164TCq2    C6 2502   4.403   3.149  10.644  0.0903 -0.2452 -0.0001
  164TCq2    C7 2503   4.391   3.020  10.596  0.4182 -0.1512  0.1170
  164TCq2    C8 2504   4.280   3.230  10.664 -0.6464 -0.0767  0.0502
  164TCq2    O4 2505   4.177   3.166  10.687  0.4622  0.4862  0.4683
  164TCq2    C9 2506   0.055   3.184  10.690 -0.0921 -0.0537  0.2267
  164TCq2    O5 2507   0.154   3.114  10.652 -1.0750 -0.4555 -0.0155
  164TCq2    O6 2508   0.050   3.300  10.743  0.4403 -0.6820  0.3775
  164TCq2    H2 2509   4.721   2.950  10.585  0.3758  1.4494 -0.1364
  164TCq2    H3 2510   4.531   3.300  10.715 -2.4976 -0.5485  0.4194
  164TCq2    H4 2511   4.294   2.976  10.573  2.1311 -3.2105 -1.2828
  165MPD2     C 2512   1.190   3.966   1.626  0.0588 -1.0004  0.2831
  165MPD2    C1 2513   1.067   4.001   1.678 -0.0838 -0.4223  0.2282
  165MPD2    C2 2514   1.052   4.127   1.740  0.5900  0.1345  0.6994
  165MPD2    C3 2515   1.163   4.207   1.766 -1.2177  0.1567  0.1480
  165MPD2    C4 2516   1.283   4.169   1.710  0.1535 -0.1752  0.3402
  165MPD2    C5 2517   1.302   4.050   1.639  0.4869 -0.8629  0.9181
  165MPD2     H 2518   0.954   4.161   1.770  0.4763 -0.9192  1.5470
  165MPD2    H1 2519   1.362   4.243   1.717 -0.7719  0.8790 -0.2737
  165MPD2    H2 2520   1.211   3.876   1.570  1.0803  0.1841 -1.2302
  165MPD2    H3 2521   1.403   4.021   1.612  0.9171 -1.1117  2.7518
  165MPD2     N 2522   1.155   4.330   1.841  0.0741  0.2803 -0.3241
  165MPD2    H5 2523   1.231   4.397   1.836 -0.7075  1.0794 -1.5488
  165MPD2    N1 2524   0.957   3.910   1.670 -0.3002 -0.3118  0.0702
  165MPD2    H7 2525   0.982   3.827   1.617 -1.3477 -0.1504 -0.6923
  166TCq2    C1 2526   1.045   4.368   1.916  0.3165 -0.2037 -0.4114
  166TCq2    O2 2527   0.969   4.299   1.981 -0.3335 -0.0756  0.5194
  166TCq2    C2 2528   1.059   4.508   1.964 -0.5809 -0.4608  0.0780
  166TCq2    C3 2529   0.966   4.550   2.055 -1.1017 -0.5227 -0.4607
  166TCq2    C4 2530   0.943   4.681   2.054 -0.8357  0.1822 -0.8878
  166TCq2    C5 2531   1.003   0.048   1.973  0.0367 -0.2804 -0.2593
  166TCq2    C6 2532   1.089   4.719   1.877 -0.0847  0.3204  0.0276
  166TCq2    C7 2533   1.138   4.593   1.881  0.1220 -0.5264  0.2636
  166TCq2    C8 2534   1.111   0.068   1.750  0.5609 -0.4058  0.3489
  166TCq2    O4 2535   1.197   0.030   1.671  0.3878 -0.2427  0.0007
  166TCq2    C9 2536   0.859   0.020   2.155  0.2841 -0.6491 -0.0334
  166TCq2    O5 2537   0.820   4.668   2.247  0.1566  0.4723 -0.1647
  166TCq2    O6 2538   0.825   0.141   2.139 -0.5051 -0.0570  0.2622
  166TCq2    H2 2539   0.899   4.492   2.118 -2.7836  1.5388 -0.3305
  166TCq2    H3 2540   0.983   0.155   1.972 -0.0418 -0.2501  3.3246
  166TCq2    H4 2541   1.213   4.566   1.807  0.0023  0.5021 -0.2324
  167TMC2    C1 2542   3.732   2.844  12.348 -0.3693  0.0219  0.1921
  167TMC2    C2 2543   3.684   2.822  12.473  0.1750 -0.0731  0.2251
  167TMC2    C3 2544   3.669   2.703  12.532 -0.6536 -0.1627 -0.2265
  167TMC2    C4 2545   3.765   2.732  12.277 -0.8468  0.4510 -0.7257
  167TMC2    C5 2546   3.757   2.612  12.337 -0.0204  0.3541 -0.1062
  167TMC2    C6 2547   3.701   2.592  12.463  0.6530  0.0726 -0.3626
  167TMC2     C 2548   3.699   2.962  12.274 -0.2493  0.0154 -0.1329
  167TMC2     O 2549   3.605   3.027  12.308 -0.4454  0.4663  0.3664
  167TMC2     H 2550   3.647   2.908  12.527  1.4376  1.4178 -1.2729
  167TMC2    H1 2551   3.783   2.735  12.170 -0.0629  0.4537 -0.5932
  167TMC2    H2 2552   3.675   2.493  12.496  0.4271  0.7024  1.3534
  167TMC2    C7 2553   3.725   2.504  12.246  0.0003  0.9825  0.5066
  167TMC2    C8 2554   3.651   2.701  12.673 -0.4731  0.1638  0.0010
  167TMC2    O1 2555   3.616   2.451  12.270 -0.2368  0.1928 -0.1202
  167TMC2    O2 2556   3.582   2.783  12.738 -0.3048 -0.2550 -0.1160
  167TMC2    O5 2557   3.727   2.604  12.730  0.5794 -0.3724  0.6913
  167TMC2    H5 2558   3.790   2.563  12.667 -2.1678 -1.2216 -1.5197
  168MPD2     C 2559   3.692   3.198  12.090 -0.7390 -0.2349 -0.1796
  168MPD2    C1 2560   3.758   3.083  12.067  0.2577 -0.5023  0.1529
  168MPD2    C2 2561   3.834   3.069  11.951 -0.1433  0.5955 -0.0259
  168MPD2    C3 2562   3.857   3.172  11.866  0.4235  0.4413 -0.2153
  168MPD2    C4 2563   3.799   3.293  11.902 -0.0843 -0.3012  0.4281
  168MPD2    C5 2564   3.716   3.307  12.009  0.1435  0.3296  0.2051
  168MPD2     H 2565   3.866   2.967  11.935 -1.2747  0.3518 -0.7463
  168MPD2    H1 2566   3.804   3.380  11.838 -0.9689  0.3381  1.2271
  168MPD2    H2 2567   3.628   3.210  12.176  2.1640  0.1733  1.9412
  168MPD2    H3 2568   3.659   3.397  12.031  1.7278  1.1992  0.7261
  168MPD2     N 2569   3.920   3.157  11.742 -0.2336 -0.4104  0.1421
  168MPD2    H5 2570   3.920   3.242  11.687 -0.3764 -1.2169 -1.1267
  168MPD2    N1 2571   3.768   2.972  12.158 -0.2670  0.0121 -0.4113
  168MPD2    H7 2572   3.849   2.912  12.146  1.5375  1.7988  2.8462
  169MPD1     C 2573   1.477   2.354   8.046 -0.3879 -0.1671 -0.0987
  169MPD1    C1 2574   1.344   2.388   8.056 -0.3134  0.3251  0.1865
  169MPD1    C2 2575   1.281   2.332   8.164 -0.6129  0.2448 -0.5986
  169MPD1    C3 2576   1.342   2.241   8.252  0.5451 -0.1830  0.4404
  169MPD1    C4 2577   1.468   2.200   8.228 -0.0849  0.4484 -0.1932
  169MPD1    C5 2578   1.537   2.260   8.129 -0.2944  0.1352  0.0589
  169MPD1     H 2579   1.183   2.364   8.195  0.0977  0.8792  0.9818
  169MPD1    H1 2580   1.523   2.123   8.280  1.0155  0.7912 -0.8533
  169MPD1    H2 2581   1.539   2.381   7.960  1.6195 -2.4060  0.6615
  169MPD1    H3 2582   1.639   2.233   8.104 -1.4374 -2.6330 -1.5914
  169MPD1     N 2583   1.258   2.185   8.350 -0.0280  0.4001 -0.1903
  169MPD1    H5 2584   1.163   2.219   8.342 -0.1848  0.1027  0.4145
  169MPD1    N1 2585   1.294   2.493   7.981 -0.4804  0.6257  0.3425
  169MPD1    H6 2586   1.192   2.497   7.975 -0.4528 -0.2382 -0.8346
  169MPD1    H7 2587   1.328   2.477   7.886 -0.7613 -2.4114  0.7690
  170MPD1     C 2588   0.018   4.527  12.894  0.3702 -0.4613 -0.2427
  170MPD1    C1 2589   0.003   4.504  13.029  0.1186  0.1709  0.1891
  170MPD1    C2 2590   4.687   4.617  13.102 -0.3762 -0.9095  0.5465
  170MPD1    C3 2591   4.677   0.026  13.055  0.9002 -0.2686 -0.9466
  170MPD1    C4 2592   4.708   0.039  12.920 -1.0566 -0.1172  0.3778
  170MPD1    C5 2593   0.017   4.653  12.846  0.3887 -0.2189  0.6042
  170MPD1     H 2594   4.663   4.608  13.207 -1.1467 -2.1614  0.2688
  170MPD1    H1 2595   4.698   0.130  12.862 -2.1778 -0.4811  0.0083
  170MPD1    H2 2596   0.051   4.444  12.833 -0.8987  0.6304 -2.3960
  170MPD1    H3 2597   0.031   4.664  12.739 -1.8689  0.3582  0.3646
  170MPD1     N 2598   4.643   0.137  13.137 -0.5943  0.4085  0.1421
  170MPD1    H5 2599   4.623   0.120  13.234 -0.4168 -1.0519 -0.0756
  170MPD1    N1 2600   0.006   4.371  13.079  0.1764  0.0320  0.3597
  170MPD1    H6 2601   0.072   4.312  13.029 -2.2685 -2.1907 -0.2702
  170MPD1    H7 2602   0.034   4.365  13.176  1.4744 -0.1314 -0.0362
  171MPD1     C 2603   3.466   1.593  15.273  0.5098  0.1961  0.3627
  171MPD1    C1 2604   3.469   1.482  15.185  0.1676 -0.9834  0.4850
  171MPD1    C2 2605   3.511   1.367  15.245  0.2490 -0.1669  0.2583
  171MPD1    C3 2606   3.546   1.347  15.379 -0.0847 -0.9676  0.0421
  171MPD1    C4 2607   3.532   1.454  15.463  0.9333 -0.3566  0.3820
  171MPD1    C5 2608   3.487   1.576  15.405  0.4138 -1.2104 -0.5755
  171MPD1     H 2609   3.517   1.282  15.178  1.1752 -2.4123  3.1672
  171MPD1    H1 2610   3.561   1.444  15.567  0.1032  1.0245  0.7445
  171MPD1    H2 2611   3.451   1.692  15.233  0.7651 -0.2144 -0.7471
  171MPD1    H3 2612   3.490   1.666  15.466 -0.4044 -0.5249 -1.5648
  171MPD1     N 2613   3.595   1.228  15.431 -0.2313  0.3503  0.0373
  171MPD1    H5 2614   3.624   1.218  15.528 -0.4708 -1.7755 -0.1230
  171MPD1    N1 2615   3.470   1.505  15.050 -0.2419  0.2403 -0.7409
  171MPD1    H6 2616   3.427   1.596  15.032  1.1584  1.2133  0.8028
  171MPD1    H7 2617   3.426   1.426  15.003  0.5368  1.1076 -2.9254
  172MPD1     C 2618   2.086   1.097  17.178 -0.3558  0.4183  0.7619
  172MPD1    C1 2619   2.028   1.065  17.301 -0.1817 -0.1301 -0.2723
  172MPD1    C2 2620   2.096   0.978  17.375 -0.1363  1.2292  0.6448
  172MPD1    C3 2621   2.219   0.929  17.339  0.1186  0.0964 -1.1588
  172MPD1    C4 2622   2.270   0.965  17.217  0.3935  0.2914 -0.5380
  172MPD1    C5 2623   2.212   1.064  17.140 -0.3040  0.2791  0.3621
  172MPD1     H 2624   2.060   0.951  17.474  0.2087 -0.4462  0.3064
  172MPD1    H1 2625   2.367   0.924  17.190 -0.5438 -1.2183 -1.6449
  172MPD1    H2 2626   2.039   1.173  17.117 -0.5476  0.1870  0.6212
  172MPD1    H3 2627   2.260   1.102  17.050 -0.8220  0.2717  0.0829
  172MPD1     N 2628   2.300   0.842  17.414 -0.7803  0.5495  0.0281
  172MPD1    H5 2629   2.396   0.836  17.381 -0.8017 -1.5382  0.3318
  172MPD1    N1 2630   1.895   1.099  17.334  0.4612  0.0105  0.5780
  172MPD1    H6 2631   1.871   1.190  17.295  0.2914  0.5424  1.9299
  172MPD1    H7 2632   1.879   1.094  17.435  0.3998  0.7185  0.6030
  173MPD1     C 2633   3.696   1.153  13.942 -0.3940 -0.3730 -0.1598
  173MPD1    C1 2634   3.561   1.146  13.932 -0.9803  0.9346 -0.2764
  173MPD1    C2 2635   3.497   1.040  13.989 -0.0473 -0.1528  0.4608
  173MPD1    C3 2636   3.565   0.952  14.069  0.1708 -0.4586  0.0948
  173MPD1    C4 2637   3.701   0.955  14.079 -0.0623 -0.5254 -0.1907
  173MPD1    C5 2638   3.762   1.053  14.009 -0.4976 -0.0203  0.3735
  173MPD1     H 2639   3.391   1.029  13.968 -0.2378 -1.2091  1.9595
  173MPD1    H1 2640   3.774   0.901  14.139 -0.6541 -2.0373 -0.8402
  173MPD1    H2 2641   3.744   1.242  13.903 -1.0139  1.2811  2.8623
  173MPD1    H3 2642   3.869   1.066  14.017 -0.5612  0.1809  0.8687
  173MPD1     N 2643   3.494   0.842  14.118 -0.3207  0.1487  0.3782
  173MPD1    H5 2644   3.393   0.840  14.107 -0.2993  0.4310  0.1476
  173MPD1    N1 2645   3.492   1.236  13.852  0.5317  0.4697 -0.2600
  173MPD1    H6 2646   3.532   1.330  13.856  1.5881 -0.0110  0.4264
  173MPD1    H7 2647   3.395   1.242  13.884  0.3808 -0.7532 -0.4759
  174MPD1     C 2648   3.241   0.058  13.709  0.8213  1.3414 -0.6765
  174MPD1    C1 2649   3.159   0.163  13.706 -0.0507  0.6443  0.0413
  174MPD1    C2 2650   3.169   0.253  13.810  0.0657  0.6327 -0.0242
  174MPD1    C3 2651   3.251   0.237  13.927 -0.0192  0.1740  0.6433
  174MPD1    C4 2652   3.330   0.127  13.919 -0.1264  0.0834 -0.0838
  174MPD1    C5 2653   3.330   0.050  13.807  0.6113  0.1518 -0.2674
  174MPD1     H 2654   3.123   0.350  13.794 -1.2834 -0.4910 -2.9088
  174MPD1    H1 2655   3.398   0.113  14.002  0.2723  0.3934 -0.3575
  174MPD1    H2 2656   3.241   4.708  13.628 -0.8385 -0.4534  0.9098
  174MPD1    H3 2657   3.400   4.690  13.797 -0.1872 -0.4390 -1.0655
  174MPD1     N 2658   3.263   0.320  14.040 -0.3954  0.2798 -0.4514
  174MPD1    H5 2659   3.337   0.312  14.109  0.6032  2.6347 -1.2668
  174MPD1    N1 2660   3.092   0.202  13.588 -0.0313 -0.0709 -0.5607
  174MPD1    H6 2661   3.060   0.118  13.541  1.3477 -1.0454  0.2416
  174MPD1    H7 2662   3.015   0.265  13.607 -0.4035 -0.4942 -0.6583
  175MPD1     C 2663   2.210   1.658  15.388 -0.1551  0.7243 -0.3557
  175MPD1    C1 2664   2.323   1.631  15.461  0.4339 -0.5040  0.3227
  175MPD1    C2 2665   2.314   1.582  15.589  0.5010  0.0058  0.0839
  175MPD1    C3 2666   2.193   1.552  15.646 -0.2213 -0.1637 -0.7253
  175MPD1    C4 2667   2.076   1.584  15.574 -0.3595 -0.2891  0.3563
  175MPD1    C5 2668   2.093   1.644  15.456  0.4131  0.3822  0.0706
  175MPD1     H 2669   2.408   1.551  15.635 -1.5835 -1.1882  3.4809
  175MPD1    H1 2670   1.975   1.571  15.611 -1.2044 -0.3722 -2.0135
  175MPD1    H2 2671   2.206   1.699  15.288 -0.2488 -1.2196 -1.1451
  175MPD1    H3 2672   2.001   1.678  15.410 -1.3996 -2.9334  1.1773
  175MPD1     N 2673   2.185   1.483  15.768 -0.3373 -0.1380 -0.2756
  175MPD1    H5 2674   2.095   1.452  15.803 -1.1857  2.4387 -0.1697
  175MPD1    N1 2675   2.444   1.627  15.384 -0.1546 -0.0242 -0.2748
  175MPD1    H6 2676   2.531   1.653  15.430  0.1165  2.1194 -2.0143
  175MPD1    H7 2677   2.441   1.684  15.299  2.3292  1.1780  0.4420
  176MPD1     C 2678   4.080   2.488  16.298 -0.1779  0.1813  0.3397
  176MPD1    C1 2679   3.967   2.554  16.278  0.3283  0.0062 -0.2020
  176MPD1    C2 2680   3.918   2.638  16.377  0.1749 -0.0068 -0.4268
  176MPD1    C3 2681   3.979   2.648  16.501 -0.9523 -0.2536 -0.1333
  176MPD1    C4 2682   4.102   2.586  16.516 -0.9764 -0.6551  0.4018
  176MPD1    C5 2683   4.149   2.496  16.417  0.4755  0.2521 -0.4219
  176MPD1     H 2684   3.821   2.684  16.362 -0.0749  0.2833  2.0373
  176MPD1    H1 2685   4.171   2.589  16.600  0.5519 -0.2073 -0.8873
  176MPD1    H2 2686   4.124   2.424  16.222 -0.8185 -0.1815  0.2704
  176MPD1    H3 2687   4.247   2.450  16.425  0.2955  0.2422  1.8286
  176MPD1     N 2688   3.919   2.729  16.601  0.3983  0.2044 -0.4845
  176MPD1    H5 2689   3.838   2.782  16.569 -0.5034 -0.8864 -0.0381
  176MPD1    N1 2690   3.903   2.550  16.152  0.0899 -0.5071 -0.1517
  176MPD1    H6 2691   3.806   2.578  16.141  0.1612 -0.3827 -0.4737
  176MPD1    H7 2692   3.917   2.462  16.103  0.9465  0.4082 -1.5517
  177MPD1     C 2693   2.747   3.279   9.679  0.0424  0.1907  0.0926
  177MPD1    C1 2694   2.626   3.226   9.630  0.2135  0.2940 -0.6043
  177MPD1    C2 2695   2.572   3.272   9.510 -0.7409  0.0012  0.6748
  177MPD1    C3 2696   2.610   3.403   9.472 -0.1707  0.2982 -0.2118
  177MPD1    C4 2697   2.712   3.468   9.536  0.2285 -0.1934 -0.4282
  177MPD1    C5 2698   2.774   3.404   9.633  0.0981 -0.1297 -0.1070
  177MPD1     H 2699   2.486   3.224   9.464 -2.1594  2.4219  0.8018
  177MPD1    H1 2700   2.762   3.563   9.519 -0.8828  0.2878 -1.0731
  177MPD1    H2 2701   2.800   3.244   9.766  0.9089 -1.0056 -0.9310
  177MPD1    H3 2702   2.864   3.449   9.672 -0.6712  0.0946  1.3931
  177MPD1     N 2703   2.543   3.467   9.367  0.8705 -0.2591 -0.2197
  177MPD1    H5 2704   2.479   3.409   9.313 -2.6636  1.6901  1.8882
  177MPD1    N1 2705   2.578   3.109   9.690 -0.0290 -0.1827 -0.3913
  177MPD1    H6 2706   2.601   3.117   9.789 -1.1558 -0.0635 -0.1368
  177MPD1    H7 2707   2.478   3.089   9.689  0.0827 -0.8112  1.3072
  178MPD1     C 2708   0.131   4.218   0.187 -0.5547  0.5741 -0.2998
  178MPD1    C1 2709   0.064   4.119   0.124  0.3429 -0.2710 -0.3970
  178MPD1    C2 2710   0.065   4.107  17.680 -0.4951 -0.0460 -0.1144
  178MPD1    C3 2711   0.118   4.202  17.602  0.8066  0.3002 -0.2042
  178MPD1    C4 2712   0.191   4.309  17.663  0.3184  0.9117  0.6528
  178MPD1    C5 2713   0.207   4.316   0.111 -0.0477 -0.3011 -0.1720
  178MPD1     H 2714   0.020   4.017  17.640  1.2021 -0.2527 -1.5186
  178MPD1    H1 2715   0.242   4.381  17.601  0.5218 -0.0339 -0.2784
  178MPD1    H2 2716   0.151   4.218   0.293  2.1754  1.6448 -0.8144
  178MPD1    H3 2717   0.260   4.403   0.148 -3.4662  1.7591 -0.0851
  178MPD1     N 2718   0.136   4.193  17.463  0.0352 -0.1954  0.6045
  178MPD1    H5 2719   0.185   4.263  17.408 -0.3555  0.3410  0.9405
  178MPD1    N1 2720   0.022   4.014   0.204 -0.0016  0.2291 -0.3644
  178MPD1    H6 2721   4.661   3.977   0.157 -2.1701  1.4909  2.4531
  178MPD1    H7 2722   4.714   4.036   0.299  0.6475 -3.2304  0.6410
  179MPD1     C 2723   0.315   1.690  15.080  1.0927  0.1227  0.3138
  179MPD1    C1 2724   0.188   1.668  15.021 -0.2955 -0.0120 -0.4472
  179MPD1    C2 2725   0.087   1.758  15.057 -0.4495  0.5570 -0.9366
  179MPD1    C3 2726   0.105   1.844  15.168  0.2684  0.4232  0.2551
  179MPD1    C4 2727   0.226   1.844  15.238 -0.2091 -0.2234  0.0834
  179MPD1    C5 2728   0.328   1.781  15.182  0.3589 -0.2993 -0.4441
  179MPD1     H 2729   4.710   1.745  15.013 -1.4372  3.0725  0.5374
  179MPD1    H1 2730   0.239   1.907  15.326  0.8636  3.6558 -2.8827
  179MPD1    H2 2731   0.404   1.635  15.052  1.8458  1.4207  0.1775
  179MPD1    H3 2732   0.425   1.782  15.232 -0.1739  0.3169  0.5600
  179MPD1     N 2733   4.715   1.922  15.224  0.3811  0.5839  0.4749
  179MPD1    H5 2734   0.014   1.979  15.305 -0.8187  0.8920  0.5539
  179MPD1    N1 2735   0.171   1.577  14.919 -0.3749  0.2381 -0.0665
  179MPD1    H6 2736   0.077   1.541  14.908  0.5067 -2.1787  0.2925
  179MPD1    H7 2737   0.234   1.500  14.942 -1.1860  0.0859  1.6353
  180MPD1     C 2738   4.015   3.789  15.348  0.8091 -0.6859  0.0537
  180MPD1    C1 2739   3.894   3.806  15.279 -0.4776 -0.1336  0.3509
  180MPD1    C2 2740   3.890   3.786  15.142 -0.5082  0.5144  0.1850
  180MPD1    C3 2741   4.001   3.751  15.070 -0.2654  0.6319  0.0913
  180MPD1    C4 2742   4.122   3.729  15.145 -0.1418  0.3259  0.5112
  180MPD1    C5 2743   4.127   3.755  15.277  0.1563 -0.1944 -0.9054
  180MPD1     H 2744   3.803   3.802  15.080 -1.1325 -1.3018  0.6062
  180MPD1    H1 2745   4.209   3.688  15.096 -0.5559  1.1980 -0.9550
  180MPD1    H2 2746   4.021   3.805  15.455  2.2461  1.0695 -0.2956
  180MPD1    H3 2747   4.222   3.744  15.329 -0.3353  1.1395  0.2784
  180MPD1     N 2748   3.986   3.740  14.924  0.2239 -0.1904  0.6284
  180MPD1    H5 2749   3.890   3.729  14.892  0.5809 -1.0846 -0.1308
  180MPD1    N1 2750   3.777   3.825  15.353 -0.4508 -0.2045 -0.1301
  180MPD1    H6 2751   3.768   3.878  15.440  2.6677 -1.0398  0.7149
  180MPD1    H7 2752   3.701   3.859  15.294  1.2494  2.3387 -0.8758
  181MPD1     C 2753   0.828   0.082   9.777 -0.7463  0.1678  1.0458
  181MPD1    C1 2754   0.928   0.009   9.712 -0.4792  0.0973  0.2633
  181MPD1    C2 2755   1.017   0.073   9.635  0.9060 -0.4110 -0.6392
  181MPD1    C3 2756   1.007   0.210   9.612 -0.1311  0.2934 -0.2046
  181MPD1    C4 2757   0.908   0.279   9.672  0.5202 -0.0983  0.3481
  181MPD1    C5 2758   0.826   0.214   9.757  0.3324 -0.7648 -0.2246
  181MPD1     H 2759   1.099   0.013   9.598  0.6989 -0.5172 -0.9298
  181MPD1    H1 2760   0.901   0.387   9.669 -2.3993 -0.3062 -0.5458
  181MPD1    H2 2761   0.749   0.035   9.835 -1.1570  1.6394  1.7056
  181MPD1    H3 2762   0.747   0.270   9.804  1.0887  1.2159 -1.3197
  181MPD1     N 2763   1.088   0.292   9.535 -0.2198  0.2190 -0.2745
  181MPD1    H5 2764   1.070   0.392   9.535  1.7716  0.5842  1.5154
  181MPD1    N1 2765   0.945   4.591   9.742  0.5426 -0.1191  0.3208
  181MPD1    H6 2766   1.000   4.544   9.669  1.6275  1.2990  0.2318
  181MPD1    H7 2767   0.862   4.539   9.770 -0.8833  1.9998  0.0375
  182MPD1     C 2768   2.321   4.309   0.994  0.2481 -0.4613 -0.3419
  182MPD1    C1 2769   2.247   4.370   1.094  0.4368  0.0407 -0.6110
  182MPD1    C2 2770   2.112   4.382   1.077 -0.1338 -0.1549  0.6546
  182MPD1    C3 2771   2.051   4.331   0.970  0.1869 -0.7667 -0.4913
  182MPD1    C4 2772   2.120   4.263   0.869 -0.6148 -0.5769 -0.5617
  182MPD1    C5 2773   2.252   4.250   0.885 -0.0689  0.1799  0.2702
  182MPD1     H 2774   2.045   4.428   1.150 -0.9902  1.0337 -0.8835
  182MPD1    H1 2775   2.071   4.218   0.784 -2.3952 -0.7517  0.5617
  182MPD1    H2 2776   2.428   4.292   1.002  0.0698 -1.3046  0.2574
  182MPD1    H3 2777   2.303   4.190   0.811 -1.5093  0.1263 -0.6860
  182MPD1     N 2778   1.917   4.362   0.946 -0.7419  0.1688 -0.2181
  182MPD1    H5 2779   1.890   4.335   0.852  2.2759 -0.6694 -0.8634
  182MPD1    N1 2780   2.316   4.434   1.201  0.3873 -0.1144  0.2565
  182MPD1    H6 2781   2.412   4.399   1.207  0.9535  1.7331  1.8218
  182MPD1    H7 2782   2.267   4.436   1.290  0.1917 -1.4652  0.1668
  183MPD1     C 2783   3.206   0.313   8.489 -0.2377 -0.5119 -0.2570
  183MPD1    C1 2784   3.178   0.249   8.608  0.0026  0.0414 -0.1389
  183MPD1    C2 2785   3.122   0.323   8.710  0.1058  0.1755 -0.0969
  183MPD1    C3 2786   3.099   0.454   8.699  0.0691 -0.0764 -0.1118
  183MPD1    C4 2787   3.140   0.517   8.581 -0.1471  0.1247 -0.0186
  183MPD1    C5 2788   3.196   0.447   8.478  0.5623  0.3849  0.2848
  183MPD1     H 2789   3.109   0.273   8.806  3.1483  1.5280  1.0131
  183MPD1    H1 2790   3.129   0.624   8.568 -1.1250 -0.0507 -0.6753
  183MPD1    H2 2791   3.246   0.259   8.404 -0.4608  0.6643 -1.1217
  183MPD1    H3 2792   3.214   0.504   8.388  0.6683 -1.0806 -0.6080
  183MPD1     N 2793   3.046   0.526   8.811  0.4132 -0.1720 -0.3605
  183MPD1    H5 2794   3.016   0.473   8.892  2.5494  1.2445  1.3440
  183MPD1    N1 2795   3.191   0.108   8.613  0.2318 -0.4115  0.1443
  183MPD1    H6 2796   3.208   0.076   8.708  3.9682  2.8904  0.5757
  183MPD1    H7 2797   3.265   0.068   8.555  2.0413  0.8445  1.5906
  184MPD1     C 2798   1.768   2.687   9.441 -0.2808  0.2885  0.4762
  184MPD1    C1 2799   1.699   2.689   9.326 -0.1554  0.2488  0.1753
  184MPD1    C2 2800   1.718   2.803   9.243 -0.6823  0.1423 -0.4616
  184MPD1    C3 2801   1.802   2.905   9.277  0.1205  0.6312 -0.8237
  184MPD1    C4 2802   1.874   2.898   9.395 -0.7350  0.3798  0.2064
  184MPD1    C5 2803   1.852   2.792   9.477 -0.1570 -0.2944  0.1810
  184MPD1     H 2804   1.657   2.813   9.154 -3.7157  0.0011  1.6171
  184MPD1    H1 2805   1.935   2.986   9.415  2.3269 -1.6682 -0.0984
  184MPD1    H2 2806   1.751   2.602   9.506 -1.4726  1.5137  1.7617
  184MPD1    H3 2807   1.902   2.783   9.573 -0.5940 -1.5746  0.2860
  184MPD1     N 2808   1.824   3.015   9.192 -0.3256  0.6067  0.4542
  184MPD1    H5 2809   1.883   3.091   9.223 -0.4839  0.7316  0.4509
  184MPD1    N1 2810   1.597   2.594   9.305  0.9605  0.0871  0.1244
  184MPD1    H6 2811   1.566   2.591   9.208  1.6642 -2.2156 -0.0179
  184MPD1    H7 2812   1.641   2.506   9.330  1.2516  0.6552  1.6093
  185MPD1     C 2813   1.499   3.333   8.292  0.3441 -0.6441  0.3117
  185MPD1    C1 2814   1.593   3.429   8.329  0.3898  0.1604 -0.0948
  185MPD1    C2 2815   1.646   3.422   8.455  0.0045 -0.5019  0.1950
  185MPD1    C3 2816   1.619   3.314   8.539  0.2221  0.2153 -0.0531
  185MPD1    C4 2817   1.540   3.213   8.494  0.0193 -0.4328  0.1416
  185MPD1    C5 2818   1.474   3.221   8.374 -0.0616  0.7487 -0.4003
  185MPD1     H 2819   1.712   3.500   8.491 -1.6205  1.6110 -1.3845
  185MPD1    H1 2820   1.524   3.126   8.557  0.4834  1.0489  2.2917
  185MPD1    H2 2821   1.443   3.339   8.200  0.0479  1.2131  0.6302
  185MPD1    H3 2822   1.415   3.137   8.342  0.8185 -0.2483  0.5603
  185MPD1     N 2823   1.673   3.300   8.665 -0.0699  0.3379 -0.7478
  185MPD1    H5 2824   1.667   3.206   8.704  0.8560  0.2499 -0.8107
  185MPD1    N1 2825   1.612   3.541   8.246  0.0781 -0.2081  0.2931
  185MPD1    H6 2826   1.586   3.533   8.148  1.6355 -0.9171 -0.0506
  185MPD1    H7 2827   1.709   3.573   8.251 -0.6589  1.9028  1.1997
  186MPD1     C 2828   0.005   1.976  15.659 -0.1464  0.4424  0.6175
  186MPD1    C1 2829   0.034   2.093  15.589 -0.0620  0.2290 -0.2007
  186MPD1    C2 2830   4.692   2.209  15.627 -0.2348  0.1335  0.1741
  186MPD1    C3 2831   4.616   2.216  15.749  0.2215  0.6144 -0.0913
  186MPD1    C4 2832   4.599   2.100  15.817 -0.0358 -0.0582 -0.0615
  186MPD1    C5 2833   4.657   1.986  15.776 -0.2853  0.3142 -0.1308
  186MPD1     H 2834   4.706   2.295  15.563  2.2668 -1.3015 -1.2096
  186MPD1    H1 2835   4.533   2.096  15.902  1.3028 -0.9043  0.9274
  186MPD1    H2 2836   0.041   1.877  15.633 -1.2268  0.7053 -1.8680
  186MPD1    H3 2837   4.656   1.905  15.849 -0.1866  0.9767  0.6013
  186MPD1     N 2838   4.598   2.334  15.819  0.0741 -0.0882  0.5808
  186MPD1    H5 2839   4.581   2.318  15.918 -0.0951 -1.8103  0.2683
  186MPD1    N1 2840   0.113   2.083  15.471  0.5651  0.1739 -0.4212
  186MPD1    H6 2841   0.156   2.174  15.453  0.5502 -0.1240 -1.9815
  186MPD1    H7 2842   0.181   2.010  15.492  0.9537  0.9270  1.0017
  187MPD1     C 2843   4.372   3.649  17.274 -0.6826 -0.8118 -0.0099
  187MPD1    C1 2844   4.434   3.771  17.293  0.5241 -0.2541 -0.1005
  187MPD1    C2 2845   4.380   3.881  17.233  1.1158  0.1399  0.8978
  187MPD1    C3 2846   4.252   3.882  17.176  0.6859  0.0254 -0.1000
  187MPD1    C4 2847   4.178   3.761  17.182  0.6758 -0.3952  0.0735
  187MPD1    C5 2848   4.237   3.654  17.244  0.6143  0.2484  0.4202
  187MPD1     H 2849   4.438   3.972  17.236  0.8830  0.2937  0.7744
  187MPD1    H1 2850   4.076   3.755  17.146  0.1823 -2.2990  1.8210
  187MPD1    H2 2851   4.426   3.559  17.303 -0.9970 -1.1710 -0.5373
  187MPD1    H3 2852   4.177   3.564  17.250 -1.4896  1.5338 -1.4415
  187MPD1     N 2853   4.185   3.988  17.114 -0.2953  0.5380  0.5813
  187MPD1    H5 2854   4.089   3.962  17.097  0.7511 -2.3198 -1.0047
  187MPD1    N1 2855   4.568   3.783  17.334 -0.5506 -0.6931 -0.1661
  187MPD1    H6 2856   4.593   3.872  17.376 -1.4650  0.9927 -3.1508
  187MPD1    H7 2857   4.606   3.710  17.394 -0.2901  1.5446  2.3447
  188MPD1     C 2858   3.360   4.464   9.505  0.5369  0.5861  0.2232
  188MPD1    C1 2859   3.389   4.383   9.615 -0.6230  0.0462 -0.3762
  188MPD1    C2 2860   3.450   4.265   9.607  0.1128 -0.8316  0.6650
  188MPD1    C3 2861   3.481   4.217   9.481 -0.3650 -1.1918 -0.7140
  188MPD1    C4 2862   3.446   4.294   9.371  0.4247 -0.0527 -0.4515
  188MPD1    C5 2863   3.383   4.410   9.382 -0.3701  0.3298 -0.1041
  188MPD1     H 2864   3.459   4.207   9.698 -2.3357  0.6403  1.8655
  188MPD1    H1 2865   3.474   4.262   9.272  3.1563 -1.4027  0.7396
  188MPD1    H2 2866   3.292   4.548   9.508 -1.0287 -0.6560 -1.0068
  188MPD1    H3 2867   3.350   4.461   9.293  1.3069 -0.4554 -1.1554
  188MPD1     N 2868   3.543   4.093   9.459 -0.2135  0.2394 -0.1460
  188MPD1    H5 2869   3.555   4.070   9.361  0.9391  0.6298 -0.1009
  188MPD1    N1 2870   3.330   4.423   9.738  0.1221 -0.3896 -0.5910
  188MPD1    H6 2871   3.399   4.389   9.806 -0.4759 -1.1643 -0.3736
  188MPD1    H7 2872   3.327   4.524   9.742 -2.2899 -0.4967  0.3821
  189MPD1     C 2873   0.507   4.527   0.484 -0.5472  0.8642  0.9445
  189MPD1    C1 2874   0.385   4.474   0.452 -0.0858 -0.2066  0.6717
  189MPD1    C2 2875   0.310   4.552   0.369 -0.4727  0.8287  0.1510
  189MPD1    C3 2876   0.353   4.667   0.304 -0.3812  0.2575  0.0107
  189MPD1    C4 2877   0.474   4.716   0.342  0.4694  0.0904  0.4055
  189MPD1    C5 2878   0.550   4.647   0.437  0.5638  0.1434 -0.0574
  189MPD1     H 2879   0.207   4.523   0.355  0.0206 -1.2429  0.7953
  189MPD1    H1 2880   0.523   0.081   0.300 -0.4993  0.2641 -0.3698
  189MPD1    H2 2881   0.580   4.481   0.550 -2.2852 -0.9056  1.6187
  189MPD1    H3 2882   0.648   4.686   0.463 -0.1069  1.6978  0.0871
  189MPD1     N 2883   0.275   0.006   0.206 -0.2143  0.3853 -0.2879
  189MPD1    H5 2884   0.185   4.681   0.200 -0.1588  0.3435 -0.7438
  189MPD1    N1 2885   0.331   4.371   0.526 -0.0679 -0.0333 -0.3266
  189MPD1    H6 2886   0.269   4.313   0.469  1.3931 -1.6643 -0.2418
  189MPD1    H7 2887   0.405   4.313   0.565 -0.2784  0.0418  0.1922
  190MPD1     C 2888   3.703   3.426  14.812  0.3974  0.2214  0.1663
  190MPD1    C1 2889   3.819   3.353  14.770  0.2475 -0.1004  0.8471
  190MPD1    C2 2890   3.916   3.339  14.863  0.1129 -0.7449 -0.2844
  190MPD1    C3 2891   3.922   3.408  14.984 -0.9163  0.0707 -0.6658
  190MPD1    C4 2892   3.812   3.474  15.027  0.2215 -0.7124 -0.2263
  190MPD1    C5 2893   3.701   3.480  14.943  0.2148 -0.3735 -0.8204
  190MPD1     H 2894   4.006   3.284  14.841  0.1287 -1.6860  2.1230
  190MPD1    H1 2895   3.813   3.523  15.123  0.2669  1.3303 -1.2678
  190MPD1    H2 2896   3.618   3.448  14.748  0.0381  0.6772  0.8001
  190MPD1    H3 2897   3.613   3.534  14.976  0.5736 -0.5686  0.4728
  190MPD1     N 2898   4.037   3.386  15.068  0.6734 -0.5498  0.5955
  190MPD1    H5 2899   4.114   3.335  15.026 -0.9291 -1.9496 -0.6960
  190MPD1    N1 2900   3.828   3.283  14.648  0.3590  0.6782  0.1535
  190MPD1    H6 2901   3.781   3.334  14.573 -0.4281 -1.9944 -1.1841
  190MPD1    H7 2902   3.924   3.259  14.622 -0.6286 -4.3812  1.1422
  191MPD1     C 2903   3.916   0.513  12.782  0.3622 -0.4139  0.2862
  191MPD1    C1 2904   3.944   0.518  12.647 -0.9189 -0.2724  0.3514
  191MPD1    C2 2905   3.880   0.621  12.568 -0.8874 -1.0369 -0.1741
  191MPD1    C3 2906   3.809   0.716  12.629  0.1665 -0.7917 -0.2673
  191MPD1    C4 2907   3.786   0.710  12.766  0.0380  0.2699  0.2058
  191MPD1    C5 2908   3.849   0.618  12.837 -0.6594 -0.1405 -0.6125
  191MPD1     H 2909   3.893   0.626  12.461  0.1806  1.2478  0.0518
  191MPD1    H1 2910   3.740   0.790  12.824 -0.6410  0.3986 -0.5022
  191MPD1    H2 2911   3.943   0.429  12.845  1.1620 -1.4979 -1.5171
  191MPD1    H3 2912   3.844   0.620  12.945 -2.2490 -3.0729 -0.6407
  191MPD1     N 2913   3.754   0.818  12.544  0.0660 -1.0767 -0.7063
  191MPD1    H5 2914   3.762   0.802  12.444 -2.6911  0.0647 -1.0938
  191MPD1    N1 2915   4.018   0.419  12.578 -0.5447  0.1824  0.0348
  191MPD1    H6 2916   4.042   0.451  12.484 -1.7237  0.6616 -0.0948
  191MPD1    H7 2917   4.098   0.387  12.632 -1.7544 -0.6460  1.3277
  192MPD1     C 2918   2.801   1.120  12.407  0.0169  1.0433  0.0164
  192MPD1    C1 2919   2.856   1.056  12.300 -0.5485  0.5626 -0.1193
  192MPD1    C2 2920   2.997   1.047  12.290  0.5983  0.4124  0.0136
  192MPD1    C3 2921   3.083   1.100  12.386 -0.1801 -0.6668 -1.2577
  192MPD1    C4 2922   3.028   1.167  12.486  0.3266  0.1350  0.7675
  192MPD1    C5 2923   2.890   1.178  12.500  0.0960 -0.1893  0.0535
  192MPD1     H 2924   3.038   1.001  12.201 -1.6816  0.5253 -1.1048
  192MPD1    H1 2925   3.091   1.224  12.553 -1.5665  2.9798  0.0763
  192MPD1    H2 2926   2.695   1.141  12.409  0.1204  1.5773 -0.0938
  192MPD1    H3 2927   2.846   1.238  12.578 -1.7838 -1.0391 -0.3441
  192MPD1     N 2928   3.222   1.082  12.383  0.3473 -0.0015  0.8707
  192MPD1    H5 2929   3.270   1.118  12.465  1.8580 -1.4297  0.6142
  192MPD1    N1 2930   2.777   1.038  12.192  0.1465 -0.1800 -0.5868
  192MPD1    H6 2931   2.680   1.015  12.214 -0.3439  3.0675  0.7001
  192MPD1    H7 2932   2.827   0.984  12.121  1.0470  1.4695 -1.2035
  193MPD1     C 2933   3.381   0.799  15.978  0.3910 -0.1838  0.1182
  193MPD1    C1 2934   3.362   0.921  16.031 -0.4640 -0.1759  0.1248
  193MPD1    C2 2935   3.460   0.968  16.120  0.4709 -0.3707  0.0942
  193MPD1    C3 2936   3.560   0.881  16.162  0.5336  0.3644 -0.3801
  193MPD1    C4 2937   3.577   0.760  16.108  0.8524 -0.4075 -0.0939
  193MPD1    C5 2938   3.485   0.714  16.012 -0.1067  0.2144 -0.1071
  193MPD1     H 2939   3.451   1.067  16.163 -0.2092  0.4675 -1.9600
  193MPD1    H1 2940   3.659   0.697  16.140  2.3909  0.5513 -2.1787
  193MPD1    H2 2941   3.309   0.764  15.905  1.6273 -0.3276 -1.0211
  193MPD1    H3 2942   3.503   0.614  15.973 -2.4849 -0.1139 -0.3429
  193MPD1     N 2943   3.664   0.922  16.245 -0.6390 -0.4962  0.6369
  193MPD1    H5 2944   3.749   0.867  16.252 -0.2248  0.2143  1.1768
  193MPD1    N1 2945   3.262   1.005  15.970  1.1267  0.3458  0.0008
  193MPD1    H6 2946   3.185   0.958  15.923  0.5486 -1.8740  3.1195
  193MPD1    H7 2947   3.225   1.065  16.044  0.0339  1.9809 -1.8945
  194MPD1     C 2948   2.346   3.364  16.246 -0.1917  0.1890 -0.3593
  194MPD1    C1 2949   2.287   3.272  16.159  0.0710  0.0260  0.7139
  194MPD1    C2 2950   2.248   3.148  16.213  0.5590  0.1414 -0.2285
  194MPD1    C3 2951   2.285   3.112  16.346 -0.1520  0.2382 -0.6240
  194MPD1    C4 2952   2.358   3.200  16.422  0.4134  0.3672 -0.5069
  194MPD1    C5 2953   2.379   3.325  16.370  1.1093 -0.3084  0.2978
  194MPD1     H 2954   2.201   3.083  16.139 -1.2325  0.1613  0.8981
  194MPD1    H1 2955   2.401   3.172  16.517 -1.8138  0.5623  0.5495
  194MPD1    H2 2956   2.386   3.459  16.213 -1.1543  0.3183 -1.1366
  194MPD1    H3 2957   2.444   3.388  16.429  0.3797  0.0795  0.6793
  194MPD1     N 2958   2.250   2.992  16.413 -0.3586 -0.4438 -0.2334
  194MPD1    H5 2959   2.274   2.987  16.512  2.9325 -1.8053 -1.0968
  194MPD1    N1 2960   2.237   3.317  16.038 -0.0421  0.2899 -0.3381
  194MPD1    H6 2961   2.215   3.244  15.970 -0.3211  0.0348  0.0238
  194MPD1    H7 2962   2.308   3.375  15.995 -2.2371  2.2267 -1.3176
  195MPD1     C 2963   3.953   4.075   0.718 -0.6760 -1.0253 -0.4297
  195MPD1    C1 2964   3.954   3.944   0.749  0.6876  0.3726  0.6976
  195MPD1    C2 2965   3.916   3.858   0.643 -0.0652  0.7237  0.4312
  195MPD1    C3 2966   3.887   3.901   0.513  0.0042 -0.4145 -0.1030
  195MPD1    C4 2967   3.887   4.038   0.492 -0.5715  0.3330 -0.0381
  195MPD1    C5 2968   3.922   4.123   0.593  0.4904  0.4237 -0.0844
  195MPD1     H 2969   3.922   3.752   0.663  2.1449  0.7522 -0.0638
  195MPD1    H1 2970   3.870   4.084   0.395 -2.0704 -2.9655 -1.3598
  195MPD1    H2 2971   3.969   4.148   0.796 -1.9087  0.3426 -1.4421
  195MPD1    H3 2972   3.926   4.231   0.578  1.8164  0.5201  0.9255
  195MPD1     N 2973   3.855   3.815   0.407 -0.2052  0.2443 -0.5828
  195MPD1    H5 2974   3.843   3.851   0.313 -4.4419 -0.1320 -0.2000
  195MPD1    N1 2975   3.988   3.895   0.876 -0.0709 -0.3489 -0.1588
  195MPD1    H6 2976   4.028   3.802   0.885  1.9356  0.3862 -1.2821
  195MPD1    H7 2977   4.049   3.961   0.924 -0.0416  0.4549 -1.2911
  196MPD1     C 2978   3.377   3.069   0.097  0.0904  0.3080  0.0693
  196MPD1    C1 2979   3.447   3.130   0.195 -0.1834  0.4036 -0.0701
  196MPD1    C2 2980   3.406   3.261   0.227 -0.1982  0.7327 -0.0165
  196MPD1    C3 2981   3.293   3.311   0.161  0.3529  0.6792 -0.1361
  196MPD1    C4 2982   3.219   3.237   0.072 -0.5237  0.0424  0.0827
  196MPD1    C5 2983   3.267   3.119   0.029 -0.3735 -0.4592 -0.5432
  196MPD1     H 2984   3.457   3.321   0.301  1.6377  0.0951 -0.7527
  196MPD1    H1 2985   3.130   3.279   0.027 -0.9370 -0.6608  0.2361
  196MPD1    H2 2986   3.408   2.967   0.077 -1.8044  0.2241 -2.4438
  196MPD1    H3 2987   3.214   3.058  17.644 -0.4682 -0.3385 -0.5742
  196MPD1     N 2988   3.226   3.434   0.190  0.5167 -1.1868  0.1288
  196MPD1    H5 2989   3.144   3.458   0.135  0.5601  0.2440  0.6846
  196MPD1    N1 2990   3.551   3.056   0.262 -0.2704 -0.5824  0.0639
  196MPD1    H6 2991   3.616   3.113   0.317 -0.2136  0.0748 -0.6972
  196MPD1    H7 2992   3.609   2.995   0.204  0.0551  0.6042 -0.8488
  197MPD1     C 2993   2.939   1.281  17.466 -0.5198 -0.1402  0.6117
  197MPD1    C1 2994   2.831   1.202  17.444 -0.2078 -0.1995  0.4008
  197MPD1    C2 2995   2.719   1.249  17.378  0.5113  0.6366 -0.2237
  197MPD1    C3 2996   2.712   1.389  17.355  0.2074 -0.0302 -0.2048
  197MPD1    C4 2997   2.820   1.481  17.388 -1.3496 -0.0255  0.6807
  197MPD1    C5 2998   2.937   1.418  17.438 -0.0057 -0.8191  0.3236
  197MPD1     H 2999   2.646   1.176  17.344  1.0480  0.1903 -0.4163
  197MPD1    H1 3000   2.833   1.586  17.363  1.3273 -0.5439 -0.0795
  197MPD1    H2 3001   3.029   1.246  17.515  1.1439  1.1917 -1.4747
  197MPD1    H3 3002   3.026   1.478  17.448 -0.7683  0.8379 -2.9847
  197MPD1     N 3003   2.614   1.453  17.276 -0.6838 -0.0285  0.8341
  197MPD1    H5 3004   2.629   1.549  17.244 -0.7474 -0.3283 -0.1086
  197MPD1    N1 3005   2.834   1.065  17.464  0.1784 -0.0903  0.1291
  197MPD1    H6 3006   2.748   1.015  17.484 -0.7553  1.6559  0.4289
  197MPD1    H7 3007   2.897   1.039  17.539  0.4830  0.9077  0.2135
  198MPD1     C 3008   4.541   4.482  15.783  1.2197  0.8839 -0.4390
  198MPD1    C1 3009   4.588   4.590  15.711 -0.3733 -0.1180 -0.4149
  198MPD1    C2 3010   4.690   4.662  15.774  0.5559 -0.3582  0.2816
  198MPD1    C3 3011   0.008   4.639  15.904  0.1377  0.2011 -0.3069
  198MPD1    C4 3012   4.674   4.533  15.972  0.5569  0.4437  0.0955
  198MPD1    C5 3013   4.595   4.450  15.907 -0.0614 -0.6448  0.0094
  198MPD1     H 3014   4.717   0.033  15.724  0.0450  0.2636  1.1570
  198MPD1    H1 3015   4.697   4.513  16.075  1.7523  0.5952 -0.1379
  198MPD1    H2 3016   4.464   4.414  15.750  0.2371  1.4187  0.7536
  198MPD1    H3 3017   4.549   4.369  15.964 -0.9106  0.6969  1.2359
  198MPD1     N 3018   0.083   0.016  15.977 -0.0931  0.4246 -0.0238
  198MPD1    H5 3019   0.136   0.084  15.924 -0.5743 -0.4597 -1.6319
  198MPD1    N1 3020   4.520   4.633  15.598  0.5660 -0.4399 -0.3573
  198MPD1    H6 3021   4.496   4.552  15.541 -1.3623 -1.2778  1.6099
  198MPD1    H7 3022   4.572   4.701  15.544 -0.5138  2.3186  2.1056
  199MPD1     C 3023   0.248   1.978   9.817  0.2578 -1.0727  0.1400
  199MPD1    C1 3024   0.166   1.869   9.795 -0.0092 -0.2450  0.5263
  199MPD1    C2 3025   0.150   1.811   9.672  0.5671 -0.2540 -0.4123
  199MPD1    C3 3026   0.214   1.869   9.569  0.0666 -0.0393  0.0498
  199MPD1    C4 3027   0.293   1.980   9.591 -0.3012 -0.0086 -0.5919
  199MPD1    C5 3028   0.311   2.037   9.716  0.0369  0.2316 -0.5235
  199MPD1     H 3029   0.084   1.729   9.647  2.0759 -1.2412 -1.1784
  199MPD1    H1 3030   0.355   2.007   9.506  0.1716 -0.4102 -0.3689
  199MPD1    H2 3031   0.266   2.017   9.917  1.4982  0.4236 -0.6678
  199MPD1    H3 3032   0.383   2.116   9.737  0.6836 -0.2737 -0.8144
  199MPD1     N 3033   0.208   1.824   9.436  0.5310  0.3046  0.1135
  199MPD1    H5 3034   0.263   1.874   9.367  0.9453 -0.1115  0.1372
  199MPD1    N1 3035   0.116   1.809   9.913 -0.1150 -0.4055  0.1154
  199MPD1    H6 3036   0.027   1.764   9.895 -0.5262  0.6716 -0.5036
  199MPD1    H7 3037   0.108   1.867   9.996  0.3464  1.2666 -1.0164
  200MPD1     C 3038   0.544   1.373  14.415  0.0125  0.2213  0.2999
  200MPD1    C1 3039   0.570   1.381  14.275  0.0806  0.5942  0.0478
  200MPD1    C2 3040   0.617   1.504  14.225  0.1666  0.5865  0.0623
  200MPD1    C3 3041   0.632   1.613  14.309  0.1347  0.0048 -0.2929
  200MPD1    C4 3042   0.617   1.597  14.446 -0.3270  0.8842  0.5397
  200MPD1    C5 3043   0.577   1.478  14.497 -0.6734 -0.2402 -0.5247
  200MPD1     H 3044   0.650   1.516  14.122  1.1514 -2.6406  0.0092
  200MPD1    H1 3045   0.645   1.669  14.522  4.0103  0.0125 -0.2343
  200MPD1    H2 3046   0.518   1.282  14.467 -1.5264  0.1949 -0.5068
  200MPD1    H3 3047   0.562   1.472  14.604 -1.6574  3.1491 -0.4880
  200MPD1     N 3048   0.674   1.732  14.251  0.5357  0.2163 -0.5898
  200MPD1    H5 3049   0.700   1.725  14.153  2.0837 -1.2219 -0.0842
  200MPD1    N1 3050   0.554   1.268  14.196 -0.0361 -0.3968  0.5339
  200MPD1    H6 3051   0.481   1.204  14.228 -1.9392  1.2991 -0.3640
  200MPD1    H7 3052   0.536   1.297  14.100 -2.1812 -3.1179  0.1403
  201MPD1     C 3053   3.172   0.789  12.552  0.1728 -0.0991 -0.8305
  201MPD1    C1 3054   3.240   0.734  12.446 -0.6333  0.9364  0.1643
  201MPD1    C2 3055   3.352   0.661  12.481  0.4028 -0.0516  0.3192
  201MPD1    C3 3056   3.403   0.651  12.611  0.1696 -0.7118  0.2456
  201MPD1    C4 3057   3.350   0.730  12.709 -0.2756  0.1608 -0.2656
  201MPD1    C5 3058   3.231   0.787  12.676  0.3796  0.0529  0.4894
  201MPD1     H 3059   3.411   0.608  12.407  1.3010 -0.0733  1.0458
  201MPD1    H1 3060   3.386   0.733  12.811 -0.0634  2.7671 -0.4250
  201MPD1    H2 3061   3.071   0.827  12.539  0.8150  2.0708  0.4557
  201MPD1    H3 3062   3.171   0.824  12.757  2.9072  0.2936  2.2559
  201MPD1     N 3063   3.493   0.544  12.641 -0.2575 -0.2645 -0.9806
  201MPD1    H5 3064   3.526   0.487  12.563 -1.9386  1.0577 -2.6402
  201MPD1    N1 3065   3.183   0.737  12.315 -0.2771  0.0755 -0.1956
  201MPD1    H6 3066   3.252   0.711  12.245  0.0643  1.2649 -0.2981
  201MPD1    H7 3067   3.126   0.815  12.282  0.1813  0.1271 -0.8620
  202MPD1     C 3068   3.282   4.184   8.567  0.1386  0.6515  1.0308
  202MPD1    C1 3069   3.195   4.286   8.593  0.1447  0.5233 -0.1416
  202MPD1    C2 3070   3.188   4.319   8.729  0.1991  0.0956  0.1171
  202MPD1    C3 3071   3.220   4.227   8.823  0.2079 -0.4211 -0.0547
  202MPD1    C4 3072   3.297   4.112   8.788  0.1687 -0.7853  0.4837
  202MPD1    C5 3073   3.333   4.095   8.659 -0.5331  0.2493 -0.0586
  202MPD1     H 3074   3.116   4.399   8.739  1.4286  1.3095 -0.7132
  202MPD1    H1 3075   3.310   4.043   8.870  2.1372  1.7655  2.3167
  202MPD1    H2 3076   3.319   4.174   8.465 -1.0852  1.7123  0.4928
  202MPD1    H3 3077   3.400   4.017   8.626 -1.5696  0.6028 -3.0489
  202MPD1     N 3078   3.199   4.257   8.960 -0.7273 -0.3481  0.7549
  202MPD1    H5 3079   3.244   4.196   9.027 -0.0395  0.8982  1.4340
  202MPD1    N1 3080   3.180   4.381   8.497  0.0758  0.1417  0.1598
  202MPD1    H6 3081   3.161   4.343   8.404 -1.0980  0.2831  0.3520
  202MPD1    H7 3082   3.095   4.433   8.517 -0.7308 -1.5412  1.0062
  203MPD1     C 3083   0.577   0.364  11.583 -0.3120  0.1596  0.0996
  203MPD1    C1 3084   0.659   0.266  11.533 -0.3524 -0.5029  0.9198
  203MPD1    C2 3085   0.770   0.231  11.606 -0.2449 -0.5121  0.4133
  203MPD1    C3 3086   0.820   0.307  11.712  0.4205  0.9240  0.2190
  203MPD1    C4 3087   0.737   0.411  11.755  1.0061  0.1351  0.4701
  203MPD1    C5 3088   0.616   0.433  11.689  0.1866  0.2872  0.3808
  203MPD1     H 3089   0.829   0.146  11.574  2.0939  1.0129  0.6620
  203MPD1    H1 3090   0.754   0.474  11.841  1.7698 -0.7760  0.9848
  203MPD1    H2 3091   0.481   0.379  11.535 -1.3876 -0.2810  2.1235
  203MPD1    H3 3092   0.543   0.505  11.723  0.3794 -0.6065  2.6872
  203MPD1     N 3093   0.943   0.273  11.773  0.0411 -0.2413 -0.1442
  203MPD1    H5 3094   0.986   0.184  11.750  0.0018 -0.2704 -0.1042
  203MPD1    N1 3095   0.610   0.176  11.438  0.0284 -0.2764  0.4034
  203MPD1    H6 3096   0.682   0.130  11.383 -1.8183 -0.4489 -1.8838
  203MPD1    H7 3097   0.543   0.217  11.374  0.3893  1.4079  1.1268
  204MPD1     C 3098   0.736   1.340   0.129 -0.1266  0.3193 -0.0822
  204MPD1    C1 3099   0.871   1.358   0.127  0.5391  0.2581 -0.0652
  204MPD1    C2 3100   0.944   1.345   0.007 -0.0435 -0.3929  0.1639
  204MPD1    C3 3101   0.873   1.329  17.580 -0.0209  0.3610 -1.0692
  204MPD1    C4 3102   0.731   1.325  17.589 -0.5118  0.2957  0.2045
  204MPD1    C5 3103   0.660   1.326   0.020 -0.1535  0.4299 -0.9385
  204MPD1     H 3104   1.052   1.358   0.006 -0.3740  2.2405 -1.6232
  204MPD1    H1 3105   0.664   1.318  17.504 -3.2084 -0.3498  2.3827
  204MPD1    H2 3106   0.690   1.340   0.227 -1.2992 -2.8834 -0.6309
  204MPD1    H3 3107   0.551   1.324   0.028 -0.1805  0.9947 -1.1019
  204MPD1     N 3108   0.935   1.316  17.453  0.4836 -0.3831  0.5488
  204MPD1    H5 3109   1.035   1.333  17.459  0.0463  1.9856  1.1816
  204MPD1    N1 3110   0.944   1.365   0.249 -0.6199  0.1136 -0.5328
  204MPD1    H6 3111   0.897   1.427   0.315  0.4901 -0.0994  0.4606
  204MPD1    H7 3112   1.028   1.417   0.226  0.0153 -1.6513 -2.1891
  205MPD1     C 3113   2.316   0.705  16.387 -0.3063  0.5172 -0.2664
  205MPD1    C1 3114   2.195   0.768  16.406 -0.4328 -0.0227 -0.0770
  205MPD1    C2 3115   2.120   0.718  16.511 -0.1853  0.7029  0.0167
  205MPD1    C3 3116   2.163   0.624  16.598  0.1046  0.0125  0.6320
  205MPD1    C4 3117   2.284   0.565  16.586  0.5651 -0.4287  0.8057
  205MPD1    C5 3118   2.362   0.607  16.480  0.3565 -0.7126  0.2915
  205MPD1     H 3119   2.018   0.754  16.520 -0.3120  0.7942 -1.7121
  205MPD1    H1 3120   2.320   0.493  16.659  3.3521  0.8233  0.6905
  205MPD1    H2 3121   2.383   0.743  16.311 -0.6766 -0.0872 -0.9020
  205MPD1    H3 3122   2.464   0.571  16.476  0.0849 -1.5301  0.9004
  205MPD1     N 3123   2.080   0.567  16.702 -0.0781 -0.5693 -0.0873
  205MPD1    H5 3124   2.129   0.501  16.762  0.8570  0.6953  0.5402
  205MPD1    N1 3125   2.131   0.863  16.313  0.0264  1.0008  0.0103
  205MPD1    H6 3126   2.059   0.914  16.364 -0.3920  1.4808 -1.0407
  205MPD1    H7 3127   2.196   0.925  16.264 -2.1677  1.8503 -1.8566
  206MPD1     C 3128   1.379   3.516  16.130 -0.7095 -0.3901  0.1632
  206MPD1    C1 3129   1.458   3.471  16.026 -0.4126  0.4361 -0.4044
  206MPD1    C2 3130   1.411   3.443  15.899  0.2893  0.4905 -0.1656
  206MPD1    C3 3131   1.273   3.440  15.887  0.3408 -0.8394 -0.1906
  206MPD1    C4 3132   1.189   3.464  15.991 -0.3550 -0.3707 -0.2505
  206MPD1    C5 3133   1.241   3.507  16.110  0.4751  0.5736  0.0139
  206MPD1     H 3134   1.476   3.411  15.819 -0.4161 -0.0662 -0.5212
  206MPD1    H1 3135   1.083   3.442  15.990 -0.5211  0.5143 -1.6344
  206MPD1    H2 3136   1.424   3.544  16.224  0.2341  0.2961 -0.4940
  206MPD1    H3 3137   1.178   3.527  16.196 -1.9101  1.1076 -1.8437
  206MPD1     N 3138   1.208   3.388  15.778 -0.2188  0.1496  0.5660
  206MPD1    H5 3139   1.107   3.397  15.780 -0.3024 -0.4825 -0.9018
  206MPD1    N1 3140   1.599   3.472  16.040  0.6883 -0.1545 -0.7828
  206MPD1    H6 3141   1.626   3.467  16.138  1.8278 -0.8835 -1.1284
  206MPD1    H7 3142   1.645   3.396  15.990  1.0595  0.0678 -0.7821
  207MPD1     C 3143   3.166   0.655   9.312 -0.2351 -0.8239  0.2184
  207MPD1    C1 3144   3.267   0.741   9.265 -0.8366 -0.7193  0.0562
  207MPD1    C2 3145   3.331   0.816   9.360 -1.0025 -0.0868 -0.0625
  207MPD1    C3 3146   3.314   0.791   9.494  0.0611 -0.1694 -0.1355
  207MPD1    C4 3147   3.215   0.711   9.542  0.4564 -0.2814 -0.5483
  207MPD1    C5 3148   3.146   0.633   9.446  0.0755  0.3087  0.2870
  207MPD1     H 3149   3.386   0.905   9.330 -0.5456  0.1515  1.4926
  207MPD1    H1 3150   3.214   0.693   9.649 -1.0557  1.9849 -0.1672
  207MPD1    H2 3151   3.106   0.605   9.237 -0.5281 -1.8927  1.1687
  207MPD1    H3 3152   3.079   0.552   9.474  0.5535 -0.0716  0.3367
  207MPD1     N 3153   3.393   0.846   9.597  0.1158 -0.6597 -0.5615
  207MPD1    H5 3154   3.359   0.822   9.690 -0.6078 -0.5681 -0.8056
  207MPD1    N1 3155   3.260   0.775   9.129 -0.4697  0.1988  0.7785
  207MPD1    H6 3156   3.241   0.690   9.077 -0.7692 -0.6892  2.3267
  207MPD1    H7 3157   3.346   0.815   9.092 -0.8603 -0.2240 -0.5876
  208MPD1     C 3158   2.427   4.531  17.617 -0.0901  0.4305 -0.1515
  208MPD1    C1 3159   2.327   4.585   0.007  0.2398  0.3427  0.2143
  208MPD1    C2 3160   2.205   4.520   0.016 -0.5333 -0.1936  0.2505
  208MPD1    C3 3161   2.178   4.409  17.628  0.0118 -0.5071 -0.1272
  208MPD1    C4 3162   2.282   4.355  17.558  0.4460  0.0018  0.5921
  208MPD1    C5 3163   2.405   4.411  17.555 -0.5371  0.1682  0.1226
  208MPD1     H 3164   2.125   4.571   0.069  0.9472  3.0945 -0.6734
  208MPD1    H1 3165   2.275   4.257  17.512  1.7970  0.3047 -0.2442
  208MPD1    H2 3166   2.524   4.577  17.601  0.0282 -1.5525 -5.0598
  208MPD1    H3 3167   2.487   4.371  17.498  1.1763  1.2750  1.8124
  208MPD1     N 3168   2.048   4.361  17.630 -0.1166  0.1116 -0.6185
  208MPD1    H5 3169   1.984   4.414  17.688  2.7101  0.5586  2.1013
  208MPD1    N1 3170   2.357   4.689   0.090 -0.1349  0.1549 -0.0513
  208MPD1    H6 3171   2.298   4.692   0.172  1.1642 -1.0826  0.9168
  208MPD1    H7 3172   2.455   4.699   0.118  0.5332  0.4860 -2.4739
  209MPD1     C 3173   3.438   0.145  11.042  0.3680  0.1512  0.3748
  209MPD1    C1 3174   3.386   0.240  10.957 -0.2476  0.5905  0.1764
  209MPD1    C2 3175   3.470   0.334  10.904 -0.1070  0.6345  0.7715
  209MPD1    C3 3176   3.603   0.340  10.937 -0.2272 -0.6503  0.4084
  209MPD1    C4 3177   3.651   0.245  11.023 -0.4176 -0.3235  0.1641
  209MPD1    C5 3178   3.571   0.156  11.081 -0.7911  0.1572 -0.1124
  209MPD1     H 3179   3.437   0.416  10.841 -0.4653 -0.9166 -1.0736
  209MPD1    H1 3180   3.758   0.239  11.040 -0.4879 -0.0669  0.6976
  209MPD1    H2 3181   3.393   0.053  11.077 -1.1108  0.5437 -0.4831
  209MPD1    H3 3182   3.616   0.077  11.139 -1.3289  0.7908  1.1696
  209MPD1     N 3183   3.682   0.440  10.882 -0.3122  0.4831  0.2042
  209MPD1    H5 3184   3.638   0.489  10.805  3.2428  0.4840 -1.7880
  209MPD1    N1 3185   3.249   0.249  10.940  0.3396  0.3926  0.1498
  209MPD1    H6 3186   3.196   0.165  10.961  1.0412  0.0178  0.3879
  209MPD1    H7 3187   3.222   0.294  10.853 -0.5814 -0.5537 -0.0553
  210MPD1     C 3188   4.339   1.155  11.187 -0.0796 -0.4409 -0.7396
  210MPD1    C1 3189   4.363   1.146  11.051 -0.3126  0.0977  0.4458
  210MPD1    C2 3190   4.297   1.061  10.965  1.2330  0.6957  0.5381
  210MPD1    C3 3191   4.206   0.975  11.020  0.0887 -0.4734  0.6906
  210MPD1    C4 3192   4.178   0.985  11.158  0.2397 -0.3952 -0.0900
  210MPD1    C5 3193   4.243   1.077  11.239  0.1624  0.7717 -0.0400
  210MPD1     H 3194   4.317   1.065  10.859 -1.4456 -1.3304 -0.0204
  210MPD1    H1 3195   4.110   0.913  11.202 -2.9733  2.3066 -0.7223
  210MPD1    H2 3196   4.388   1.231  11.247  1.1548 -0.3513 -1.8473
  210MPD1    H3 3197   4.213   1.076  11.343 -3.4301  1.8291 -1.0476
  210MPD1     N 3198   4.137   0.873  10.950 -0.1704 -0.2838  0.2250
  210MPD1    H5 3199   4.080   0.813  11.008 -0.4256 -0.8073 -0.5565
  210MPD1    N1 3200   4.467   1.221  11.002 -0.7634 -0.4985 -0.0667
  210MPD1    H6 3201   4.483   1.310  11.048  1.8099 -1.8074  1.5845
  210MPD1    H7 3202   4.445   1.254  10.909  2.6781  0.0033 -0.6790
  211MPD1     C 3203   2.399   0.529  15.528 -0.2783 -0.1601  0.3991
  211MPD1    C1 3204   2.353   0.641  15.594  0.1617  0.6237  0.2398
  211MPD1    C2 3205   2.239   0.632  15.664 -0.4632  0.0734 -0.0951
  211MPD1    C3 3206   2.169   0.515  15.663 -0.7330 -0.2310  0.4011
  211MPD1    C4 3207   2.218   0.402  15.603  0.1242 -0.0189 -0.9726
  211MPD1    C5 3208   2.335   0.410  15.536 -0.5316  0.9510  0.7675
  211MPD1     H 3209   2.216   0.712  15.733 -0.0017 -0.3317  0.5315
  211MPD1    H1 3210   2.161   0.309  15.607 -2.8553  1.7719 -1.3039
  211MPD1    H2 3211   2.490   0.530  15.469 -0.2915  2.6425  0.3991
  211MPD1    H3 3212   2.375   0.332  15.471 -2.7852 -1.0613  1.7848
  211MPD1     N 3213   2.043   0.503  15.733 -0.3891 -0.1358 -0.6916
  211MPD1    H5 3214   2.002   0.411  15.742 -3.5725  1.2233 -1.3729
  211MPD1    N1 3215   2.442   0.750  15.614 -0.3276 -0.4557 -0.0513
  211MPD1    H6 3216   2.517   0.773  15.549  0.5402 -2.0477  0.3775
  211MPD1    H7 3217   2.401   0.838  15.645 -1.2780 -0.6399 -0.7965
  212MPD1     C 3218   1.210   3.208  16.303 -0.5938 -0.0922  0.2992
  212MPD1    C1 3219   1.153   3.279  16.406 -0.1949 -0.2015 -0.5697
  212MPD1    C2 3220   1.019   3.245  16.439 -0.1334  0.0779  0.6225
  212MPD1    C3 3221   0.945   3.159  16.357 -0.2255 -0.2051  0.3030
  212MPD1    C4 3222   1.007   3.098  16.246  0.0263 -0.1229  0.1247
  212MPD1    C5 3223   1.142   3.124  16.222 -0.3585 -0.1462 -0.5797
  212MPD1     H 3224   0.978   3.279  16.533 -0.2532  1.2633  0.1459
  212MPD1    H1 3225   0.958   3.026  16.182  0.4689 -1.0586  0.8355
  212MPD1    H2 3226   1.317   3.215  16.289 -0.2853 -1.9787  1.7416
  212MPD1    H3 3227   1.187   3.062  16.146  0.5702  0.8094 -0.8010
  212MPD1     N 3228   0.814   3.116  16.386 -0.0547  0.4361 -0.2196
  212MPD1    H5 3229   0.772   3.044  16.328  3.2965 -2.0890  0.5018
  212MPD1    N1 3230   1.226   3.352  16.499 -0.3757  0.4111 -0.0989
  212MPD1    H6 3231   1.164   3.412  16.552  0.0664 -0.4871  1.4453
  212MPD1    H7 3232   1.310   3.401  16.466 -1.1894  2.4183  0.8694
  213MPD1     C 3233   3.344   0.046  15.360  0.2874 -0.0458  0.5447
  213MPD1    C1 3234   3.245   4.682  15.313 -0.8909 -0.6580  0.8791
  213MPD1    C2 3235   3.281   4.592  15.219 -0.3964  0.6383  0.7049
  213MPD1    C3 3236   3.413   4.566  15.192 -0.3718 -0.0102 -0.7833
  213MPD1    C4 3237   3.510   4.636  15.256  0.0662 -0.0094 -0.6341
  213MPD1    C5 3238   3.472   0.021  15.339 -0.3234  0.0904 -0.0618
  213MPD1     H 3239   3.198   4.526  15.196  0.4818  0.0228 -0.6921
  213MPD1    H1 3240   3.616   4.636  15.235  0.3080 -1.0336  0.5956
  213MPD1    H2 3241   3.317   0.116  15.439  2.7673 -2.4337  3.5231
  213MPD1    H3 3242   3.549   0.089  15.373 -0.3290 -0.5931  1.2931
  213MPD1     N 3243   3.441   4.470  15.097  0.1253  0.3535  0.2471
  213MPD1    H5 3244   3.367   4.413  15.058  0.0750 -2.0043  3.7699
  213MPD1    N1 3245   3.115   0.007  15.307 -0.2974  0.6375  0.1542
  213MPD1    H6 3246   3.076   0.041  15.395 -1.2378 -2.6679  1.0252
  213MPD1    H7 3247   3.056   4.651  15.277  1.1536  0.3429 -1.9057
  214MPD1     C 3248   2.904   3.815  14.668 -0.0383  0.0373  0.4486
  214MPD1    C1 3249   2.895   3.924  14.756  0.2320  0.3694  0.3930
  214MPD1    C2 3250   3.011   3.984  14.794 -0.3057 -0.4507  0.1551
  214MPD1    C3 3251   3.132   3.950  14.739 -0.3730 -0.3079 -0.5651
  214MPD1    C4 3252   3.138   3.850  14.640 -0.0671 -0.0942 -0.5337
  214MPD1    C5 3253   3.026   3.777  14.613 -0.7308  0.8563  0.0982
  214MPD1     H 3254   3.016   4.071  14.859  0.9818  0.2504 -0.8738
  214MPD1    H1 3255   3.231   3.815  14.598  0.7209 -0.6350  1.6358
  214MPD1    H2 3256   2.815   3.761  14.642 -0.8333  1.3886  0.3657
  214MPD1    H3 3257   3.048   3.696  14.544  1.7962 -0.8667  2.9502
  214MPD1     N 3258   3.250   4.025  14.765  0.3000  0.8565  0.0120
  214MPD1    H5 3259   3.326   4.010  14.701 -1.1264 -0.0128 -1.4697
  214MPD1    N1 3260   2.771   3.949  14.821  0.3980 -0.0679 -0.0266
  214MPD1    H6 3261   2.776   3.896  14.908  0.7315 -1.1946 -0.7300
  214MPD1    H7 3262   2.687   3.918  14.771  0.0348 -2.6089  2.1554
  215MPD1     C 3263   2.692   0.005  10.779  0.1568 -0.4505 -0.0975
  215MPD1    C1 3264   2.669   0.092  10.882  0.6583  0.1620  0.4100
  215MPD1    C2 3265   2.733   0.214  10.888 -0.2539  0.9916 -0.2233
  215MPD1    C3 3266   2.832   0.245  10.800  0.2199 -0.4576 -0.2570
  215MPD1    C4 3267   2.862   0.154  10.699  0.3166 -0.2418  0.1904
  215MPD1    C5 3268   2.792   0.039  10.690 -0.1235 -0.0451  0.7997
  215MPD1     H 3269   2.701   0.285  10.963  1.4433  0.8688  0.6100
  215MPD1    H1 3270   2.949   0.176  10.638 -1.2864 -1.1612 -2.4095
  215MPD1    H2 3271   2.643   4.630  10.775 -0.3840 -0.2746  2.1395
  215MPD1    H3 3272   2.836   4.696  10.614 -0.5747  2.6001 -1.6742
  215MPD1     N 3273   2.896   0.369  10.827 -0.4133  0.3936  0.1623
  215MPD1    H5 3274   2.877   0.415  10.916 -2.7271 -1.8533  0.8402
  215MPD1    N1 3275   2.548   0.075  10.951 -0.2010  0.2423  0.4264
  215MPD1    H6 3276   2.512   4.704  10.972  0.7510 -0.2462 -0.0849
  215MPD1    H7 3277   2.548   0.122  11.041  0.2458 -0.6715  0.9013
  216MPD1     C 3278   1.818   2.852  16.409  0.1292 -0.5309 -0.5222
  216MPD1    C1 3279   1.821   2.818  16.540 -0.4501  0.5883  0.7374
  216MPD1    C2 3280   1.743   2.712  16.586 -0.2427 -0.1671  0.3372
  216MPD1    C3 3281   1.656   2.646  16.506 -0.4180 -0.0199  0.4858
  216MPD1    C4 3282   1.655   2.677  16.370 -0.2748  0.3266 -0.9830
  216MPD1    C5 3283   1.744   2.776  16.325 -0.0167 -0.6588 -0.0359
  216MPD1     H 3284   1.739   2.696  16.693 -1.1927 -2.8255 -0.0950
  216MPD1    H1 3285   1.593   2.617  16.304 -0.0384 -1.0727  0.0633
  216MPD1    H2 3286   1.885   2.925  16.366 -0.0809  0.1849  0.3700
  216MPD1    H3 3287   1.742   2.809  16.222  0.3857 -0.5816 -0.0170
  216MPD1     N 3288   1.570   2.549  16.560 -0.3084  0.2483 -0.1890
  216MPD1    H5 3289   1.578   2.530  16.659  1.7089  3.8157  0.3490
  216MPD1    N1 3290   1.909   2.887  16.627  0.0070 -0.9475  0.0202
  216MPD1    H6 3291   1.886   2.884  16.726  0.2741 -0.3141  0.1020
  216MPD1    H7 3292   1.917   2.986  16.605  0.9970 -1.0324  0.0183
  217MPD1     C 3293   2.372   0.586   8.656 -0.9890 -0.1277 -0.1371
  217MPD1    C1 3294   2.237   0.624   8.666 -0.0296 -0.2489 -0.3481
  217MPD1    C2 3295   2.147   0.532   8.715 -0.0108 -0.8526  0.3690
  217MPD1    C3 3296   2.190   0.407   8.749  0.0489  0.6947 -0.3048
  217MPD1    C4 3297   2.321   0.368   8.722 -0.1072  0.4196 -0.5353
  217MPD1    C5 3298   2.414   0.461   8.670  0.9764  0.1212 -0.4253
  217MPD1     H 3299   2.041   0.556   8.717  0.4868  1.4810 -2.6269
  217MPD1    H1 3300   2.352   0.265   8.730 -0.6154  0.1984 -1.4920
  217MPD1    H2 3301   2.435   0.660   8.608  2.3282 -1.6851  1.8470
  217MPD1    H3 3302   2.518   0.445   8.645  1.3194 -0.4894  1.4209
  217MPD1     N 3303   2.104   0.314   8.814 -0.0729 -0.3142  0.0103
  217MPD1    H5 3304   2.133   0.218   8.832  0.7233 -0.1116 -0.1869
  217MPD1    N1 3305   2.200   0.752   8.636 -0.0156  0.0931  0.1275
  217MPD1    H6 3306   2.121   0.760   8.573 -0.4907  0.3300  0.7601
  217MPD1    H7 3307   2.274   0.819   8.615 -0.8217  1.0192  0.2440
  218MPD1     C 3308   3.513   0.475  11.802  0.1284 -0.4305 -0.1131
  218MPD1    C1 3309   3.598   0.388  11.870  0.0117 -0.5445 -0.2145
  218MPD1    C2 3310   3.694   0.458  11.948  0.1720 -0.0029  0.3395
  218MPD1    C3 3311   3.716   0.594  11.943 -0.1361  0.0351  0.2197
  218MPD1    C4 3312   3.626   0.669  11.871  0.0216 -0.0230  0.0329
  218MPD1    C5 3313   3.530   0.611  11.794  1.0230  0.5333  0.0009
  218MPD1     H 3314   3.761   0.401  12.012 -1.9147 -2.3528  0.4158
  218MPD1    H1 3315   3.623   0.776  11.856  0.0451 -0.0104  0.1232
  218MPD1    H2 3316   3.433   0.439  11.739 -0.0346 -0.9593  0.3935
  218MPD1    H3 3317   3.459   0.672  11.739  1.5077 -0.3184 -1.5762
  218MPD1     N 3318   3.826   0.647  12.017  0.5421 -0.4330  0.7081
  218MPD1    H5 3319   3.868   0.581  12.082 -0.4661 -1.1789  0.5970
  218MPD1    N1 3320   3.571   0.250  11.885 -0.4183  0.0921  0.7546
  218MPD1    H6 3321   3.662   0.207  11.890  0.1008  1.0617 -0.3181
  218MPD1    H7 3322   3.515   0.206  11.812 -0.7452  0.7371  0.6087
  219MPD1     C 3323   4.475   1.300  11.652 -0.7951 -0.5985 -0.2770
  219MPD1    C1 3324   4.547   1.244  11.752  0.4992  0.4388 -0.0444
  219MPD1    C2 3325   4.480   1.152  11.831  0.3261 -0.4379  0.4760
  219MPD1    C3 3326   4.358   1.109  11.804 -0.5396  0.4157  0.2531
  219MPD1    C4 3327   4.290   1.159  11.693 -0.2586  0.2839  0.4761
  219MPD1    C5 3328   4.348   1.263  11.617  0.2382  0.1397  0.5401
  219MPD1     H 3329   4.527   1.132  11.926  1.0540 -1.6518 -0.1361
  219MPD1    H1 3330   4.191   1.122  11.668 -1.1332  1.5990  1.9734
  219MPD1    H2 3331   4.513   1.375  11.584  1.3120 -2.0567 -0.6999
  219MPD1    H3 3332   4.301   1.317  11.536  1.3057  1.4684  0.7989
  219MPD1     N 3333   4.282   1.023  11.880 -0.4676 -0.4787 -0.4757
  219MPD1    H5 3334   4.189   0.996  11.848  0.3480 -1.1979 -2.2344
  219MPD1    N1 3335   4.665   1.301  11.809  0.3392  0.4272  0.0232
  219MPD1    H6 3336   0.007   1.244  11.864  0.1008  0.6516  0.5347
  219MPD1    H7 3337   4.716   1.344  11.733  0.9454  1.1162  0.8197
  220MPD1     C 3338   2.989   1.531   9.366 -0.0446 -0.2571  0.0904
  220MPD1    C1 3339   3.068   1.513   9.477 -0.1716 -0.4061  0.2464
  220MPD1    C2 3340   3.080   1.383   9.524 -0.2173 -0.6001  0.5249
  220MPD1    C3 3341   3.020   1.273   9.462 -0.0253  0.2240 -0.0988
  220MPD1    C4 3342   2.948   1.291   9.348  0.2920 -0.1011  0.2698
  220MPD1    C5 3343   2.925   1.421   9.308  0.4666  0.4937 -0.6715
  220MPD1     H 3344   3.148   1.357   9.604  1.1296 -2.2528 -1.1625
  220MPD1    H1 3345   2.890   1.211   9.302 -0.6975  0.2317  0.9210
  220MPD1    H2 3346   2.978   1.626   9.315 -3.3402  0.6864  2.5133
  220MPD1    H3 3347   2.853   1.431   9.228 -0.9339  1.7530  0.7629
  220MPD1     N 3348   3.035   1.145   9.528 -0.5774  0.4760  0.7518
  220MPD1    H5 3349   3.063   1.153   9.625  0.0810 -1.3711  0.7215
  220MPD1    N1 3350   3.113   1.616   9.560  0.2992 -0.0707  0.2799
  220MPD1    H6 3351   3.151   1.690   9.501 -1.8340  1.7802  1.2196
  220MPD1    H7 3352   3.190   1.591   9.622  0.6770 -0.1765 -0.2347
  221MPD1     C 3353   1.116   4.075  16.688 -0.4822 -1.0728 -0.7740
  221MPD1    C1 3354   1.022   4.048  16.587  0.4430  0.3704  0.7509
  221MPD1    C2 3355   1.063   3.988  16.473 -0.4949  0.0017  0.4390
  221MPD1    C3 3356   1.193   3.978  16.443 -0.4729 -0.3461  0.3445
  221MPD1    C4 3357   1.282   4.008  16.541  0.0366 -0.1647 -0.4228
  221MPD1    C5 3358   1.245   4.047  16.665 -0.1922 -0.5575  0.5866
  221MPD1     H 3359   0.992   3.942  16.405 -0.5584  0.0904  0.4455
  221MPD1    H1 3360   1.388   4.011  16.520  0.0780 -2.0990 -0.5064
  221MPD1    H2 3361   1.082   4.113  16.783 -0.2710 -0.0676 -1.1025
  221MPD1    H3 3362   1.328   4.073  16.730  0.0766 -2.5222  1.0410
  221MPD1     N 3363   1.234   3.926  16.314  0.1943  0.1033  0.2879
  221MPD1    H5 3364   1.333   3.926  16.291 -0.8199  0.7714 -4.0521
  221MPD1    N1 3365   0.883   4.055  16.619 -0.2308 -0.2837  0.0939
  221MPD1    H6 3366   0.864   4.132  16.682  0.6416 -1.4831  1.8289
  221MPD1    H7 3367   0.830   4.068  16.533 -0.0185  0.7275  0.1117
  222MPD1     C 3368   1.752   3.185  17.023 -0.2297  0.5821 -0.1776
  222MPD1    C1 3369   1.674   3.285  17.067 -0.2250 -0.3664  0.7292
  222MPD1    C2 3370   1.543   3.297  17.027  0.5942  0.5976  0.2865
  222MPD1    C3 3371   1.501   3.202  16.936  0.6354  0.0994  0.9254
  222MPD1    C4 3372   1.577   3.097  16.899  0.4364 -0.8206 -0.7216
  222MPD1    C5 3373   1.704   3.088  16.939 -0.2357 -0.6074 -0.5037
  222MPD1     H 3374   1.477   3.374  17.065  0.0292  0.6873 -0.8745
  222MPD1    H1 3375   1.545   3.027  16.823 -2.2740 -0.0456 -0.2694
  222MPD1    H2 3376   1.857   3.187  17.047  0.2984  1.5122 -2.6165
  222MPD1    H3 3377   1.765   3.008  16.899 -0.4526  0.5306 -3.1558
  222MPD1     N 3378   1.369   3.203  16.881  0.7467 -0.1866  0.0648
  222MPD1    H5 3379   1.348   3.138  16.806  0.0672  0.8343 -0.6260
  222MPD1    N1 3380   1.723   3.342  17.183  0.0831  0.4230 -0.2504
  222MPD1    H6 3381   1.706   3.441  17.197  2.1626  1.0523 -2.3701
  222MPD1    H7 3382   1.825   3.337  17.187  0.0889  0.1140 -0.9090
  223MPD1     C 3383   1.035   2.585  16.434  0.1184 -0.5274  0.7849
  223MPD1    C1 3384   1.112   2.687  16.394  0.0505  0.2140 -0.0561
  223MPD1    C2 3385   1.103   2.806  16.467 -0.1714 -0.2762 -0.3434
  223MPD1    C3 3386   1.025   2.815  16.576  0.2405  0.0031  0.2871
  223MPD1    C4 3387   0.946   2.707  16.613 -0.2272 -0.0222  0.2246
  223MPD1    C5 3388   0.947   2.593  16.531 -0.6140  0.3394  0.1884
  223MPD1     H 3389   1.157   2.895  16.436 -0.6026  0.7655  1.8611
  223MPD1    H1 3390   0.896   2.723  16.707 -0.9358 -2.2454  0.2360
  223MPD1    H2 3391   1.030   2.495  16.373  0.6769 -0.5179  0.7262
  223MPD1    H3 3392   0.880   2.510  16.553 -0.3384  0.2306  0.6234
  223MPD1     N 3393   1.025   2.938  16.648 -0.1075  0.5873  0.2431
  223MPD1    H5 3394   1.104   3.001  16.635  0.9013 -0.8857 -0.7450
  223MPD1    N1 3395   1.177   2.680  16.273 -0.1014  0.0513 -0.4837
  223MPD1    H6 3396   1.206   2.586  16.245  0.5395  0.6386 -1.7819
  223MPD1    H7 3397   1.242   2.757  16.259 -1.0232  0.7121 -1.1493
  224MPD1     C 3398   2.582   0.991   8.738  0.2714  0.1498 -0.0144
  224MPD1    C1 3399   2.664   0.883   8.735 -0.1672  0.4055  0.5317
  224MPD1    C2 3400   2.613   0.771   8.804 -0.2059 -0.6152  0.4695
  224MPD1    C3 3401   2.503   0.767   8.884  0.3406  0.0656  0.3132
  224MPD1    C4 3402   2.423   0.880   8.879 -0.3471 -0.1306  0.4997
  224MPD1    C5 3403   2.464   0.985   8.807 -0.3323 -0.5968  0.4031
  224MPD1     H 3404   2.692   0.696   8.804  2.4605  2.1884  1.1528
  224MPD1    H1 3405   2.326   0.890   8.926 -0.9882  0.9974 -1.0864
  224MPD1    H2 3406   2.604   1.075   8.673  1.7962 -0.3980 -0.2151
  224MPD1    H3 3407   2.400   1.072   8.811 -0.8732 -0.9796  0.0562
  224MPD1     N 3408   2.463   0.652   8.949  0.1021 -0.1324 -0.0346
  224MPD1    H5 3409   2.370   0.659   8.990 -0.0181 -0.7253 -0.2099
  224MPD1    N1 3410   2.774   0.884   8.647  0.3171 -0.1707 -0.2314
  224MPD1    H6 3411   2.849   0.826   8.685  0.3061 -2.0034 -2.9630
  224MPD1    H7 3412   2.819   0.974   8.633  0.6899 -0.1816  0.8916
  225MPD1     C 3413   3.356   1.204  11.887 -1.0990  0.7083  0.0444
  225MPD1    C1 3414   3.306   1.148  11.771 -0.5274  0.4462 -1.0065
  225MPD1    C2 3415   3.167   1.140  11.752 -0.2504  0.0827  0.0302
  225MPD1    C3 3416   3.077   1.179  11.857 -0.9531  0.4910  0.5032
  225MPD1    C4 3417   3.129   1.224  11.974  0.2578 -0.0816  0.7045
  225MPD1    C5 3418   3.264   1.236  11.987  0.7751 -0.0993 -0.2440
  225MPD1     H 3419   3.133   1.096  11.659 -0.1445 -1.7282  0.8515
  225MPD1    H1 3420   3.076   1.260  12.062 -0.7655 -0.1001  0.0929
  225MPD1    H2 3421   3.461   1.230  11.900 -0.6390 -1.1632  0.0641
  225MPD1    H3 3422   3.302   1.267  12.083  1.5488 -2.3509  0.1855
  225MPD1     N 3423   2.936   1.179  11.838  0.2361  0.7378 -0.1860
  225MPD1    H5 3424   2.891   1.224  11.918  1.2245  0.2360  0.6596
  225MPD1    N1 3425   3.391   1.130  11.664 -0.0020  0.3320  0.1940
  225MPD1    H6 3426   3.485   1.100  11.690  2.3678  3.9347 -4.2159
  225MPD1    H7 3427   3.351   1.054  11.611 -0.4654  0.4173  0.4207
  226MPD1     C 3428   2.047   2.388   8.776  0.2837 -0.2048 -0.5810
  226MPD1    C1 3429   2.016   2.257   8.750  0.2005 -0.6596  0.0467
  226MPD1    C2 3430   2.089   2.159   8.822 -0.8105  0.0351  0.3646
  226MPD1    C3 3431   2.190   2.183   8.918  0.3764 -0.5812 -0.0080
  226MPD1    C4 3432   2.213   2.317   8.945  0.3308 -0.2822 -0.1729
  226MPD1    C5 3433   2.146   2.415   8.870 -0.3874 -0.0808  0.7552
  226MPD1     H 3434   2.069   2.057   8.792 -2.2054  0.2273  0.6789
  226MPD1    H1 3435   2.290   2.340   9.018 -0.2578 -0.6194  0.5610
  226MPD1    H2 3436   1.986   2.465   8.731  0.7586  1.1738  1.1392
  226MPD1    H3 3437   2.167   2.519   8.893  1.0078 -0.0340 -0.7117
  226MPD1     N 3438   2.273   2.086   8.986 -0.4015 -0.0257  0.4962
  226MPD1    H5 3439   2.340   2.116   9.056 -0.8917  1.1129  0.4784
  226MPD1    N1 3440   1.915   2.229   8.652  0.0294 -0.9452 -0.7300
  226MPD1    H6 3441   1.884   2.314   8.606  1.9324 -0.1012 -0.4640
  226MPD1    H7 3442   1.933   2.156   8.583  3.6695 -0.4302 -0.3599
  227MPD1     C 3443   3.098   2.191   9.090 -0.4590 -0.1111  0.0964
  227MPD1    C1 3444   2.999   2.238   9.009  0.4898  0.0918  0.3614
  227MPD1    C2 3445   2.884   2.163   8.999  0.1738 -0.1263  1.1075
  227MPD1    C3 3446   2.864   2.055   9.077  0.1820 -0.1725  0.5737
  227MPD1    C4 3447   2.957   2.015   9.172  0.5916  0.0044 -1.3093
  227MPD1    C5 3448   3.074   2.076   9.171  0.2846 -0.2968 -0.6002
  227MPD1     H 3449   2.805   2.194   8.932  1.1156 -1.3564 -0.5739
  227MPD1    H1 3450   2.937   1.939   9.246 -0.0490  0.1350 -1.3474
  227MPD1    H2 3451   3.193   2.241   9.106 -0.6321  0.5041 -0.7735
  227MPD1    H3 3452   3.157   2.055   9.238 -0.8314  2.3157  1.6209
  227MPD1     N 3453   2.742   1.989   9.060 -0.2786 -0.3963 -0.0782
  227MPD1    H5 3454   2.677   2.033   8.996 -0.8572 -1.3254 -0.1339
  227MPD1    N1 3455   3.030   2.329   8.901  0.0687 -0.1278  0.0042
  227MPD1    H6 3456   2.947   2.378   8.869  0.6807  0.3665 -0.8289
  227MPD1    H7 3457   3.097   2.402   8.925 -0.8484  0.2049  1.5455
  228MPD1     C 3458   0.101   3.918  12.583 -0.5996 -0.1976  0.0120
  228MPD1    C1 3459   4.701   3.932  12.505 -0.8709 -0.0843  0.1603
  228MPD1    C2 3460   4.577   3.902  12.563  0.2400  0.7150  0.0073
  228MPD1    C3 3461   4.576   3.849  12.694 -0.4607  0.4849 -0.0139
  228MPD1    C4 3462   4.694   3.830  12.762  0.2208 -0.2142 -0.1587
  228MPD1    C5 3463   0.092   3.865  12.708  0.1851 -0.4980  0.6315
  228MPD1     H 3464   4.482   3.920  12.515  0.6967 -0.6297 -1.3927
  228MPD1    H1 3465   4.690   3.809  12.869  2.1911 -0.4887 -0.1419
  228MPD1    H2 3466   0.198   3.948  12.545 -0.2052  1.5558  2.4285
  228MPD1    H3 3467   0.184   3.860  12.766  1.0647 -0.6179 -0.7905
  228MPD1     N 3468   4.445   3.824  12.748  0.3624  0.0693  0.2683
  228MPD1    H5 3469   4.362   3.858  12.701  1.2015  1.6081 -0.1230
  228MPD1    N1 3470   4.706   4.011  12.388  0.2400  0.1277  0.4548
  228MPD1    H6 3471   0.073   4.003  12.338 -0.1085  0.4274 -0.2134
  228MPD1    H7 3472   4.636   3.983  12.319  2.1767  2.1885 -2.3418
  229MPD1     C 3473   4.445   2.881  13.494 -0.1986  0.5522 -0.2806
  229MPD1    C1 3474   4.327   2.843  13.559  0.5100 -0.4660  0.0670
  229MPD1    C2 3475   4.339   2.737  13.647 -0.9404  0.0235 -0.2142
  229MPD1    C3 3476   4.460   2.706  13.701 -1.0345 -0.0426  0.2627
  229MPD1    C4 3477   4.574   2.768  13.648  0.4154  0.2311 -0.3854
  229MPD1    C5 3478   4.566   2.853  13.550 -0.7490 -0.4086 -0.2755
  229MPD1     H 3479   4.249   2.698  13.692  0.2880 -1.9081  0.5859
  229MPD1    H1 3480   4.672   2.741  13.688  0.1880 -1.4374 -0.9715
  229MPD1    H2 3481   4.440   2.942  13.405 -0.7146 -0.3854 -0.8948
  229MPD1    H3 3482   4.656   2.892  13.503 -1.1243 -0.2833 -0.8924
  229MPD1     N 3483   4.477   2.611  13.799  0.1255 -0.4289 -0.6712
  229MPD1    H5 3484   4.574   2.589  13.822 -0.6308 -0.6845  2.2687
  229MPD1    N1 3485   4.205   2.882  13.495 -0.0824 -0.5413  0.2303
  229MPD1    H6 3486   4.134   2.851  13.561 -0.0939 -1.3844 -0.1869
  229MPD1    H7 3487   4.191   2.983  13.487  0.2603 -0.3577  1.9166
  230MPD1     C 3488   4.151   2.064  14.711 -0.2445 -0.3599 -0.5678
  230MPD1    C1 3489   4.280   2.037  14.680 -0.5626  0.0634  0.7564
  230MPD1    C2 3490   4.341   2.092  14.569  0.0262 -0.5135  0.9471
  230MPD1    C3 3491   4.272   2.187  14.491 -0.5147  0.0757  0.6063
  230MPD1    C4 3492   4.143   2.214  14.532  0.5116  0.5373 -0.1305
  230MPD1    C5 3493   4.084   2.161  14.644 -0.3065  0.6720  0.0812
  230MPD1     H 3494   4.438   2.052  14.545  0.1217  2.3569 -3.4248
  230MPD1    H1 3495   4.082   2.287  14.480  1.3804  0.5466 -1.1204
  230MPD1    H2 3496   4.109   2.014  14.797 -0.7416  1.2214  0.1129
  230MPD1    H3 3497   3.982   2.190  14.668 -0.5715  0.8752 -1.2778
  230MPD1     N 3498   4.331   2.237  14.375 -0.0975  0.2660  0.2807
  230MPD1    H5 3499   4.424   2.199  14.359  0.5016  2.2449 -0.9864
  230MPD1    N1 3500   4.342   1.930  14.747 -0.3010  0.3669 -0.1067
  230MPD1    H6 3501   4.442   1.948  14.738 -0.1614 -0.9543 -1.1684
  230MPD1    H7 3502   4.317   1.927  14.845  0.7910 -1.1447  0.1140
  231MPD1     C 3503   2.270   4.225  14.990  0.1401  0.1497 -0.1747
  231MPD1    C1 3504   2.334   4.108  14.959  0.1635  0.2719 -0.5048
  231MPD1    C2 3505   2.467   4.115  14.924 -0.8431 -0.4220  0.6652
  231MPD1    C3 3506   2.535   4.236  14.918 -0.3258  0.3060 -0.2327
  231MPD1    C4 3507   2.468   4.350  14.942 -0.7371 -0.2078  0.0168
  231MPD1    C5 3508   2.335   4.347  14.970  0.0191 -0.3332 -0.1814
  231MPD1     H 3509   2.519   4.021  14.915 -1.4031 -1.0104  3.6418
  231MPD1    H1 3510   2.512   4.449  14.937 -2.2525  0.4861  0.1034
  231MPD1    H2 3511   2.170   4.223  15.031  0.2386 -1.7392 -0.0533
  231MPD1    H3 3512   2.274   4.435  14.984 -0.4277 -0.2872 -2.4368
  231MPD1     N 3513   2.667   4.238  14.886 -0.7869  0.5609  0.5289
  231MPD1    H5 3514   2.717   4.156  14.853  1.2940  0.8069  3.0416
  231MPD1    N1 3515   2.274   3.991  14.988  0.5634 -0.0257  0.2859
  231MPD1    H6 3516   2.174   4.006  14.978  0.9748  2.3961 -0.2660
  231MPD1    H7 3517   2.301   3.926  14.915  0.3692  0.9655 -0.6743
  232MPD1     C 3518   0.980   2.001   0.392  0.1041 -0.8967 -0.7537
  232MPD1    C1 3519   0.867   2.077   0.374  0.2944 -0.3273 -0.8063
  232MPD1    C2 3520   0.752   2.007   0.335 -0.5206  0.5138 -1.0970
  232MPD1    C3 3521   0.745   1.867   0.337 -0.3675  0.0756  0.6241
  232MPD1    C4 3522   0.860   1.791   0.371 -0.1684  0.0581 -0.2101
  232MPD1    C5 3523   0.973   1.862   0.391 -0.7421 -0.2109 -0.5359
  232MPD1     H 3524   0.662   2.058   0.301 -2.1783 -2.5402 -1.2898
  232MPD1    H1 3525   0.853   1.684   0.390 -1.1167 -0.0223 -0.9566
  232MPD1    H2 3526   1.080   2.043   0.401 -0.6572  0.8067 -0.2075
  232MPD1    H3 3527   1.060   1.802   0.416  0.5336  1.4975 -0.8313
  232MPD1     N 3528   0.615   1.813   0.305  0.2179  0.2114  0.1431
  232MPD1    H5 3529   0.539   1.872   0.273  0.5258  0.2760 -0.4690
  232MPD1    N1 3530   0.871   2.218   0.346 -0.8513 -0.1123 -0.3441
  232MPD1    H6 3531   0.945   2.260   0.401  0.4546 -0.6614 -1.6596
  232MPD1    H7 3532   0.783   2.258   0.376  0.0351  1.3521  0.2844
  233MPD1     C 3533   0.038   4.562   1.670 -0.8245  0.2484 -0.0779
  233MPD1    C1 3534   0.115   4.669   1.620 -0.1136 -0.4325 -0.9795
  233MPD1    C2 3535   0.254   4.637   1.607 -0.1757 -0.0687 -0.1919
  233MPD1    C3 3536   0.304   4.506   1.633 -0.1545  0.2060  0.8133
  233MPD1    C4 3537   0.226   4.407   1.691 -0.1423 -0.2231 -0.0147
  233MPD1    C5 3538   0.089   4.437   1.694  0.4889  0.3671  0.2935
  233MPD1     H 3539   0.318   4.716   1.570  1.3266 -1.8667 -1.4518
  233MPD1    H1 3540   0.258   4.309   1.724  1.1185  0.1490 -0.1327
  233MPD1    H2 3541   4.656   4.580   1.694 -0.4281  0.1419  1.6811
  233MPD1    H3 3542   0.011   4.367   1.720 -1.4660  1.9919 -1.2266
  233MPD1     N 3543   0.441   4.473   1.629  0.6723  0.0680 -0.1776
  233MPD1    H5 3544   0.469   4.379   1.657  1.1917  0.7268  1.4813
  233MPD1    N1 3545   0.063   0.074   1.599  0.1113 -0.4050  0.0049
  233MPD1    H6 3546   4.690   0.075   1.560 -0.0358  1.1446  0.3655
  233MPD1    H7 3547   0.120   0.116   1.525  1.8899 -1.1672  0.9586
  234MPD1     C 3548   2.887   3.380   8.976  0.9061 -0.5321  0.7026
  234MPD1    C1 3549   2.912   3.466   9.086  0.0169 -0.0589  0.3407
  234MPD1    C2 3550   2.856   3.592   9.082  0.3846 -0.3501 -0.3580
  234MPD1    C3 3551   2.770   3.633   8.983  0.1024  0.1388  0.2379
  234MPD1    C4 3552   2.737   3.548   8.883 -1.0569 -0.1053 -0.0938
  234MPD1    C5 3553   2.800   3.423   8.880 -0.3272  0.6033 -0.2125
  234MPD1     H 3554   2.866   3.657   9.169  1.2782  0.4738 -1.0754
  234MPD1    H1 3555   2.667   3.564   8.802 -0.4636 -1.5749 -0.8794
  234MPD1    H2 3556   2.936   3.284   8.965  1.2791 -0.4384  1.5000
  234MPD1    H3 3557   2.775   3.359   8.797  1.2792  1.8760 -1.6894
  234MPD1     N 3558   2.713   3.757   8.985  0.0285 -0.8432  0.7313
  234MPD1    H5 3559   2.752   3.813   9.060 -0.1603 -2.0615  1.7408
  234MPD1    N1 3560   2.993   3.432   9.196  0.7607 -0.4229  0.3335
  234MPD1    H6 3561   3.007   3.333   9.213 -0.6918 -0.2134  2.5785
  234MPD1    H7 3562   2.969   3.487   9.277  0.2026  2.0870 -1.5245
  235MPD1     C 3563   3.573   1.157  10.154 -0.0103 -0.6700  0.1122
  235MPD1    C1 3564   3.542   1.215  10.031 -0.0805  0.9188 -0.3443
  235MPD1    C2 3565   3.628   1.314   9.981  0.0398 -0.1374 -0.5693
  235MPD1    C3 3566   3.749   1.329  10.032  0.7107 -0.4396 -0.0884
  235MPD1    C4 3567   3.787   1.252  10.138  0.0110  0.0885  0.9715
  235MPD1    C5 3568   3.697   1.173  10.201 -0.1551 -0.3266  0.1228
  235MPD1     H 3569   3.593   1.379   9.901 -0.1039  0.6047  0.0965
  235MPD1    H1 3570   3.881   1.266  10.189  0.2678  1.3845  0.1421
  235MPD1    H2 3571   3.507   1.089  10.207 -0.3602  0.5041  1.1771
  235MPD1    H3 3572   3.714   1.127  10.297  1.1369 -0.1375 -0.0093
  235MPD1     N 3573   3.831   1.425   9.972 -0.1024 -0.0716  0.2639
  235MPD1    H5 3574   3.787   1.478   9.898 -1.5828  0.4799  1.5424
  235MPD1    N1 3575   3.409   1.204   9.984  0.7602 -0.1435 -0.1869
  235MPD1    H6 3576   3.365   1.115  10.006 -2.1297  1.0643 -1.0749
  235MPD1    H7 3577   3.399   1.213   9.883  1.6113  0.3815 -0.2246
  236MPD1     C 3578   3.145   2.680   9.267 -0.8223 -0.7236  1.0839
  236MPD1    C1 3579   3.127   2.543   9.274 -0.3210 -0.7281 -0.6366
  236MPD1    C2 3580   3.191   2.470   9.371  0.1636 -0.2201  0.3453
  236MPD1    C3 3581   3.295   2.522   9.444  0.4428 -0.2460  0.5033
  236MPD1    C4 3582   3.321   2.661   9.434  0.3964  0.3119  0.4722
  236MPD1    C5 3583   3.247   2.737   9.348  0.0717 -0.2066 -0.2372
  236MPD1     H 3584   3.157   2.368   9.389 -0.2519 -0.7239 -3.2753
  236MPD1    H1 3585   3.400   2.716   9.484 -1.8584  2.4446  1.6723
  236MPD1    H2 3586   3.083   2.736   9.197 -1.3250 -0.4923  1.7139
  236MPD1    H3 3587   3.261   2.844   9.338  0.4703 -0.3594 -1.4072
  236MPD1     N 3588   3.383   2.446   9.516 -0.7889  0.4213  0.7363
  236MPD1    H5 3589   3.453   2.506   9.558  0.1663  0.3278 -0.7213
  236MPD1    N1 3590   3.010   2.495   9.209  0.4492  0.2805 -0.0382
  236MPD1    H6 3591   2.988   2.530   9.116  2.1729  1.5716  0.0484
  236MPD1    H7 3592   3.019   2.395   9.192  1.2395  0.2545  0.5546
  237MPD1     C 3593   3.132   1.671  14.678  0.1849 -0.2502  1.2951
  237MPD1    C1 3594   3.083   1.585  14.581  0.6463 -0.1415 -0.9221
  237MPD1    C2 3595   3.057   1.454  14.617  0.2668  0.2435  0.2977
  237MPD1    C3 3596   3.081   1.398  14.748  0.4580  0.2160  0.1032
  237MPD1    C4 3597   3.138   1.487  14.842  0.5089  0.2476  0.2994
  237MPD1    C5 3598   3.161   1.618  14.805  0.0830 -0.1821 -0.0185
  237MPD1     H 3599   3.039   1.389  14.532 -0.4349 -0.5267  1.0375
  237MPD1    H1 3600   3.164   1.449  14.940  0.6058 -0.3037  0.0544
  237MPD1    H2 3601   3.150   1.777  14.663  0.4753 -0.4327  0.3184
  237MPD1    H3 3602   3.207   1.682  14.879 -0.5315 -2.0723  2.0045
  237MPD1     N 3603   3.074   1.262  14.787 -0.1755  0.7341  0.6744
  237MPD1    H5 3604   3.106   1.246  14.882 -1.3714  1.2330  1.1555
  237MPD1    N1 3605   3.031   1.621  14.457  0.1598 -0.0541 -0.0782
  237MPD1    H6 3606   3.092   1.693  14.421  0.7929 -0.4511  0.2054
  237MPD1    H7 3607   3.014   1.539  14.399  0.7995  0.7260 -1.3726
  238MPD1     C 3608   4.537   4.125  15.514 -0.7687  0.2834 -0.5715
  238MPD1    C1 3609   4.584   4.099  15.387  0.1144 -0.1205  0.1018
  238MPD1    C2 3610   4.503   4.074  15.285  0.1490  0.6316  0.3713
  238MPD1    C3 3611   4.371   4.106  15.294  0.1570  0.2903  0.3461
  238MPD1    C4 3612   4.319   4.144  15.417 -0.9076  0.0733  0.7808
  238MPD1    C5 3613   4.402   4.153  15.526 -1.0442 -0.0568  0.0392
  238MPD1     H 3614   4.559   4.048  15.195  0.6836  0.0314  0.8794
  238MPD1    H1 3615   4.213   4.159  15.434 -0.9026 -0.6188  1.4546
  238MPD1    H2 3616   4.603   4.144  15.598 -0.6410 -0.7650 -0.4351
  238MPD1    H3 3617   4.377   4.179  15.628  1.7664  0.8407  0.5016
  238MPD1     N 3618   4.284   4.105  15.182 -0.4529 -0.8709  0.4529
  238MPD1    H5 3619   4.186   4.126  15.200 -0.3690  1.1751 -1.4715
  238MPD1    N1 3620   4.720   4.067  15.378  0.3401  0.0776 -0.1180
  238MPD1    H6 3621   0.029   4.099  15.286 -0.6832 -0.5575 -0.6783
  238MPD1    H7 3622   0.055   4.119  15.445  0.4885 -0.2104 -0.0190
  239MPD1     C 3623   0.252   1.542  14.437  0.5922 -1.0516  0.1169
  239MPD1    C1 3624   0.214   1.417  14.492 -0.4654  0.1869 -0.2411
  239MPD1    C2 3625   0.169   1.322  14.407  0.1212  0.6325  0.3202
  239MPD1    C3 3626   0.192   1.338  14.271  0.1587  0.1034 -0.4056
  239MPD1    C4 3627   0.234   1.456  14.218 -0.2751  0.4323 -0.0573
  239MPD1    C5 3628   0.276   1.559  14.302 -0.3534  0.2990  0.0150
  239MPD1     H 3629   0.124   1.232  14.447  1.0583 -0.8294 -1.8856
  239MPD1    H1 3630   0.228   1.476  14.112  3.2813  0.3186 -0.2688
  239MPD1    H2 3631   0.267   1.627  14.502  0.0440 -0.8552 -0.0174
  239MPD1    H3 3632   0.316   1.652  14.264 -1.7064  0.8431 -0.0860
  239MPD1     N 3633   0.161   1.228  14.184  0.4174 -0.0332  0.5343
  239MPD1    H5 3634   0.179   1.240  14.085  2.0470 -2.4218  0.5426
  239MPD1    N1 3635   0.198   1.408  14.631  0.1191  0.1582 -0.1348
  239MPD1    H6 3636   0.259   1.466  14.689  0.1722  0.4578 -0.4943
  239MPD1    H7 3637   0.202   1.312  14.664  1.0312  1.0187  2.2405
  240MPD1     C 3638   4.150   0.446  13.995  0.5354  0.1957  0.5330
  240MPD1    C1 3639   4.051   0.359  13.942  1.0798 -0.8806 -0.6644
  240MPD1    C2 3640   4.023   0.244  14.015  0.0046  0.1340  0.2807
  240MPD1    C3 3641   4.102   0.207  14.120 -0.0058 -0.6468 -0.4238
  240MPD1    C4 3642   4.201   0.293  14.168  0.0686  0.1178  0.5083
  240MPD1    C5 3643   4.233   0.410  14.101  0.1374 -0.0028 -0.3949
  240MPD1     H 3644   3.942   0.183  13.978 -0.3281  0.3505  0.6615
  240MPD1    H1 3645   4.260   0.272  14.256 -0.9864 -4.5497  0.0767
  240MPD1    H2 3646   4.175   0.540  13.946 -0.2503 -0.3131 -0.8716
  240MPD1    H3 3647   4.311   0.474  14.141  0.5676  0.1595 -1.5094
  240MPD1     N 3648   4.052   0.092  14.182 -0.7016 -0.2181 -0.1953
  240MPD1    H5 3649   3.987   0.037  14.127  0.6311 -1.9525 -0.0454
  240MPD1    N1 3650   3.964   0.397  13.843 -0.8054  0.2664  0.7296
  240MPD1    H6 3651   4.010   0.463  13.781  0.2186  1.1433  2.4228
  240MPD1    H7 3652   3.922   0.318  13.794  1.6545  0.1632 -1.2054
  241MPD1     C 3653   4.165   4.445  15.106 -0.3632  0.4197 -0.2051
  241MPD1    C1 3654   4.033   4.463  15.071  0.1675 -0.1030  0.1197
  241MPD1    C2 3655   4.009   4.463  14.937  0.3923  0.0307 -0.3085
  241MPD1    C3 3656   4.111   4.445  14.842  1.0096  0.0745 -0.7109
  241MPD1    C4 3657   4.241   4.441  14.888  0.2776  0.2283 -0.6238
  241MPD1    C5 3658   4.270   4.448  15.020 -0.5502 -0.1627  0.3245
  241MPD1     H 3659   3.906   4.458  14.904  0.5299 -1.5401 -0.5093
  241MPD1    H1 3660   4.321   4.416  14.820  1.1727  0.7423  0.2436
  241MPD1    H2 3661   4.197   4.456  15.209  0.5491  1.3734 -0.5838
  241MPD1    H3 3662   4.370   4.440  15.058 -1.1481  2.8372  2.5399
  241MPD1     N 3663   4.097   4.450  14.704  0.3717 -0.5049 -0.3080
  241MPD1    H5 3664   4.184   4.451  14.652 -0.8527 -0.5441 -2.3527
  241MPD1    N1 3665   3.930   4.455  15.162  0.4935  0.4896 -0.2203
  241MPD1    H6 3666   3.952   4.485  15.256 -1.1593 -1.4918  0.7997
  241MPD1    H7 3667   3.842   4.494  15.131 -0.4269 -0.7961  0.7801
  242MPD1     C 3668   3.357   3.609  15.390  0.3648  0.6223  0.6718
  242MPD1    C1 3669   3.240   3.547  15.346 -0.2869  0.3265 -0.4596
  242MPD1    C2 3670   3.252   3.454  15.248  0.1038  0.2116 -0.6700
  242MPD1    C3 3671   3.374   3.417  15.191 -0.2697  0.6954 -0.7691
  242MPD1    C4 3672   3.491   3.480  15.238 -0.2902 -0.0600 -0.0890
  242MPD1    C5 3673   3.483   3.579  15.334 -0.4377 -0.4692 -0.0786
  242MPD1     H 3674   3.160   3.419  15.202  1.1201 -3.0463 -0.2651
  242MPD1    H1 3675   3.593   3.456  15.210 -0.1760  2.9170 -2.1655
  242MPD1    H2 3676   3.351   3.690  15.461 -0.3526 -1.2830  2.7856
  242MPD1    H3 3677   3.579   3.624  15.359 -0.5222 -0.9276  1.0451
  242MPD1     N 3678   3.382   3.329  15.082 -0.1807 -0.6067  0.6473
  242MPD1    H5 3679   3.476   3.299  15.057  0.0771  1.2178 -0.6112
  242MPD1    N1 3680   3.116   3.574  15.403 -0.9636  0.7726  0.3811
  242MPD1    H6 3681   3.109   3.668  15.442 -1.7268  1.6146 -1.8167
  242MPD1    H7 3682   3.043   3.555  15.335 -0.0102  0.9794 -0.7047
  243MPD1     C 3683   0.219   1.548  17.210  0.2162 -0.1884 -0.0507
  243MPD1    C1 3684   0.311   1.464  17.262  0.7888 -0.3868 -0.3014
  243MPD1    C2 3685   0.383   1.385  17.177 -0.2684 -0.5145  0.2830
  243MPD1    C3 3686   0.367   1.403  17.040  0.3507 -0.4553  0.7228
  243MPD1    C4 3687   0.269   1.493  16.993  0.3484  0.3055  0.6718
  243MPD1    C5 3688   0.193   1.562  17.077 -0.7812 -0.2833  0.1468
  243MPD1     H 3689   0.456   1.320  17.222 -0.3724  0.1194  1.3558
  243MPD1    H1 3690   0.257   1.508  16.886  2.6494 -1.4355  0.1707
  243MPD1    H2 3691   0.172   1.617  17.279  1.1234 -0.2095  0.5879
  243MPD1    H3 3692   0.117   1.632  17.043 -0.6668  0.2090  0.9151
  243MPD1     N 3693   0.454   1.321  16.958 -1.0339  0.3333 -0.1912
  243MPD1    H5 3694   0.512   1.265  17.019  1.6407  2.6680 -0.5741
  243MPD1    N1 3695   0.320   1.463  17.396 -0.6127 -0.1907 -0.3020
  243MPD1    H6 3696   0.229   1.451  17.442 -0.4037  1.4140  0.5436
  243MPD1    H7 3697   0.371   1.385  17.438  0.9163  0.5077 -0.8620
  244MPD1     C 3698   0.960   0.697  17.226  0.5397 -0.1716  0.1463
  244MPD1    C1 3699   0.842   0.758  17.256 -0.4195  0.5188 -0.7604
  244MPD1    C2 3700   0.784   0.839  17.160 -0.6869 -0.1928  0.5763
  244MPD1    C3 3701   0.850   0.877  17.046 -0.4795 -0.7497 -0.8517
  244MPD1    C4 3702   0.979   0.823  17.021 -0.9902  0.2919 -0.7444
  244MPD1    C5 3703   1.024   0.726  17.112  0.2260 -0.3289 -1.3606
  244MPD1     H 3704   0.687   0.886  17.174  0.6288  2.3901  1.0391
  244MPD1    H1 3705   1.040   0.846  16.934 -0.2310  0.2036 -0.2394
  244MPD1    H2 3706   1.000   0.613  17.282 -1.3679  0.2025  2.0856
  244MPD1    H3 3707   1.110   0.666  17.087 -2.1686 -4.0392 -0.6225
  244MPD1     N 3708   0.784   0.974  16.963 -0.4597  0.2974  0.7253
  244MPD1    H5 3709   0.697   1.018  16.991 -1.0360 -1.5376  1.7767
  244MPD1    N1 3710   0.767   0.714  17.366 -1.0658  0.3533  0.1693
  244MPD1    H6 3711   0.830   0.679  17.438 -0.9858 -0.1515 -0.1498
  244MPD1    H7 3712   0.697   0.780  17.398 -3.8164 -2.2012 -0.5829
  245MPD1     C 3713   3.285   2.301  12.432 -0.9880 -0.2089 -0.4778
  245MPD1    C1 3714   3.220   2.419  12.399 -0.3335 -0.5157 -0.2241
  245MPD1    C2 3715   3.220   2.512  12.500  0.0228 -0.2654  0.1597
  245MPD1    C3 3716   3.289   2.500  12.617 -0.3317 -0.0697 -0.1574
  245MPD1    C4 3717   3.360   2.387  12.640 -0.6000 -0.0700 -0.6528
  245MPD1    C5 3718   3.349   2.285  12.551 -0.9467 -0.5904 -0.6255
  245MPD1     H 3719   3.154   2.598  12.509  1.0794  0.5550  0.0140
  245MPD1    H1 3720   3.427   2.370  12.724 -0.8053  0.2845 -0.4230
  245MPD1    H2 3721   3.287   2.215  12.366  0.0066  0.7112 -1.6684
  245MPD1    H3 3722   3.400   2.191  12.566 -2.5436 -1.2722  0.4954
  245MPD1     N 3723   3.285   2.597  12.721  0.2305 -0.2785  0.6409
  245MPD1    H5 3724   3.244   2.686  12.693 -3.2534 -2.1341 -0.1836
  245MPD1    N1 3725   3.129   2.426  12.290 -0.1974 -0.5308  0.0760
  245MPD1    H6 3726   3.182   2.381  12.215  1.0050  2.3250 -0.8032
  245MPD1    H7 3727   3.124   2.523  12.262  2.2671 -0.2966  0.4701
  246MPD1     C 3728   4.492   3.662   9.097 -0.1097 -0.3018  0.2416
  246MPD1    C1 3729   4.452   3.791   9.071 -0.7877 -0.1879  0.1597
  246MPD1    C2 3730   4.321   3.817   9.041 -0.0002 -0.0394  0.2150
  246MPD1    C3 3731   4.216   3.718   9.052  0.2586  0.0573 -0.0117
  246MPD1    C4 3732   4.260   3.590   9.076  0.2159  0.4813 -0.1541
  246MPD1    C5 3733   4.387   3.570   9.111  0.4902  0.6361 -0.2637
  246MPD1     H 3734   4.305   3.924   9.035  1.2874  0.0740 -1.2909
  246MPD1    H1 3735   4.191   3.507   9.092 -0.1679  0.7875 -0.2041
  246MPD1    H2 3736   4.597   3.638   9.110  0.0132  0.0324 -0.1620
  246MPD1    H3 3737   4.409   3.468   9.141 -0.4484  0.7304  0.7321
  246MPD1     N 3738   4.083   3.766   9.024 -0.0008  0.6129 -1.3630
  246MPD1    H5 3739   4.070   3.866   9.018 -2.3425  0.4784  2.0030
  246MPD1    N1 3740   4.557   3.886   9.052  0.2288 -0.2240  0.4198
  246MPD1    H6 3741   4.532   3.983   9.036  2.4684  0.3417  0.4459
  246MPD1    H7 3742   4.645   3.873   9.101  0.5606  0.6990  0.0688
  247MPD1     C 3743   2.193   2.031  16.730  0.3402 -0.3782  0.6608
  247MPD1    C1 3744   2.224   2.134  16.649 -0.4531  0.2639  0.2720
  247MPD1    C2 3745   2.158   2.139  16.527 -0.1895  0.2584 -0.0992
  247MPD1    C3 3746   2.076   2.034  16.480 -0.1341  0.4530 -0.1728
  247MPD1    C4 3747   2.059   1.928  16.566  0.0895  0.1281  1.0072
  247MPD1    C5 3748   2.121   1.924  16.687 -1.2254 -0.4579 -0.1712
  247MPD1     H 3749   2.181   2.231  16.474 -1.1348 -0.4059 -1.6503
  247MPD1    H1 3750   2.009   1.837  16.536  0.8469  0.8302 -2.3162
  247MPD1    H2 3751   2.223   2.033  16.834  1.2356 -0.5978  0.4110
  247MPD1    H3 3752   2.098   1.841  16.753  0.2894 -0.7335  0.0202
  247MPD1     N 3753   2.017   2.028  16.347 -0.3987  0.0017  0.0590
  247MPD1    H5 3754   1.965   1.945  16.323  2.9184 -1.3744 -2.3864
  247MPD1    N1 3755   2.305   2.240  16.699  0.8756  0.0084  0.4650
  247MPD1    H6 3756   2.362   2.278  16.624  0.8891  0.9361  0.9424
  247MPD1    H7 3757   2.365   2.216  16.778  0.0148 -1.3047  0.7225
  248MPD1     C 3758   2.650   0.941  17.034  0.1719 -0.1128  0.5998
  248MPD1    C1 3759   2.785   0.918  17.032  0.3145 -0.6920  0.3524
  248MPD1    C2 3760   2.874   1.022  17.021  0.4069  0.6123  0.3318
  248MPD1    C3 3761   2.817   1.145  17.015  0.6338  0.0441 -0.1974
  248MPD1    C4 3762   2.679   1.167  17.008 -0.5415  0.2726 -0.4961
  248MPD1    C5 3763   2.597   1.065  17.021 -0.4944  0.1326  0.3010
  248MPD1     H 3764   2.981   1.008  17.021  0.5180  1.4304  1.5948
  248MPD1    H1 3765   2.638   1.267  17.002 -0.1611  0.3833 -1.2467
  248MPD1    H2 3766   2.584   0.855  17.036  1.5819 -1.1912  0.7759
  248MPD1    H3 3767   2.491   1.082  17.013 -0.2706  1.3456 -0.1284
  248MPD1     N 3768   2.905   1.253  17.008 -0.3170  0.1778  0.4594
  248MPD1    H5 3769   3.003   1.228  17.014 -0.4511 -0.2572  0.8861
  248MPD1    N1 3770   2.832   0.783  17.027  0.0360 -0.2398 -0.4363
  248MPD1    H6 3771   2.931   0.782  17.051  0.3312  0.0246 -1.6677
  248MPD1    H7 3772   2.778   0.714  17.078 -0.4341  0.9090  0.6280
  249MPD1     C 3773   3.060   0.443  10.048 -0.6349  0.1850  0.7774
  249MPD1    C1 3774   3.022   0.367   9.936  0.3842  0.1877  0.7169
  249MPD1    C2 3775   3.108   0.370   9.831  0.2050  0.3687 -1.0318
  249MPD1    C3 3776   3.226   0.438   9.819 -0.0929  0.0943  0.2885
  249MPD1    C4 3777   3.254   0.520   9.928 -0.3513  0.6394 -0.5444
  249MPD1    C5 3778   3.177   0.519  10.040  0.4501  0.7071  0.3166
  249MPD1     H 3779   3.084   0.313   9.742 -1.2079  0.9507 -1.0251
  249MPD1    H1 3780   3.347   0.576   9.939  1.8804 -3.5687  1.9019
  249MPD1    H2 3781   2.995   0.453  10.133  3.1689  2.9788  3.3722
  249MPD1    H3 3782   3.207   0.568  10.132 -0.3300  0.0629  0.9230
  249MPD1     N 3783   3.309   0.416   9.706  0.3056  0.7442  0.3149
  249MPD1    H5 3784   3.275   0.360   9.628 -1.1419  2.9843 -0.6617
  249MPD1    N1 3785   2.898   0.303   9.933 -0.0262 -0.5496 -0.0077
  249MPD1    H6 3786   2.879   0.270  10.027  2.3820 -0.8162  0.3627
  249MPD1    H7 3787   2.887   0.220   9.874  1.7998  0.5612 -1.8888
  250MPD2     C 3788   0.658   1.705  12.200 -0.5196 -0.4494 -0.1829
  250MPD2    C1 3789   0.759   1.610  12.185 -0.0760 -0.0703 -0.1387
  250MPD2    C2 3790   0.723   1.472  12.192  0.3589  0.2464 -0.5200
  250MPD2    C3 3791   0.590   1.430  12.197  0.0605  0.0466 -0.7912
  250MPD2    C4 3792   0.495   1.527  12.186  0.4974  0.4160  0.2769
  250MPD2    C5 3793   0.526   1.664  12.183  0.3415 -0.5959 -0.0631
  250MPD2     H 3794   0.803   1.399  12.184 -0.1242 -0.0546 -2.7386
  250MPD2    H1 3795   0.389   1.510  12.199  0.4370  1.2355  0.8533
  250MPD2    H2 3796   0.679   1.811  12.209 -0.0760 -0.6457  1.0518
  250MPD2    H3 3797   0.444   1.734  12.187 -0.2514 -1.3887  1.3956
  250MPD2     N 3798   0.546   1.292  12.181  0.3287  0.9386  0.4629
  250MPD2    H5 3799   0.447   1.272  12.181  0.7719 -1.2831  0.6934
  250MPD2    N1 3800   0.890   1.656  12.165 -0.2555 -0.0215  0.1540
  250MPD2    H7 3801   0.898   1.758  12.165 -1.1043  0.0414 -0.0421
  251TMC3    C1 3802   1.127   1.660  12.134  0.7327 -0.4288 -0.0333
  251TMC3    C2 3803   1.094   1.790  12.118 -0.6600  0.6902 -0.3129
  251TMC3    C3 3804   1.141   1.884  12.207  0.5871 -0.3143  0.1601
  251TMC3    C4 3805   1.216   1.628  12.232 -0.8438  0.2222  0.0917
  251TMC3    C5 3806   1.273   1.722  12.318  0.0528 -0.2435  0.5205
  251TMC3    C6 3807   1.238   1.849  12.298  0.3917  0.1299  0.1809
  251TMC3     C 3808   1.005   1.581  12.146 -0.1296 -0.8002 -0.2538
  251TMC3     O 3809   1.008   1.462  12.169 -0.2714 -0.1484 -0.1026
  251TMC3     H 3810   1.024   1.822  12.041  0.1974  1.9498 -0.5671
  251TMC3    H1 3811   1.230   1.521  12.245  0.3015  0.4398  0.6120
  251TMC3    H2 3812   1.257   1.911  12.385  1.6461 -2.7369  1.9515
  251TMC3    C7 3813   1.402   1.687  12.360  0.2765 -0.6775 -0.2614
  251TMC3    C8 3814   1.031   1.970  12.250 -0.3623  0.3791 -0.7506
  251TMC3    O1 3815   1.420   1.566  12.383 -0.4113 -0.4879  0.3057
  251TMC3    O2 3816   0.918   1.930  12.218 -0.0276  0.1480 -0.1425
  252TMC3    C1 3817   1.190   2.068   8.538  0.4687  0.3950  0.0278
  252TMC3    C2 3818   1.239   1.985   8.637 -0.0416  0.2838 -0.2111
  252TMC3    C3 3819   1.143   1.905   8.701 -0.2867 -0.6194  0.0575
  252TMC3    C4 3820   1.063   2.065   8.498  0.1055 -0.4660 -0.0483
  252TMC3    C5 3821   0.976   2.005   8.584 -0.5455 -0.1140 -0.2717
  252TMC3    C6 3822   1.010   1.917   8.685 -0.0495 -0.6972  0.2556
  252TMC3     C 3823   1.297   2.105   8.448  0.9463 -0.6768 -0.0105
  252TMC3     O 3824   1.410   2.056   8.464 -0.3636  0.2801  0.1835
  252TMC3     H 3825   1.344   1.995   8.663 -0.5557 -0.6832  2.1985
  252TMC3    H1 3826   1.033   2.120   8.410  0.8811  1.4745  0.9156
  252TMC3    H2 3827   0.936   1.865   8.744 -1.2116  1.2643  0.5480
  252TMC3    C7 3828   0.838   2.024   8.555  0.0548 -0.2211  0.7730
  252TMC3    C8 3829   1.186   1.820   8.810 -0.3450 -0.4151 -0.0755
  252TMC3    O1 3830   0.814   2.063   8.441 -0.7056  0.2779 -0.2232
  252TMC3    O2 3831   1.099   1.766   8.881 -0.6410  0.1991 -0.0375
  253MPD2     C 3832   2.300   0.858  14.705 -0.4905 -0.3011 -0.4453
  253MPD2    C1 3833   2.161   0.874  14.724  0.1964  0.0617  0.0675
  253MPD2    C2 3834   2.120   0.926  14.845 -0.0841  0.0392  0.1192
  253MPD2    C3 3835   2.209   0.967  14.943  0.2069 -0.5241  0.1904
  253MPD2    C4 3836   2.346   0.965  14.912  0.1198 -0.3213 -0.3150
  253MPD2    C5 3837   2.390   0.909  14.793  0.2745 -0.0634  0.2415
  253MPD2     H 3838   2.012   0.935  14.856 -0.0411  1.0206 -0.2727
  253MPD2    H1 3839   2.423   1.003  14.978 -1.4822 -3.2899  3.2156
  253MPD2    H2 3840   2.332   0.800  14.619  0.5003  0.6105 -0.6941
  253MPD2    H3 3841   2.496   0.906  14.772  0.5516 -0.1997  1.6266
  253MPD2     N 3842   2.163   1.016  15.069  0.2271  0.5752  0.2802
  253MPD2    H5 3843   2.232   1.072  15.118  2.5120 -1.3034 -0.7806
  253MPD2    N1 3844   2.067   0.830  14.630  0.6942  0.3530  0.2298
  253MPD2    H7 3845   1.971   0.837  14.662  0.4238  1.0855 -0.7216
  254TMC3    C1 3846   2.016   1.088  15.243 -0.2579  0.1354 -0.3334
  254TMC3    C2 3847   1.890   1.130  15.274  0.4578 -0.4978  0.2251
  254TMC3    C3 3848   1.870   1.202  15.384  0.0938  0.3859  0.5346
  254TMC3    C4 3849   2.118   1.142  15.314  0.4630 -0.2891 -0.2598
  254TMC3    C5 3850   2.101   1.219  15.425 -0.1169 -0.3513 -0.3561
  254TMC3    C6 3851   1.970   1.255  15.455  0.7633  0.0309  0.2399
  254TMC3     C 3852   2.037   1.009  15.121 -0.1640  0.2590  0.2454
  254TMC3     O 3853   1.933   0.964  15.074 -0.3865 -0.7681  0.9371
  254TMC3     H 3854   1.801   1.085  15.233  0.0534  3.2851 -3.0333
  254TMC3    H1 3855   2.217   1.098  15.305 -0.1029 -1.1097 -2.4139
  254TMC3    H2 3856   1.955   1.303  15.550 -2.6391  1.3244 -0.9348
  254TMC3    C7 3857   2.166   1.156  15.538  0.3976  0.3951 -0.1126
  254TMC3    C8 3858   1.740   1.240  15.432  0.1317  0.3132  0.4743
  254TMC3    O1 3859   2.102   1.076  15.606 -0.3033 -0.4776 -0.2022
  254TMC3    O2 3860   1.648   1.162  15.439 -0.0599 -0.2900  0.1971
  255MPD2     C 3861   0.756   3.009   9.841 -0.0588  0.2052 -0.7505
  255MPD2    C1 3862   0.856   3.100   9.814 -0.6053  0.0256  0.3929
  255MPD2    C2 3863   0.967   3.049   9.753 -0.0894  0.0757  0.4117
  255MPD2    C3 3864   0.991   2.911   9.737  0.5006  0.1361 -0.3826
  255MPD2    C4 3865   0.902   2.826   9.803 -0.0157  0.4294  0.2824
  255MPD2    C5 3866   0.784   2.874   9.854 -0.2301 -0.5378  0.2662
  255MPD2     H 3867   1.033   3.124   9.713  0.9193 -0.7142  0.5913
  255MPD2    H1 3868   0.914   2.719   9.811 -1.2507  0.2513 -0.1646
  255MPD2    H2 3869   0.655   3.040   9.866 -0.3801 -0.1353 -1.6085
  255MPD2    H3 3870   0.701   2.813   9.886 -1.4119  1.3966  0.9177
  255MPD2     N 3871   1.106   2.866   9.668  0.4044  0.4084  0.8574
  255MPD2    H5 3872   1.164   2.944   9.640  1.4431 -1.1634 -1.3632
  255MPD2    N1 3873   0.837   3.240   9.819  0.3395 -0.5186  0.6077
  255MPD2    H7 3874   0.742   3.275   9.808  0.3440 -1.1997 -1.5429
  256TMC3    C1 3875   0.904   3.453   9.740  0.9143  0.0646 -0.9063
  256TMC3    C2 3876   0.995   3.559   9.749 -0.5220  0.3483 -0.4893
  256TMC3    C3 3877   0.994   3.655   9.656 -0.6671 -0.4456 -0.2750
  256TMC3    C4 3878   0.817   3.444   9.633 -0.0977  0.5129 -0.2013
  256TMC3    C5 3879   0.824   3.544   9.539 -0.4490 -0.0511 -1.0018
  256TMC3    C6 3880   0.904   3.658   9.552 -0.3815  0.2354  0.1293
  256TMC3     C 3881   0.939   3.327   9.822 -0.9025  0.0186  0.7311
  256TMC3     O 3882   1.058   3.314   9.843 -0.2295 -0.0588  0.3846
  256TMC3     H 3883   1.078   3.554   9.819 -0.1312 -0.1073 -0.9887
  256TMC3    H1 3884   0.744   3.364   9.627  1.5139 -0.8620 -1.5990
  256TMC3    H2 3885   0.892   3.740   9.483  0.5375  0.8452  0.6822
  256TMC3    C7 3886   0.782   3.496   9.409 -0.4498  0.6066  0.3169
  256TMC3    C8 3887   1.091   3.763   9.672 -0.2961  0.6870 -0.3496
  256TMC3    O1 3888   0.755   3.377   9.403 -0.0236  0.3370 -0.6772
  256TMC3    O2 3889   1.148   3.772   9.782 -0.5970 -0.6669  0.3438
  257MPD2     C 3890   0.065   1.061  12.886  0.5332  0.5488  0.0825
  257MPD2    C1 3891   4.677   1.009  12.824  0.2906  0.0885 -0.5661
  257MPD2    C2 3892   4.608   0.909  12.896 -0.1897  0.5166  0.2670
  257MPD2    C3 3893   4.644   0.866  13.020 -0.4000 -0.1007 -0.9486
  257MPD2    C4 3894   0.026   0.927  13.080 -0.3159 -0.5199 -0.5404
  257MPD2    C5 3895   0.098   1.023  13.016 -0.2490 -0.4934 -0.0812
  257MPD2     H 3896   4.520   0.866  12.850 -1.1195  2.1882  0.4802
  257MPD2    H1 3897   0.055   0.909  13.183  0.5475  1.6075 -0.3971
  257MPD2    H2 3898   0.124   1.140  12.840 -1.5404  1.3122 -1.2364
  257MPD2    H3 3899   0.178   1.072  13.071 -1.4938  0.4688  0.8711
  257MPD2     N 3900   4.566   0.761  13.075 -0.1411  0.4551  0.0060
  257MPD2    H5 3901   4.488   0.731  13.018 -0.1586 -0.2575  0.4011
  257MPD2    N1 3902   4.640   1.056  12.695  0.2984 -0.4855  0.4292
  257MPD2    H7 3903   4.559   1.005  12.659  0.6814 -0.7035 -0.1090
  258TMC3    C1 3904   4.511   0.596  13.229  0.2989 -0.8466  0.4987
  258TMC3    C2 3905   4.535   0.491  13.139  0.8553  0.2994  0.0434
  258TMC3    C3 3906   4.582   0.369  13.184  0.0449  0.4829 -0.4258
  258TMC3    C4 3907   4.513   0.576  13.368  0.3729  0.6651  0.6359
  258TMC3    C5 3908   4.551   0.443  13.405 -0.1793 -0.2165  0.2819
  258TMC3    C6 3909   4.587   0.345  13.316  0.0850 -0.4654  0.5649
  258TMC3     C 3910   4.590   0.712  13.202  0.2431  0.0308 -0.5851
  258TMC3     O 3911   4.670   0.733  13.288 -0.1419 -0.2881  0.7922
  258TMC3     H 3912   4.544   0.515  13.034  0.9807  0.6271  0.1265
  258TMC3    H1 3913   4.517   0.660  13.437 -1.3765  1.0328  0.2959
  258TMC3    H2 3914   4.615   0.247  13.351  0.6567  0.0224  1.5018
  258TMC3    C7 3915   4.626   0.437  13.524 -0.3038  0.2841 -0.3954
  258TMC3    C8 3916   4.623   0.263  13.094 -0.5932 -0.8545  0.0472
  258TMC3    O1 3917   0.007   0.368  13.530  0.0020  0.2192 -0.3388
  258TMC3    O2 3918   4.618   0.302  12.978 -0.1750  0.1643 -0.0555
  259MPD2     C 3919   3.701   2.270   0.251 -1.1822 -0.3288  0.2447
  259MPD2    C1 3920   3.765   2.152   0.288  0.3731  0.3047  0.0702
  259MPD2    C2 3921   3.870   2.109   0.203  0.4287  0.2053 -0.2080
  259MPD2    C3 3922   3.912   2.177   0.094 -0.6203 -0.2580 -0.1832
  259MPD2    C4 3923   3.848   2.292   0.057 -0.0791  0.6369 -0.2624
  259MPD2    C5 3924   3.745   2.336   0.140  0.3099 -0.0952 -0.3573
  259MPD2     H 3925   3.926   2.020   0.228  1.1412  0.5887 -0.4534
  259MPD2    H1 3926   3.883   2.350  17.660 -1.2830  2.2412  0.3407
  259MPD2    H2 3927   3.619   2.310   0.308 -1.2057  1.0571 -0.7704
  259MPD2    H3 3928   3.688   2.426   0.119 -0.9712 -0.9512 -0.5684
  259MPD2     N 3929   4.030   2.129   0.034  0.3232 -0.0869  0.5638
  259MPD2    H5 3930   4.064   2.035   0.051 -0.6782 -0.4745  0.4521
  259MPD2    N1 3931   3.720   2.089   0.405 -0.1948 -0.4167  0.7122
  259MPD2    H7 3932   3.644   2.134   0.455 -2.4705 -2.6039 -0.7858
  260TMC3    C1 3933   4.194   2.115  17.561 -0.0487  0.5635  0.1061
  260TMC3    C2 3934   4.309   2.176  17.523 -0.4779  0.6238 -0.1170
  260TMC3    C3 3935   4.393   2.098  17.452 -0.6331 -0.4123  0.0264
  260TMC3    C4 3936   4.162   1.995  17.511 -0.1886 -0.8094  0.5048
  260TMC3    C5 3937   4.242   1.918  17.429 -0.2144  0.6605 -0.0145
  260TMC3    C6 3938   4.366   1.966  17.409 -0.3213  0.1173  0.4086
  260TMC3     C 3939   4.098   2.200  17.620 -0.5722 -1.3505 -0.6903
  260TMC3     O 3940   4.104   2.320  17.595 -0.4335  0.3413  0.4011
  260TMC3     H 3941   4.333   2.273  17.565 -0.7724  0.0714  1.3301
  260TMC3    H1 3942   4.064   1.959  17.541 -0.8986 -0.4506 -1.3720
  260TMC3    H2 3943   4.435   1.914  17.343  0.6630 -0.0463  1.5556
  260TMC3    C7 3944   4.201   1.815  17.336  0.2841  0.0370  0.4407
  260TMC3    C8 3945   4.533   2.133  17.457  0.2892 -0.1659 -0.3373
  260TMC3    O1 3946   4.280   1.737  17.283 -0.3483 -0.3407 -0.0940
  260TMC3    O2 3947   4.560   2.245  17.420 -0.6528  0.1230  0.6101
  261MPD2     C 3948   0.301   0.835  11.656 -0.1493  0.5516  0.1375
  261MPD2    C1 3949   0.395   0.923  11.700 -0.3025  0.3950  0.1722
  261MPD2    C2 3950   0.481   0.997  11.615  0.6501  0.4768 -0.3609
  261MPD2    C3 3951   0.481   0.959  11.489  0.6339 -0.4656  0.1609
  261MPD2    C4 3952   0.392   0.868  11.435 -0.8917 -0.3482  0.4460
  261MPD2    C5 3953   0.305   0.807  11.524  0.5549 -0.4680 -0.3962
  261MPD2     H 3954   0.551   1.071  11.652 -2.1843  2.5991  0.6908
  261MPD2    H1 3955   0.392   0.846  11.329 -1.1859 -0.5342  0.4847
  261MPD2    H2 3956   0.221   0.787  11.712  0.1195  0.8116  0.7489
  261MPD2    H3 3957   0.234   0.733  11.489 -1.3002  2.7970 -3.5686
  261MPD2     N 3958   0.574   1.030  11.406 -0.2210  0.1407  0.2272
  261MPD2    H5 3959   0.620   1.112  11.446  1.8985 -0.8010 -0.2781
  261MPD2    N1 3960   0.400   0.959  11.839  0.7348  0.1094  0.4941
  261MPD2    H7 3961   0.471   1.029  11.855  0.6678  0.2210  0.2917
  262TMC3    C1 3962   0.623   1.146  11.206 -0.0566  0.4713 -0.0600
  262TMC3    C2 3963   0.590   1.269  11.263 -0.8219 -0.1899 -0.8211
  262TMC3    C3 3964   0.624   1.382  11.193  0.4467  0.2661  0.1277
  262TMC3    C4 3965   0.674   1.137  11.086  0.2089  0.1073 -0.3140
  262TMC3    C5 3966   0.723   1.248  11.024 -0.3281 -0.0766 -0.4329
  262TMC3    C6 3967   0.691   1.372  11.069  0.2236 -0.1428 -0.2952
  262TMC3     C 3968   0.583   1.017  11.269 -0.1461  0.0097  0.2642
  262TMC3     O 3969   0.553   0.925  11.192 -0.4427 -0.8458 -0.8514
  262TMC3     H 3970   0.541   1.283  11.359  0.2264 -0.9500 -0.1874
  262TMC3    H1 3971   0.690   1.039  11.044 -2.5809 -0.4972  0.0339
  262TMC3    H2 3972   0.715   1.458  11.007 -1.3422  0.5191  0.0189
  262TMC3    C7 3973   0.819   1.236  10.918 -0.2164  0.0208 -0.2970
  262TMC3    C8 3974   0.575   1.517  11.228  0.6119  0.1238 -0.6100
  262TMC3    O1 3975   0.831   1.124  10.866  0.3394 -0.1641  0.1552
  262TMC3    O2 3976   0.649   1.603  11.181  0.2923  0.0708  0.2780
  263MPD2     C 3977   1.201   4.671  10.949  0.1454 -0.2893 -0.0124
  263MPD2    C1 3978   1.310   4.695  10.865  0.4876 -1.0081 -0.0557
  263MPD2    C2 3979   1.297   0.044  10.749 -0.2945  0.1496  0.2030
  263MPD2    C3 3980   1.173   0.092  10.717  0.5734 -0.4160 -0.1287
  263MPD2    C4 3981   1.065   0.053  10.786 -0.4570  0.3353  0.5777
  263MPD2    C5 3982   1.075   4.703  10.900 -0.2191  0.4196  0.4106
  263MPD2     H 3983   1.377   0.070  10.680 -0.3963  1.0051  0.4073
  263MPD2    H1 3984   0.964   0.068  10.750 -0.1766 -0.0067 -0.3663
  263MPD2    H2 3985   1.211   4.621  11.044 -0.5792 -0.0538  0.1818
  263MPD2    H3 3986   0.985   4.680  10.955 -0.5750 -0.0849 -0.3811
  263MPD2     N 3987   1.159   0.157  10.592 -0.7597 -0.1200  0.2138
  263MPD2    H5 3988   1.252   0.174  10.553 -1.6444  0.0634 -1.8196
  263MPD2    N1 3989   1.440   4.666  10.916  0.6316 -0.3109  0.4681
  263MPD2    H7 3990   1.450   4.629  11.010 -1.2158 -0.3426  0.6517
  264TMC3    C1 3991   1.087   0.310  10.440 -0.0031 -0.4586  0.0728
  264TMC3    C2 3992   1.062   0.446  10.454 -0.4323 -0.4040 -0.5613
  264TMC3    C3 3993   1.118   0.532  10.364 -0.4644 -0.5601 -0.1663
  264TMC3    C4 3994   1.168   0.269  10.342  0.2561 -0.5518 -0.0411
  264TMC3    C5 3995   1.212   0.353  10.247 -0.0080 -0.9035 -0.2784
  264TMC3    C6 3996   1.189   0.486  10.253 -0.7462 -0.0341 -0.3687
  264TMC3     C 3997   1.051   0.229  10.552 -1.1096  0.6214 -0.4169
  264TMC3     O 3998   0.943   0.257  10.608 -0.4776  0.0217 -0.1376
  264TMC3     H 3999   1.019   0.486  10.545  1.6934 -3.5689  1.8165
  264TMC3    H1 4000   1.198   0.165  10.342  1.0742 -0.3044  2.8661
  264TMC3    H2 4001   1.233   0.557  10.184  0.7597  1.1117  1.7692
  264TMC3    C7 4002   1.342   0.319  10.191 -0.0426 -1.1228  0.3073
  264TMC3    C8 4003   1.152   0.669  10.397  0.2098 -0.4924 -0.8262
  264TMC3    O1 4004   1.419   0.418  10.172  0.6096  0.7302  0.8618
  264TMC3    O2 4005   1.199   0.733  10.304  0.2850 -0.3306 -0.0274
  265MPD2     C 4006   3.703   0.400  15.220  0.0677  0.1374 -0.2000
  265MPD2    C1 4007   3.724   0.523  15.175 -0.3155 -0.7512  1.3755
  265MPD2    C2 4008   3.756   0.538  15.040  0.1337  0.2667 -0.5614
  265MPD2    C3 4009   3.778   0.432  14.954  0.0167  1.2569 -0.1878
  265MPD2    C4 4010   3.750   0.306  15.001  0.5206  0.4886  0.6525
  265MPD2    C5 4011   3.710   0.296  15.131  0.3115  0.6139  0.2798
  265MPD2     H 4012   3.765   0.641  15.005  1.7200  0.1500 -0.5285
  265MPD2    H1 4013   3.755   0.221  14.934 -0.3699  0.9138  0.0391
  265MPD2    H2 4014   3.668   0.374  15.319 -2.0695 -0.4862 -1.1229
  265MPD2    H3 4015   3.696   0.194  15.166 -1.7671  0.6876 -0.3663
  265MPD2     N 4016   3.811   0.448  14.817 -0.7608 -0.3610  0.3820
  265MPD2    H5 4017   3.819   0.362  14.764  0.3152  0.1333 -0.2498
  265MPD2    N1 4018   3.698   0.637  15.253  0.1489  0.0934  0.1379
  265MPD2    H7 4019   3.687   0.726  15.205 -3.9251  0.5655  1.9560
  266TMC3    C1 4020   3.655   0.761  15.451  0.3432 -0.2878  0.0560
  266TMC3    C2 4021   3.659   0.761  15.592  0.2254  0.8361  0.7196
  266TMC3    C3 4022   3.643   0.879  15.653  0.2716  0.1348  0.0711
  266TMC3    C4 4023   3.648   0.872  15.374  0.0733  0.3472  0.1706
  266TMC3    C5 4024   3.635   0.988  15.443 -0.3101 -0.1202  0.1501
  266TMC3    C6 4025   3.628   0.991  15.578  0.9459  0.5154 -0.2013
  266TMC3     C 4026   3.682   0.632  15.389  0.3790  0.3145 -0.2658
  266TMC3     O 4027   3.705   0.536  15.463  0.9830 -0.1027 -0.0760
  266TMC3     H 4028   3.673   0.668  15.646  0.1577 -0.4459 -1.4642
  266TMC3    H1 4029   3.648   0.873  15.266 -0.5036 -2.6660  0.1411
  266TMC3    H2 4030   3.632   1.083  15.634  3.1856 -2.2823  4.1854
  266TMC3    C7 4031   3.593   1.102  15.362  0.2781  0.8966 -0.0705
  266TMC3    C8 4032   3.719   0.886  15.785  0.2769 -0.1905 -0.6331
  266TMC3    O1 4033   3.558   1.078  15.245  0.1164  0.4660  0.2346
  266TMC3    O2 4034   3.803   0.799  15.794 -0.0250  0.1664 -0.0465
  267MPD2     C 4035   1.432   1.862  17.230  0.3211 -0.5926  0.0895
  267MPD2    C1 4036   1.502   1.982  17.216  0.0791 -0.2093 -0.0175
  267MPD2    C2 4037   1.462   2.060  17.110 -0.1026  0.7232 -0.7006
  267MPD2    C3 4038   1.349   2.035  17.027  0.7080 -0.5228 -0.2392
  267MPD2    C4 4039   1.288   1.918  17.045 -0.4703  0.2029 -0.9439
  267MPD2    C5 4040   1.334   1.830  17.140 -0.4835 -0.3285  1.2028
  267MPD2     H 4041   1.518   2.150  17.088 -1.2151  0.9109 -2.7748
  267MPD2    H1 4042   1.195   1.886  16.999  0.1635 -0.9924 -1.3711
  267MPD2    H2 4043   1.459   1.795  17.311  0.9062  0.9798  1.2044
  267MPD2    H3 4044   1.279   1.738  17.157 -1.2238 -0.5202 -2.1839
  267MPD2     N 4045   1.303   2.116  16.929  0.6464 -0.2809  0.1456
  267MPD2    H5 4046   1.226   2.080  16.873  0.8434  2.0810 -1.6565
  267MPD2    N1 4047   1.611   2.013  17.298  0.0209  0.3214 -0.1558
  267MPD2    H7 4048   1.634   1.953  17.377  0.7655 -0.3406 -0.8712
  268TMC3    C1 4049   1.807   2.120  17.381  0.1306 -0.5470 -0.0132
  268TMC3    C2 4050   1.896   2.226  17.366 -0.0450 -0.0605 -0.2846
  268TMC3    C3 4051   1.993   2.249  17.461 -0.1898  0.7092  0.3617
  268TMC3    C4 4052   1.807   2.033  17.490 -1.1609 -1.0405 -0.5880
  268TMC3    C5 4053   1.922   2.047  17.561 -0.1643 -0.6206 -0.3018
  268TMC3    C6 4054   2.018   2.145  17.548 -0.7182  0.4670 -0.1815
  268TMC3     C 4055   1.703   2.114  17.278 -0.7019  1.0397  0.0340
  268TMC3     O 4056   1.718   2.193  17.183 -0.0153  0.7558 -0.4551
  268TMC3     H 4057   1.870   2.301  17.292  2.6801 -1.1471 -2.3335
  268TMC3    H1 4058   1.739   1.951  17.506  0.4359 -1.8613  1.8625
  268TMC3    H2 4059   2.100   2.153  17.618  0.3880 -1.7568 -1.2082
  268TMC3    C7 4060   1.942   1.941  17.661  0.3992 -0.2280 -0.0328
  268TMC3    C8 4061   2.110   2.324  17.419  0.0607 -0.2977  0.2692
  268TMC3    O1 4062   1.845   1.894   0.030  0.2187  0.1192 -0.0359
  268TMC3    O2 4063   2.207   2.314  17.495  0.5402  0.2656 -0.2346
  269MPD2     C 4064   1.522   1.295  15.160  0.4088 -0.1443  0.6761
  269MPD2    C1 4065   1.421   1.355  15.232 -0.3003 -0.2508  1.3765
  269MPD2    C2 4066   1.351   1.454  15.175  0.4592  0.1782 -0.6123
  269MPD2    C3 4067   1.390   1.508  15.056 -0.2791 -0.6855 -0.8147
  269MPD2    C4 4068   1.506   1.455  14.994 -0.1317 -0.1486 -0.3897
  269MPD2    C5 4069   1.564   1.344  15.041 -0.5128 -0.1550  0.4860
  269MPD2     H 4070   1.273   1.506  15.230 -0.6655 -1.1619 -0.9232
  269MPD2    H1 4071   1.552   1.486  14.901 -2.1126  1.1361 -0.9539
  269MPD2    H2 4072   1.577   1.211  15.198 -1.4022 -1.6500 -0.0209
  269MPD2    H3 4073   1.654   1.299  15.000 -0.7197  0.1827 -0.3441
  269MPD2     N 4074   1.317   1.612  14.997 -0.2806 -0.7660 -0.4912
  269MPD2    H5 4075   1.234   1.642  15.047 -0.4553 -1.6277 -0.2748
  269MPD2    N1 4076   1.388   1.288  15.349  0.1301 -0.3130 -0.1592
  269MPD2    H7 4077   1.444   1.207  15.371  0.0274 -0.0006  1.2186
  270TMC3    C1 4078   1.243   1.203  15.515  0.0963 -0.1484  0.2881
  270TMC3    C2 4079   1.110   1.179  15.515  0.5895  0.1068  0.0573
  270TMC3    C3 4080   1.069   1.053  15.525 -0.2293 -0.1475  0.5620
  270TMC3    C4 4081   1.332   1.108  15.559  0.0761 -0.0289 -0.2584
  270TMC3    C5 4082   1.283   0.978  15.585 -0.0754  0.2597 -0.2074
  270TMC3    C6 4083   1.156   0.947  15.548 -0.1456  0.4947  0.2763
  270TMC3     C 4084   1.275   1.311  15.420  0.4226 -0.9924 -0.6859
  270TMC3     O 4085   1.191   1.399  15.407  0.2429 -0.5365  0.5112
  270TMC3     H 4086   1.036   1.249  15.478  3.0911  3.0549  0.6322
  270TMC3    H1 4087   1.439   1.123  15.564  0.1248 -0.0357 -1.2888
  270TMC3    H2 4088   1.120   0.845  15.546  1.0242  0.1563 -4.1735
  270TMC3    C7 4089   1.396   0.878  15.591  0.4902  0.6294 -0.7585
  270TMC3    C8 4090   0.956   1.026  15.434 -0.7083 -0.0254 -0.3991
  270TMC3    O1 4091   1.512   0.912  15.570  0.0312 -0.1964 -0.3746
  270TMC3    O2 4092   0.864   1.101  15.446 -0.1676  0.6328  0.4409
  271MPD2     C 4093   0.559   1.280  13.668  0.2308 -0.6106 -0.2442
  271MPD2    C1 4094   0.487   1.167  13.694 -0.0090 -0.0478 -0.7226
  271MPD2    C2 4095   0.359   1.155  13.640  0.7806  0.7100 -0.6632
  271MPD2    C3 4096   0.302   1.258  13.566  0.0190  0.0236 -0.3363
  271MPD2    C4 4097   0.378   1.366  13.527 -0.3101 -0.2135 -0.0352
  271MPD2    C5 4098   0.505   1.377  13.583  0.2350 -0.7482 -0.3771
  271MPD2     H 4099   0.304   1.063  13.659  5.3908 -1.3784  2.7778
  271MPD2    H1 4100   0.337   1.445  13.464  1.5050  0.3861 -0.4618
  271MPD2    H2 4101   0.659   1.292  13.708 -0.6486  0.3834  1.5965
  271MPD2    H3 4102   0.571   1.462  13.566 -0.5196 -0.6956 -2.9975
  271MPD2     N 4103   0.164   1.258  13.530 -0.1125  0.1408 -0.1729
  271MPD2    H5 4104   0.120   1.347  13.506  3.8344  2.0963 -0.1037
  271MPD2    N1 4105   0.538   1.072  13.782  0.3078  0.2245  0.3863
  271MPD2    H7 4106   0.475   0.996  13.805  0.0399  0.2095 -0.4049
  272TMC3    C1 4107   0.666   0.959  13.938  0.4795 -0.3685 -0.1742
  272TMC3    C2 4108   0.785   0.900  13.968 -0.1734  0.0575  0.7188
  272TMC3    C3 4109   0.811   0.834  14.086 -0.1827  0.1563  0.0338
  272TMC3    C4 4110   0.572   0.950  14.038 -0.1835  0.8780  0.0528
  272TMC3    C5 4111   0.603   0.889  14.156 -0.2693 -0.0480 -0.0808
  272TMC3    C6 4112   0.724   0.823  14.187 -0.2945  0.6844 -1.2364
  272TMC3     C 4113   0.663   1.063  13.833 -0.0287  0.2382 -0.0483
  272TMC3     O 4114   0.756   1.142  13.831  0.5546 -0.2397 -0.7065
  272TMC3     H 4115   0.854   0.914  13.886  0.7169 -1.4046  1.2276
  272TMC3    H1 4116   0.480   1.007  14.025 -1.0122 -1.1555 -2.8666
  272TMC3    H2 4117   0.750   0.790  14.287 -1.7620  0.4083 -0.9486
  272TMC3    C7 4118   0.504   0.909  14.259 -0.0994 -0.1024 -0.6137
  272TMC3    C8 4119   0.903   0.721  14.071 -0.2729  0.0178  0.4658
  272TMC3    O1 4120   0.388   0.899  14.226  0.1506  0.1064  0.5941
  272TMC3    O2 4121   0.916   0.686  13.958 -0.0884  0.0968  0.2691
  273MPD2     C 4122   2.394   3.549  11.351  0.3240  0.4008  0.0332
  273MPD2    C1 4123   2.493   3.647  11.340 -0.1754 -0.1291  0.4949
  273MPD2    C2 4124   2.514   3.713  11.223 -0.1744 -0.0821  0.3065
  273MPD2    C3 4125   2.426   3.689  11.112  0.2549 -0.2648 -0.1157
  273MPD2    C4 4126   2.331   3.590  11.125  0.8915 -0.2915  0.2722
  273MPD2    C5 4127   2.311   3.526  11.242 -0.2885 -0.1530 -0.3724
  273MPD2     H 4128   2.604   3.774  11.220 -0.3210  0.1059 -0.3921
  273MPD2    H1 4129   2.257   3.574  11.047  1.0218 -2.8070  0.6656
  273MPD2    H2 4130   2.374   3.492  11.441 -1.4390 -0.9365 -1.1938
  273MPD2    H3 4131   2.231   3.458  11.266  1.1148 -0.9940  1.9423
  273MPD2     N 4132   2.427   3.755  10.987 -0.2800  0.1687  0.3182
  273MPD2    H5 4133   2.379   3.704  10.913  1.1625 -2.2907  1.0467
  273MPD2    N1 4134   2.582   3.691  11.448  0.0730 -0.0651  0.2486
  273MPD2    H7 4135   2.654   3.760  11.428  0.6895 -1.3978 -2.1494
  274TMC3    C1 4136   2.459   3.938  10.836  0.5679 -0.6656 -0.1340
  274TMC3    C2 4137   2.395   3.871  10.735  0.3790 -0.0780 -0.2338
  274TMC3    C3 4138   2.324   3.936  10.647  0.7828  0.2483 -0.1155
  274TMC3    C4 4139   2.480   4.072  10.837  0.2646 -0.0072  0.7173
  274TMC3    C5 4140   2.402   4.136  10.751  0.0140  0.7973  0.3145
  274TMC3    C6 4141   2.336   4.071  10.646  0.2682 -0.4854 -0.7699
  274TMC3     C 4142   2.485   3.876  10.966  0.0190  0.5522  0.6275
  274TMC3     O 4143   2.551   3.937  11.045  0.3313  0.4852 -0.5335
  274TMC3     H 4144   2.357   3.770  10.739 -3.1945  1.3030  0.7529
  274TMC3    H1 4145   2.528   4.122  10.920  0.8317  2.1294 -0.9020
  274TMC3    H2 4146   2.263   4.127  10.589 -0.4818 -0.4793  0.2021
  274TMC3    C7 4147   2.343   4.262  10.796  0.2066 -0.4667  0.9358
  274TMC3    C8 4148   2.201   3.873  10.595 -0.6547 -0.5475  0.0587
  274TMC3    O1 4149   2.235   4.301  10.751 -0.0133 -0.2343  0.0702
  274TMC3    O2 4150   2.121   3.805  10.670 -0.1166 -0.6454 -0.6954
  275MPD2     C 4151   2.104   2.041  14.027  0.8615  0.3983 -0.0113
  275MPD2    C1 4152   2.074   1.941  14.116 -0.0085 -0.9139  0.6420
  275MPD2    C2 4153   1.995   1.841  14.074  0.2528 -1.0005  0.2488
  275MPD2    C3 4154   1.917   1.855  13.961 -0.1770  0.4441  0.1970
  275MPD2    C4 4155   1.945   1.964  13.881  0.2468  0.2883  0.1549
  275MPD2    C5 4156   2.036   2.057  13.912  0.5730 -0.2095  0.1345
  275MPD2     H 4157   1.984   1.759  14.144 -2.2488 -2.3307 -1.6864
  275MPD2    H1 4158   1.880   1.976  13.795  2.0602 -1.4172 -1.4513
  275MPD2    H2 4159   2.176   2.120  14.047  1.8934 -0.1532 -1.5336
  275MPD2    H3 4160   2.055   2.144  13.851 -1.5465 -1.5035 -2.3468
  275MPD2     N 4161   1.803   1.776  13.941  0.0200 -0.1722  0.2506
  275MPD2    H5 4162   1.752   1.808  13.860  0.8968 -0.5962 -0.4604
  275MPD2    N1 4163   2.129   1.927  14.243 -0.3129  0.8060  0.1385
  275MPD2    H7 4164   2.100   1.851  14.304 -1.2859  0.6244 -0.5570
  276TMC3    C1 4165   2.285   1.952  14.412 -0.2983 -0.4155 -0.1167
  276TMC3    C2 4166   2.272   1.819  14.440  0.2947 -0.3208 -0.2625
  276TMC3    C3 4167   2.314   1.781  14.560  0.2179  0.2088 -0.1282
  276TMC3    C4 4168   2.353   2.049  14.487 -0.2712 -0.6407 -0.3605
  276TMC3    C5 4169   2.408   2.004  14.599 -0.5995  0.2008 -0.1072
  276TMC3    C6 4170   2.381   1.876  14.641  0.2673 -0.2261  0.4369
  276TMC3     C 4171   2.237   2.000  14.286 -0.4441  0.5547 -0.3771
  276TMC3     O 4172   2.293   2.101  14.244  0.1749  0.2457 -0.5038
  276TMC3     H 4173   2.253   1.739  14.370  1.2391 -0.4840 -0.3334
  276TMC3    H1 4174   2.354   2.153  14.454  1.3944 -0.2850  0.8173
  276TMC3    H2 4175   2.410   1.837  14.737  1.5938 -1.6714 -0.5636
  276TMC3    C7 4176   2.478   2.102  14.685  0.0950  0.3855 -0.0359
  276TMC3    C8 4177   2.327   1.643  14.601 -1.1915 -0.2651 -0.0714
  276TMC3    O1 4178   2.480   2.074  14.808  0.0682 -0.0859 -0.4992
  276TMC3    O2 4179   2.427   1.620  14.665 -0.0639  0.1239 -0.2062
  277MPD2     C 4180   3.737   0.844  13.159 -0.4669 -0.0336  0.7873
  277MPD2    C1 4181   3.602   0.836  13.194 -0.3093 -0.3989 -0.0151
  277MPD2    C2 4182   3.568   0.802  13.329 -0.2000 -0.7255 -0.3002
  277MPD2    C3 4183   3.660   0.771  13.419 -0.0949 -0.6895  0.0294
  277MPD2    C4 4184   3.794   0.790  13.385  0.3443 -0.0071 -0.2704
  277MPD2    C5 4185   3.830   0.812  13.256 -0.4006 -0.3006  0.2053
  277MPD2     H 4186   3.467   0.797  13.367  0.1604  1.4741  0.9701
  277MPD2    H1 4187   3.870   0.768  13.459 -0.5548 -0.8925  0.3848
  277MPD2    H2 4188   3.775   0.855  13.058 -1.2757 -0.6165  0.4158
  277MPD2    H3 4189   3.938   0.820  13.252 -0.5388  1.9373  1.2361
  277MPD2     N 4190   3.616   0.738  13.551 -0.1220  0.4912  0.0369
  277MPD2    H5 4191   3.517   0.718  13.561  0.1877  0.0213  2.0856
  277MPD2    N1 4192   3.512   0.878  13.102  0.0194 -0.2366  0.3011
  277MPD2    H7 4193   3.558   0.891  13.012  0.2992  1.7430  0.7287
  278TMC3    C1 4194   3.617   0.660  13.767 -0.4683  0.2189 -0.1467
  278TMC3    C2 4195   3.631   0.526  13.761 -0.6408  0.3904  0.0571
  278TMC3    C3 4196   3.522   0.443  13.766 -0.4283  0.8873  0.1707
  278TMC3    C4 4197   3.491   0.709  13.775 -0.0943  0.1915 -0.1990
  278TMC3    C5 4198   3.377   0.628  13.762 -0.2144 -0.0154 -0.3930
  278TMC3    C6 4199   3.397   0.489  13.747 -0.4428  0.6284  0.7065
  278TMC3     C 4200   3.692   0.714  13.659 -0.4802 -0.2697  0.2428
  278TMC3     O 4201   3.812   0.705  13.670 -0.5532 -0.0556 -0.5334
  278TMC3     H 4202   3.727   0.487  13.728  0.7259  0.8385  3.5140
  278TMC3    H1 4203   3.486   0.816  13.759  1.1385  0.1970 -0.5205
  278TMC3    H2 4204   3.322   0.418  13.713 -0.5341  0.7331  0.6878
  278TMC3    C7 4205   3.281   0.675  13.669  0.5474  0.8565  0.1128
  278TMC3    C8 4206   3.545   0.312  13.722 -0.6134 -0.5548 -0.4740
  278TMC3    O1 4207   3.328   0.729  13.569 -0.1382 -0.2415  0.9480
  278TMC3    O2 4208   3.623   0.242  13.787  0.0392  0.1792 -0.4800
  279MPD2     C 4209   3.018   0.421  17.554  0.1114 -0.2519 -0.6189
  279MPD2    C1 4210   2.916   0.476  17.470  0.3556 -0.8202 -0.1825
  279MPD2    C2 4211   2.941   0.493  17.334 -0.4969  0.2214 -0.2726
  279MPD2    C3 4212   3.068   0.463  17.285  0.5781 -0.2356 -0.1303
  279MPD2    C4 4213   3.156   0.407  17.370  0.1468  0.5050  0.1923
  279MPD2    C5 4214   3.139   0.384  17.503  0.6977 -0.6128  0.2009
  279MPD2     H 4215   2.877   0.536  17.258 -1.5017 -0.9060 -0.0620
  279MPD2    H1 4216   3.255   0.381  17.335 -0.7027 -1.5326 -0.6797
  279MPD2    H2 4217   2.980   0.394  17.652 -0.6572  2.1511 -0.2372
  279MPD2    H3 4218   3.213   0.351  17.575  2.1813  1.6490 -0.2771
  279MPD2     N 4219   3.113   0.483  17.151 -0.4614  0.0539  0.0835
  279MPD2    H5 4220   3.211   0.479  17.126 -0.3457  2.0294  0.2188
  279MPD2    N1 4221   2.795   0.505  17.529  0.4459  0.1099  0.5469
  279MPD2    H7 4222   2.783   0.458  17.618  3.9953 -1.2770  0.2975
  280TMC3    C1 4223   2.605   0.636  17.558 -0.3528 -0.5134 -0.0511
  280TMC3    C2 4224   2.477   0.662  17.510  0.0831 -0.2171 -0.0452
  280TMC3    C3 4225   2.391   0.721  17.596 -0.5518  0.1646  0.3205
  280TMC3    C4 4226   2.640   0.664   0.000 -0.3396 -0.7736  0.1974
  280TMC3    C5 4227   2.548   0.722   0.084  0.1315 -0.7184  0.4762
  280TMC3    C6 4228   2.421   0.749   0.039 -0.0198 -0.4823  0.2334
  280TMC3     C 4229   2.702   0.577  17.467 -0.4241 -0.1728  0.4595
  280TMC3     O 4230   2.700   0.624  17.354 -0.1871  0.1749 -0.4150
  280TMC3     H 4231   2.443   0.645  17.408  2.5749  0.6795 -1.0139
  280TMC3    H1 4232   2.744   0.653   0.031 -1.2096 -1.1315  2.9967
  280TMC3    H2 4233   2.340   0.789   0.099  1.4595 -0.3236  2.0941
  280TMC3    C7 4234   2.604   0.818   0.178  0.6622 -0.4212  0.0050
  280TMC3    C8 4235   2.276   0.797  17.537  0.1311 -0.8979 -0.1253
  280TMC3    O1 4236   2.715   0.811   0.235  0.3442  0.2932  0.0067
  280TMC3    O2 4237   2.177   0.816  17.611  0.2644 -0.4351  0.0006
  281TMC3    C1 4238   1.936   1.267  12.788  0.7126 -0.3182 -0.1700
  281TMC3    C2 4239   1.959   1.362  12.698  0.1344 -0.1454 -0.5351
  281TMC3    C3 4240   1.939   1.325  12.567  0.7240  0.6788 -0.6265
  281TMC3    C4 4241   1.909   1.136  12.759 -0.3925  0.2458 -0.1116
  281TMC3    C5 4242   1.891   1.102  12.628 -0.7112 -0.0998 -0.2142
  281TMC3    C6 4243   1.908   1.197  12.531 -0.0390 -0.5114 -0.3837
  281TMC3     C 4244   1.909   1.315  12.923  0.3556 -0.4607  0.0770
  281TMC3     O 4245   1.908   1.248  13.023  0.2897 -0.1224 -0.1036
  281TMC3     H 4246   1.993   1.460  12.730 -0.2022 -0.4947  0.9193
  281TMC3    H1 4247   1.887   1.069  12.841 -0.4521 -0.0207 -0.3495
  281TMC3    H2 4248   1.879   1.167  12.431  1.9269 -0.9776 -0.8043
  281TMC3    C7 4249   1.780   1.012  12.597 -0.8210 -0.1867 -0.1405
  281TMC3    C8 4250   1.868   1.416  12.483  0.1922 -0.3896 -0.2106
  281TMC3    O1 4251   1.748   0.979  12.485  0.4885  0.0770  0.3143
  281TMC3    O2 4252   1.810   1.366  12.390 -0.2087 -0.1363 -0.3300
  282MPD2     C 4253   3.347   2.574  14.936 -0.5115 -0.6923  0.2948
  282MPD2    C1 4254   3.218   2.619  14.952  0.5698  0.0401 -1.0027
  282MPD2    C2 4255   3.151   2.665  14.842  0.3900 -0.8334  0.3700
  282MPD2    C3 4256   3.204   2.637  14.719 -0.3162 -0.1125 -0.0832
  282MPD2    C4 4257   3.323   2.569  14.703  0.0668 -0.6041 -0.4722
  282MPD2    C5 4258   3.395   2.546  14.818 -0.0265  0.7728  0.5295
  282MPD2     H 4259   3.055   2.710  14.864 -0.4356 -1.5685 -1.7362
  282MPD2    H1 4260   3.372   2.536  14.612  1.9671 -1.5685  0.8953
  282MPD2    H2 4261   3.417   2.558  15.018 -1.5270  1.1934  1.5329
  282MPD2    H3 4262   3.495   2.507  14.803 -1.2170 -1.6360 -1.2398
  282MPD2     N 4263   3.115   2.656  14.611  0.2027  0.5987  0.0480
  282MPD2    H5 4264   3.032   2.710  14.635  0.2834  1.1226 -0.8813
  282MPD2    N1 4265   3.157   2.628  15.079 -0.2185 -0.1162 -0.0525
  282MPD2    H7 4266   3.059   2.655  15.081 -0.3983 -0.7948  0.2345
  283TMC3    C1 4267   3.108   2.623  15.308  0.2554 -0.3499  0.8662
  283TMC3    C2 4268   3.042   2.744  15.310  0.2023 -0.2157  0.2794
  283TMC3    C3 4269   2.956   2.765  15.412  0.3453 -0.1969 -0.2832
  283TMC3    C4 4270   3.084   2.525  15.404  0.0770  0.3140 -0.4399
  283TMC3    C5 4271   2.990   2.540  15.491 -0.3849  0.2075 -0.2870
  283TMC3    C6 4272   2.934   2.664  15.504  0.0643  1.0800  0.7766
  283TMC3     C 4273   3.205   2.591  15.200 -0.4250  0.0322 -0.4278
  283TMC3     O 4274   3.302   2.535  15.238 -0.2534 -0.7336 -0.7360
  283TMC3     H 4275   3.082   2.821  15.245 -1.3978  0.3076 -0.0819
  283TMC3    H1 4276   3.145   2.436  15.401  1.1707  1.0048  0.9835
  283TMC3    H2 4277   2.854   2.681  15.575  0.4404  2.3802  0.9017
  283TMC3    C7 4278   2.948   2.444  15.590  0.8406  0.2608  0.0857
  283TMC3    C8 4279   2.897   2.897  15.435  0.2976  0.1445  0.6320
  283TMC3    O1 4280   2.902   2.495  15.692  0.6524  0.0101 -0.0748
  283TMC3    O2 4281   2.852   2.907  15.550  0.1520  0.7345 -0.2927
  284MPD2     C 4282   1.649   1.727  11.589 -0.3568  0.5313  0.1513
  284MPD2    C1 4283   1.665   1.689  11.456 -0.5483  0.1333 -0.1091
  284MPD2    C2 4284   1.572   1.601  11.405  0.1407 -0.7483 -0.0012
  284MPD2    C3 4285   1.480   1.530  11.481  0.5555 -0.6911  0.2390
  284MPD2    C4 4286   1.478   1.552  11.617 -0.1698 -0.1686  0.2726
  284MPD2    C5 4287   1.556   1.654  11.669 -0.2243 -0.6181 -0.4014
  284MPD2     H 4288   1.574   1.566  11.302 -0.8953  2.3794 -1.0941
  284MPD2    H1 4289   1.411   1.505  11.688 -1.9707  0.9600 -0.6962
  284MPD2    H2 4290   1.708   1.795  11.651  1.2469  0.9558 -1.8442
  284MPD2    H3 4291   1.549   1.664  11.776  2.3031  1.0052 -0.3749
  284MPD2     N 4292   1.416   1.421  11.418  0.1231 -0.9462 -0.3130
  284MPD2    H5 4293   1.434   1.397  11.321 -0.0157  0.5265 -0.7008
  284MPD2    N1 4294   1.761   1.750  11.372 -0.0032  0.3615  0.2065
  284MPD2    H7 4295   1.763   1.724  11.274 -0.6926 -0.4591  0.4085
  285TMC3    C1 4296   1.941   1.882  11.303  1.1442 -0.2150  0.1790
  285TMC3    C2 4297   1.950   1.807  11.185 -0.6543 -0.1029 -0.5872
  285TMC3    C3 4298   2.045   1.861  11.090 -0.1604 -0.4379  1.0731
  285TMC3    C4 4299   2.009   1.999  11.321 -0.5738 -0.1695  0.1700
  285TMC3    C5 4300   2.090   2.045  11.220 -0.1354  0.5025 -0.0986
  285TMC3    C6 4301   2.107   1.983  11.101 -0.5042  0.6890  0.1510
  285TMC3     C 4302   1.862   1.829  11.413 -0.3136 -0.9124  0.0233
  285TMC3     O 4303   1.889   1.871  11.524  0.0547  0.0974 -0.4622
  285TMC3     H 4304   1.924   1.701  11.185 -1.0434 -0.0207  0.7674
  285TMC3    H1 4305   2.009   2.045  11.419 -2.7319 -0.1418  0.1611
  285TMC3    H2 4306   2.185   2.017  11.034  2.2215 -1.6210  2.1451
  285TMC3    C7 4307   2.171   2.165  11.232 -0.9829  0.1180 -0.8925
  285TMC3    C8 4308   2.126   1.766  11.022 -0.5319  0.5418 -0.1586
  285TMC3    O1 4309   2.153   2.260  11.154 -0.4182 -0.5503 -0.0691
  285TMC3    O2 4310   2.247   1.785  11.022  0.4477 -0.6489 -0.1603
  286MPD2     C 4311   1.849   0.082   1.200 -0.2614 -0.2592 -0.2928
  286MPD2    C1 4312   1.808   0.110   1.069 -0.4317  0.1243  0.8379
  286MPD2    C2 4313   1.895   0.076   0.965 -0.4171  0.1388 -0.0293
  286MPD2    C3 4314   2.011   0.001   0.989 -0.2338 -0.2378  0.4685
  286MPD2    C4 4315   2.047   4.710   1.122  0.8785 -0.0139  0.0691
  286MPD2    C5 4316   1.973   0.033   1.220 -0.5304  1.0054  0.9950
  286MPD2     H 4317   1.863   0.096   0.863  2.7718 -3.1618 -1.6954
  286MPD2    H1 4318   2.144   4.673   1.153  0.4925 -0.8411  0.2782
  286MPD2    H2 4319   1.779   0.090   1.282  2.2387 -0.3233  1.8140
  286MPD2    H3 4320   2.007   0.015   1.322 -0.3163  1.4847  1.0078
  286MPD2     N 4321   2.095   4.672   0.895 -0.4677 -0.6419 -0.1623
  286MPD2    H5 4322   2.178   4.639   0.943  1.2962  1.8806 -1.5085
  286MPD2    N1 4323   1.685   0.177   1.034  0.3651  0.8616  0.2782
  286MPD2    H7 4324   1.677   0.206   0.937  1.8963  0.9085  0.1547
  287TMC3    C1 4325   2.182   4.611   0.688 -0.3767  0.0320 -0.3785
  287TMC3    C2 4326   2.139   4.535   0.587 -0.0497 -0.3603 -0.3278
  287TMC3    C3 4327   2.225   4.447   0.528 -0.0688 -0.1185  0.3178
  287TMC3    C4 4328   2.306   4.592   0.740  0.5566 -0.1745 -0.0637
  287TMC3    C5 4329   2.391   4.499   0.682 -0.7451  0.0173 -0.4338
  287TMC3    C6 4330   2.354   4.424   0.575  0.3230 -0.2196 -0.1826
  287TMC3     C 4331   2.078   4.676   0.762  0.4802  0.2907  0.3564
  287TMC3     O 4332   1.979   0.002   0.711  0.3544  0.2239  0.6519
  287TMC3     H 4333   2.037   4.545   0.552 -0.7687 -0.0504  1.9217
  287TMC3    H1 4334   2.343   4.656   0.820  1.8745 -2.5909  1.2709
  287TMC3    H2 4335   2.411   4.345   0.528 -0.8069 -0.6162 -0.8994
  287TMC3    C7 4336   2.518   4.483   0.754  0.6338 -0.5825 -0.0406
  287TMC3    C8 4337   2.159   4.354   0.434  0.5636 -0.2419  0.2969
  287TMC3    O1 4338   2.545   4.538   0.860  0.2216  0.6094 -0.3779
  287TMC3    O2 4339   2.039   4.359   0.428 -0.5590  0.1712 -0.8472
  288TMC3    C1 4340   3.274   0.510  14.174  0.3882 -0.0691 -0.7042
  288TMC3    C2 4341   3.301   0.425  14.283  0.0280 -0.2794 -0.0378
  288TMC3    C3 4342   3.406   0.456  14.361 -0.1589  0.5882  0.1558
  288TMC3    C4 4343   3.354   0.615  14.140 -0.0825 -0.6392  0.2121
  288TMC3    C5 4344   3.459   0.636  14.223  0.3192  0.1222 -0.1356
  288TMC3    C6 4345   3.481   0.564  14.337  0.2725  0.3650 -0.0361
  288TMC3     C 4346   3.214   0.450  14.055  0.1715  0.2082 -1.4746
  288TMC3     O 4347   3.159   0.510  13.968 -0.7192  0.4774  0.6515
  288TMC3     H 4348   3.224   0.355  14.312  0.4393 -0.8172 -0.2364
  288TMC3    H1 4349   3.339   0.661  14.043  0.4036 -1.2580 -0.1562
  288TMC3    H2 4350   3.561   0.600  14.401 -0.6276 -0.0702  1.3370
  288TMC3    C7 4351   3.551   0.749  14.206  0.5543 -0.4209 -0.3663
  288TMC3    C8 4352   3.438   0.390  14.489 -0.2430 -0.4339  0.1735
  288TMC3    O1 4353   3.644   0.764  14.283  0.0296  0.0192  0.3286
  288TMC3    O2 4354   3.509   0.452  14.567 -0.0110  0.1242  0.0551
  289MPD2     C 4355   3.690   4.061  14.151  0.3278 -0.2799 -0.0543
  289MPD2    C1 4356   3.677   4.195  14.150  0.0439 -0.6661 -0.1072
  289MPD2    C2 4357   3.563   4.251  14.088  0.8520 -0.7868  0.6084
  289MPD2    C3 4358   3.482   4.164  14.010 -0.2889  0.4197 -0.2677
  289MPD2    C4 4359   3.506   4.028  14.005 -0.1367  0.4061  0.1334
  289MPD2    C5 4360   3.604   3.978  14.088  0.7216  0.3568  0.3753
  289MPD2     H 4361   3.543   4.357  14.078  2.0197 -0.7849 -1.5034
  289MPD2    H1 4362   3.439   3.959  13.954  0.9804  0.5116 -1.4989
  289MPD2    H2 4363   3.766   4.007  14.207  0.3612  1.0719  1.2026
  289MPD2    H3 4364   3.606   3.873  14.112  4.9404 -0.0364 -1.8179
  289MPD2     N 4365   3.358   4.203  13.953 -0.4458  0.5102 -0.0002
  289MPD2    H5 4366   3.295   4.137  13.910 -1.4447 -0.8273  3.5345
  289MPD2    N1 4367   3.775   4.270  14.213  0.0902 -0.3243 -0.0875
  289MPD2    H7 4368   3.853   4.222  14.257  1.1990  1.8229  0.2998
  290TMC3    C1 4369   3.208   4.341  13.833  0.7747  0.5652 -0.0059
  290TMC3    C2 4370   3.146   4.464  13.826  0.1307 -0.3939  0.2367
  290TMC3    C3 4371   3.036   4.477  13.738  0.0696  0.2297 -0.6919
  290TMC3    C4 4372   3.159   4.226  13.766  0.1539 -0.4398 -0.0020
  290TMC3    C5 4373   3.050   4.247  13.681  0.1268 -0.3018 -0.4155
  290TMC3    C6 4374   2.992   4.370  13.668  0.5746  0.2379 -0.0592
  290TMC3     C 4375   3.328   4.333  13.923  0.8054 -0.5799  0.1578
  290TMC3     O 4376   3.367   4.435  13.974 -0.4049 -0.6491  0.1026
  290TMC3     H 4377   3.191   4.549  13.876  2.1221 -0.9529 -0.5931
  290TMC3    H1 4378   3.200   4.126  13.774  0.3435 -0.1745  2.3045
  290TMC3    H2 4379   2.904   4.382  13.606 -0.6375 -0.2144  1.5584
  290TMC3    C7 4380   2.944   4.147  13.681 -0.3564 -0.7443  0.5888
  290TMC3    C8 4381   2.947   4.591  13.732 -0.6284 -1.3181  0.0005
  290TMC3    O1 4382   2.832   4.191  13.664 -0.2340 -0.4431 -0.0707
  290TMC3    O2 4383   2.879   4.604  13.631 -0.0305  0.4584  0.0616
  291MPD2     C 4384   3.180   4.017   0.028 -1.0734  0.7547 -0.7448
  291MPD2    C1 4385   3.157   3.883   0.017  0.5057  0.0964 -0.4716
  291MPD2    C2 4386   3.267   3.797   0.027  0.1599  0.4789 -0.0605
  291MPD2    C3 4387   3.400   3.851   0.045  0.9094 -0.1353 -0.1219
  291MPD2    C4 4388   3.414   3.990   0.050  0.8255 -0.2033 -0.1612
  291MPD2    C5 4389   3.304   4.073   0.036  0.1260  0.2826 -0.0305
  291MPD2     H 4390   3.261   3.689   0.020 -0.9334  0.5329  0.0167
  291MPD2    H1 4391   3.512   4.037   0.054  0.8946 -0.4240  0.7143
  291MPD2    H2 4392   3.100   4.088   0.012 -0.4773  1.5385 -0.1899
  291MPD2    H3 4393   3.308   4.181   0.036  2.0316  0.2073  0.4109
  291MPD2     N 4394   3.508   3.773   0.083  0.0407 -0.2134 -0.0303
  291MPD2    H5 4395   3.585   3.825   0.124  1.0935 -2.3314  0.6903
  291MPD2    N1 4396   3.030   3.830   0.001 -0.4567 -0.1545  0.4156
  291MPD2    H7 4397   3.005   3.735  17.663 -0.3001 -0.0911  0.0552
  292TMC3    C1 4398   2.801   3.818   0.015  0.5905  0.0059 -0.4340
  292TMC3    C2 4399   2.702   3.845   0.104 -0.5153 -0.0440 -0.7150
  292TMC3    C3 4400   2.613   3.745   0.134 -0.3897 -0.6114 -0.6447
  292TMC3    C4 4401   2.808   3.701  17.642  0.2418  0.0393  0.4005
  292TMC3    C5 4402   2.718   3.605  17.674 -0.5104  0.7309  0.1519
  292TMC3    C6 4403   2.617   3.623   0.073 -0.7272 -0.4168 -0.9509
  292TMC3     C 4404   2.917   3.906   0.022  0.0747  0.7101 -0.2549
  292TMC3     O 4405   2.897   4.007   0.086  0.1519 -0.2895  0.0723
  292TMC3     H 4406   2.692   3.945   0.143 -0.1825 -0.2138 -0.1991
  292TMC3    H1 4407   2.872   3.694  17.555 -0.0432  1.0311  0.1073
  292TMC3    H2 4408   2.574   3.529   0.106 -2.0121  0.5386  0.1205
  292TMC3    C7 4409   2.705   3.489  17.585 -0.1481 -0.4574  0.4768
  292TMC3    C8 4410   2.526   3.766   0.246  0.2786 -0.9788 -0.4745
  292TMC3    O1 4411   2.804   3.447  17.527  0.3384 -0.2362 -0.3973
  292TMC3    O2 4412   2.555   3.852   0.326  0.1783 -0.5266 -0.3580
  293MPD2     C 4413   4.597   0.246  12.336 -1.0487 -0.1373  0.3311
  293MPD2    C1 4414   4.642   0.380  12.323 -0.1945  0.0318  0.0378
  293MPD2    C2 4415   0.016   0.432  12.405  0.2747 -0.0949  0.1155
  293MPD2    C3 4416   0.054   0.368  12.525 -0.0878 -0.5987  0.0835
  293MPD2    C4 4417   0.007   0.240  12.545 -0.6368  0.0304  0.6191
  293MPD2    C5 4418   4.647   0.182  12.451  0.1594  0.0205  0.7344
  293MPD2     H 4419   0.049   0.533  12.382 -1.0197 -0.2796 -2.5495
  293MPD2    H1 4420   0.037   0.185  12.633  2.4983 -0.4173 -0.7264
  293MPD2    H2 4421   4.532   0.193  12.268  0.5917 -0.4080 -1.0155
  293MPD2    H3 4422   4.614   0.084  12.482 -1.1266 -0.3071 -1.6538
  293MPD2     N 4423   0.146   0.432  12.614  0.3661  0.2151  0.6775
  293MPD2    H5 4424   0.168   0.527  12.589 -1.1275  0.6933  1.1748
  293MPD2    N1 4425   4.580   0.450  12.214  0.1335 -0.2702 -0.0457
  293MPD2    H7 4426   4.497   0.412  12.169 -0.9393  1.5005  0.4082
  294TMC3    C1 4427   4.528   0.617  12.059  0.0240 -0.4302  0.6912
  294TMC3    C2 4428   4.395   0.583  12.054 -0.2869  0.3479 -0.3227
  294TMC3    C3 4429   4.324   0.613  11.939 -0.1906  0.9187  0.2302
  294TMC3    C4 4430   4.587   0.687  11.951  0.2528 -0.0323  0.6752
  294TMC3    C5 4431   4.504   0.727  11.852 -0.5171 -0.0200 -0.1271
  294TMC3    C6 4432   4.374   0.695  11.840 -0.1412 -0.7898 -0.0227
  294TMC3     C 4433   4.613   0.578  12.170  0.0892 -0.5192 -0.2332
  294TMC3     O 4434   4.721   0.637  12.184 -0.0675 -0.0662 -0.0031
  294TMC3     H 4435   4.357   0.524  12.137 -0.3200 -0.7375 -1.1099
  294TMC3    H1 4436   4.694   0.705  11.949  0.5114 -1.5508  0.6254
  294TMC3    H2 4437   4.309   0.734  11.762  0.7388  2.7214  1.0279
  294TMC3    C7 4438   4.551   0.823  11.751  0.3953 -0.2434 -1.2816
  294TMC3    C8 4439   4.217   0.522  11.913  0.5428 -0.4568 -0.7883
  294TMC3    O1 4440   4.649   0.883  11.790 -0.3278  0.0483  0.6498
  294TMC3    O2 4441   4.208   0.422  11.986 -0.1442 -0.3594  0.5381
  295MPD2     C 4442   4.577   3.561  17.668 -0.3047 -0.1544  0.0070
  295MPD2    C1 4443   4.686   3.640   0.027  0.9670 -0.0179 -0.3050
  295MPD2    C2 4444   4.686   3.676   0.155 -0.2589 -0.2784 -0.3092
  295MPD2    C3 4445   4.589   3.637   0.247  1.0452 -0.5166 -0.0551
  295MPD2    C4 4446   4.496   3.544   0.211 -0.0568 -0.0497  0.9140
  295MPD2    C5 4447   4.493   3.516   0.078  0.0527  0.9254  0.3428
  295MPD2     H 4448   0.056   3.725   0.185  1.5349 -2.1644 -2.7491
  295MPD2    H1 4449   4.425   3.507   0.284  0.0804 -1.6082  0.2630
  295MPD2    H2 4450   4.559   3.517  17.571 -0.6959 -0.7023  0.3298
  295MPD2    H3 4451   4.409   3.462   0.036  0.7578  0.1646 -0.0958
  295MPD2     N 4452   4.592   3.676   0.381  0.4398  0.2828 -0.1145
  295MPD2    H5 4453   4.505   3.665   0.431 -0.1999  2.0300 -0.8464
  295MPD2    N1 4454   0.064   3.703  17.641 -0.2793  0.2092 -0.0649
  295MPD2    H7 4455   0.120   3.767   0.008 -0.2577 -1.6181  2.0356
  296TMC3    C1 4456   4.670   3.772   0.582 -0.5263  0.6300 -1.1313
  296TMC3    C2 4457   0.037   3.853   0.649  0.1253  0.2311 -0.2072
  296TMC3    C3 4458   0.040   3.850   0.780  0.7571  0.1255 -0.1283
  296TMC3    C4 4459   4.585   3.689   0.655 -0.1539 -0.3718  0.1518
  296TMC3    C5 4460   4.612   3.675   0.790  1.1178 -0.4181  0.3420
  296TMC3    C6 4461   4.695   3.761   0.855  0.0913 -0.5489 -0.0770
  296TMC3     C 4462   4.693   3.746   0.445 -0.1286  0.1777  0.2638
  296TMC3     O 4463   0.081   3.767   0.404  0.4370  0.1810  0.6067
  296TMC3     H 4464   0.099   3.917   0.587  1.0476 -0.3537  0.1219
  296TMC3    H1 4465   4.524   3.612   0.610 -0.0087 -0.5613  0.2803
  296TMC3    H2 4466   4.709   3.750   0.962  1.8851 -1.1440 -0.3822
  296TMC3    C7 4467   4.522   3.608   0.879  0.1864  0.2034 -0.4451
  296TMC3    C8 4468   0.144   3.937   0.839  0.3826  0.0672 -0.1359
  296TMC3    O1 4469   4.411   3.591   0.837 -0.5123 -0.4152 -0.9168
  296TMC3    O2 4470   0.188   4.028   0.765  0.0032  0.1495 -0.6011
  297MPD2     C 4471   2.648   1.027  16.291  0.0546  0.9440  0.0427
  297MPD2    C1 4472   2.632   1.156  16.243 -0.3619 -0.3719  0.6735
  297MPD2    C2 4473   2.739   1.239  16.220  0.8009  0.3427  0.1955
  297MPD2    C3 4474   2.860   1.185  16.237 -0.0576  0.5798 -0.5168
  297MPD2    C4 4475   2.881   1.053  16.249  0.5142  0.1983 -0.2670
  297MPD2    C5 4476   2.776   0.972  16.280 -0.2350  0.3567 -0.0794
  297MPD2     H 4477   2.720   1.340  16.188 -1.6362  0.0575  0.7512
  297MPD2    H1 4478   2.981   1.013  16.263  0.4306  0.2956  0.6552
  297MPD2    H2 4479   2.563   0.961  16.308  0.5724  0.3153  0.1666
  297MPD2    H3 4480   2.800   0.866  16.291 -0.9282 -0.0398 -2.4640
  297MPD2     N 4481   2.958   1.282  16.231 -0.0947  0.1965 -0.0813
  297MPD2    H5 4482   2.924   1.372  16.200 -0.3499  0.7697  1.9005
  297MPD2    N1 4483   2.504   1.216  16.219  0.5959  0.9817  0.3964
  297MPD2    H7 4484   2.508   1.306  16.171  1.1574  0.7899  0.0772
  298TMC3    C1 4485   2.289   1.247  16.152 -0.1966 -0.7249 -0.5081
  298TMC3    C2 4486   2.334   1.317  16.048 -0.9117 -0.6331 -0.4690
  298TMC3    C3 4487   2.242   1.381  15.968 -0.5003  0.6367 -0.1849
  298TMC3    C4 4488   2.155   1.236  16.189 -0.1501  0.3220 -0.4796
  298TMC3    C5 4489   2.064   1.315  16.117  0.6962  0.5487 -0.0155
  298TMC3    C6 4490   2.109   1.388  16.006  0.8135 -0.0393 -0.6045
  298TMC3     C 4491   2.379   1.165  16.230  0.8951  0.3992 -0.2473
  298TMC3     O 4492   2.336   1.058  16.278 -0.0246 -0.1914  0.5134
  298TMC3     H 4493   2.433   1.296  16.009 -0.8600 -0.1896 -0.5820
  298TMC3    H1 4494   2.122   1.178  16.274 -0.0868 -0.0118 -0.6815
  298TMC3    H2 4495   2.043   1.456  15.954  0.1186  0.7009  1.2624
  298TMC3    C7 4496   1.943   1.368  16.183  0.4631 -0.3190  0.3611
  298TMC3    C8 4497   2.285   1.448  15.848 -0.2542  0.6236  0.5217
  298TMC3    O1 4498   1.945   1.371  16.304  0.1043 -0.7948 -0.4158
  298TMC3    O2 4499   2.401   1.483  15.844  0.1713  0.6378 -0.2060
  299MPD2     C 4500   2.838   1.098  10.344 -0.4183  0.1201  0.9580
  299MPD2    C1 4501   2.930   1.118  10.241  0.1973  0.2771 -0.8640
  299MPD2    C2 4502   2.882   1.118  10.107  0.2326 -0.0749 -0.5443
  299MPD2    C3 4503   2.746   1.102  10.087  0.3177  0.1817  0.5441
  299MPD2    C4 4504   2.663   1.078  10.189  0.1400  0.1686 -0.3669
  299MPD2    C5 4505   2.699   1.085  10.318 -0.3461 -0.0618  0.1876
  299MPD2     H 4506   2.948   1.131  10.023 -0.6058 -0.6630 -1.2934
  299MPD2    H1 4507   2.556   1.062  10.177  0.5304 -0.8218 -2.5664
  299MPD2    H2 4508   2.860   1.103  10.450 -1.3249  0.0201  1.1489
  299MPD2    H3 4509   2.628   1.099  10.399 -0.9374 -0.0133 -0.3412
  299MPD2     N 4510   2.687   1.088   9.958 -0.0963  0.9052 -0.0105
  299MPD2    H5 4511   2.587   1.073   9.956 -0.0514  0.7160 -0.8047
  299MPD2    N1 4512   3.061   1.146  10.280 -0.1172 -0.0214  0.0475
  299MPD2    H7 4513   3.087   1.129  10.377  1.6064  2.0673 -0.0390
  300TMC3    C1 4514   2.675   1.098   9.720  0.0173  0.5430 -0.4394
  300TMC3    C2 4515   2.702   1.186   9.620 -0.4430  0.3039  0.7089
  300TMC3    C3 4516   2.603   1.257   9.554 -0.5810 -0.2982  0.6731
  300TMC3    C4 4517   2.549   1.056   9.746  0.2538  0.1234 -0.1781
  300TMC3    C5 4518   2.457   1.104   9.655 -0.3936 -0.1478  0.4718
  300TMC3    C6 4519   2.483   1.193   9.557 -0.3306  0.0423 -0.0454
  300TMC3     C 4520   2.760   1.104   9.840 -0.0383  1.0386  0.2321
  300TMC3     O 4521   2.874   1.143   9.814  0.3849  0.6159 -0.4480
  300TMC3     H 4522   2.806   1.217   9.621 -0.1266 -0.7619  0.4646
  300TMC3    H1 4523   2.531   0.982   9.824 -2.0200 -0.1174 -0.9241
  300TMC3    H2 4524   2.401   1.232   9.498 -0.1270 -2.6473 -2.1050
  300TMC3    C7 4525   2.323   1.049   9.659 -0.7720  0.6071  0.0752
  300TMC3    C8 4526   2.605   1.389   9.609  1.0473 -0.9559 -0.1602
  300TMC3    O1 4527   2.270   1.035   9.548  0.0511  0.6224 -0.3104
  300TMC3    O2 4528   2.712   1.403   9.666 -0.0793 -0.0842 -0.4865
  301MPD2     C 4529   0.511   2.073   1.567  0.1804 -1.1616  0.4492
  301MPD2    C1 4530   0.405   2.059   1.484  0.0621 -0.0130  0.0915
  301MPD2    C2 4531   0.359   1.937   1.439  1.2098 -0.2601 -0.2698
  301MPD2    C3 4532   0.422   1.824   1.484  0.8577 -0.2258  0.3463
  301MPD2    C4 4533   0.534   1.842   1.564 -0.0481  0.7085  0.4096
  301MPD2    C5 4534   0.571   1.960   1.612 -0.2162  0.1883  0.0396
  301MPD2     H 4535   0.274   1.928   1.372  0.5343 -0.1693  0.5849
  301MPD2    H1 4536   0.592   1.756   1.597 -0.5557  0.1810 -0.0524
  301MPD2    H2 4537   0.530   2.164   1.622 -0.1238 -1.0443  0.3644
  301MPD2    H3 4538   0.658   1.967   1.677 -0.1322 -0.9548  0.0487
  301MPD2     N 4539   0.395   1.689   1.457 -0.5843 -0.1924  0.2554
  301MPD2    H5 4540   0.445   1.616   1.506  0.0368 -0.3530 -0.6004
  301MPD2    N1 4541   0.323   2.163   1.433 -0.6748  0.1057  1.0358
  301MPD2    H7 4542   0.250   2.143   1.366  0.5080  0.4710 -0.3787
  302TMC3    C1 4543   0.261   1.512   1.393  0.7348  0.5220 -0.2652
  302TMC3    C2 4544   0.357   1.424   1.431  0.3548  0.0130 -0.8658
  302TMC3    C3 4545   0.329   1.294   1.399  0.0490 -0.2397 -0.0192
  302TMC3    C4 4546   0.139   1.480   1.345 -0.3409 -0.1791 -0.0358
  302TMC3    C5 4547   0.113   1.347   1.332  0.0715 -0.1642 -0.1736
  302TMC3    C6 4548   0.210   1.253   1.351 -0.9086  0.2618  0.5909
  302TMC3     C 4549   0.289   1.653   1.374 -0.2952  0.4206 -0.2527
  302TMC3     O 4550   0.229   1.718   1.289  0.0322  0.4216  0.5705
  302TMC3     H 4551   0.458   1.460   1.447 -0.9241  2.1092  2.4243
  302TMC3    H1 4552   0.059   1.554   1.343  0.2890  0.4592 -1.9810
  302TMC3    H2 4553   0.204   1.150   1.317  1.3238  0.3077  0.0740
  302TMC3    C7 4554   4.714   1.305   1.257 -0.3412  0.2709 -0.0474
  302TMC3    C8 4555   0.446   1.208   1.379 -0.0994 -0.4549  0.7465
  302TMC3    O1 4556   4.701   1.186   1.231 -0.3614 -0.4242  0.1950
  302TMC3    O2 4557   0.557   1.256   1.359 -0.1401 -0.3448 -0.4666
  303MPD2     C 4558   0.113   0.202   9.563 -0.2274  0.4783 -0.9426
  303MPD2    C1 4559   0.073   0.327   9.604 -0.1565  0.1910  0.2531
  303MPD2    C2 4560   4.719   0.407   9.524 -0.2002 -0.6595  0.1343
  303MPD2    C3 4561   4.682   0.354   9.401  0.3873  0.0518  0.4291
  303MPD2    C4 4562   4.701   0.221   9.364  0.6626  0.5487 -0.3069
  303MPD2    C5 4563   0.059   0.145   9.447  0.6726 -0.5025  1.1413
  303MPD2     H 4564   4.692   0.509   9.547  1.3590 -1.0261  3.5508
  303MPD2    H1 4565   4.639   0.164   9.296  0.7213 -1.4826  1.3359
  303MPD2    H2 4566   0.177   0.143   9.627 -3.6373 -3.0318 -0.8113
  303MPD2    H3 4567   0.083   0.041   9.425  0.4259 -0.3178 -0.0208
  303MPD2     N 4568   4.594   0.423   9.319  0.8773 -0.4175 -0.4598
  303MPD2    H5 4569   4.533   0.366   9.261  0.9185 -0.3896 -0.5305
  303MPD2    N1 4570   0.130   0.368   9.729 -0.2235  0.6252 -0.6017
  303MPD2    H7 4571   0.157   0.295   9.795 -1.6276  0.0777 -0.6355
  304TMC3    C1 4572   0.167   0.503   9.909 -0.1818  0.1076 -0.6509
  304TMC3    C2 4573   0.151   0.627   9.965  0.0799 -0.1885  0.0673
  304TMC3    C3 4574   0.130   0.633  10.100  0.2325  0.3314 -0.2019
  304TMC3    C4 4575   0.176   0.391   9.978 -0.1904 -0.3815 -0.3535
  304TMC3    C5 4576   0.159   0.399  10.115  0.0800  0.0373  0.3420
  304TMC3    C6 4577   0.143   0.520  10.180  0.3682  0.7429 -0.0923
  304TMC3     C 4578   0.146   0.495   9.768  0.2953 -0.7163  0.0235
  304TMC3     O 4579   0.136   0.605   9.706  0.4249 -0.2191 -0.2350
  304TMC3     H 4580   0.103   0.702   9.904 -2.4439 -2.5836 -0.8713
  304TMC3    H1 4581   0.206   0.294   9.939  0.5023  0.2507 -1.3660
  304TMC3    H2 4582   0.123   0.530  10.286  1.0833 -0.5935  0.1635
  304TMC3    C7 4583   0.062   0.304  10.172 -0.3076  0.0849  0.0624
  304TMC3    C8 4584   4.714   0.675  10.117 -0.1307 -0.1693 -0.2829
  304TMC3    O1 4585   4.710   0.343  10.265  0.1724  0.2773 -0.0984
  304TMC3    O2 4586   4.639   0.658  10.021 -0.2888 -0.0603 -0.0389
  305MPD2     C 4587   3.429   2.933  13.484 -0.1316  0.0967 -0.0974
  305MPD2    C1 4588   3.372   2.804  13.479 -0.5493  0.3399  0.0883
  305MPD2    C2 4589   3.407   2.724  13.372 -0.2537 -0.4674  0.1155
  305MPD2    C3 4590   3.491   2.768  13.269 -0.3570  0.0530  0.0391
  305MPD2    C4 4591   3.552   2.893  13.280  0.5541 -0.4895 -0.0898
  305MPD2    C5 4592   3.527   2.971  13.392 -0.7339 -0.0102  0.1906
  305MPD2     H 4593   3.350   2.632  13.363  1.4868 -1.4212 -1.1194
  305MPD2    H1 4594   3.631   2.925  13.213  2.0873  0.4075  2.1359
  305MPD2    H2 4595   3.401   3.005  13.560 -0.1960 -0.1915  0.1528
  305MPD2    H3 4596   3.587   3.059  13.410 -0.2521 -0.2808 -0.0801
  305MPD2     N 4597   3.558   2.680  13.177 -0.3390  0.3719 -1.0056
  305MPD2    H5 4598   3.620   2.730  13.114 -0.1233  1.8268  0.3598
  305MPD2    N1 4599   3.298   2.764  13.596 -0.1861  0.1895  0.5472
  305MPD2    H7 4600   3.274   2.832  13.668 -0.4818  0.7903 -0.1224
  306TMC3    C1 4601   3.222   2.623  13.760 -0.2456  0.3111  0.1390
  306TMC3    C2 4602   3.305   2.535  13.827 -0.0080  0.6095 -0.0394
  306TMC3    C3 4603   3.305   2.551  13.966  0.4933  0.8606  0.0579
  306TMC3    C4 4604   3.164   2.725  13.821 -0.0627 -0.0315 -0.2874
  306TMC3    C5 4605   3.176   2.740  13.960  0.5743 -0.1443  0.6529
  306TMC3    C6 4606   3.248   2.654  14.033  0.2690  0.0965  0.6107
  306TMC3     C 4607   3.264   2.634  13.623 -0.8251  0.5368 -0.1645
  306TMC3     O 4608   3.277   2.531  13.570 -0.2319  0.8454 -0.2391
  306TMC3     H 4609   3.364   2.456  13.781  1.9369  1.2733  1.3033
  306TMC3    H1 4610   3.091   2.794  13.780 -0.8914 -0.5267  0.3459
  306TMC3    H2 4611   3.250   2.650  14.141 -0.3341 -0.3473  0.6056
  306TMC3    C7 4612   3.086   2.831  14.034 -0.5408  1.0729  0.5483
  306TMC3    C8 4613   3.370   2.444  14.044 -0.5544 -0.6654 -0.3757
  306TMC3    O1 4614   2.970   2.833  14.001  0.2516  0.7517  0.0517
  306TMC3    O2 4615   3.453   2.477  14.131 -0.4325  0.1535 -0.2625
  307MPD2     C 4616   1.050   4.579   0.656  0.1023  0.0391 -0.7763
  307MPD2    C1 4617   1.029   4.717   0.642  0.2906  0.3048  0.0504
  307MPD2    C2 4618   0.908   0.042   0.661 -1.0333  0.1518  0.2206
  307MPD2    C3 4619   0.804   4.686   0.701  0.0795 -0.1744  0.1968
  307MPD2    C4 4620   0.821   4.545   0.715  0.2185 -1.0026  0.0092
  307MPD2    C5 4621   0.945   4.501   0.688 -0.3350 -0.5407 -0.5265
  307MPD2     H 4622   0.889   0.149   0.651 -1.1955 -0.2170 -3.2836
  307MPD2    H1 4623   0.741   4.477   0.744 -0.5198  0.5815  1.6567
  307MPD2    H2 4624   1.140   4.525   0.627  0.4854 -0.0544  0.6088
  307MPD2    H3 4625   0.961   4.394   0.678  0.9392 -0.4927  1.0552
  307MPD2     N 4626   0.678   0.031   0.724  0.8022  0.4618  0.5842
  307MPD2    H5 4627   0.681   0.130   0.702 -1.8400  0.1400 -1.1998
  307MPD2    N1 4628   1.129   0.090   0.607 -0.6667 -0.4483 -0.3911
  307MPD2    H7 4629   1.091   0.180   0.579 -1.2757  0.4484  3.3865
  308TMC3    C1 4630   0.336   0.194   0.649  0.3602 -0.0954  0.2606
  308TMC3    C2 4631   0.387   0.313   0.688 -0.7580 -0.4855  0.2451
  308TMC3    C3 4632   0.490   0.299   0.781  0.2358  0.1095 -0.1636
  308TMC3    C4 4633   0.369   0.073   0.708  0.2389 -0.5993  0.2136
  308TMC3    C5 4634   0.467   0.067   0.805  0.8348  0.4994 -0.2482
  308TMC3    C6 4635   0.531   0.180   0.831  0.5757  0.0334  0.4039
  308TMC3     C 4636   0.217   0.195   0.564  0.1900 -0.1058  0.2604
  308TMC3     O 4637   0.137   0.102   0.577  0.2533  0.1528 -0.1211
  308TMC3     H 4638   0.339   0.404   0.656 -0.2315  0.2655  1.5929
  308TMC3    H1 4639   0.325   4.710   0.656  0.5300 -1.4887  1.4214
  308TMC3    H2 4640   0.615   0.179   0.899  1.5439  2.4570 -0.7637
  308TMC3    C7 4641   0.568   4.689   0.775 -0.5072 -0.4144 -0.8365
  308TMC3    C8 4642   0.578   0.414   0.797 -0.1431  0.2435  0.5553
  308TMC3    O1 4643   0.548   4.576   0.821  0.1799 -0.0737 -0.7915
  308TMC3    O2 4644   0.673   0.406   0.875 -0.1751 -0.8372 -0.5444
  309MPD2     C 4645   0.467   0.873  16.717  0.2526 -0.0892  0.4609
  309MPD2    C1 4646   0.389   0.909  16.601 -0.1954 -0.5352  0.8996
  309MPD2    C2 4647   0.269   0.971  16.626  0.1198  0.2768  0.7155
  309MPD2    C3 4648   0.226   0.994  16.753  0.4485  0.1428 -0.2015
  309MPD2    C4 4649   0.294   0.954  16.862  0.0419  0.1335 -0.5501
  309MPD2    C5 4650   0.409   0.886  16.840  0.3341 -0.1331  0.3861
  309MPD2     H 4651   0.214   0.996  16.536 -0.3226 -0.2030  0.8516
  309MPD2    H1 4652   0.264   0.980  16.963 -0.2148 -0.6301 -0.4296
  309MPD2    H2 4653   0.571   0.842  16.715  0.6487  1.3168 -1.3584
  309MPD2    H3 4654   0.462   0.858  16.931  0.1628 -0.7257  0.3044
  309MPD2     N 4655   0.112   1.071  16.780 -0.1434  0.1930 -0.0353
  309MPD2    H5 4656   0.082   1.086  16.876  1.7610  0.2793  0.5332
  309MPD2    N1 4657   0.443   0.908  16.474 -0.7370 -0.3421  0.1311
  309MPD2    H7 4658   0.389   0.953  16.400  2.6777 -0.4349 -2.3793
  310TMC3    C1 4659   0.612   0.884  16.298 -0.1529 -0.3957 -0.2515
  310TMC3    C2 4660   0.542   0.977  16.222  0.0435 -0.2209  0.3545
  310TMC3    C3 4661   0.588   1.019  16.100 -0.2032  0.2237 -0.0909
  310TMC3    C4 4662   0.731   0.839  16.248  0.1162  0.1538 -0.0320
  310TMC3    C5 4663   0.769   0.882  16.124  0.2848 -0.4447  0.0022
  310TMC3    C6 4664   0.713   0.984  16.057 -0.2416  0.5294 -0.3042
  310TMC3     C 4665   0.572   0.858  16.439 -0.2895 -0.7543 -0.1562
  310TMC3     O 4666   0.652   0.793  16.511  0.8925 -0.3898  0.0708
  310TMC3     H 4667   0.440   0.999  16.250  0.1830 -1.2284  1.6559
  310TMC3    H1 4668   0.788   0.764  16.301 -2.1236 -1.1264  0.5631
  310TMC3    H2 4669   0.755   1.003  15.960 -0.9950 -1.7601 -1.0959
  310TMC3    C7 4670   0.910   0.855  16.104  0.2358 -0.2005 -0.9570
  310TMC3    C8 4671   0.502   1.087  15.999 -0.7577 -0.1550 -0.6187
  310TMC3    O1 4672   0.962   0.762  16.164  0.5618 -0.5084  0.4927
  310TMC3    O2 4673   0.558   1.085  15.891  0.0962 -0.4349  0.3262
  311MPD2     C 4674   2.697   2.649  12.189  1.2064  0.1803 -0.1554
  311MPD2    C1 4675   2.717   2.759  12.273 -0.2579 -0.5015 -0.0656
  311MPD2    C2 4676   2.606   2.820  12.328  0.0374  0.4672 -0.1635
  311MPD2    C3 4677   2.475   2.783  12.294 -0.2463 -0.0851 -0.1390
  311MPD2    C4 4678   2.458   2.676  12.204  0.8463  0.2670 -0.4603
  311MPD2    C5 4679   2.572   2.613  12.159 -0.2946  0.0532 -0.4405
  311MPD2     H 4680   2.621   2.893  12.407 -0.4403 -0.2654  0.5995
  311MPD2    H1 4681   2.363   2.635  12.174  1.0284  0.9101 -1.9074
  311MPD2    H2 4682   2.776   2.597  12.136 -0.4588 -0.8230 -1.6705
  311MPD2    H3 4683   2.555   2.534  12.086 -0.2523  2.5530 -3.1641
  311MPD2     N 4684   2.365   2.851  12.357 -0.6496 -0.1512 -0.0025
  311MPD2    H5 4685   2.384   2.914  12.434  0.9217  1.3784 -1.6453
  311MPD2    N1 4686   2.841   2.827  12.287  0.0892  0.1593 -0.0175
  311MPD2    H7 4687   2.840   2.902  12.356 -1.2698 -0.6738  0.8472
  312TMC3    C1 4688   2.126   2.871  12.397  0.0045  0.0259 -0.7433
  312TMC3    C2 4689   1.992   2.846  12.367 -0.2418 -0.9216  0.0450
  312TMC3    C3 4690   1.905   2.860  12.472 -0.1941  0.0816 -0.1620
  312TMC3    C4 4691   2.160   2.906  12.526  0.0846 -0.0182 -0.8884
  312TMC3    C5 4692   2.065   2.922  12.626 -0.1340  0.3785 -0.0459
  312TMC3    C6 4693   1.931   2.903  12.600 -0.1005  0.2729  0.0073
  312TMC3     C 4694   2.236   2.841  12.301  0.2284  0.4701 -0.0834
  312TMC3     O 4695   2.208   2.793  12.191 -0.2662 -0.4564  0.0056
  312TMC3     H 4696   1.959   2.828  12.266 -1.9423  2.1772  0.0482
  312TMC3    H1 4697   2.262   2.919  12.559 -0.4861  1.8145  0.1779
  312TMC3    H2 4698   1.847   2.905  12.669 -0.9315  1.4983 -1.0341
  312TMC3    C7 4699   2.102   2.909  12.767  0.1928  0.2863  0.1589
  312TMC3    C8 4700   1.782   2.785  12.440  0.1505 -0.5247 -0.1651
  312TMC3    O1 4701   2.032   2.836  12.834 -0.0772  0.3037 -0.2550
  312TMC3    O2 4702   1.744   2.783  12.324  0.0069  0.1136 -0.1174
  313MPD2     C 4703   1.833   1.400  10.126  1.4491  0.0934 -0.1223
  313MPD2    C1 4704   1.879   1.513  10.057  0.1002 -0.4625  0.5167
  313MPD2    C2 4705   1.896   1.508   9.919 -0.0826 -0.2484  0.1910
  313MPD2    C3 4706   1.887   1.388   9.855  0.1139 -0.2770 -0.2872
  313MPD2    C4 4707   1.859   1.272   9.925 -0.0310 -0.0176  0.6533
  313MPD2    C5 4708   1.825   1.280  10.064 -0.1516  0.3129  0.2198
  313MPD2     H 4709   1.914   1.597   9.859 -1.3051 -0.3879 -0.3753
  313MPD2    H1 4710   1.859   1.179   9.870  0.2351 -0.1348  0.8529
  313MPD2    H2 4711   1.791   1.405  10.226  1.1109  0.5609 -0.2889
  313MPD2    H3 4712   1.786   1.197  10.122 -2.1739  0.4923 -0.8944
  313MPD2     N 4713   1.911   1.384   9.714 -0.0327 -0.2545 -0.2825
  313MPD2    H5 4714   1.947   1.469   9.673  0.4723 -0.8202 -1.0116
  313MPD2    N1 4715   1.896   1.640  10.112 -0.0921  0.0552  0.2104
  313MPD2    H7 4716   1.912   1.710  10.041 -1.5664 -0.4804 -0.6606
  314TMC3    C1 4717   1.917   1.812  10.269  0.5771  0.5577  0.0430
  314TMC3    C2 4718   1.991   1.853  10.387 -0.8404  0.2682  0.2929
  314TMC3    C3 4719   2.027   1.984  10.398 -0.2672 -0.0404 -0.3455
  314TMC3    C4 4720   1.872   1.906  10.178  0.2952 -0.1525 -0.3487
  314TMC3    C5 4721   1.899   2.036  10.205  0.7822  0.2889 -1.0295
  314TMC3    C6 4722   1.978   2.073  10.305 -0.8206 -0.7486 -0.0576
  314TMC3     C 4723   1.897   1.669  10.244  0.9179 -0.4093 -1.1620
  314TMC3     O 4724   1.899   1.589  10.339  0.6353  0.2474  0.5492
  314TMC3     H 4725   2.019   1.781  10.463  1.2954  0.4771 -0.2964
  314TMC3    H1 4726   1.809   1.869  10.098 -0.7266  0.1811  0.3077
  314TMC3    H2 4727   2.001   2.178  10.320  0.4465 -0.9814 -0.3815
  314TMC3    C7 4728   1.851   2.139  10.114 -0.0546 -0.1010  0.6283
  314TMC3    C8 4729   2.121   2.035  10.492 -0.0659  0.8790  0.9593
  314TMC3    O1 4730   1.872   2.260  10.135  0.1467 -0.4282 -0.3337
  314TMC3    O2 4731   2.123   2.155  10.505  0.3753 -0.3397  0.1779
  315MPD2     C 4732   1.660   0.994  17.534 -0.6770  0.2164  0.5222
  315MPD2    C1 4733   1.788   0.964  17.594 -0.5675  0.0837  0.2966
  315MPD2    C2 4734   1.862   1.066  17.650  0.2383  0.4012  0.7119
  315MPD2    C3 4735   1.826   1.198  17.625  0.1574  0.5235  0.1806
  315MPD2    C4 4736   1.701   1.225  17.568  0.1196 -0.7555 -0.5351
  315MPD2    C5 4737   1.625   1.124  17.519  0.8919  0.9312 -0.5497
  315MPD2     H 4738   1.963   1.055   0.002 -1.1520 -1.2303  3.7462
  315MPD2    H1 4739   1.671   1.325  17.538 -1.0142 -0.7432  0.7017
  315MPD2    H2 4740   1.598   0.918  17.488  1.6238 -0.4697 -1.4741
  315MPD2    H3 4741   1.531   1.154  17.475 -0.1187 -0.9970  0.2989
  315MPD2     N 4742   1.925   1.299  17.651  0.8121  0.3795  0.0364
  315MPD2    H5 4743   2.018   1.264  17.673  0.0518 -0.9603  1.0583
  315MPD2    N1 4744   1.844   0.834  17.591  0.7338  0.4766  0.1024
  315MPD2    H7 4745   1.916   0.805  17.656  0.9072  2.6177  0.8910
  316TMC3    C1 4746   2.028   1.513  17.625 -0.3682 -0.1162 -0.7130
  316TMC3    C2 4747   2.133   1.466   0.009  0.0325  0.5625  0.2154
  316TMC3    C3 4748   2.255   1.519  17.669 -0.0108 -0.3085  0.1306
  316TMC3    C4 4749   2.041   1.620  17.544  0.1254 -0.4436 -0.8770
  316TMC3    C5 4750   2.164   1.672  17.517 -0.0315 -0.3145 -0.7053
  316TMC3    C6 4751   2.273   1.626  17.587 -0.4910  0.0956 -0.0028
  316TMC3     C 4752   1.908   1.431  17.616  0.2354  0.5252  0.4144
  316TMC3     O 4753   1.814   1.493  17.562 -0.1354 -0.4709 -0.5472
  316TMC3     H 4754   2.124   1.396   0.092  0.6686  0.5810  0.2999
  316TMC3    H1 4755   1.952   1.674  17.512  0.5133  0.8792  0.2742
  316TMC3    H2 4756   2.373   1.667  17.577 -0.1563 -0.8099 -0.3615
  316TMC3    C7 4757   2.175   1.777  17.420 -0.3391  0.6308  0.0880
  316TMC3    C8 4758   2.371   1.490   0.066  0.0271  0.7234  0.3889
  316TMC3    O1 4759   2.276   1.850  17.426 -0.4390 -0.3202  0.1920
  316TMC3    O2 4760   2.465   1.571   0.074 -0.3417  0.4916 -0.3125
  317MPD2     C 4761   3.960   0.046  12.788 -0.1788  0.2580 -0.6563
  317MPD2    C1 4762   3.923   4.639  12.767  0.1724 -0.5315 -0.1392
  317MPD2    C2 4763   3.911   4.550  12.875 -0.5025  0.1189 -0.0959
  317MPD2    C3 4764   3.937   4.589  13.008 -0.4852 -0.2156 -0.7526
  317MPD2    C4 4765   3.966   0.000  13.026  0.4339  0.1593  0.3705
  317MPD2    C5 4766   3.976   0.086  12.920 -0.6823 -0.1570  1.3385
  317MPD2     H 4767   3.873   4.454  12.840  0.4165 -0.5605  0.7492
  317MPD2    H1 4768   3.987   0.035  13.127 -2.2431  1.7141  0.3758
  317MPD2    H2 4769   3.962   0.125  12.714 -0.3656  1.1980  0.3534
  317MPD2    H3 4770   4.003   0.187  12.949 -0.9823  0.5344 -0.7860
  317MPD2     N 4771   3.940   4.487  13.102 -0.4379  0.1049 -0.1357
  317MPD2    H5 4772   3.922   4.397  13.060 -0.9777 -0.5584  1.5312
  317MPD2    N1 4773   3.891   4.581  12.641 -0.5259 -0.2468 -0.2900
  317MPD2    H7 4774   3.857   4.486  12.643 -0.3328 -0.3003  0.4441
  318TMC3    C1 4775   3.996   4.384  13.308  0.3196  0.3853  0.6504
  318TMC3    C2 4776   3.947   4.265  13.250 -0.6992  0.1557 -0.4775
  318TMC3    C3 4777   4.022   4.154  13.273 -0.3297  0.8753  1.3433
  318TMC3    C4 4778   4.097   4.390  13.395  0.7596  0.1215 -0.1866
  318TMC3    C5 4779   4.164   4.274  13.425 -0.3257 -0.2660  0.9154
  318TMC3    C6 4780   4.132   4.150  13.361  0.0538 -0.4756 -0.7908
  318TMC3     C 4781   3.975   4.507  13.238  0.1388  0.0998  0.6834
  318TMC3     O 4782   3.997   4.615  13.297  0.1277 -0.3490 -0.1542
  318TMC3     H 4783   3.850   4.266  13.202 -1.1254  1.9403  0.3982
  318TMC3    H1 4784   4.127   4.487  13.433  3.6504 -1.0253  0.4569
  318TMC3    H2 4785   4.157   4.059  13.415 -1.6728 -2.3942 -3.2097
  318TMC3    C7 4786   4.296   4.281  13.479  0.4505 -0.3371  0.1626
  318TMC3    C8 4787   3.961   4.022  13.234  0.4768  0.1732  0.0881
  318TMC3    O1 4788   4.317   4.377  13.555 -0.2501  0.2365 -0.1393
  318TMC3    O2 4789   3.996   3.922  13.297 -0.2253 -0.5768  0.0327
  319MPD2     C 4790   0.494   0.588  16.180  0.1656 -0.3879  0.6038
  319MPD2    C1 4791   0.420   0.526  16.275  0.0325 -0.1270 -0.0082
  319MPD2    C2 4792   0.288   0.497  16.251  0.0327 -0.6926  0.3342
  319MPD2    C3 4793   0.235   0.517  16.130 -0.4075 -0.8245 -0.2267
  319MPD2    C4 4794   0.298   0.597  16.039  0.6575 -0.1734  1.0475
  319MPD2    C5 4795   0.430   0.631  16.064  0.0383  0.0345  0.2789
  319MPD2     H 4796   0.226   0.451  16.328 -0.1967 -0.5169  0.2556
  319MPD2    H1 4797   0.259   0.622  15.941  1.1752 -1.1092  0.5956
  319MPD2    H2 4798   0.599   0.606  16.201  0.4968 -2.4878  0.7949
  319MPD2    H3 4799   0.484   0.698  15.998 -0.1957 -0.4509 -0.3988
  319MPD2     N 4800   0.109   0.478  16.092 -0.4475 -0.0712  0.3440
  319MPD2    H5 4801   0.087   0.520  16.002 -2.9236 -1.2833  0.3959
  319MPD2    N1 4802   0.467   0.482  16.399 -0.2427 -0.0490 -0.3773
  319MPD2    H7 4803   0.397   0.446  16.463 -0.8626 -0.0402 -1.0559
  320TMC3    C1 4804   4.628   0.357  16.086  0.0701 -0.5942  0.6600
  320TMC3    C2 4805   4.601   0.415  15.962  0.4547  0.5586  0.0460
  320TMC3    C3 4806   4.488   0.375  15.901 -0.3461 -0.3008  0.2534
  320TMC3    C4 4807   4.557   0.257  16.140  0.1633 -0.4069  0.0769
  320TMC3    C5 4808   4.449   0.216  16.059 -0.8885 -0.0849  0.5070
  320TMC3    C6 4809   4.414   0.268  15.946  0.3282  0.1195  1.3078
  320TMC3     C 4810   0.032   0.386  16.159  0.4713  0.3699  0.5802
  320TMC3     O 4811   0.050   0.330  16.262 -0.0101  0.0599  0.1171
  320TMC3     H 4812   4.655   0.505  15.933  0.3944  0.0304 -1.6428
  320TMC3    H1 4813   4.592   0.197  16.223 -1.0260 -0.1088  0.7963
  320TMC3    H2 4814   4.332   0.233  15.885  1.3048 -0.6951  0.4750
  320TMC3    C7 4815   4.390   0.081  16.079 -0.3034  0.1609  0.6093
  320TMC3    C8 4816   4.432   0.469  15.795  0.1263  0.1327 -0.3746
  320TMC3    O1 4817   4.293   0.056  16.009  0.3714 -0.2041  0.1949
  320TMC3    O2 4818   4.491   0.578  15.781  0.1122 -0.0254 -0.3600
  321TMC3    C1 4819   0.627   0.507  16.583  0.6873 -1.4983 -0.7947
  321TMC3    C2 4820   0.526   0.535  16.666 -0.1903  0.0628  0.5515
  321TMC3    C3 4821   0.558   0.570  16.794 -0.6786  0.4276 -0.6208
  321TMC3    C4 4822   0.755   0.496  16.629 -0.0115 -1.5809 -0.1166
  321TMC3    C5 4823   0.784   0.546  16.754 -1.2641 -0.4540  0.1233
  321TMC3    C6 4824   0.685   0.591  16.834  0.5284 -0.3024  0.1867
  321TMC3     C 4825   0.597   0.486  16.438  0.1179 -0.1094 -0.0808
  321TMC3     O 4826   0.693   0.489  16.364 -0.4942 -0.2216 -0.0596
  321TMC3     H 4827   0.428   0.550  16.622  0.5023 -1.3495 -1.4702
  321TMC3    H1 4828   0.825   0.451  16.559  1.6725  0.4657  0.2618
  321TMC3    H2 4829   0.713   0.653  16.918 -1.3811  0.1705  0.4829
  321TMC3    C7 4830   0.887   0.485  16.828  0.8274 -0.0736  0.0994
  321TMC3    C8 4831   0.478   0.517  16.902  0.1400 -0.0053  0.1847
  321TMC3    O1 4832   0.996   0.460  16.780 -0.2552 -0.1410  0.8032
  321TMC3    O2 4833   0.531   0.551  17.007  0.6278 -0.0672 -0.5486
  322MPD2     C 4834   3.178   1.928  13.211 -0.4505  0.0293 -0.1930
  322MPD2    C1 4835   3.236   1.869  13.319 -0.5938 -0.0288 -0.1841
  322MPD2    C2 4836   3.266   1.734  13.319 -0.3814  0.6048 -0.2036
  322MPD2    C3 4837   3.239   1.667  13.204  0.1693 -0.4719 -0.1748
  322MPD2    C4 4838   3.169   1.724  13.103  0.0675 -0.3597  0.7410
  322MPD2    C5 4839   3.134   1.853  13.105 -0.0576 -0.3238 -0.1803
  322MPD2     H 4840   3.318   1.694  13.405  0.2434 -1.0710 -1.3484
  322MPD2    H1 4841   3.155   1.665  13.014  0.0801 -1.7890  1.6900
  322MPD2    H2 4842   3.163   2.035  13.204  0.9768  0.3253  1.2601
  322MPD2    H3 4843   3.070   1.898  13.030 -0.8407  0.2592  0.8312
  322MPD2     N 4844   3.285   1.534  13.201  0.2104 -0.4172  0.2846
  322MPD2    H5 4845   3.324   1.499  13.288 -0.3205 -0.7867  0.3685
  322MPD2    N1 4846   3.275   1.951  13.423  0.4648  0.0996  0.6153
  322MPD2    H7 4847   3.262   2.050  13.403 -1.0295 -0.2363 -0.0855
  323TMC3    C1 4848   3.428   2.021  13.597 -0.1118 -0.1097 -0.6102
  323TMC3    C2 4849   3.443   2.144  13.531 -0.5429 -0.1409  0.4046
  323TMC3    C3 4850   3.513   2.243  13.596 -0.1743 -0.0036 -0.1783
  323TMC3    C4 4851   3.472   2.005  13.727 -0.3523  0.0912  1.2136
  323TMC3    C5 4852   3.546   2.101  13.780 -0.7989  0.1123  0.6500
  323TMC3    C6 4853   3.557   2.228  13.719 -0.1223  0.4263  0.2658
  323TMC3     C 4854   3.340   1.914  13.540  0.5458 -0.3592  0.4865
  323TMC3     O 4855   3.325   1.810  13.597 -0.4872  0.0090  0.3110
  323TMC3     H 4856   3.414   2.165  13.429 -1.6626 -0.0459  0.7464
  323TMC3    H1 4857   3.464   1.907  13.774 -1.3399  0.6142  2.1273
  323TMC3    H2 4858   3.623   2.301  13.763  1.5863 -0.1420 -1.3786
  323TMC3    C7 4859   3.672   2.055  13.817  0.0576 -0.2153 -1.2355
  323TMC3    C8 4860   3.609   2.300  13.502 -0.2985 -0.2325  0.1732
  323TMC3    O1 4861   3.771   2.109  13.778  0.5685  0.3102  0.2109
  323TMC3    O2 4862   3.624   2.232  13.400 -0.8318  0.2333 -0.4356
  324MPD2     C 4863   0.687   3.546  13.696 -0.1368 -0.1261 -0.4649
  324MPD2    C1 4864   0.616   3.430  13.725  0.6426 -0.2605 -0.5319
  324MPD2    C2 4865   0.486   3.433  13.692  0.2962  0.5542  0.5653
  324MPD2    C3 4866   0.421   3.550  13.649  0.0868 -0.4533 -0.4716
  324MPD2    C4 4867   0.495   3.665  13.629 -0.1899  0.2299 -0.2153
  324MPD2    C5 4868   0.630   3.659  13.647 -0.0315 -0.1966 -0.4966
  324MPD2     H 4869   0.428   3.347  13.724  0.9066  0.3279  1.0655
  324MPD2    H1 4870   0.450   3.758  13.598 -0.1347  0.4429  0.3472
  324MPD2    H2 4871   0.793   3.553  13.719 -0.3871 -1.4570  1.1072
  324MPD2    H3 4872   0.678   3.755  13.639  0.0128 -0.1103  0.9363
  324MPD2     N 4873   0.281   3.551  13.639 -0.2520  0.3140 -0.3957
  324MPD2    H5 4874   0.242   3.645  13.641  1.1303  0.8770  0.6110
  324MPD2    N1 4875   0.667   3.313  13.787 -0.0711 -0.0249  0.1495
  324MPD2    H7 4876   0.616   3.226  13.797  0.1816 -0.5483 -3.0598
  325TMC3    C1 4877   0.052   3.482  13.642  0.4376 -0.5829  0.6216
  325TMC3    C2 4878   4.682   3.393  13.598 -0.0561  0.3643 -0.5826
  325TMC3    C3 4879   4.558   3.409  13.643  0.2597 -0.2663 -0.0933
  325TMC3    C4 4880   0.020   3.579  13.739 -0.2264 -0.1671 -0.2745
  325TMC3    C5 4881   4.610   3.587  13.781  0.1532 -0.2680  0.3033
  325TMC3    C6 4882   4.518   3.500  13.740  0.0982 -0.7681 -0.0742
  325TMC3     C 4883   0.192   3.447  13.638 -0.0088  0.8046 -0.4108
  325TMC3     O 4884   0.221   3.336  13.602  0.0981 -0.2562  0.0800
  325TMC3     H 4885   4.696   3.303  13.538 -1.6636  0.8700 -1.7192
  325TMC3    H1 4886   0.098   3.643  13.777  0.7870 -0.1397 -2.4272
  325TMC3    H2 4887   4.414   3.521  13.762  0.6604  4.1184 -2.0591
  325TMC3    C7 4888   4.571   3.703  13.853  0.3634  0.1274 -0.0074
  325TMC3    C8 4889   4.456   3.325  13.581  0.8678 -0.1703 -0.0917
  325TMC3    O1 4890   4.652   3.795  13.836  0.4669  0.1294 -0.3316
  325TMC3    O2 4891   4.477   3.289  13.466 -0.0887 -0.4135  0.0459
  326MPD2     C 4892   1.554   4.266  10.821 -0.1255  0.5653 -0.1323
  326MPD2    C1 4893   1.612   4.201  10.713 -0.2451 -0.8811 -0.5541
  326MPD2    C2 4894   1.732   4.247  10.665 -0.6573 -0.3491  0.0391
  326MPD2    C3 4895   1.804   4.344  10.729  0.0967  0.6471  0.0942
  326MPD2    C4 4896   1.753   4.401  10.840 -0.0437 -0.5319  0.5033
  326MPD2    C5 4897   1.630   4.364  10.881 -0.6400 -0.4095 -0.0866
  326MPD2     H 4898   1.774   4.205  10.575 -1.0564 -0.8043  0.0711
  326MPD2    H1 4899   1.802   4.478  10.898  0.6603 -0.5259 -0.0968
  326MPD2    H2 4900   1.459   4.238  10.866 -0.4499  1.5697 -0.1909
  326MPD2    H3 4901   1.586   4.407  10.970  2.9336  0.3939  1.2549
  326MPD2     N 4902   1.926   4.394  10.677 -0.4053 -0.4284  0.1356
  326MPD2    H5 4903   1.971   4.468  10.730  0.3141 -0.5789 -0.2786
  326MPD2    N1 4904   1.540   4.109  10.630 -0.4390 -0.5673 -0.6224
  326MPD2    H7 4905   1.599   4.062  10.562 -2.3348 -1.0808 -1.9377
  327TMC3    C1 4906   1.400   3.982  10.519 -0.5128 -0.2406 -0.3050
  327TMC3    C2 4907   1.289   3.994  10.447 -0.4912 -0.0173 -0.5893
  327TMC3    C3 4908   1.279   3.941  10.317 -0.0702  0.3078 -0.1603
  327TMC3    C4 4909   1.499   3.903  10.477  0.1900 -0.1478  0.3039
  327TMC3    C5 4910   1.499   3.840  10.354  0.6961 -0.1997 -0.3679
  327TMC3    C6 4911   1.391   3.872  10.269  0.5573  0.8280  0.1229
  327TMC3     C 4912   1.411   4.068  10.636 -0.1661  0.4103 -0.1335
  327TMC3     O 4913   1.311   4.125  10.679  0.0537  0.2494  0.5962
  327TMC3     H 4914   1.219   4.074  10.470  1.4924  1.4534  0.3759
  327TMC3    H1 4915   1.581   3.874  10.543  0.5882  1.1317  0.3764
  327TMC3    H2 4916   1.388   3.824  10.172 -0.7405  0.0171  0.5504
  327TMC3    C7 4917   1.618   3.771  10.303  0.0803  0.5544  0.0499
  327TMC3    C8 4918   1.249   4.039  10.214 -0.1199 -0.4353  0.5329
  327TMC3    O1 4919   1.600   3.719  10.192  0.1205  0.5470 -0.6014
  327TMC3    O2 4920   1.352   4.088  10.163  0.1184  0.1663 -0.2968
  328MPD2     C 4921   3.558   3.202  16.464 -0.3247 -0.6165 -0.5874
  328MPD2    C1 4922   3.621   3.259  16.572  0.0182  0.0139  0.3015
  328MPD2    C2 4923   3.627   3.398  16.588 -0.1381  0.2816  0.5214
  328MPD2    C3 4924   3.569   3.483  16.497 -0.6857  0.0473 -0.2821
  328MPD2    C4 4925   3.495   3.427  16.394  0.2033 -0.2531 -0.1982
  328MPD2    C5 4926   3.494   3.291  16.379 -0.1943 -0.7599 -0.5162
  328MPD2     H 4927   3.666   3.447  16.677  0.7058 -1.2504  0.9875
  328MPD2    H1 4928   3.450   3.475  16.308  0.6534 -2.7300 -1.8125
  328MPD2    H2 4929   3.560   3.097  16.439 -0.8540 -0.8432  0.3309
  328MPD2    H3 4930   3.428   3.248  16.304 -2.6023  1.1520  0.5028
  328MPD2     N 4931   3.585   3.623  16.497 -0.6671  0.4169  0.1274
  328MPD2    H5 4932   3.532   3.687  16.438 -1.9984 -0.8195 -0.0375
  328MPD2    N1 4933   3.694   3.163  16.649  0.3268  0.3848 -0.1233
  328MPD2    H7 4934   3.686   3.068  16.613 -1.7652  0.1335  1.0027
  329TMC3    C1 4935   3.810   3.064  16.830  0.0373 -0.2855  0.8148
  329TMC3    C2 4936   3.824   3.050  16.970 -0.0133  0.0685 -0.4030
  329TMC3    C3 4937   3.872   2.934  17.019 -0.3386 -0.0708 -0.9718
  329TMC3    C4 4938   3.846   2.955  16.750  0.1128  0.0463 -0.4930
  329TMC3    C5 4939   3.915   2.854  16.802  0.0995 -0.0691  0.1555
  329TMC3    C6 4940   3.920   2.835  16.941 -0.6652 -0.0678 -0.3302
  329TMC3     C 4941   3.742   3.180  16.776  0.4040  0.1531  0.1531
  329TMC3     O 4942   3.744   3.282  16.838 -0.7994  0.1852  0.0253
  329TMC3     H 4943   3.782   3.125  17.036  0.2757  0.7587 -0.9961
  329TMC3    H1 4944   3.826   2.957  16.644 -1.2489 -5.9452 -0.3410
  329TMC3    H2 4945   3.965   2.747  16.984 -2.1443 -1.0018 -0.6951
  329TMC3    C7 4946   3.962   2.737  16.728  0.1136  0.3187 -0.1941
  329TMC3    C8 4947   3.871   2.916  17.163 -0.4676  0.0098 -0.5720
  329TMC3    O1 4948   4.035   2.659  16.784  0.3102 -0.9781  0.9947
  329TMC3    O2 4949   3.890   2.798  17.196  0.5044  0.0976 -0.4388
  330TMC3    C1 4950   2.336   3.812   9.152 -0.4871  0.3829  0.2926
  330TMC3    C2 4951   2.269   3.732   9.069  0.1820 -0.3373  0.6933
  330TMC3    C3 4952   2.314   3.601   9.058  0.2244 -0.3238 -0.0580
  330TMC3    C4 4953   2.438   3.771   9.229  0.3127 -0.4032 -0.4659
  330TMC3    C5 4954   2.474   3.642   9.225 -0.2387 -0.1749 -0.5700
  330TMC3    C6 4955   2.407   3.553   9.148  0.6099  0.0781  0.0117
  330TMC3     C 4956   2.299   3.958   9.168  0.6267  0.6904 -0.2891
  330TMC3     O 4957   2.386   4.031   9.209  0.1113  0.5916 -0.6057
  330TMC3     H 4958   2.191   3.755   8.997  2.0501 -0.2329 -1.2998
  330TMC3    H1 4959   2.496   3.842   9.287 -1.2902  0.2118  0.3823
  330TMC3    H2 4960   2.439   3.450   9.140  0.2720 -0.0614  0.4861
  330TMC3    C7 4961   2.559   3.600   9.332 -0.2041  0.3734 -0.0257
  330TMC3    C8 4962   2.247   3.516   8.966  0.0724 -0.5445 -0.1876
  330TMC3    O1 4963   2.625   3.682   9.389 -0.1982 -0.3934  0.5083
  330TMC3    O2 4964   2.188   3.570   8.874  0.4147  0.2606  0.9503
  331MPD2     C 4965   4.322   2.697  12.103 -0.3114  1.3476 -0.4509
  331MPD2    C1 4966   4.461   2.686  12.120  0.0330  0.1460 -0.5283
  331MPD2    C2 4967   4.527   2.579  12.066 -0.3395 -0.0953  0.5644
  331MPD2    C3 4968   4.457   2.479  11.995 -0.3891 -0.2708 -0.6462
  331MPD2    C4 4969   4.323   2.489  11.984 -0.1645 -0.2408  0.3255
  331MPD2    C5 4970   4.259   2.597  12.032  0.4012  0.2548 -0.2527
  331MPD2     H 4971   4.634   2.564  12.079  0.2181  2.9803 -0.6807
  331MPD2    H1 4972   4.269   2.416  11.924  1.7442  0.9651 -2.8669
  331MPD2    H2 4973   4.260   2.769  12.156 -2.3771 -1.5073  0.9483
  331MPD2    H3 4974   4.151   2.595  12.031  0.4024  0.5074 -1.1023
  331MPD2     N 4975   4.536   2.385  11.933 -0.4741  0.0970  0.3898
  331MPD2    H5 4976   4.633   2.413  11.944 -0.4321  0.4882 -1.0437
  331MPD2    N1 4977   4.527   2.805  12.162 -0.2312 -0.9101 -0.6744
  331MPD2    H7 4978   4.468   2.888  12.162 -0.7780 -1.3006 -1.3563
  332TMC3    C1 4979   4.636   2.276  11.763 -0.2354 -0.1648  0.3331
  332TMC3    C2 4980   4.690   2.336  11.650  0.3668  0.2724 -0.2540
  332TMC3    C3 4981   0.102   2.359  11.636  0.0063  0.5496  0.0808
  332TMC3    C4 4982   0.006   2.245  11.862  0.5262 -0.3481 -0.2972
  332TMC3    C5 4983   0.141   2.271  11.847  0.2116 -0.5666 -0.3842
  332TMC3    C6 4984   0.192   2.328  11.733 -0.7815  0.4146 -0.2002
  332TMC3     C 4985   4.506   2.323  11.810  0.4822  0.0328 -0.1907
  332TMC3     O 4986   4.411   2.343  11.738  0.3434 -0.0062  0.9971
  332TMC3     H 4987   4.616   2.380  11.585  1.0212  2.4389  0.4762
  332TMC3    H1 4988   4.698   2.193  11.952  1.5161  1.4790  1.0776
  332TMC3    H2 4989   0.291   2.372  11.738  0.5909 -2.3288 -3.0043
  332TMC3    C7 4990   0.191   2.332  11.957 -0.0849 -0.5118  0.1614
  332TMC3    C8 4991   0.145   2.462  11.551  0.2373  0.3677 -0.5035
  332TMC3    O1 4992   0.112   2.410  12.005  0.2765  0.0963  0.5514
  332TMC3    O2 4993   0.221   2.538  11.607  0.0693 -0.2577  0.2494
  333MPD2     C 4994   0.332   2.513  10.620  0.2975 -0.2775  0.4250
  333MPD2    C1 4995   0.398   2.424  10.541 -0.4642  0.6255  0.7721
  333MPD2    C2 4996   0.409   2.290  10.594 -0.3303 -0.5204  0.2604
  333MPD2    C3 4997   0.349   2.257  10.714 -0.3227 -0.7740  0.7867
  333MPD2    C4 4998   0.273   2.347  10.779  0.2971  0.0307 -0.6554
  333MPD2    C5 4999   0.270   2.474  10.738 -0.5613  0.2079  0.9582
  333MPD2     H 5000   0.476   2.216  10.551 -0.6005 -0.7150  0.1734
  333MPD2    H1 5001   0.215   2.325  10.868  0.2626  0.2720 -0.6180
  333MPD2    H2 5002   0.316   2.616  10.592 -1.8314 -1.1884 -1.6573
  333MPD2    H3 5003   0.220   2.554  10.792  0.9035  1.3908  0.5723
  333MPD2     N 5004   0.364   2.123  10.754  0.5818 -0.9537 -0.2838
  333MPD2    H5 5005   0.420   2.064  10.693 -0.6826 -0.3171 -2.0750
  333MPD2    N1 5006   0.462   2.470  10.423  0.6210 -0.0825  0.2467
  333MPD2    H7 5007   0.472   2.570  10.409  0.7339 -0.2585 -0.8960
  334TMC3    C1 5008   0.610   2.478  10.236  0.0589 -1.0199  0.0203
  334TMC3    C2 5009   0.729   2.427  10.201  0.0262 -0.5141  0.3640
  334TMC3    C3 5010   0.825   2.513  10.154 -0.4356 -0.1030  0.1819
  334TMC3    C4 5011   0.586   2.618  10.231 -1.0494 -0.6935  0.1878
  334TMC3    C5 5012   0.688   2.698  10.183  0.6370  0.4447 -0.0754
  334TMC3    C6 5013   0.808   2.646  10.150  0.1056  0.4469  0.5381
  334TMC3     C 5014   0.534   2.396  10.334  0.2590  0.0709 -0.0224
  334TMC3     O 5015   0.557   2.277  10.328 -0.4354  0.2166 -0.0455
  334TMC3     H 5016   0.751   2.322  10.212  0.5603 -0.5862 -1.4341
  334TMC3    H1 5017   0.492   2.653  10.271 -0.6788  1.6825 -1.0229
  334TMC3    H2 5018   0.885   2.710  10.110 -1.3141  1.9094  0.1314
  334TMC3    C7 5019   0.668   2.841  10.168 -0.1613  0.1970  0.5381
  334TMC3    C8 5020   0.942   2.462  10.091 -0.8475 -0.6056  0.9054
  334TMC3    O1 5021   0.767   2.910  10.191 -0.7305 -0.0157  0.0555
  334TMC3    O2 5022   0.933   2.389   9.992  0.1053  0.1560 -1.1389
  335TMC3    C1 5023   0.114   4.108  17.244 -0.0318 -0.0952  0.4668
  335TMC3    C2 5024   0.033   4.041  17.153 -0.1217 -0.4430 -0.7207
  335TMC3    C3 5025   0.087   4.031  17.025 -1.0549 -0.0913 -0.9135
  335TMC3    C4 5026   0.240   4.155  17.215  0.0958 -0.1119 -0.7475
  335TMC3    C5 5027   0.281   4.134  17.086  0.1988  0.7709  0.1836
  335TMC3    C6 5028   0.202   4.084  16.989 -0.2642  0.0881 -0.2812
  335TMC3     C 5029   0.074   4.096  17.383  0.8221  0.5729 -0.0008
  335TMC3     O 5030   4.710   4.011  17.412  0.0079  0.4226  0.0386
  335TMC3     H 5031   4.651   4.017  17.177  0.5673 -3.1655 -0.4403
  335TMC3    H1 5032   0.304   4.165  17.301 -2.3221  1.2859  0.8904
  335TMC3    H2 5033   0.235   4.050  16.891 -1.2169 -2.8034  0.4053
  335TMC3    C7 5034   0.419   4.115  17.056 -0.3385 -0.7561 -0.3239
  335TMC3    C8 5035   0.013   3.974  16.914 -0.0479  0.1131  0.6114
  335TMC3    O1 5036   0.451   4.039  16.966 -0.2424  0.0002  0.2315
  335TMC3    O2 5037   0.030   4.027  16.806 -0.3303 -0.2400  0.7253
  336MPD2     C 5038   4.461   1.713  15.852 -0.1432  0.1312  0.2043
  336MPD2    C1 5039   4.508   1.671  15.729  0.2632  0.2996  0.2483
  336MPD2    C2 5040   4.575   1.550  15.720  0.3112  0.5030  0.2681
  336MPD2    C3 5041   4.605   1.475  15.836  0.2579  0.4661  0.4445
  336MPD2    C4 5042   4.564   1.524  15.959 -0.2904  0.0310  0.2694
  336MPD2    C5 5043   4.502   1.646  15.968  0.0275  0.5336  0.2330
  336MPD2     H 5044   4.609   1.517  15.623 -0.6689  0.3051 -0.0126
  336MPD2    H1 5045   4.564   1.463  16.050 -0.8435 -1.8644 -0.9914
  336MPD2    H2 5046   4.411   1.808  15.865 -2.1548 -1.2179  2.1506
  336MPD2    H3 5047   4.477   1.671  16.071  1.1322 -1.3279  0.9566
  336MPD2     N 5048   4.663   1.346  15.836  0.8247  0.0989 -0.4114
  336MPD2    H5 5049   4.661   1.297  15.925 -1.8944  1.4335  0.2717
  336MPD2    N1 5050   4.485   1.747  15.609 -0.8372  0.1507 -0.4226
  336MPD2    H7 5051   4.532   1.706  15.529  0.4308  2.8048 -1.0434
  337TMC3    C1 5052   4.396   1.934  15.482 -0.4482  0.0761  0.0976
  337TMC3    C2 5053   4.278   1.989  15.445 -0.0942  0.7958 -1.1827
  337TMC3    C3 5054   4.278   2.028  15.318  0.6989  0.3261 -0.6755
  337TMC3    C4 5055   4.510   1.926  15.405 -0.1894  0.4269 -0.2070
  337TMC3    C5 5056   4.493   1.976  15.273  0.3414  0.5826 -0.4717
  337TMC3    C6 5057   4.378   2.029  15.228 -0.3310 -0.3860  0.1357
  337TMC3     C 5058   4.394   1.852  15.605 -0.0084  0.3414  0.1591
  337TMC3     O 5059   4.291   1.856  15.669  0.6902 -0.3343  0.3015
  337TMC3     H 5060   4.188   1.998  15.504 -0.0183  0.5950 -1.0361
  337TMC3    H1 5061   4.606   1.898  15.445  0.5957  3.5546  0.1058
  337TMC3    H2 5062   4.351   2.055  15.126  0.6079 -2.1531 -0.5554
  337TMC3    C7 5063   4.589   1.930  15.173  0.1086  0.0361  0.0890
  337TMC3    C8 5064   4.154   2.105  15.289  0.5040 -0.3705  0.1355
  337TMC3    O1 5065   4.549   1.905  15.058 -0.0148 -0.0973 -0.0463
  337TMC3    O2 5066   4.104   2.172  15.379  0.0236 -0.2579 -0.3935
  338MPD2     C 5067   0.508   1.171   0.366  0.3385  0.7676 -0.1372
  338MPD2    C1 5068   0.420   1.066   0.384 -0.1990 -0.3533 -0.2006
  338MPD2    C2 5069   0.410   1.031   0.518 -0.1312  0.4133 -0.0429
  338MPD2    C3 5070   0.485   1.083   0.622  0.6979 -0.2925  0.1739
  338MPD2    C4 5071   0.580   1.182   0.596  0.3921 -0.2309  0.1346
  338MPD2    C5 5072   0.582   1.221   0.469  1.0105 -0.1022  0.2583
  338MPD2     H 5073   0.330   0.961   0.542 -1.4233  1.9946  0.2786
  338MPD2    H1 5074   0.646   1.226   0.670  0.3936  0.1269 -0.0771
  338MPD2    H2 5075   0.527   1.213   0.268  1.9752 -1.2213 -0.6700
  338MPD2    H3 5076   0.648   1.301   0.437 -0.3079  0.8357 -0.1134
  338MPD2     N 5077   0.458   1.044   0.753  0.2452  0.1050 -0.5661
  338MPD2    H5 5078   0.384   0.975   0.765  0.1786 -0.3311 -3.4768
  338MPD2    N1 5079   0.330   1.023   0.288  0.1889 -0.1623 -0.2363
  338MPD2    H7 5080   0.255   0.962   0.319  1.8614 -3.2745 -2.3433
  339TMC3    C1 5081   0.460   1.014   0.981 -0.5071 -0.0027  0.0460
  339TMC3    C2 5082   0.465   0.883   1.018  0.0405  0.6606 -0.2450
  339TMC3    C3 5083   0.357   0.828   1.076 -0.1758  0.5640 -0.1845
  339TMC3    C4 5084   0.357   1.092   1.000  0.5042 -0.4789  0.0010
  339TMC3    C5 5085   0.240   1.033   1.040 -0.0693 -0.5040 -0.6870
  339TMC3    C6 5086   0.242   0.901   1.083  0.5819 -0.7101 -0.2855
  339TMC3     C 5087   0.536   1.056   0.864 -0.0090  0.2815  0.6538
  339TMC3     O 5088   0.635   1.125   0.875  0.0367 -1.1042  0.3988
  339TMC3     H 5089   0.549   0.824   0.984 -1.2911  0.0474 -2.4076
  339TMC3    H1 5090   0.367   1.193   0.961 -1.4783 -0.3643 -0.2419
  339TMC3    H2 5091   0.152   0.859   1.126 -0.0609 -0.9622 -1.8575
  339TMC3    C7 5092   0.119   1.068   0.960  0.9073 -0.5228 -0.4699
  339TMC3    C8 5093   0.349   0.684   1.073 -0.2031  0.0700 -0.4669
  339TMC3    O1 5094   0.038   0.978   0.953  0.6592 -0.0471 -0.9991
  339TMC3    O2 5095   0.456   0.628   1.061  0.1672  0.1777  0.2004
  340MPD2     C 5096   0.767   3.526   8.901  0.0167  0.4310 -0.0277
  340MPD2    C1 5097   0.755   3.420   8.983 -0.5562  0.1639 -0.4785
  340MPD2    C2 5098   0.778   3.446   9.117  0.3887 -0.7389 -0.3875
  340MPD2    C3 5099   0.788   3.568   9.172  0.2829  0.7868 -0.0378
  340MPD2    C4 5100   0.794   3.673   9.093  1.0074  0.0209  0.1224
  340MPD2    C5 5101   0.788   3.652   8.956 -0.2846  0.0781 -0.2934
  340MPD2     H 5102   0.800   3.361   9.180 -1.5718 -1.4743 -0.6755
  340MPD2    H1 5103   0.786   3.775   9.130  1.1449 -0.2557  0.9098
  340MPD2    H2 5104   0.746   3.528   8.794  0.6832 -0.4560 -0.1728
  340MPD2    H3 5105   0.788   3.734   8.886  0.2302  1.5008  1.3643
  340MPD2     N 5106   0.795   3.590   9.310  0.0017  0.3189  0.1793
  340MPD2    H5 5107   0.823   3.683   9.339  0.6633 -0.2092  1.2332
  340MPD2    N1 5108   0.724   3.288   8.937 -0.3045 -0.1831 -0.1713
  340MPD2    H7 5109   0.746   3.268   8.839  1.1068 -1.6673  0.4428
  341TMC3    C1 5110   0.679   3.061   8.932  0.4267  0.1329 -0.3168
  341TMC3    C2 5111   0.597   2.966   8.980  0.0270  0.4185 -0.1954
  341TMC3    C3 5112   0.585   2.842   8.915 -0.2253  0.1788 -0.2533
  341TMC3    C4 5113   0.747   3.042   8.809 -0.1088  0.5955  0.2715
  341TMC3    C5 5114   0.715   2.925   8.744 -0.5175  0.0574  0.2648
  341TMC3    C6 5115   0.639   2.828   8.789 -0.5223 -0.9005  0.7208
  341TMC3     C 5116   0.683   3.185   9.014  0.5275  0.6985 -0.3694
  341TMC3     O 5117   0.643   3.183   9.129 -0.2991  0.0858 -0.2197
  341TMC3     H 5118   0.526   2.987   9.060 -0.9590  0.6404 -1.1295
  341TMC3    H1 5119   0.816   3.117   8.773  1.9042 -0.0538  2.7718
  341TMC3    H2 5120   0.610   2.743   8.728 -1.0310 -0.7469  0.7514
  341TMC3    C7 5121   0.773   2.902   8.615  0.5446 -0.5197 -0.1268
  341TMC3    C8 5122   0.473   2.757   8.967  1.2747 -0.1074 -0.1351
  341TMC3    O1 5123   0.782   2.787   8.574 -0.0984 -0.3106  0.3818
  341TMC3    O2 5124   0.428   2.674   8.889 -0.5014  0.2555  0.2428
  342MPD2     C 5125   3.066   2.276  16.657  0.5855  0.4838  0.1767
  342MPD2    C1 5126   3.006   2.243  16.774 -0.1751 -0.1884  0.6644
  342MPD2    C2 5127   2.990   2.344  16.871 -0.1076  0.5573  0.1841
  342MPD2    C3 5128   3.013   2.473  16.841 -0.9915 -1.1654 -0.3785
  342MPD2    C4 5129   3.076   2.511  16.724  0.0108  0.4352 -0.0339
  342MPD2    C5 5130   3.099   2.407  16.631  0.4747  0.0841 -1.1401
  342MPD2     H 5131   2.945   2.310  16.963 -0.4139 -0.2936 -0.2778
  342MPD2    H1 5132   3.096   2.614  16.698 -0.5480  0.3547 -0.8052
  342MPD2    H2 5133   3.086   2.211  16.572 -0.5248  0.9725 -0.4574
  342MPD2    H3 5134   3.172   2.429  16.553  1.4069 -0.2525 -0.3710
  342MPD2     N 5135   2.999   2.569  16.941 -0.2231 -0.4735 -0.4904
  342MPD2    H5 5136   3.064   2.646  16.950 -0.5531 -0.2218 -0.2599
  342MPD2    N1 5137   2.981   2.104  16.809  0.2618 -0.0393  0.0914
  342MPD2    H7 5138   2.965   2.076  16.905 -1.1667  2.2702  0.5280
  343TMC3    C1 5139   2.984   1.880  16.751  0.2012  0.0951 -0.8790
  343TMC3    C2 5140   3.098   1.865  16.820 -0.4178 -0.6429 -0.0984
  343TMC3    C3 5141   3.169   1.750  16.807  0.5905 -1.0017 -0.2991
  343TMC3    C4 5142   2.942   1.779  16.673 -0.0752 -0.5633 -0.0049
  343TMC3    C5 5143   3.005   1.655  16.675  0.0317 -0.5417  0.7394
  343TMC3    C6 5144   3.124   1.640  16.741  0.4635 -0.0597  0.4519
  343TMC3     C 5145   2.947   2.014  16.712  0.7998 -0.2531  0.0917
  343TMC3     O 5146   2.927   2.032  16.595 -0.4002 -0.3537  0.4165
  343TMC3     H 5147   3.125   1.935  16.898  0.1336 -0.6772 -0.2579
  343TMC3    H1 5148   2.857   1.789  16.606 -0.0626 -3.9863 -0.5253
  343TMC3    H2 5149   3.170   1.543  16.755  1.9542  0.0181 -3.7058
  343TMC3    C7 5150   2.925   1.533  16.650  0.4207 -0.1065 -0.1124
  343TMC3    C8 5151   3.306   1.750  16.843 -0.6967 -0.2199  0.2695
  343TMC3    O1 5152   2.806   1.550  16.635  0.2080  0.1552  0.3820
  343TMC3    O2 5153   3.349   1.844  16.913 -0.4545  0.4462  0.1955
  344MPD2     C 5154   3.500   1.832  10.336 -0.5522  0.3817  0.1863
  344MPD2    C1 5155   3.532   1.730  10.248  0.4985 -0.7217 -0.1686
  344MPD2    C2 5156   3.620   1.754  10.145 -0.6398  0.7348 -0.9449
  344MPD2    C3 5157   3.678   1.876  10.138 -0.6692  0.1298 -0.0234
  344MPD2    C4 5158   3.662   1.963  10.238 -0.3206 -0.5080  0.4267
  344MPD2    C5 5159   3.564   1.951  10.337  0.0988  0.2067  0.1871
  344MPD2     H 5160   3.637   1.671  10.078  1.0472  0.3901 -0.0769
  344MPD2    H1 5161   3.732   2.043  10.262  0.2122 -1.3742  1.8064
  344MPD2    H2 5162   3.422   1.825  10.411  1.4792 -3.5909  1.9400
  344MPD2    H3 5163   3.544   2.023  10.416 -0.0583 -1.3084  1.5338
  344MPD2     N 5164   3.762   1.914  10.038 -0.1443 -0.5024 -0.0849
  344MPD2    H5 5165   3.794   2.011  10.037 -2.2234  0.1717 -1.3492
  344MPD2    N1 5166   3.482   1.599  10.264  0.8934  0.5887  0.4108
  344MPD2    H7 5167   3.481   1.537  10.184  0.5048  1.0023  0.0925
  345TMC3    C1 5168   3.896   1.894   9.845 -0.1347  0.3467  0.0294
  345TMC3    C2 5169   3.999   1.964   9.905  0.4394 -0.1277 -0.1382
  345TMC3    C3 5170   4.082   2.029   9.821 -0.1334  0.2230 -0.3016
  345TMC3    C4 5171   3.866   1.902   9.712 -0.1508  0.8819 -0.3394
  345TMC3    C5 5172   3.947   1.985   9.635  0.1975 -0.1518  0.4113
  345TMC3    C6 5173   4.056   2.045   9.685 -0.1714 -0.2195  0.7378
  345TMC3     C 5174   3.793   1.835   9.930  0.0770  1.3980  0.0553
  345TMC3     O 5175   3.748   1.726   9.888  0.4606  0.6563  0.0185
  345TMC3     H 5176   4.015   1.965  10.012  0.1947  0.9528 -0.1145
  345TMC3    H1 5177   3.771   1.864   9.677  0.1802  1.0225 -1.4050
  345TMC3    H2 5178   4.116   2.120   9.635 -0.6136  1.4091  2.6403
  345TMC3    C7 5179   3.879   2.073   9.536  0.0591  0.1585 -0.4793
  345TMC3    C8 5180   4.146   2.148   9.884 -0.0999 -0.1987 -0.9299
  345TMC3    O1 5181   3.923   2.184   9.537 -0.0290 -0.0923  0.2497
  345TMC3    O2 5182   4.093   2.180   9.990 -0.1278  0.0568 -0.4616
  346MPD2     C 5183   3.314   3.664  14.231 -0.1061  0.0732  0.4006
  346MPD2    C1 5184   3.420   3.601  14.169 -0.4185  0.1958  0.5305
  346MPD2    C2 5185   3.533   3.561  14.233 -0.2557  0.1754  0.4108
  346MPD2    C3 5186   3.538   3.593  14.369  0.3124 -0.3497  0.6677
  346MPD2    C4 5187   3.431   3.646  14.442  0.4380 -0.3507 -0.2051
  346MPD2    C5 5188   3.319   3.677  14.372  0.1869  0.1755 -0.3910
  346MPD2     H 5189   3.607   3.512  14.172 -3.9611 -1.9739 -2.3889
  346MPD2    H1 5190   3.426   3.650  14.550 -1.0361 -0.2799 -0.2825
  346MPD2    H2 5191   3.212   3.674  14.196 -0.3064 -1.0070  0.6969
  346MPD2    H3 5192   3.228   3.702  14.424  0.8012  2.1697 -0.2820
  346MPD2     N 5193   3.665   3.579  14.424 -0.2892 -0.5202 -0.4266
  346MPD2    H5 5194   3.725   3.519  14.369 -1.2704 -0.9063 -1.0806
  346MPD2    N1 5195   3.417   3.557  14.033  1.0507  0.0337  0.8758
  346MPD2    H7 5196   3.505   3.521  13.997  1.1088  0.7781  0.2669
  347TMC3    C1 5197   3.849   3.633  14.560  0.3582 -0.4599 -0.3972
  347TMC3    C2 5198   3.933   3.644  14.454  0.0462 -0.2551 -0.4254
  347TMC3    C3 5199   4.060   3.694  14.474  0.0344 -0.1840  0.2916
  347TMC3    C4 5200   3.891   3.677  14.681 -0.6200  0.3060  0.2872
  347TMC3    C5 5201   4.025   3.712  14.702  0.2145  0.6563 -0.3302
  347TMC3    C6 5202   4.110   3.726  14.597  0.3293  0.8714  0.3712
  347TMC3     C 5203   3.706   3.639  14.541  0.7594  0.1220 -0.0320
  347TMC3     O 5204   3.636   3.701  14.619 -0.3124  0.1924  0.0528
  347TMC3     H 5205   3.906   3.614  14.354 -0.3255  1.6095 -0.8879
  347TMC3    H1 5206   3.833   3.648  14.768 -0.7687  0.7434  0.3358
  347TMC3    H2 5207   4.212   3.757  14.616  0.9561 -0.7832 -0.2479
  347TMC3    C7 5208   4.085   3.734  14.833  0.0025  0.1452  0.6865
  347TMC3    C8 5209   4.149   3.695  14.362  0.3311  0.1711  0.1626
  347TMC3    O1 5210   4.206   3.737  14.850 -0.3286 -0.2456 -0.4825
  347TMC3    O2 5211   4.121   3.618  14.272 -0.6073  0.0980 -0.3365
  348MPD2     C 5212   2.629   2.669  11.601  0.0130  0.3272  0.2755
  348MPD2    C1 5213   2.682   2.793  11.616  0.3798 -0.2656 -0.3737
  348MPD2    C2 5214   2.653   2.884  11.518 -0.1752 -0.0914 -0.2767
  348MPD2    C3 5215   2.570   2.863  11.411 -0.4152  0.2524 -0.0097
  348MPD2    C4 5216   2.504   2.742  11.405 -0.2316  0.3668  0.3391
  348MPD2    C5 5217   2.535   2.652  11.500 -0.2121 -0.6213 -0.4052
  348MPD2     H 5218   2.692   2.984  11.533 -1.5367  0.4356 -0.2285
  348MPD2    H1 5219   2.436   2.722  11.323 -0.3227 -0.0289  0.5121
  348MPD2    H2 5220   2.660   2.581  11.655 -1.1967 -1.0083 -1.2047
  348MPD2    H3 5221   2.481   2.558  11.494 -1.6480  0.0790  1.3830
  348MPD2     N 5222   2.529   2.972  11.320 -0.1928  0.2908 -0.2739
  348MPD2    H5 5223   2.573   3.063  11.332  0.3871  0.1473 -1.3375
  348MPD2    N1 5224   2.785   2.815  11.708  0.4681  0.3193  0.2849
  348MPD2    H7 5225   2.830   2.906  11.701  0.4188  0.3846  0.8254
  349TMC3    C1 5226   2.955   2.769  11.856  1.0390  0.4516 -0.3184
  349TMC3    C2 5227   3.018   2.656  11.891  0.3297  0.3300 -0.1033
  349TMC3    C3 5228   3.126   2.625  11.821  0.5956  0.5444 -0.9128
  349TMC3    C4 5229   3.024   2.871  11.784 -0.1673 -0.3633 -0.1627
  349TMC3    C5 5230   3.131   2.838  11.710  0.2187  0.9382  0.1904
  349TMC3    C6 5231   3.183   2.713  11.732  0.2813  0.1688 -0.1027
  349TMC3     C 5232   2.821   2.735  11.816  0.0820  1.0976  0.3392
  349TMC3     O 5233   2.777   2.631  11.858  0.2604  0.5725 -0.7651
  349TMC3     H 5234   2.964   2.579  11.944 -2.0278 -0.2273 -3.2392
  349TMC3    H1 5235   2.984   2.972  11.779 -2.8040 -1.4198 -0.2261
  349TMC3    H2 5236   3.272   2.685  11.677  0.5674 -1.0888  1.0184
  349TMC3    C7 5237   3.117   2.866  11.572 -0.1969  0.9788 -0.7119
  349TMC3    C8 5238   3.178   2.484  11.834  0.0304  0.8995 -0.1580
  349TMC3    O1 5239   3.116   2.769  11.498  0.5265  0.1855  0.0266
  349TMC3    O2 5240   3.156   2.432  11.944  0.3581  0.2940 -0.6416
  350MPD2     C 5241   1.244   0.981   9.250  0.4598 -0.4892  1.2780
  350MPD2    C1 5242   1.361   0.908   9.228 -0.2743 -0.2127 -0.4492
  350MPD2    C2 5243   1.475   0.984   9.220 -0.7776  0.6525 -0.1865
  350MPD2    C3 5244   1.479   1.122   9.241  0.3985  0.3950  0.5014
  350MPD2    C4 5245   1.361   1.190   9.253 -0.0723 -0.6424 -0.3333
  350MPD2    C5 5246   1.248   1.117   9.263 -0.0171  0.2183 -0.5249
  350MPD2     H 5247   1.562   0.919   9.212 -1.0161  0.4270 -1.0078
  350MPD2    H1 5248   1.367   1.298   9.262 -0.2671 -0.4953 -1.8948
  350MPD2    H2 5249   1.150   0.932   9.273 -0.0685 -0.1364 -0.1446
  350MPD2    H3 5250   1.157   1.171   9.288 -0.2996  0.4607 -2.0870
  350MPD2     N 5251   1.606   1.178   9.255 -0.4760 -0.8048  0.3925
  350MPD2    H5 5252   1.682   1.112   9.243 -1.7951 -2.1820 -0.4091
  350MPD2    N1 5253   1.372   0.764   9.226 -0.2545  0.3565 -0.2180
  350MPD2    H7 5254   1.464   0.721   9.220  0.8095  2.6790 -0.3552
  351TMC3    C1 5255   1.303   0.539   9.254 -0.5782  0.4725 -0.7350
  351TMC3    C2 5256   1.426   0.502   9.216  0.1214  0.3433 -0.1023
  351TMC3    C3 5257   1.469   0.381   9.264  0.0241  0.1407 -0.3116
  351TMC3    C4 5258   1.212   0.454   9.322 -0.5790  0.2046 -0.1840
  351TMC3    C5 5259   1.264   0.341   9.373  0.2649  0.2290 -0.1335
  351TMC3    C6 5260   1.393   0.304   9.355 -0.3478 -0.4640 -0.9431
  351TMC3     C 5261   1.262   0.678   9.242 -0.0005  0.6598 -0.0202
  351TMC3     O 5262   1.147   0.711   9.241  0.3698 -0.4208 -0.5966
  351TMC3     H 5263   1.488   0.559   9.148  1.4780 -1.9652 -0.8310
  351TMC3    H1 5264   1.105   0.469   9.317 -0.5319  0.3697 -0.6609
  351TMC3    H2 5265   1.426   0.216   9.411 -1.5884  1.5917  3.0454
  351TMC3    C7 5266   1.188   0.245   9.447 -0.8055  0.0297 -1.3461
  351TMC3    C8 5267   1.605   0.345   9.247  0.8907 -0.0162 -0.4097
  351TMC3    O1 5268   1.228   0.128   9.432  0.0817 -0.1814 -0.2663
  351TMC3    O2 5269   1.671   0.424   9.180  0.4094  0.1004 -0.0589
  352MPD2     C 5270   0.409   3.102   1.015 -0.1734  0.5363  0.7613
  352MPD2    C1 5271   0.272   3.076   1.024  0.7351  0.1790  0.5146
  352MPD2    C2 5272   0.231   2.965   1.096  0.3496  0.2895  0.2773
  352MPD2    C3 5273   0.320   2.870   1.147 -0.3712 -0.2705 -0.1436
  352MPD2    C4 5274   0.460   2.906   1.134 -0.1043  0.4117  0.5285
  352MPD2    C5 5275   0.500   3.017   1.067  0.2611 -0.0072 -0.2118
  352MPD2     H 5276   0.124   2.946   1.105  0.1442  0.7973 -1.1873
  352MPD2    H1 5277   0.538   2.842   1.173 -2.3668 -1.7508  1.6016
  352MPD2    H2 5278   0.451   3.191   0.970 -1.2413  0.5173 -0.2702
  352MPD2    H3 5279   0.604   3.041   1.047  0.3812 -1.3546 -1.2106
  352MPD2     N 5280   0.290   2.747   1.216  0.4573  0.3715 -0.1956
  352MPD2    H5 5281   0.359   2.689   1.262 -0.8791  0.4159  1.8551
  352MPD2    N1 5282   0.184   3.164   0.960  0.0499  0.6513 -0.2923
  352MPD2    H7 5283   0.220   3.239   0.902  0.4369  0.7522  0.0720
  353TMC3    C1 5284   0.140   2.569   1.292  0.0204  0.1563 -0.3397
  353TMC3    C2 5285   0.247   2.496   1.354  0.5415  0.4005  0.4126
  353TMC3    C3 5286   0.216   2.362   1.392 -0.3406  0.3789 -0.2931
  353TMC3    C4 5287   0.018   2.505   1.266 -0.1516 -0.7574  0.2690
  353TMC3    C5 5288   4.720   2.374   1.309  0.0477 -0.2920 -0.6505
  353TMC3    C6 5289   0.090   2.300   1.376 -0.1523  0.2346 -0.5414
  353TMC3     C 5290   0.158   2.706   1.241  0.0904  0.4164 -0.5944
  353TMC3     O 5291   0.053   2.761   1.208  0.6903 -0.3945 -0.1319
  353TMC3     H 5292   0.341   2.542   1.380 -0.4762  0.3056  4.2623
  353TMC3    H1 5293   4.663   2.567   1.220  1.3589  0.5058 -0.5711
  353TMC3    H2 5294   0.076   2.201   1.417 -0.0236  0.0395 -0.9667
  353TMC3    C7 5295   4.614   2.291   1.256  0.6287  0.2417 -0.0687
  353TMC3    C8 5296   0.317   2.295   1.476  0.4691 -0.4816 -0.3169
  353TMC3    O1 5297   4.620   2.172   1.245 -0.3861  0.2977  0.4038
  353TMC3    O2 5298   0.394   2.355   1.547  0.6783  0.3751 -0.1065
  354TMC3    C1 5299   1.863   4.514  12.810 -0.0226  0.5321  0.0282
  354TMC3    C2 5300   1.819   4.632  12.749  0.3289  0.8451 -0.1313
  354TMC3    C3 5301   1.843   4.636  12.615  1.0614  0.4695  0.1309
  354TMC3    C4 5302   1.945   4.424  12.754  0.2379 -0.7766 -0.3664
  354TMC3    C5 5303   1.958   4.439  12.621  0.2486  0.0344 -0.2295
  354TMC3    C6 5304   1.909   4.545  12.548 -0.4552 -0.9662 -0.7253
  354TMC3     C 5305   1.815   4.504  12.938  0.0429 -0.4705 -0.3616
  354TMC3     O 5306   1.697   4.529  12.960  0.5983  0.1010  0.1924
  354TMC3     H 5307   1.767   4.704  12.811 -1.6732  1.3439 -2.4090
  354TMC3    H1 5308   1.958   4.326  12.799  1.5160 -1.1204 -1.4718
  354TMC3    H2 5309   1.920   4.558  12.441  1.9507  0.7615 -0.2814
  354TMC3    C7 5310   2.026   4.335  12.555  0.6405 -0.2849 -0.7587
  354TMC3    C8 5311   1.756   0.003  12.536  0.0626 -0.3363 -0.1204
  354TMC3    O1 5312   2.051   4.234  12.628  0.1129  0.6910  0.3501
  354TMC3    O2 5313   1.725   4.690  12.424  0.0336  0.0607  0.1221
  355MPD2     C 5314   1.271   0.319  11.011 -0.2909  0.3170  0.8445
  355MPD2    C1 5315   1.362   0.369  10.920 -0.7943  0.1753 -0.9742
  355MPD2    C2 5316   1.497   0.350  10.952  0.4157 -0.6363  1.1705
  355MPD2    C3 5317   1.536   0.325  11.084 -0.4288  0.0710  0.3721
  355MPD2    C4 5318   1.434   0.300  11.174  0.1735 -0.1571 -0.5817
  355MPD2    C5 5319   1.305   0.289  11.138 -0.0664  0.1260 -0.3506
  355MPD2     H 5320   1.565   0.357  10.868 -2.0596 -0.0579 -0.7871
  355MPD2    H1 5321   1.451   0.282  11.280  1.6911 -1.5676 -1.0650
  355MPD2    H2 5322   1.166   0.322  10.983  0.6591  2.0585 -2.5258
  355MPD2    H3 5323   1.233   0.278  11.219 -0.1348 -0.6930 -0.5226
  355MPD2     N 5324   1.668   0.330  11.126 -0.0576 -0.6691  0.5949
  355MPD2    H5 5325   1.676   0.336  11.227  0.8066  0.4399  0.4634
  355MPD2    N1 5326   1.313   0.406  10.791  0.3842 -0.1862  0.7235
  355MPD2    H7 5327   1.219   0.379  10.764  0.0204  1.8219 -0.0553
  356TMC3    C1 5328   1.890   0.398  11.106  0.2904 -0.0071  0.1903
  356TMC3    C2 5329   1.953   0.477  11.019  0.1994  0.5039 -0.4897
  356TMC3    C3 5330   2.024   0.586  11.072 -0.5977  0.3528  0.1788
  356TMC3    C4 5331   1.884   0.426  11.240 -0.2496 -0.0972  0.5866
  356TMC3    C5 5332   1.962   0.526  11.285 -0.5070 -0.1842 -0.3175
  356TMC3    C6 5333   2.035   0.611  11.206 -0.1805 -0.0672  0.3237
  356TMC3     C 5334   1.771   0.335  11.043  1.8940  0.4866 -0.1528
  356TMC3     O 5335   1.777   0.319  10.923  0.1815 -0.4206  0.0517
  356TMC3     H 5336   1.944   0.470  10.911  1.8641  3.7476 -0.8564
  356TMC3    H1 5337   1.837   0.362  11.312  2.6466 -0.9373  1.7239
  356TMC3    H2 5338   2.065   0.706  11.248 -2.9124 -0.2513  2.7224
  356TMC3    C7 5339   1.966   0.550  11.425 -0.7284 -0.2843  0.2683
  356TMC3    C8 5340   2.096   0.667  10.971 -0.9778  0.5198  0.0108
  356TMC3    O1 5341   1.893   0.489  11.498 -0.0994  0.1156  0.3441
  356TMC3    O2 5342   2.048   0.676  10.857  0.6195 -0.0189 -0.4580
  357MPD2     C 5343   1.066   0.045   0.979  0.1179  0.7602 -0.0133
  357MPD2    C1 5344   1.154   4.697   1.060  0.1503  0.6633 -0.5820
  357MPD2    C2 5345   1.113   4.657   1.186  0.5163  0.1809 -0.1596
  357MPD2    C3 5346   0.987   4.692   1.226  0.0119 -0.4121  0.0549
  357MPD2    C4 5347   0.903   0.042   1.143  0.7847  0.3702  0.0339
  357MPD2    C5 5348   0.936   0.074   1.016  0.0871 -0.8242 -0.6019
  357MPD2     H 5349   1.180   4.604   1.252 -0.6683 -1.2011 -0.0850
  357MPD2    H1 5350   0.807   0.073   1.181 -0.5576 -0.5942 -2.5582
  357MPD2    H2 5351   1.098   0.083   0.882 -1.4617  2.2996  0.0844
  357MPD2    H3 5352   0.871   0.122   0.944  0.3091  2.2437  1.2321
  357MPD2     N 5353   0.926   4.658   1.348  0.1499  0.4974  0.8425
  357MPD2    H5 5354   0.847   4.716   1.373 -1.2806 -0.9482 -0.3341
  357MPD2    N1 5355   1.277   4.658   1.002 -0.0792  0.3978 -0.3564
  357MPD2    H7 5356   1.283   4.671   0.902  0.7882  0.4553 -0.2995
  358TMC3    C1 5357   1.489   4.549   0.974  0.1856 -0.6192  0.1969
  358TMC3    C2 5358   1.453   4.511   0.850  0.3592 -0.5460  0.2649
  358TMC3    C3 5359   1.558   4.456   0.777  0.1536 -0.6737 -0.6230
  358TMC3    C4 5360   1.609   4.530   1.033 -0.0089 -0.7217 -0.5101
  358TMC3    C5 5361   1.707   4.472   0.959  0.1877 -0.3377 -0.0311
  358TMC3    C6 5362   1.679   4.430   0.831 -0.4448  0.6726 -0.4008
  358TMC3     C 5363   1.383   4.596   1.065 -0.0917  0.5750 -0.3844
  358TMC3     O 5364   1.395   4.577   1.184  0.0618 -0.1679  0.4355
  358TMC3     H 5365   1.352   4.518   0.811  0.3015  0.3927  0.5793
  358TMC3    H1 5366   1.630   4.574   1.130 -2.1476  0.4282 -0.5662
  358TMC3    H2 5367   1.772   4.423   0.774  1.3514 -2.1199  2.9093
  358TMC3    C7 5368   1.820   4.421   1.029 -0.1929  0.2613  0.4474
  358TMC3    C8 5369   1.541   4.430   0.636  0.2928  0.0583 -0.2036
  358TMC3    O1 5370   1.818   4.434   1.148 -0.0628 -0.1758 -0.1793
  358TMC3    O2 5371   1.643   4.415   0.569 -0.0394 -0.0412 -0.0023
  359MPD2     C 5372   2.470   3.780  12.275 -0.2821 -0.5747  0.6865
  359MPD2    C1 5373   2.403   3.800  12.159 -0.9444 -0.1084  0.0323
  359MPD2    C2 5374   2.265   3.775  12.157 -0.8538 -0.6696  0.1342
  359MPD2    C3 5375   2.195   3.736  12.270 -0.0968  0.2920 -0.3426
  359MPD2    C4 5376   2.264   3.727  12.389 -0.0737 -1.0191 -0.0016
  359MPD2    C5 5377   2.402   3.746  12.392 -0.6993  0.3261 -0.1605
  359MPD2     H 5378   2.208   3.791  12.066  2.0504  3.1878 -1.0270
  359MPD2    H1 5379   2.210   3.709  12.481 -1.3851 -0.6255 -0.7004
  359MPD2    H2 5380   2.576   3.800  12.278  0.0629 -2.5155  0.9224
  359MPD2    H3 5381   2.454   3.747  12.487 -1.1939  0.4197  0.1115
  359MPD2     N 5382   2.056   3.706  12.273 -0.0475 -0.1018 -0.3030
  359MPD2    H5 5383   2.011   3.687  12.362  0.2895 -1.0612 -0.3456
  359MPD2    N1 5384   2.457   3.833  12.035 -0.5629 -0.5619 -0.4869
  359MPD2    H7 5385   2.396   3.848  11.956 -3.0335  3.6556  2.2449
  360TMC3    C1 5386   2.628   3.851  11.875 -0.2150 -0.0355  0.1619
  360TMC3    C2 5387   2.749   3.905  11.843  0.4282 -0.2905 -1.0230
  360TMC3    C3 5388   2.818   3.859  11.734  1.2193 -0.2590 -0.4204
  360TMC3    C4 5389   2.579   3.750  11.795  0.4108  0.3983 -0.0467
  360TMC3    C5 5390   2.639   3.724  11.675  0.0652  0.1331  0.2618
  360TMC3    C6 5391   2.755   3.785  11.640 -0.4511  0.1454  0.0896
  360TMC3     C 5392   2.592   3.847  12.014  0.9293  0.1681 -0.3040
  360TMC3     O 5393   2.676   3.883  12.091 -0.0766 -0.5883 -0.3865
  360TMC3     H 5394   2.795   3.964  11.922 -0.2272 -0.1585 -0.7445
  360TMC3    H1 5395   2.483   3.703  11.817  1.2082  0.0686  2.6666
  360TMC3    H2 5396   2.797   3.754  11.545  1.0268 -0.0184  0.7890
  360TMC3    C7 5397   2.564   3.655  11.579  0.1929 -0.2040  0.3531
  360TMC3    C8 5398   2.929   3.942  11.699  0.5064 -0.0464  0.7386
  360TMC3    O1 5399   2.470   3.595  11.627  0.4854  0.0401 -0.1914
  360TMC3    O2 5400   2.941   4.051  11.756  0.0936  0.0487  0.4217
  361MPD2     C 5401   3.269   2.424  16.295 -0.4148  0.3840 -0.2756
  361MPD2    C1 5402   3.325   2.521  16.378  0.0345 -0.2723  0.7265
  361MPD2    C2 5403   3.446   2.491  16.444  0.3087 -0.2231 -0.0808
  361MPD2    C3 5404   3.507   2.368  16.424 -0.2550 -0.1522 -0.6001
  361MPD2    C4 5405   3.448   2.270  16.352  0.6796 -0.4789  0.1015
  361MPD2    C5 5406   3.329   2.303  16.291 -0.8895  0.2007 -0.8337
  361MPD2     H 5407   3.500   2.567  16.500 -0.9026  0.5905 -0.0278
  361MPD2    H1 5408   3.487   2.169  16.355  0.9801 -0.3646 -0.0320
  361MPD2    H2 5409   3.168   2.430  16.256 -0.2468  1.6918 -0.5024
  361MPD2    H3 5410   3.277   2.228  16.231 -2.4429  1.2536 -0.8172
  361MPD2     N 5411   3.639   2.335  16.474 -0.5002 -0.1539  0.1833
  361MPD2    H5 5412   3.677   2.244  16.452 -1.3883 -0.4484 -0.1314
  361MPD2    N1 5413   3.268   2.647  16.396 -0.0350 -0.4165 -0.0154
  361MPD2    H7 5414   3.300   2.708  16.470  0.7703  0.0088 -0.7163
  362TMC3    C1 5415   3.112   2.816  16.390  0.3002 -0.7700 -0.3385
  362TMC3    C2 5416   3.118   2.831  16.525  0.1863 -0.0201  0.2651
  362TMC3    C3 5417   3.039   2.925  16.586  0.8011 -0.6038 -0.2794
  362TMC3    C4 5418   3.030   2.905  16.313  0.9295  0.6079 -0.0992
  362TMC3    C5 5419   2.951   2.992  16.381  0.6120  0.0184 -0.3292
  362TMC3    C6 5420   2.953   3.009  16.514 -0.2228 -0.4544  0.8644
  362TMC3     C 5421   3.153   2.692  16.333  0.0407 -0.7322 -0.7919
  362TMC3     O 5422   3.117   2.668  16.220 -1.0418  0.2851  0.5263
  362TMC3     H 5423   3.171   2.764  16.592 -0.2625  0.4111  1.0571
  362TMC3    H1 5424   3.015   2.893  16.207  1.7668  0.6647 -0.2219
  362TMC3    H2 5425   2.891   3.088  16.554 -0.7276 -1.3152  1.7550
  362TMC3    C7 5426   2.869   3.088  16.313  0.6219  0.4422  0.6629
  362TMC3    C8 5427   3.032   2.929  16.731  0.0594 -0.7045  0.5108
  362TMC3    O1 5428   2.879   3.197  16.357 -0.1593  0.2033  0.9766
  362TMC3    O2 5429   3.097   2.847  16.798  0.3478  0.6477  0.4531
  363TMC3    C1 5430   2.944   0.699   8.953  0.4791  0.3338  0.0713
  363TMC3    C2 5431   2.915   0.603   9.046  0.2111 -0.8521 -0.0007
  363TMC3    C3 5432   2.851   0.647   9.154  0.6769 -0.3089 -0.2459
  363TMC3    C4 5433   2.923   0.835   8.970 -1.0352 -0.0017  0.2792
  363TMC3    C5 5434   2.854   0.875   9.083 -0.3272 -0.0731 -0.0573
  363TMC3    C6 5435   2.819   0.782   9.179 -0.5918  0.2215  0.1697
  363TMC3     C 5436   3.008   0.658   8.819 -0.0917  0.1609 -0.4635
  363TMC3     O 5437   3.035   0.748   8.741  0.0848 -0.1178  0.3494
  363TMC3     H 5438   2.916   0.498   9.017  1.6192 -0.3554 -1.7587
  363TMC3    H1 5439   2.947   0.904   8.890 -1.6667  0.8124  0.7950
  363TMC3    H2 5440   2.769   0.811   9.270 -0.8124 -0.0247  0.1257
  363TMC3    C7 5441   2.774   0.997   9.087  0.1868 -0.6398 -0.1903
  363TMC3    C8 5442   2.821   0.550   9.256  1.1170 -0.3093  0.4069
  363TMC3    O1 5443   2.825   1.097   9.048  0.0539  0.1429  0.4473
  363TMC3    O2 5444   2.745   0.589   9.349 -0.5231  0.6601  0.1104
  364MPD2     C 5445   0.943   4.401  10.022  0.2176 -0.1024 -0.5432
  364MPD2    C1 5446   1.078   4.389  10.004  0.1092  1.2070 -0.3821
  364MPD2    C2 5447   1.138   4.292  10.081  0.0649  0.0747 -0.5352
  364MPD2    C3 5448   1.069   4.197  10.157  0.3451  0.0717 -0.1108
  364MPD2    C4 5449   0.935   4.218  10.169 -0.1073  0.1033 -0.0962
  364MPD2    C5 5450   0.873   4.321  10.107 -0.4010 -1.0991 -0.3694
  364MPD2     H 5451   1.244   4.270  10.081 -0.2141 -1.2121  1.0068
  364MPD2    H1 5452   0.873   4.148  10.225  2.0359  0.5790  2.8378
  364MPD2    H2 5453   0.890   4.486   9.982  0.2705 -0.3706 -1.1710
  364MPD2    H3 5454   0.773   4.360  10.120  0.5454  1.0428  0.6042
  364MPD2     N 5455   1.122   4.084  10.225  0.3724  0.2243 -0.0340
  364MPD2    H5 5456   1.064   4.026  10.284 -1.1708  1.1854 -0.6150
  364MPD2    N1 5457   1.145   4.480   9.919 -0.8034  0.4110 -0.0733
  364MPD2    H7 5458   1.090   4.553   9.875 -0.4668  1.7980  1.8213
  365TMC3    C1 5459   1.307   4.594   9.787 -0.2698 -1.6104  0.1748
  365TMC3    C2 5460   1.416   4.562   9.705  0.9800 -0.2902  0.3875
  365TMC3    C3 5461   1.488   4.666   9.656 -0.3185  0.3190  0.0090
  365TMC3    C4 5462   1.268   4.718   9.807  0.4465 -0.3011  0.6181
  365TMC3    C5 5463   1.336   0.098   9.748 -0.5741  0.0151 -0.6922
  365TMC3    C6 5464   1.439   0.071   9.663  0.0422 -0.1933 -0.0671
  365TMC3     C 5465   1.277   4.492   9.893 -0.8978  0.1223 -0.8407
  365TMC3     O 5466   1.370   4.429   9.947  0.0148  0.1657  0.6001
  365TMC3     H 5467   1.445   4.458   9.705  1.2953 -0.2210  3.4792
  365TMC3    H1 5468   1.198   0.002   9.890  1.8625 -1.1835  1.8619
  365TMC3    H2 5469   1.497   0.145   9.609 -1.6756  2.3381  1.5023
  365TMC3    C7 5470   1.308   0.230   9.799 -0.0602  0.3967  0.4925
  365TMC3    C8 5471   1.628   4.648   9.616 -0.1739  1.2723 -0.4883
  365TMC3    O1 5472   1.401   0.308   9.794  0.0073 -0.5805  0.5118
  365TMC3    O2 5473   1.707   0.004   9.666 -0.4341 -0.0331  0.0354
  366MPD2     C 5474   4.185   0.590  14.877 -0.2056 -0.0051 -0.4167
  366MPD2    C1 5475   4.191   0.732  14.870  0.1992 -1.0057  0.0233
  366MPD2    C2 5476   4.295   0.792  14.803 -0.1808  0.9307  0.2407
  366MPD2    C3 5477   4.402   0.719  14.763  0.0892  0.5437 -0.3706
  366MPD2    C4 5478   4.404   0.577  14.772  0.3472 -0.0798  0.1182
  366MPD2    C5 5479   4.291   0.514  14.824 -0.0761 -0.1519  0.0573
  366MPD2     H 5480   4.308   0.899  14.815  0.7604  1.0171 -1.5358
  366MPD2    H1 5481   4.482   0.512  14.735  0.5908 -0.6571  1.6377
  366MPD2    H2 5482   4.101   0.542  14.925 -1.0057  1.3208 -0.4775
  366MPD2    H3 5483   4.287   0.406  14.827 -3.0863  0.0557  3.2264
  366MPD2     N 5484   4.515   0.797  14.727  0.4487  0.0048 -0.3622
  366MPD2    H5 5485   4.496   0.896  14.716 -1.5253 -0.2702  0.4781
  366MPD2    N1 5486   4.101   0.820  14.936 -0.0348 -0.1525  0.2083
  366MPD2    H7 5487   4.084   0.916  14.909 -2.1992 -0.7111 -0.4261
  367TMC3    C1 5488   3.961   0.889  15.096  0.4108 -0.0266 -0.2918
  367TMC3    C2 5489   4.030   0.951  15.192 -0.5202 -0.0444 -0.4306
  367TMC3    C3 5490   4.008   1.080  15.232 -0.4598  0.1656  0.0139
  367TMC3    C4 5491   3.862   0.951  15.031 -0.0276  0.4467 -0.0198
  367TMC3    C5 5492   3.829   1.074  15.076  0.2800  0.0831 -0.2691
  367TMC3    C6 5493   3.907   1.145  15.167  0.6317 -0.4141  0.4681
  367TMC3     C 5494   4.026   0.776  15.037 -0.4399 -0.3951 -0.0095
  367TMC3     O 5495   4.058   0.684  15.109 -0.1583 -0.0942  0.2704
  367TMC3     H 5496   4.101   0.884  15.238 -2.4664 -1.0559  1.0645
  367TMC3    H1 5497   3.816   0.903  14.946 -0.5630  1.0750 -0.0825
  367TMC3    H2 5498   3.884   1.247  15.197  2.0701 -0.0534  0.3340
  367TMC3    C7 5499   3.754   1.165  14.986 -0.3486  0.2885 -0.1586
  367TMC3    C8 5500   4.128   1.153  15.263 -0.1926 -0.7667  0.0332
  367TMC3    O1 5501   3.812   1.273  14.986  0.2360 -0.2126  0.3237
  367TMC3    O2 5502   4.233   1.086  15.262 -0.1866  0.0730 -0.0431
  368MPD2     C 5503   0.392   3.036  12.673  0.1190  0.2311 -0.2328
  368MPD2    C1 5504   0.438   3.170  12.673  0.2252  0.0872 -0.0318
  368MPD2    C2 5505   0.572   3.189  12.705  0.4164  0.2172  0.9306
  368MPD2    C3 5506   0.649   3.077  12.722 -0.5707 -0.0980  0.1705
  368MPD2    C4 5507   0.605   2.948  12.719  0.0427  0.6518 -0.4141
  368MPD2    C5 5508   0.468   2.930  12.691 -0.0561  0.0100 -0.0790
  368MPD2     H 5509   0.616   3.286  12.724  1.4601 -0.2916  1.1345
  368MPD2    H1 5510   0.670   2.863  12.730 -2.2529 -1.2870 -1.9091
  368MPD2    H2 5511   0.292   3.005  12.645  0.5794 -1.5440  0.0851
  368MPD2    H3 5512   0.429   2.829  12.702 -1.8296  0.6166 -0.9788
  368MPD2     N 5513   0.781   3.093  12.730  0.1663  0.6121 -0.4993
  368MPD2    H5 5514   0.836   3.008  12.729 -1.8986 -0.7146 -1.1852
  368MPD2    N1 5515   0.350   3.273  12.633 -0.1966  0.9443  0.1173
  368MPD2    H7 5516   0.253   3.251  12.617 -0.5949  0.7646  2.7610
  369TMC3    C1 5517   0.286   3.490  12.569  0.2904 -1.0564  0.2597
  369TMC3    C2 5518   0.323   3.571  12.467 -0.4596 -0.4501 -0.2159
  369TMC3    C3 5519   0.219   3.635  12.402  0.0835 -0.6633 -0.4279
  369TMC3    C4 5520   0.156   3.469  12.603  0.3411  0.1526  0.4793
  369TMC3    C5 5521   0.061   3.533  12.533  0.4079 -0.1752 -0.0186
  369TMC3    C6 5522   0.087   3.622  12.431  0.1318  0.7152  0.1130
  369TMC3     C 5523   0.389   3.403  12.620  0.8741  0.7204  0.7238
  369TMC3     O 5524   0.500   3.454  12.627  0.5046  0.4132 -0.3265
  369TMC3     H 5525   0.425   3.581  12.430 -0.8629  0.9802 -0.9510
  369TMC3    H1 5526   0.125   3.408  12.687  0.8128 -4.6653 -2.8424
  369TMC3    H2 5527   0.014   3.683  12.380  0.0268 -0.1971 -0.8375
  369TMC3    C7 5528   4.652   3.476  12.558  0.2790  0.5925  0.0057
  369TMC3    C8 5529   0.257   3.732  12.305 -0.1494  0.2547  0.3847
  369TMC3    O1 5530   4.643   3.354  12.578 -0.5286  0.0250  0.0572
  369TMC3    O2 5531   0.194   3.747  12.204 -0.1411 -0.2562  0.4580
  370TMC3    C1 5532   0.055   3.543  15.818  0.7534  1.1447 -0.2522
  370TMC3    C2 5533   4.675   3.510  15.898 -0.1663 -0.0168  0.0841
  370TMC3    C3 5534   4.624   3.385  15.879 -0.0155 -0.5796  0.2573
  370TMC3    C4 5535   0.112   3.459  15.718  0.4299 -0.8507 -0.4705
  370TMC3    C5 5536   0.049   3.339  15.695 -0.4941 -1.3091  0.6409
  370TMC3    C6 5537   4.662   3.299  15.779 -0.2767  0.6539 -0.0431
  370TMC3     C 5538   0.156   3.616  15.896 -0.0091  0.7256  0.0580
  370TMC3     O 5539   0.141   3.606  16.016 -0.5523 -0.1663  0.0009
  370TMC3     H 5540   4.647   3.572  15.982 -2.3000  0.2130 -0.8023
  370TMC3    H1 5541   0.205   3.484  15.668  0.7612  1.5284  1.3367
  370TMC3    H2 5542   4.632   3.195  15.776 -1.0537  0.8962 -0.9077
  370TMC3    C7 5543   0.121   3.242  15.618 -0.0888 -0.3025 -0.3578
  370TMC3    C8 5544   4.573   3.307  15.988  0.3613 -0.5377 -0.0910
  370TMC3    O1 5545   0.223   3.271  15.564  0.4825  0.4688  0.3836
  370TMC3    O2 5546   4.583   3.184  15.988  0.4670  0.4606  0.2546
  371TMC3    C1 5547   1.265   1.781  14.844 -0.9228  0.2555  0.2742
  371TMC3    C2 5548   1.139   1.770  14.885  0.8340  0.1975  0.2252
  371TMC3    C3 5549   1.078   1.892  14.898  0.2409 -0.7743  0.6233
  371TMC3    C4 5550   1.315   1.894  14.797  0.4047 -0.4948 -0.2735
  371TMC3    C5 5551   1.247   2.013  14.802 -0.6127 -0.0351 -0.6812
  371TMC3    C6 5552   1.128   2.013  14.866  0.0428  0.2999  0.5599
  371TMC3     C 5553   1.358   1.679  14.882  0.0734  0.4360 -0.4509
  371TMC3     O 5554   1.459   1.661  14.819  0.4313 -0.4629 -0.6732
  371TMC3     H 5555   1.084   1.680  14.911 -0.8882  0.8579 -1.0864
  371TMC3    H1 5556   1.419   1.897  14.765  0.2028 -0.0521 -0.8983
  371TMC3    H2 5557   1.067   2.103  14.868  0.0941  0.3282  0.7993
  371TMC3    C7 5558   1.285   2.141  14.740 -1.0730  0.0622 -0.6320
  371TMC3    C8 5559   0.951   1.882  14.964  0.0324 -0.0703  0.0107
  371TMC3    O1 5560   1.232   2.240  14.782  0.4653  0.0573 -0.4946
  371TMC3    O2 5561   0.872   1.789  14.948  0.2789  0.1153 -0.0437
  372MPD2     C 5562   0.866   3.346  13.134  0.1498 -0.7573 -0.3507
  372MPD2    C1 5563   0.954   3.239  13.148  0.2939 -0.7472 -0.4220
  372MPD2    C2 5564   0.904   3.109  13.143 -0.1559  0.8314 -0.5352
  372MPD2    C3 5565   0.776   3.090  13.099  0.1643 -0.2126  0.2970
  372MPD2    C4 5566   0.697   3.199  13.073  0.4461  0.4390  1.2258
  372MPD2    C5 5567   0.735   3.330  13.096  0.4271  0.0458  0.2167
  372MPD2     H 5568   0.967   3.027  13.176 -0.8680 -0.0976 -1.4891
  372MPD2    H1 5569   0.595   3.191  13.037  0.5837  0.5874  0.8133
  372MPD2    H2 5570   0.890   3.450  13.147  0.5015 -0.8532 -0.2551
  372MPD2    H3 5571   0.669   3.414  13.079  0.3352  0.2479  1.6129
  372MPD2     N 5572   0.726   2.956  13.076 -0.4102 -0.1057  0.4127
  372MPD2    H5 5573   0.796   2.885  13.099  0.9103  0.7655 -0.8913
  372MPD2    N1 5574   1.087   3.257  13.196  0.3707 -0.3554  0.1736
  372MPD2    H7 5575   1.141   3.179  13.230 -0.2714  0.1093  2.2659
  373TMC3    C1 5576   0.566   2.784  13.011 -0.7024 -0.4128  0.4310
  373TMC3    C2 5577   0.441   2.745  13.046 -0.1771 -0.5375 -0.3858
  373TMC3    C3 5578   0.412   2.617  13.093 -0.2247 -0.3571  0.6179
  373TMC3    C4 5579   0.666   2.698  13.014 -0.3930 -0.2570  0.2551
  373TMC3    C5 5580   0.635   2.569  13.042 -0.1716 -0.1509 -0.2754
  373TMC3    C6 5581   0.513   2.526  13.086  0.0082  0.0331  0.2809
  373TMC3     C 5582   0.593   2.925  13.051  0.1678  0.3269 -0.3533
  373TMC3     O 5583   0.499   2.999  13.081 -0.0917  0.1611  0.6673
  373TMC3     H 5584   0.359   2.817  13.042  0.0588 -0.1350  2.6690
  373TMC3    H1 5585   0.755   2.721  12.956 -1.1750 -1.4824 -1.4293
  373TMC3    H2 5586   0.494   2.428  13.127 -2.5007 -0.0415 -1.0172
  373TMC3    C7 5587   0.742   2.474  13.019  0.0535 -0.0658 -0.1618
  373TMC3    C8 5588   0.329   2.608  13.210 -0.7381  0.5333 -1.0094
  373TMC3    O1 5589   0.854   2.522  13.022 -0.0888 -0.6825  0.0433
  373TMC3    O2 5590   0.212   2.644  13.202  0.0602 -0.2799 -0.2625
  374TMC3    C1 5591   1.790   3.182   9.028 -0.2646  0.2303  0.5172
  374TMC3    C2 5592   1.840   3.275   9.123  0.0219 -0.0672 -0.8271
  374TMC3    C3 5593   1.872   3.398   9.068  0.3114  0.4744  0.1629
  374TMC3    C4 5594   1.773   3.211   8.896 -0.3567  0.0686 -0.3756
  374TMC3    C5 5595   1.803   3.333   8.851  0.0413 -0.7927  0.3624
  374TMC3    C6 5596   1.859   3.426   8.933  0.3881  0.6651 -0.2803
  374TMC3     C 5597   1.764   3.044   9.075  0.1906  0.0533  0.0718
  374TMC3     O 5598   1.699   2.970   9.004 -0.3579 -0.5603 -0.0436
  374TMC3     H 5599   1.823   3.257   9.229 -2.4991 -1.0695 -1.4138
  374TMC3    H1 5600   1.737   3.130   8.834  0.5099 -1.0194  0.5315
  374TMC3    H2 5601   1.892   3.523   8.895  1.4800  0.9469  1.3776
  374TMC3    C7 5602   1.760   3.389   8.724 -0.5107 -0.5976 -0.2354
  374TMC3    C8 5603   1.943   3.489   9.148  0.4070 -0.0716 -0.0427
  374TMC3    O1 5604   1.800   3.501   8.695  0.5734  0.1886 -0.3183
  374TMC3    O2 5605   1.952   3.596   9.096 -0.4500 -0.1348 -0.5752
  375MPD2     C 5606   1.692   3.566  16.838 -0.3159 -0.0373  0.3243
  375MPD2    C1 5607   1.621   3.613  16.734  0.2196  0.5330 -0.3182
  375MPD2    C2 5608   1.683   3.627  16.613  0.2785  0.0401  0.2116
  375MPD2    C3 5609   1.812   3.591  16.591  0.1672 -0.1012  0.6397
  375MPD2    C4 5610   1.878   3.548  16.702  0.0715 -0.4934 -0.0645
  375MPD2    C5 5611   1.824   3.535  16.826  0.1030 -0.3107 -0.8969
  375MPD2     H 5612   1.625   3.675  16.536 -1.6669 -2.6675 -0.0139
  375MPD2    H1 5613   1.982   3.520  16.701  0.2542  0.1616  0.7442
  375MPD2    H2 5614   1.637   3.543  16.929  0.2439 -3.8896 -0.2971
  375MPD2    H3 5615   1.884   3.488  16.903 -0.1207  0.7145 -0.0972
  375MPD2     N 5616   1.892   3.614  16.475  0.3578  0.2542 -0.8658
  375MPD2    H5 5617   1.991   3.591  16.485  0.6066  1.4550 -0.4373
  375MPD2    N1 5618   1.480   3.647  16.741 -0.0746 -0.0362  0.1464
  375MPD2    H7 5619   1.426   3.670  16.659 -3.0362 -1.7558  1.6306
  376TMC3    C1 5620   1.944   3.698  16.264 -0.0656 -0.2517 -0.2063
  376TMC3    C2 5621   2.058   3.767  16.304 -0.2219  0.0664  0.0818
  376TMC3    C3 5622   2.148   3.804  16.206  0.6336 -0.1248  1.4284
  376TMC3    C4 5623   1.899   3.697  16.136  0.2372  0.8377  0.1519
  376TMC3    C5 5624   1.992   3.733  16.042 -0.2702 -0.9013 -0.7401
  376TMC3    C6 5625   2.117   3.785  16.074  0.2730 -1.1778  0.0516
  376TMC3     C 5626   1.844   3.657  16.355 -0.2888  0.0286 -0.0943
  376TMC3     O 5627   1.730   3.675  16.307 -0.0939 -0.1104  0.1360
  376TMC3     H 5628   2.097   3.762  16.405 -2.4872 -2.9919  0.8112
  376TMC3    H1 5629   1.802   3.664  16.102  0.5820 -0.6293  0.5827
  376TMC3    H2 5630   2.202   3.793  16.007 -0.7738  2.3325 -0.8803
  376TMC3    C7 5631   1.953   3.748  15.900  0.2523 -0.0599 -0.3297
  376TMC3    C8 5632   2.254   3.891  16.248 -0.2286 -0.2688 -0.5327
  376TMC3    O1 5633   2.027   3.806  15.820  0.4758  0.1521 -0.1639
  376TMC3    O2 5634   2.260   3.903  16.366 -0.2189  0.0435 -0.1184
  377MPD2     C 5635   4.202   3.677  11.881 -1.0631  0.0156 -0.0040
  377MPD2    C1 5636   4.275   3.600  11.970 -0.4400 -0.0458 -0.0060
  377MPD2    C2 5637   4.201   3.530  12.071 -0.5000 -0.4855  0.1877
  377MPD2    C3 5638   4.057   3.540  12.073  0.1054 -0.2766 -0.4574
  377MPD2    C4 5639   3.995   3.611  11.968  1.1570 -0.5626 -0.2276
  377MPD2    C5 5640   4.069   3.686  11.885  0.1794 -0.1552  0.5352
  377MPD2     H 5641   4.251   3.461  12.138 -1.2043 -1.2188 -0.0441
  377MPD2    H1 5642   3.887   3.620  11.971  1.5734  3.8714  1.2853
  377MPD2    H2 5643   4.243   3.732  11.797 -0.4705  0.0730  0.3232
  377MPD2    H3 5644   4.013   3.751  11.819 -2.7245 -2.8866  0.3327
  377MPD2     N 5645   3.973   3.469  12.162  0.0744 -0.2338  0.3478
  377MPD2    H5 5646   3.876   3.492  12.141  0.3017  0.8462  0.4505
  377MPD2    N1 5647   4.409   3.597  11.946 -0.1356  0.3118  0.4006
  377MPD2    H7 5648   4.440   3.633  11.856 -1.6953 -1.2782 -0.7713
  378TMC3    C1 5649   0.029   3.534  11.740 -1.3678 -0.4158  0.1816
  378TMC3    C2 5650   4.627   3.543  11.808  0.0983  0.7869  0.0990
  378TMC3    C3 5651   4.636   3.527  11.940  0.1320 -0.3374  0.0233
  378TMC3    C4 5652   0.149   3.513  11.804 -0.2292  0.3818 -0.7464
  378TMC3    C5 5653   0.147   3.485  11.938  0.0133  0.1856 -0.6168
  378TMC3    C6 5654   0.029   3.492  12.007  0.3312 -0.8408 -0.0942
  378TMC3     C 5655   0.034   3.587  11.607 -0.6425  0.1023 -0.4235
  378TMC3     O 5656   4.668   3.669  11.576  0.0153 -0.3012 -0.0250
  378TMC3     H 5657   4.532   3.546  11.755  0.4420 -2.6994 -0.7156
  378TMC3    H1 5658   0.241   3.515  11.747 -0.5739 -0.0646 -1.3128
  378TMC3    H2 5659   0.035   3.493  12.116 -3.8353  2.2840  0.0679
  378TMC3    C7 5660   0.273   3.460  12.014 -0.5718 -0.6588 -0.4506
  378TMC3    C8 5661   4.510   3.530  12.019 -0.2797 -0.5413  0.3484
  378TMC3    O1 5662   0.271   3.451  12.135  0.2319 -0.1329  0.7758
  378TMC3    O2 5663   4.508   3.485  12.132 -0.2809  0.7064 -0.8429
  379MPD2     C 5664   0.206   1.487  15.881 -1.2249 -0.5174 -0.3312
  379MPD2    C1 5665   0.282   1.409  15.799  0.4852 -0.0125  0.5821
  379MPD2    C2 5666   0.350   1.296  15.846  0.0851 -0.5953  0.2429
  379MPD2    C3 5667   0.339   1.274  15.979  0.1880  0.2896 -0.5299
  379MPD2    C4 5668   0.260   1.353  16.056  0.1948  0.0881  0.0083
  379MPD2    C5 5669   0.190   1.463  16.014  0.2371 -0.0676 -0.2161
  379MPD2     H 5670   0.405   1.222  15.788  0.9530  0.3470 -0.1400
  379MPD2    H1 5671   0.250   1.333  16.162  2.4081  0.8468  0.3392
  379MPD2    H2 5672   0.147   1.566  15.835  0.5984 -0.8014 -3.1186
  379MPD2    H3 5673   0.123   1.523  16.074  0.6470 -1.3692  1.5430
  379MPD2     N 5674   0.406   1.170  16.051  0.0434  0.1183 -0.5339
  379MPD2    H5 5675   0.389   1.181  16.150 -1.1747 -1.3839 -0.5750
  379MPD2    N1 5676   0.275   1.444  15.660  0.1959 -0.6405 -0.1195
  379MPD2    H7 5677   0.211   1.518  15.632  0.0072 -0.3126  1.2015
  380TMC3    C1 5678   0.275   1.411  15.432 -0.0869  0.1677 -1.5600
  380TMC3    C2 5679   0.326   1.339  15.326  0.0914  0.0963 -0.2089
  380TMC3    C3 5680   0.248   1.335  15.214  0.1684  0.5522  0.3645
  380TMC3    C4 5681   0.154   1.483  15.424  0.1573 -0.4781  0.1642
  380TMC3    C5 5682   0.078   1.464  15.313 -0.2042 -0.3151  0.2313
  380TMC3    C6 5683   0.126   1.396  15.211 -0.4369  0.7763  0.0039
  380TMC3     C 5684   0.334   1.381  15.563  0.1432  0.0430 -0.4460
  380TMC3     O 5685   0.414   1.289  15.561 -0.1826  0.3633  0.2917
  380TMC3     H 5686   0.430   1.308  15.328  0.0465 -0.0960 -0.8179
  380TMC3    H1 5687   0.122   1.548  15.505 -1.1021 -1.8662  0.7993
  380TMC3    H2 5688   0.066   1.418  15.123  0.4267 -0.5951 -0.9287
  380TMC3    C7 5689   4.666   1.525  15.313 -0.6243 -0.4845  0.2353
  380TMC3    C8 5690   0.321   1.298  15.091  0.0291  0.3879 -0.5042
  380TMC3    O1 5691   4.647   1.617  15.392  0.0509 -0.5154  0.0614
  380TMC3    O2 5692   0.262   1.329  14.991 -0.0626 -0.1067  0.0355
  381TMC3    C1 5693   4.608   2.556  15.868  0.0442  0.3913 -0.3879
  381TMC3    C2 5694   4.674   2.672  15.834 -0.3042 -0.6534 -0.0321
  381TMC3    C3 5695   4.711   2.758  15.940  0.4536 -0.1661  0.0434
  381TMC3    C4 5696   4.561   2.529  15.990 -0.0259 -0.4404 -0.0130
  381TMC3    C5 5697   4.596   2.614  16.089 -0.2720 -0.2913 -0.5275
  381TMC3    C6 5698   4.666   2.729  16.068  0.1334  0.4989 -0.6662
  381TMC3     C 5699   4.601   2.459  15.761 -0.2131  1.2355 -0.3848
  381TMC3     O 5700   4.617   2.490  15.645 -0.0684  0.5343 -0.4026
  381TMC3     H 5701   4.716   2.669  15.735 -0.1726 -1.0343  0.0355
  381TMC3    H1 5702   4.484   2.456  16.011  1.4763 -2.1543 -0.4398
  381TMC3    H2 5703   4.694   2.791  16.152  0.0195 -1.4918  0.8270
  381TMC3    C7 5704   4.540   2.586  16.222  0.0555 -0.4126 -0.2908
  381TMC3    C8 5705   0.088   2.854  15.898  0.0899  0.0679 -0.5051
  381TMC3    O1 5706   4.523   2.463  16.242 -0.3593  0.0816 -0.1441
  381TMC3    O2 5707   0.158   2.830  15.800 -0.1255 -1.1135  0.0567
  382MPD2     C 5708   4.107   0.252  17.082 -0.6793 -0.0386 -0.4892
  382MPD2    C1 5709   4.209   0.212  16.994 -0.2052 -0.3749 -1.6363
  382MPD2    C2 5710   4.199   0.089  16.923  0.3612  0.0642 -0.3116
  382MPD2    C3 5711   4.087   0.010  16.945  0.8550  0.1698 -0.1927
  382MPD2    C4 5712   3.984   0.052  17.025 -0.3679 -0.2238  0.0459
  382MPD2    C5 5713   3.994   0.175  17.084  0.0656  0.9510 -0.7901
  382MPD2     H 5714   4.287   0.049  16.873  0.2055 -1.8221  0.9052
  382MPD2    H1 5715   3.899   4.714  17.057 -2.0679  1.5906 -1.1169
  382MPD2    H2 5716   4.111   0.342  17.143  0.2264 -0.1772 -0.3464
  382MPD2    H3 5717   3.914   0.202  17.152 -1.6165 -0.6783 -2.1165
  382MPD2     N 5718   4.085   4.590  16.911 -0.2526 -0.0374 -0.4514
  382MPD2    H5 5719   4.004   4.531  16.932 -0.9415  1.6785  1.7074
  382MPD2    N1 5720   4.342   0.270  17.002 -0.1085 -0.3313 -0.4866
  382MPD2    H7 5721   4.417   0.214  16.963  0.7225 -0.3254  1.0838
  383TMC3    C1 5722   4.142   4.374  16.864 -0.5400  0.7520 -0.7879
  383TMC3    C2 5723   4.004   4.356  16.847  0.0996 -0.3007 -0.4718
  383TMC3    C3 5724   3.950   4.250  16.913  0.3942 -0.8741  0.1648
  383TMC3    C4 5725   4.219   4.296  16.952  0.1536  0.6277 -0.6694
  383TMC3    C5 5726   4.159   4.188  17.012 -0.1222  0.3176  0.3256
  383TMC3    C6 5727   4.024   4.159  16.985 -0.0308  0.4539  0.1421
  383TMC3     C 5728   4.182   4.515  16.864  0.7422 -0.5460 -0.5721
  383TMC3     O 5729   4.295   4.544  16.824  0.4105 -0.5324  0.2113
  383TMC3     H 5730   3.933   4.433  16.819  1.2228  2.0143  3.0772
  383TMC3    H1 5731   4.323   4.324  16.963 -0.3483  3.2427 -2.4588
  383TMC3    H2 5732   3.980   4.080  17.044  0.6424  0.5631  0.7796
  383TMC3    C7 5733   4.238   4.108  17.097  0.7480  0.1233  0.4878
  383TMC3    C8 5734   3.809   4.229  16.900  0.2693 -0.5270  0.8415
  383TMC3    O1 5735   4.354   4.142  17.118  0.5172  0.3009  0.3868
  383TMC3    O2 5736   3.752   4.331  16.866  0.2326  0.0582  0.6980
  384MPD2     C 5737   1.025   1.276  11.230  0.9856  0.1312 -0.2338
  384MPD2    C1 5738   0.943   1.241  11.334  0.0188  0.3319  0.1693
  384MPD2    C2 5739   0.917   1.107  11.352  0.7339 -0.4192  0.3660
  384MPD2    C3 5740   0.961   1.011  11.262 -0.1284 -1.1172 -0.2260
  384MPD2    C4 5741   1.044   1.045  11.155  0.5788  0.3605 -0.1338
  384MPD2    C5 5742   1.085   1.182  11.149  0.2437 -0.4507 -0.0517
  384MPD2     H 5743   0.853   1.077  11.433  0.4615 -1.3559 -0.1972
  384MPD2    H1 5744   1.084   0.971  11.087  0.7953  2.0770 -1.8534
  384MPD2    H2 5745   1.062   1.378  11.216  0.0670  0.5931  0.6950
  384MPD2    H3 5746   1.146   1.213  11.065 -0.1088 -1.3031 -0.6213
  384MPD2     N 5747   0.928   0.872  11.282 -0.1553  0.2578  0.0070
  384MPD2    H5 5748   0.873   0.845  11.363  2.4705  3.2032  2.7743
  384MPD2    N1 5749   0.910   1.347  11.427 -0.6854  0.0206 -0.8294
  384MPD2    H7 5750   0.969   1.429  11.433  0.1352 -0.6561  0.4142
  385TMC3    C1 5751   0.896   0.644  11.244 -0.5664  0.7868  0.6986
  385TMC3    C2 5752   0.772   0.631  11.187  0.1182 -0.0937 -0.0425
  385TMC3    C3 5753   0.673   0.649  11.278 -0.4948  0.5732 -0.3526
  385TMC3    C4 5754   0.912   0.658  11.380  0.6418 -0.5606 -0.1701
  385TMC3    C5 5755   0.809   0.657  11.466 -0.7686 -0.4521 -0.1732
  385TMC3    C6 5756   0.685   0.664  11.410  0.1263 -0.3916  0.4956
  385TMC3     C 5757   0.943   0.770  11.187  0.4964 -0.5340  0.3319
  385TMC3     O 5758   0.957   0.780  11.065 -0.1027  0.1861  0.0614
  385TMC3     H 5759   0.758   0.631  11.080 -0.6775 -1.4448  0.0610
  385TMC3    H1 5760   1.016   0.674  11.407  2.1250 -2.5704 -4.7869
  385TMC3    H2 5761   0.600   0.676  11.475 -1.2476 -0.0139 -1.3764
  385TMC3    C7 5762   0.833   0.703  11.598  0.0728  0.4527  0.0095
  385TMC3    C8 5763   0.539   0.623  11.232  1.0747  0.0908 -0.9217
  385TMC3    O1 5764   0.741   0.773  11.642 -0.2825  0.4250 -0.9783
  385TMC3    O2 5765   0.456   0.571  11.309  0.4838  0.1482 -0.5012
  386TMC3    C1 5766   1.631   3.421  11.109  0.0527  0.0301  0.2404
  386TMC3    C2 5767   1.629   3.512  11.005  0.1591  0.6811  0.6244
  386TMC3    C3 5768   1.509   3.582  10.986 -0.1078 -0.4259  0.0517
  386TMC3    C4 5769   1.525   3.409  11.203  0.3042  0.4462  0.3324
  386TMC3    C5 5770   1.411   3.487  11.176 -0.2527 -0.2432 -0.6227
  386TMC3    C6 5771   1.402   3.576  11.070 -0.7651 -0.6415  0.3423
  386TMC3     C 5772   1.760   3.360  11.140 -0.0262  0.0251 -0.4358
  386TMC3     O 5773   1.856   3.416  11.090  0.1794  0.2684  0.3427
  386TMC3     H 5774   1.716   3.523  10.941  0.2209  0.0977  0.6080
  386TMC3    H1 5775   1.528   3.332  11.279  1.8484 -0.1224 -0.2825
  386TMC3    H2 5776   1.313   3.639  11.072  1.5893  2.7843 -2.0775
  386TMC3    C7 5777   1.301   3.473  11.269  0.7598 -0.7369 -0.2688
  386TMC3    C8 5778   1.466   3.641  10.858 -0.3772  0.6876 -0.7808
  386TMC3    O1 5779   1.188   3.466  11.224 -0.2229  0.0401  0.2164
  386TMC3    O2 5780   1.374   3.722  10.867  0.2013 -0.4451  0.6331
  387MPD2     C 5781   3.373   3.456   9.068  0.1913 -0.2724  0.9075
  387MPD2    C1 5782   3.502   3.439   9.110 -0.3295 -0.2684 -0.0401
  387MPD2    C2 5783   3.567   3.318   9.096  0.5235 -0.5197 -0.2299
  387MPD2    C3 5784   3.499   3.211   9.032  0.1876 -0.2485  0.3562
  387MPD2    C4 5785   3.371   3.235   8.991 -0.5900 -0.0051  0.6136
  387MPD2    C5 5786   3.304   3.349   9.010 -0.0069  0.5802 -0.4599
  387MPD2     H 5787   3.657   3.297   9.153  1.6740  3.4603 -0.5681
  387MPD2    H1 5788   3.316   3.153   8.947  2.1050 -1.1098 -0.6942
  387MPD2    H2 5789   3.315   3.545   9.089  0.7938  0.4497 -0.4577
  387MPD2    H3 5790   3.201   3.366   8.980 -1.3021 -3.5229  1.6618
  387MPD2     N 5791   3.558   3.084   9.046  0.2676 -0.0105  0.3666
  387MPD2    H5 5792   3.655   3.083   9.079  0.4379  0.2886 -0.1345
  387MPD2    N1 5793   3.571   3.524   9.198 -0.1124 -0.5357 -0.2444
  387MPD2    H7 5794   3.666   3.497   9.222 -0.1987 -1.9642 -1.4949
  388TMC3    C1 5795   3.596   3.703   9.346 -0.2484 -0.4725 -0.1916
  388TMC3    C2 5796   3.577   3.834   9.383 -0.4191 -0.1112  0.4240
  388TMC3    C3 5797   3.615   3.874   9.508 -0.3046  0.4041  0.0447
  388TMC3    C4 5798   3.650   3.619   9.434  0.1970  0.2279 -0.2524
  388TMC3    C5 5799   3.690   3.665   9.564 -0.8210 -1.4373  0.1871
  388TMC3    C6 5800   3.676   3.794   9.600  0.0683 -0.2119  0.3948
  388TMC3     C 5801   3.524   3.647   9.237  0.0220 -0.3883  0.1265
  388TMC3     O 5802   3.432   3.711   9.182  0.5157  0.0516  0.5360
  388TMC3     H 5803   3.533   3.899   9.308 -0.0261 -2.0766 -1.5099
  388TMC3    H1 5804   3.649   3.514   9.411 -1.5074 -0.1314  1.4535
  388TMC3    H2 5805   3.711   3.822   9.699  1.6166  1.7092 -0.6925
  388TMC3    C7 5806   3.725   3.563   9.657 -0.6429  0.3890  0.4255
  388TMC3    C8 5807   3.580   4.006   9.554  0.3967 -1.1192 -0.1357
  388TMC3    O1 5808   3.691   3.588   9.773  0.2429  0.6468 -0.0688
  388TMC3    O2 5809   3.579   4.017   9.673 -0.1418  0.0574 -0.6213
  389MPD2     C 5810   2.855   1.764  10.977 -0.0625  0.6916  0.2433
  389MPD2    C1 5811   2.781   1.685  10.889 -0.3231  0.1284 -0.1825
  389MPD2    C2 5812   2.686   1.599  10.952  0.4304  0.3767 -0.2384
  389MPD2    C3 5813   2.665   1.602  11.091 -0.3465  0.4770 -0.0523
  389MPD2    C4 5814   2.736   1.684  11.177 -0.4368 -0.3106 -0.4888
  389MPD2    C5 5815   2.828   1.763  11.111 -0.0414 -0.5029  0.2877
  389MPD2     H 5816   2.628   1.533  10.889  0.3770 -1.0822  1.3674
  389MPD2    H1 5817   2.711   1.688  11.282  1.7725  0.3928  0.0129
  389MPD2    H2 5818   2.930   1.831  10.937  0.4782  0.3091  0.6115
  389MPD2    H3 5819   2.901   1.820  11.167  0.2432 -1.5822  1.0003
  389MPD2     N 5820   2.557   1.528  11.136 -0.0639 -0.0284 -0.4933
  389MPD2    H5 5821   2.530   1.546  11.232 -3.4101 -0.3427 -1.3835
  389MPD2    N1 5822   2.786   1.715  10.751 -0.7655  0.3028 -0.0726
  389MPD2    H7 5823   2.846   1.792  10.727  0.1160 -0.7595 -1.2935
  390TMC3    C1 5824   2.384   1.377  11.167 -0.1590  0.0816  0.5253
  390TMC3    C2 5825   2.337   1.252  11.139 -0.3065  0.1011  0.0910
  390TMC3    C3 5826   2.240   1.202  11.227 -0.4781 -0.9593 -0.8498
  390TMC3    C4 5827   2.330   1.454  11.261 -0.2055 -0.1218 -0.7611
  390TMC3    C5 5828   2.227   1.408  11.330 -0.5072 -0.5928 -0.5246
  390TMC3    C6 5829   2.194   1.275  11.333 -0.7146 -0.2046 -0.2345
  390TMC3     C 5830   2.481   1.429  11.078  0.2065 -0.1294 -0.3791
  390TMC3     O 5831   2.508   1.361  10.980  0.6932  0.2263 -0.5187
  390TMC3     H 5832   2.374   1.195  11.055  0.0905  0.7347 -0.1661
  390TMC3    H1 5833   2.351   1.560  11.270  0.4336 -0.2554 -0.6487
  390TMC3    H2 5834   2.103   1.251  11.388 -0.9961 -0.8625 -0.9945
  390TMC3    C7 5835   2.141   1.502  11.393  0.3992 -0.0136 -1.0629
  390TMC3    C8 5836   2.150   1.093  11.181 -0.3614  0.3430 -0.0133
  390TMC3    O1 5837   2.191   1.600  11.443  0.0813 -0.2138  0.0232
  390TMC3    O2 5838   2.125   1.103  11.061 -0.1879  0.4278 -0.3030
  391MPD2     C 5839   2.099   3.073  10.612  0.3722  0.3936 -0.3641
  391MPD2    C1 5840   2.234   3.113  10.617 -0.4619  0.0229 -0.6168
  391MPD2    C2 5841   2.305   3.149  10.504 -0.6532  0.2267  0.3345
  391MPD2    C3 5842   2.252   3.133  10.381 -0.3908  0.1367 -0.2192
  391MPD2    C4 5843   2.114   3.091  10.376 -0.2372 -0.0324 -0.0433
  391MPD2    C5 5844   2.045   3.058  10.488  0.7759  0.3091  0.4467
  391MPD2     H 5845   2.406   3.189  10.508 -0.8855  0.9926 -1.5164
  391MPD2    H1 5846   2.073   3.077  10.277  1.0674 -0.3379 -0.5507
  391MPD2    H2 5847   2.033   3.047  10.694  1.6260 -2.1488 -0.1624
  391MPD2    H3 5848   1.943   3.023  10.473  0.3743  1.0185  1.5326
  391MPD2     N 5849   2.331   3.180  10.272 -0.1015  0.0438  0.2599
  391MPD2    H5 5850   2.424   3.215  10.292 -0.3334 -0.2431  1.8009
  391MPD2    N1 5851   2.287   3.122  10.749 -0.7590 -0.2319  0.1698
  391MPD2    H7 5852   2.221   3.094  10.821 -0.1696 -1.5536  0.1993
  392TMC3    C1 5853   2.373   3.260  10.044  0.0189  0.1227 -0.1509
  392TMC3    C2 5854   2.313   3.270   9.920  0.0828  0.5327  0.0834
  392TMC3    C3 5855   2.373   3.354   9.825  0.3485 -0.3732 -0.0918
  392TMC3    C4 5856   2.484   3.333  10.067 -0.2841 -0.0419  0.2398
  392TMC3    C5 5857   2.536   3.417   9.973 -0.0219  0.2031  0.7155
  392TMC3    C6 5858   2.484   3.436   9.850  0.5574  0.0424 -0.2505
  392TMC3     C 5859   2.299   3.181  10.135 -0.3910  0.5203  0.6370
  392TMC3     O 5860   2.202   3.130  10.084 -0.0675 -0.3062  0.5476
  392TMC3     H 5861   2.224   3.216   9.891  1.5576 -2.5122  1.2674
  392TMC3    H1 5862   2.542   3.313  10.156  0.5676  0.3148 -0.2346
  392TMC3    H2 5863   2.535   3.481   9.766 -0.1266  1.4433  0.0926
  392TMC3    C7 5864   2.647   3.502  10.021  0.1663 -0.5136 -0.5446
  392TMC3    C8 5865   2.309   3.364   9.692 -1.1583  0.4368  0.4628
  392TMC3    O1 5866   2.671   3.501  10.140  0.1910  0.5275  0.4928
  392TMC3    O2 5867   2.243   3.269   9.650  0.0461 -0.1130  0.0801
  393TMC3    C1 5868   1.212   0.977   9.621  0.1614 -0.7121  0.1923
  393TMC3    C2 5869   1.091   0.912   9.630 -0.4034 -0.0280 -0.9766
  393TMC3    C3 5870   1.103   0.778   9.645  0.7751 -0.9296 -0.0303
  393TMC3    C4 5871   1.337   0.923   9.628  0.2031  0.7985 -0.3093
  393TMC3    C5 5872   1.336   0.785   9.632 -0.8658 -0.4334 -0.4486
  393TMC3    C6 5873   1.223   0.705   9.641  0.1320  0.0527 -0.5818
  393TMC3     C 5874   1.202   1.119   9.605 -0.2874 -0.5010  0.4715
  393TMC3     O 5875   1.105   1.171   9.549 -0.1430  0.5698 -0.3766
  393TMC3     H 5876   0.995   0.960   9.618 -0.0622  1.0295  0.5445
  393TMC3    H1 5877   1.428   0.981   9.615 -1.6131  3.5463 -0.8021
  393TMC3    H2 5878   1.222   0.597   9.632 -0.6745  0.0590 -0.6133
  393TMC3    C7 5879   1.453   0.710   9.594  0.2521  0.5642  0.9202
  393TMC3    C8 5880   0.984   0.696   9.635  0.1993  0.0250 -1.1387
  393TMC3    O1 5881   1.424   0.600   9.543  0.2557 -0.6812 -0.4984
  393TMC3    O2 5882   0.990   0.601   9.552  0.1227 -0.4416 -0.6697
  394TMC3    C1 5883   2.726   1.711  10.516 -0.2714  0.8710  0.2143
  394TMC3    C2 5884   2.620   1.687  10.430  0.4481  0.4424  0.1360
  394TMC3    C3 5885   2.643   1.669  10.291 -0.1826  0.2356 -0.1411
  394TMC3    C4 5886   2.849   1.727  10.467  0.7592  0.8870  0.6242
  394TMC3    C5 5887   2.870   1.707  10.335 -0.1331 -0.5780  0.7133
  394TMC3    C6 5888   2.770   1.672  10.238  0.1126 -0.4459  0.2765
  394TMC3     C 5889   2.702   1.658  10.648  0.3538 -0.4082  0.3364
  394TMC3     O 5890   2.633   1.557  10.653  0.0472  0.5154  0.6054
  394TMC3     H 5891   2.523   1.659  10.470  1.1967 -0.7741  1.1226
  394TMC3    H1 5892   2.921   1.772  10.535  3.5765 -2.6190 -0.0439
  394TMC3    H2 5893   2.785   1.668  10.131  0.7584 -3.0710  0.4638
  394TMC3    C7 5894   3.009   1.727  10.290  0.0547  0.3271  0.1271
  394TMC3    C8 5895   2.524   1.658  10.200  0.8205 -0.6169 -0.5619
  394TMC3    O1 5896   3.089   1.782  10.369  0.0428  0.8199 -0.6192
  394TMC3    O2 5897   2.425   1.716  10.242  0.3863  0.6462  0.2904
  395TMC3    C1 5898   2.169   3.926  13.963  0.0363  0.3219 -0.2812
  395TMC3    C2 5899   2.041   3.920  14.023  0.3999  0.2067 -0.0055
  395TMC3    C3 5900   2.029   3.972  14.146  0.5500 -0.3841  0.4867
  395TMC3    C4 5901   2.268   3.997  14.012  0.0853  0.1777  0.3028
  395TMC3    C5 5902   2.256   4.056  14.135 -0.6208 -0.0189  0.3312
  395TMC3    C6 5903   2.141   4.037  14.208 -0.3749  0.2396  0.1948
  395TMC3     C 5904   2.223   3.790  13.949  0.1931 -0.4707 -0.1906
  395TMC3     O 5905   2.336   3.762  13.994 -0.5068 -0.0004 -0.0909
  395TMC3     H 5906   1.962   3.854  13.989  1.8810 -1.0729 -1.0101
  395TMC3    H1 5907   2.354   4.011  13.947 -1.3365  0.6559 -1.4886
  395TMC3    H2 5908   2.121   4.077  14.307  3.7743  0.9926  0.7433
  395TMC3    C7 5909   2.374   4.082  14.212  0.0770 -0.6445 -0.4838
  395TMC3    C8 5910   1.969   3.890  14.244 -0.0657 -0.3815  0.0035
  395TMC3    O1 5911   2.366   4.147  14.313  0.7322 -0.2354  0.0171
  395TMC3    O2 5912   1.937   3.938  14.354  0.1839  0.6326 -0.0318
  396MPD2     C 5913   1.982   0.029  16.337 -0.5098  0.2533 -0.6395
  396MPD2    C1 5914   2.062   0.085  16.428  0.1308  0.8312 -0.0260
  396MPD2    C2 5915   2.144   0.190  16.395  0.4688  0.2339 -0.2776
  396MPD2    C3 5916   2.131   0.246  16.273 -0.1111 -0.2231 -0.3299
  396MPD2    C4 5917   2.056   0.187  16.177  0.4210 -0.3887 -0.2795
  396MPD2    C5 5918   1.984   0.075  16.210  0.0802  1.2125  0.3477
  396MPD2     H 5919   2.197   0.239  16.476  1.3168  0.2830 -0.8675
  396MPD2    H1 5920   2.032   0.223  16.077  0.2423  2.1702  0.6867
  396MPD2    H2 5921   1.907   4.674  16.349 -0.0911 -0.2690 -1.3456
  396MPD2    H3 5922   1.910   0.035  16.141 -0.2498 -1.0726  2.0313
  396MPD2     N 5923   2.207   0.355  16.240 -0.5721  0.0125  0.7383
  396MPD2    H5 5924   2.284   0.375  16.304 -1.0733  0.3336  1.2438
  396MPD2    N1 5925   2.067   0.014  16.549  0.0268 -0.3872  0.2132
  396MPD2    H7 5926   1.996   4.666  16.571 -1.0328  0.2534 -1.2228
  397TMC3    C1 5927   2.106   4.687  16.777  0.3612 -0.1080  0.0443
  397TMC3    C2 5928   2.219   4.649  16.854 -0.8253  0.1081 -0.3180
  397TMC3    C3 5929   2.239   4.516  16.887  0.6672 -0.6197 -0.8196
  397TMC3    C4 5930   2.010   4.587  16.756 -0.0953 -0.0942  0.3245
  397TMC3    C5 5931   2.019   4.466  16.819  0.8015  0.4708  0.4933
  397TMC3    C6 5932   2.136   4.422  16.872 -0.2560  0.2062 -0.3120
  397TMC3     C 5933   2.151   0.038  16.657  0.2663  0.4643 -0.1539
  397TMC3     O 5934   2.232   0.131  16.670 -0.3579  0.6538  0.2579
  397TMC3     H 5935   2.313   4.703  16.848 -0.2086 -0.8771  0.6411
  397TMC3    H1 5936   1.920   4.612  16.701 -0.8043 -1.0986  1.0273
  397TMC3    H2 5937   2.149   4.317  16.892 -1.9033  0.7755  3.6220
  397TMC3    C7 5938   1.908   4.376  16.807  0.0243  0.0260 -0.1937
  397TMC3    C8 5939   2.363   4.460  16.949  0.0404  0.3047 -0.3301
  397TMC3    O1 5940   1.833   4.377  16.714  0.1034 -0.3560 -0.1557
  397TMC3    O2 5941   2.352   4.412  17.060  0.2263 -0.8817  0.5504
  398MPD2     C 5942   0.237   0.648  17.342  0.2543  0.2249 -0.4238
  398MPD2    C1 5943   0.288   0.599  17.455 -0.6085  0.2572 -0.2805
  398MPD2    C2 5944   0.382   0.667  17.533  0.0325 -0.1737  0.1190
  398MPD2    C3 5945   0.445   0.777  17.479  0.5360 -0.6382 -0.4088
  398MPD2    C4 5946   0.405   0.818  17.354 -0.3030 -0.2823 -0.3716
  398MPD2    C5 5947   0.293   0.767  17.295 -0.3746  0.3196 -0.2203
  398MPD2     H 5948   0.409   0.630  17.631  3.0154 -2.1598 -1.4403
  398MPD2    H1 5949   0.441   0.912  17.314 -1.5950  0.2421 -0.3023
  398MPD2    H2 5950   0.150   0.609  17.291  0.0405  0.1194  0.0202
  398MPD2    H3 5951   0.251   0.810  17.205 -0.3420  1.3471  0.2574
  398MPD2     N 5952   0.544   0.828  17.557  0.6787 -0.1781 -0.1979
  398MPD2    H5 5953   0.550   0.784  17.648  0.8936  1.4192  0.5569
  398MPD2    N1 5954   0.235   0.484  17.513  0.3406 -0.1775 -0.3636
  398MPD2    H7 5955   0.284   0.454  17.597 -2.2862 -0.0400  1.2263
  399TMC3    C1 5956   0.112   0.296  17.565 -0.0585 -0.5875  0.8919
  399TMC3    C2 5957   0.199   0.283  17.670  0.2519 -0.2053 -0.5876
  399TMC3    C3 5958   0.197   0.157   0.036 -0.0942 -1.0570 -0.4674
  399TMC3    C4 5959   0.028   0.198  17.511 -0.1313  0.2007 -0.2109
  399TMC3    C5 5960   0.029   0.077  17.572 -0.1308 -0.3729 -0.2921
  399TMC3    C6 5961   0.113   0.058  17.678  0.5688 -0.4295 -0.5385
  399TMC3     C 5962   0.128   0.411  17.479  0.1232 -0.2294 -0.4580
  399TMC3     O 5963   0.040   0.426  17.393  0.2107  0.4038  0.0916
  399TMC3     H 5964   0.249   0.371   0.019 -1.5154  0.4328  0.2503
  399TMC3    H1 5965   4.695   0.225  17.421  0.5435  0.7843 -0.4377
  399TMC3    H2 5966   0.127   4.677   0.021  0.8199  0.1356  1.1951
  399TMC3    C7 5967   4.653   4.699  17.551 -0.4227 -0.6328 -0.5491
  399TMC3    C8 5968   0.294   0.129   0.142  0.2131 -0.2439 -0.0373
  399TMC3    O1 5969   4.674   4.598  17.616  0.1235 -0.2230  0.7488
  399TMC3    O2 5970   0.389   0.207   0.154  0.3228 -0.4075  0.0974
  400TMC3    C1 5971   3.662   3.839  16.540 -0.7641 -0.1304 -0.5967
  400TMC3    C2 5972   3.540   3.892  16.510 -0.8112  0.0394  0.1572
  400TMC3    C3 5973   3.533   4.024  16.480 -0.1512 -0.0526 -0.0558
  400TMC3    C4 5974   3.760   3.922  16.576 -0.0303  1.0043  0.1200
  400TMC3    C5 5975   3.747   4.054  16.550  0.1712  0.6519  0.5950
  400TMC3    C6 5976   3.639   4.110  16.497 -0.4326 -0.2380 -0.1637
  400TMC3     C 5977   3.672   3.696  16.571 -0.3084  0.1919 -1.0557
  400TMC3     O 5978   3.769   3.653  16.633 -0.2333 -0.0149  0.5764
  400TMC3     H 5979   3.449   3.833  16.518 -2.3876  2.1928 -2.0150
  400TMC3    H1 5980   3.860   3.890  16.603 -0.0892  0.8806  0.1960
  400TMC3    H2 5981   3.625   4.202  16.442 -0.2349 -0.5733 -0.7743
  400TMC3    C7 5982   3.867   4.137  16.542 -0.6404  0.6731  0.6036
  400TMC3    C8 5983   3.396   4.078  16.499  0.2111  0.1982 -0.0332
  400TMC3    O1 5984   3.971   4.080  16.559 -0.3098 -0.1213  0.0303
  400TMC3    O2 5985   3.385   4.186  16.546  0.1333 -0.0425  0.0659
  401MPD2     C 5986   2.228   2.882  17.495  0.6737  0.4683  0.1715
  401MPD2    C1 5987   2.245   2.839  17.630 -0.1306 -0.2293 -0.7321
  401MPD2    C2 5988   2.363   2.781  17.666  0.6191 -0.4855 -0.0692
  401MPD2    C3 5989   2.452   2.730  17.575 -0.4899  0.6391  0.6895
  401MPD2    C4 5990   2.424   2.763  17.435 -0.0860  0.1676 -0.0921
  401MPD2    C5 5991   2.318   2.838  17.404 -0.1342  0.0623 -0.3497
  401MPD2     H 5992   2.366   2.767   0.085  1.3654 -1.4550 -0.2255
  401MPD2    H1 5993   2.495   2.749  17.354 -0.9679 -0.3495 -0.7680
  401MPD2    H2 5994   2.145   2.941  17.460 -1.4767 -1.9332  1.2108
  401MPD2    H3 5995   2.306   2.875  17.302 -3.0572 -0.7561 -0.2901
  401MPD2     N 5996   2.559   2.652  17.616 -0.5070 -0.1018 -0.4482
  401MPD2    H5 5997   2.570   2.631   0.027  0.0547 -0.4979 -0.5988
  401MPD2    N1 5998   2.168   2.891   0.049 -0.8790 -0.1747 -0.3651
  401MPD2    H7 5999   2.212   2.892   0.141 -0.7661 -0.3002 -0.4182
  402TMC3    C1 6000   2.755   2.515  17.572  0.1015  0.3597  0.2094
  402TMC3    C2 6001   2.726   2.427  17.676  1.2390  0.2371 -0.0708
  402TMC3    C3 6002   2.802   2.328   0.008  0.3960 -0.2721  0.1612
  402TMC3    C4 6003   2.869   2.503  17.495  0.6827 -0.7516 -0.9868
  402TMC3    C5 6004   2.946   2.399  17.524  0.0719 -0.0330  0.1845
  402TMC3    C6 6005   2.920   2.313  17.628  0.5023  0.1129  0.3581
  402TMC3     C 6006   2.660   2.611  17.533  0.3120  0.3178  0.6993
  402TMC3     O 6007   2.674   2.647  17.418 -0.3248  0.1308 -0.2782
  402TMC3     H 6008   2.630   2.425   0.037  1.2386 -1.6416 -0.1433
  402TMC3    H1 6009   2.868   2.566  17.407 -0.9653 -0.4075 -0.7283
  402TMC3    H2 6010   2.990   2.235  17.654  0.6092 -0.7457 -2.4971
  402TMC3    C7 6011   3.050   2.370  17.430 -0.6925 -0.2206 -0.3402
  402TMC3    C8 6012   2.783   2.240   0.122 -0.0538  0.2142  0.1703
  402TMC3    O1 6013   3.101   2.466  17.371  0.4264 -0.6663  0.3447
  402TMC3    O2 6014   2.859   2.147   0.132 -0.2985  0.4416  0.1470
  403MPD2     C 6015   0.372   1.071  12.610  0.0228 -0.5790  0.6424
  403MPD2    C1 6016   0.375   1.018  12.737  0.1112 -0.0459  0.5550
  403MPD2    C2 6017   0.407   1.110  12.836 -0.1756 -0.1948  0.0541
  403MPD2    C3 6018   0.429   1.241  12.813 -0.0064  0.1796  0.3315
  403MPD2    C4 6019   0.442   1.286  12.682  0.0837  0.1088 -0.0850
  403MPD2    C5 6020   0.416   1.195  12.581 -0.4887 -0.0457 -0.6234
  403MPD2     H 6021   0.404   1.084  12.941  0.7107  1.5078  0.4984
  403MPD2    H1 6022   0.478   1.382  12.646 -0.9565  0.3685 -0.4300
  403MPD2    H2 6023   0.338   1.012  12.525  1.7504 -1.7352  0.7655
  403MPD2    H3 6024   0.406   1.226  12.478  1.2952 -0.8106 -1.0179
  403MPD2     N 6025   0.460   1.315  12.926 -0.2807  0.4695  0.3775
  403MPD2    H5 6026   0.480   1.266  13.013  1.4540  2.1666  0.9207
  403MPD2    N1 6027   0.331   0.885  12.761  0.5501 -0.0374  0.3166
  403MPD2    H7 6028   0.296   0.836  12.680 -2.1560  1.8406  0.3644
  404TMC3    C1 6029   0.257   0.710  12.898  0.0765  0.1181 -0.2335
  404TMC3    C2 6030   0.232   0.674  13.034  0.1073  0.2822  0.2464
  404TMC3    C3 6031   0.184   0.549  13.059  0.0846 -0.6205  0.4980
  404TMC3    C4 6032   0.236   0.623  12.795  0.1068  0.2601  0.2359
  404TMC3    C5 6033   0.201   0.496  12.830 -0.0081 -0.2712 -0.4957
  404TMC3    C6 6034   0.185   0.455  12.958 -0.6956 -0.0362  0.0066
  404TMC3     C 6035   0.337   0.827  12.884  0.5391 -0.3395 -0.0612
  404TMC3     O 6036   0.397   0.869  12.984  0.0485 -0.5522 -0.3685
  404TMC3     H 6037   0.247   0.754  13.105 -1.3974  1.6099 -0.9474
  404TMC3    H1 6038   0.281   0.645  12.699  0.5803 -3.1576 -0.3243
  404TMC3    H2 6039   0.167   0.351  12.985 -1.9620 -0.2731 -1.7256
  404TMC3    C7 6040   0.186   0.388  12.733 -0.2607 -0.0385 -1.2948
  404TMC3    C8 6041   0.235   0.505  13.180 -0.0626 -0.0043 -0.0618
  404TMC3    O1 6042   0.178   0.273  12.772  0.2406  0.0827 -0.2402
  404TMC3    O2 6043   0.331   0.424  13.169  0.1228 -0.5987 -0.6688
  405MPD2     C 6044   0.361   2.405  14.183  0.4243  0.0771 -0.3817
  405MPD2    C1 6045   0.460   2.368  14.090  0.2927  0.2842  0.7062
  405MPD2    C2 6046   0.426   2.404  13.958 -0.1828  0.4123  0.1190
  405MPD2    C3 6047   0.300   2.464  13.924 -1.0160 -0.6299  0.0289
  405MPD2    C4 6048   0.212   2.495  14.025  0.3792  0.1327 -0.0841
  405MPD2    C5 6049   0.248   2.464  14.150  0.0328 -0.5417  0.1980
  405MPD2     H 6050   0.491   2.358  13.884  1.0596  1.9876  0.2453
  405MPD2    H1 6051   0.111   2.532  14.011  0.1327  0.0951  1.5975
  405MPD2    H2 6052   0.372   2.376  14.287 -1.3525  0.4686 -0.0914
  405MPD2    H3 6053   0.167   2.470  14.221 -1.8843 -1.8083 -1.8498
  405MPD2     N 6054   0.273   2.456  13.788  0.2346  0.0009 -0.5010
  405MPD2    H5 6055   0.333   2.396  13.732 -1.5800 -0.6161 -1.7881
  405MPD2    N1 6056   0.579   2.289  14.126  0.3151 -0.9491 -0.6623
  405MPD2    H7 6057   0.593   2.274  14.226  1.8490 -3.2021 -1.2333
  406TMC3    C1 6058   4.646   2.316  13.554 -0.5766  0.8435 -0.4457
  406TMC3    C2 6059   4.701   2.195  13.515  0.8237  1.7257 -0.0631
  406TMC3    C3 6060   0.111   2.196  13.535  0.4460  0.4537 -0.2147
  406TMC3    C4 6061   4.708   2.431  13.590  0.2578 -0.0072 -0.4664
  406TMC3    C5 6062   0.111   2.420  13.619  0.8978  0.0863 -0.1810
  406TMC3    C6 6063   0.177   2.303  13.591  0.2003  0.8879 -0.1213
  406TMC3     C 6064   4.503   2.336  13.543 -0.5232 -0.1506  0.7572
  406TMC3     O 6065   4.470   2.444  13.499 -0.6393 -0.0128  0.5654
  406TMC3     H 6066   4.647   2.110  13.474  1.9148  0.2491  1.5068
  406TMC3    H1 6067   4.647   2.519  13.608  1.7356  0.1021  3.8978
  406TMC3    H2 6068   0.281   2.319  13.563  0.5544 -2.5730 -0.8690
  406TMC3    C7 6069   0.148   2.498  13.733  0.0176  0.0747 -0.6931
  406TMC3    C8 6070   0.180   2.068  13.553 -0.3845  0.1423  0.0388
  406TMC3    O1 6071   0.059   2.569  13.784 -0.5227 -0.5156  0.1001
  406TMC3    O2 6072   0.111   1.981  13.512 -0.4571 -0.1867  0.2703
  407MPD2     C 6073   2.948   3.058   9.142  0.5193  0.2055 -0.2812
  407MPD2    C1 6074   3.081   3.047   9.113 -0.1304 -0.5659 -0.7990
  407MPD2    C2 6075   3.176   3.083   9.213 -0.4122  0.1625  0.1403
  407MPD2    C3 6076   3.136   3.142   9.329  0.5057 -0.0790  0.0578
  407MPD2    C4 6077   3.001   3.165   9.352  0.1172 -1.0912 -0.3087
  407MPD2    C5 6078   2.907   3.116   9.259  0.1838  0.0837  0.1442
  407MPD2     H 6079   3.279   3.064   9.186  0.2746  2.2291  1.2937
  407MPD2    H1 6080   2.958   3.221   9.435  1.5554 -0.2310 -0.1412
  407MPD2    H2 6081   2.864   3.026   9.082 -0.1345  1.7729 -0.2035
  407MPD2    H3 6082   2.800   3.132   9.268  0.5090  0.5275  3.0452
  407MPD2     N 6083   3.221   3.202   9.422  0.0150  0.0100 -0.3611
  407MPD2    H5 6084   3.178   3.260   9.493 -0.7067  1.5910 -2.0765
  407MPD2    N1 6085   3.121   2.998   8.984  0.4102 -0.1780  0.1136
  407MPD2    H7 6086   3.216   2.973   8.961  0.6780  1.2100 -0.3254
  408TMC3    C1 6087   3.111   3.008   8.748  0.2748 -0.6004 -0.3786
  408TMC3    C2 6088   3.226   2.934   8.727 -0.0072  0.4110 -0.2403
  408TMC3    C3 6089   3.311   2.984   8.632  0.3279  0.7481  0.1547
  408TMC3    C4 6090   3.088   3.123   8.676 -0.1706 -0.2268 -0.5098
  408TMC3    C5 6091   3.185   3.173   8.592 -0.3718  0.3487  0.3052
  408TMC3    C6 6092   3.296   3.101   8.563 -0.3205 -0.0484 -0.5356
  408TMC3     C 6093   3.041   3.004   8.871 -0.2471 -0.0347  0.6462
  408TMC3     O 6094   2.927   3.047   8.868 -1.0008  0.3978  0.1614
  408TMC3     H 6095   3.252   2.844   8.782  1.7680 -0.5357 -2.6492
  408TMC3    H1 6096   2.999   3.177   8.706 -0.9779 -1.2452 -1.0883
  408TMC3    H2 6097   3.376   3.142   8.502  0.2301 -1.0939 -0.5125
  408TMC3    C7 6098   3.229   3.301   8.629 -0.1461 -0.1973  0.5977
  408TMC3    C8 6099   3.448   2.965   8.660 -0.4886 -0.6819 -0.4715
  408TMC3    O1 6100   3.346   3.323   8.629  0.1885  0.0266  0.5776
  408TMC3    O2 6101   3.490   2.851   8.676  0.1909 -0.1672 -0.1084
  409MPD2     C 6102   2.409   3.954  16.786 -0.2550 -0.2270 -0.0067
  409MPD2    C1 6103   2.488   3.942  16.899 -0.1615  0.5941  0.1140
  409MPD2    C2 6104   2.592   4.029  16.916 -0.1558  0.2412 -0.0086
  409MPD2    C3 6105   2.624   4.129  16.826  0.0846 -0.5337 -0.2373
  409MPD2    C4 6106   2.538   4.145  16.719 -0.5254 -0.3808  0.3299
  409MPD2    C5 6107   2.427   4.056  16.702  0.3066  0.6597 -0.0678
  409MPD2     H 6108   2.653   4.015  17.005  0.0681 -0.1056 -0.2189
  409MPD2    H1 6109   2.548   4.233  16.657 -4.0581  0.2185  0.6377
  409MPD2    H2 6110   2.322   3.891  16.772  0.0094  0.2752 -3.9223
  409MPD2    H3 6111   2.367   4.069  16.613 -3.6436 -0.1821  2.4876
  409MPD2     N 6112   2.742   4.205  16.844  0.5574  0.0808 -0.1492
  409MPD2    H5 6113   2.754   4.283  16.780  0.2020  0.0335 -0.2703
  409MPD2    N1 6114   2.472   3.838  16.993 -0.4497 -0.6823  0.1357
  409MPD2    H7 6115   2.525   3.847  17.079  0.0582  0.8207 -0.3269
  410TMC3    C1 6116   2.917   4.308  16.951 -0.0683 -0.2026  0.2380
  410TMC3    C2 6117   3.041   4.265  16.916  0.0404 -0.7184 -0.2934
  410TMC3    C3 6118   3.132   4.352  16.863 -0.7621  0.1180  0.5661
  410TMC3    C4 6119   2.880   4.432  16.922  0.7003  0.1763 -0.6958
  410TMC3    C5 6120   2.968   4.515  16.857  0.7713  0.4173 -0.0066
  410TMC3    C6 6121   3.100   4.485  16.835  0.5245 -0.3368  0.2682
  410TMC3     C 6122   2.824   4.205  16.958 -0.3971  0.0080  0.6054
  410TMC3     O 6123   2.821   4.130  17.055  0.5953  0.3049 -0.0332
  410TMC3     H 6124   3.058   4.159  16.933 -0.1240 -0.9136 -1.3432
  410TMC3    H1 6125   2.774   4.452  16.910  0.6415  0.2486 -0.0821
  410TMC3    H2 6126   3.166   4.559  16.793  2.6963 -0.5853  3.2826
  410TMC3    C7 6127   2.929   4.653  16.858 -0.2463  0.2325 -0.2904
  410TMC3    C8 6128   3.273   4.304  16.867 -0.0202  0.0031 -0.3638
  410TMC3    O1 6129   2.849   4.690  16.941  0.1702  0.7294  0.3321
  410TMC3    O2 6130   3.363   4.385  16.856 -0.2444  0.1394 -0.2736
  411MPD2     C 6131   2.568   4.393  14.140  0.1552  0.3960  0.1359
  411MPD2    C1 6132   2.448   4.384  14.080 -0.2247  0.4564 -0.8724
  411MPD2    C2 6133   2.452   4.351  13.945  0.7288  0.2308 -0.1524
  411MPD2    C3 6134   2.565   4.310  13.879 -0.5059  0.1861  0.9932
  411MPD2    C4 6135   2.686   4.303  13.947  0.0265 -0.0543  0.5242
  411MPD2    C5 6136   2.689   4.365  14.073  0.3696 -0.7787  0.7375
  411MPD2     H 6137   2.361   4.344  13.886  0.2987  0.6197  0.4663
  411MPD2    H1 6138   2.779   4.275  13.898  0.4923  1.0155  0.7981
  411MPD2    H2 6139   2.566   4.432  14.241 -1.9919 -0.4408  0.4176
  411MPD2    H3 6140   2.786   4.376  14.120  1.2840 -0.0279 -1.3132
  411MPD2     N 6141   2.573   4.291  13.738  0.6486  0.1302  0.3097
  411MPD2    H5 6142   2.659   4.257  13.695  0.7905 -0.2202  0.8630
  411MPD2    N1 6143   2.328   4.412  14.154 -0.1557 -0.0550  0.0238
  411MPD2    H7 6144   2.328   4.421  14.255 -0.5767 -1.0076  0.1126
  412TMC3    C1 6145   2.510   4.297  13.505  0.6111 -0.5504  0.9032
  412TMC3    C2 6146   2.499   4.398  13.416 -0.3270  1.1161  0.0892
  412TMC3    C3 6147   2.549   4.390  13.288 -0.4569  0.5362 -0.1301
  412TMC3    C4 6148   2.568   4.181  13.474 -0.3362  0.9216  0.4788
  412TMC3    C5 6149   2.624   4.174  13.352  0.1448  0.2981 -0.1957
  412TMC3    C6 6150   2.608   4.270  13.256  0.1330 -0.3203 -0.7684
  412TMC3     C 6151   2.478   4.329  13.645 -0.2232  0.5794  0.3010
  412TMC3     O 6152   2.375   4.396  13.663 -0.4881 -0.2668 -0.8675
  412TMC3     H 6153   2.462   4.486  13.467  0.7160  0.4761  1.9292
  412TMC3    H1 6154   2.592   4.115  13.557  2.0752  0.5693 -0.4946
  412TMC3    H2 6155   2.641   4.251  13.155 -1.0271 -1.9835 -0.8483
  412TMC3    C7 6156   2.755   4.114  13.346 -0.0255 -0.0663 -0.0984
  412TMC3    C8 6157   2.637   4.494  13.240 -0.4335  0.7777  0.3719
  412TMC3    O1 6158   2.784   4.010  13.406  0.5565 -0.1482  0.0298
  412TMC3    O2 6159   2.725   4.463  13.164  0.1381 -0.1687 -0.0495
  413MPD2     C 6160   3.927   3.061  15.135 -0.2310  0.5464  0.0017
  413MPD2    C1 6161   3.851   2.967  15.075 -1.0676 -0.2998 -0.7618
  413MPD2    C2 6162   3.896   2.837  15.066 -0.5687  0.5898 -0.5474
  413MPD2    C3 6163   4.022   2.801  15.126 -0.4021 -0.4963 -0.3193
  413MPD2    C4 6164   4.089   2.904  15.184 -0.6465 -0.3814 -0.6101
  413MPD2    C5 6165   4.047   3.031  15.189  0.0329  0.2030  0.2801
  413MPD2     H 6166   3.841   2.773  14.998 -1.1284 -0.3876  0.8251
  413MPD2    H1 6167   4.191   2.893  15.219  0.2900 -1.1202 -3.5121
  413MPD2    H2 6168   3.901   3.164  15.115  0.1590  0.3752 -1.4256
  413MPD2    H3 6169   4.115   3.107  15.226 -1.7836  1.9000  0.1237
  413MPD2     N 6170   4.079   2.676  15.097 -0.3556 -0.6621 -0.1216
  413MPD2    H5 6171   4.019   2.610  15.048  1.1451 -1.1022 -1.3855
  413MPD2    N1 6172   3.720   3.005  15.030  0.1218  0.0783 -0.2422
  413MPD2    H7 6173   3.698   3.102  15.048  0.1256  0.2867 -1.3305
  414TMC3    C1 6174   4.247   2.518  15.069 -0.0889 -0.4182  0.2035
  414TMC3    C2 6175   4.345   2.441  15.119  0.1674 -0.1201  0.2437
  414TMC3    C3 6176   4.389   2.339  15.045 -0.1941  0.3576  0.4354
  414TMC3    C4 6177   4.191   2.485  14.954  0.3779 -0.5789  0.4899
  414TMC3    C5 6178   4.234   2.375  14.884 -0.6754 -0.1747  0.5319
  414TMC3    C6 6179   4.336   2.296  14.930 -0.0880  0.0705 -0.0060
  414TMC3     C 6180   4.205   2.638  15.141 -0.0579 -0.1985  0.4713
  414TMC3     O 6181   4.276   2.696  15.228  0.1253  0.2373 -0.2592
  414TMC3     H 6182   4.404   2.481  15.201 -1.6768  2.2717  0.4020
  414TMC3    H1 6183   4.112   2.543  14.907 -1.2102 -2.3904  0.9340
  414TMC3    H2 6184   4.352   2.196  14.892  2.7123  0.5673 -0.0802
  414TMC3    C7 6185   4.274   2.421  14.753  0.1330  0.2564  0.0933
  414TMC3    C8 6186   4.530   2.292  15.053  0.5520  0.3580  0.5155
  414TMC3    O1 6187   4.209   2.510  14.699  0.1727  0.5848  0.0963
  414TMC3    O2 6188   4.563   2.230  14.954  0.2042 -0.4337  0.2950
  415TMC3    C1 6189   4.456   0.609   9.253 -0.3268  0.1587 -0.1377
  415TMC3    C2 6190   4.445   0.740   9.224 -0.0693 -0.3110  0.4947
  415TMC3    C3 6191   4.328   0.792   9.178  0.6107 -0.6525  0.4670
  415TMC3    C4 6192   4.341   0.534   9.247 -0.2626  0.5143 -1.2451
  415TMC3    C5 6193   4.224   0.585   9.197  0.0473  0.1897  0.6419
  415TMC3    C6 6194   4.216   0.716   9.166  0.2577 -0.3871  0.0928
  415TMC3     C 6195   4.579   0.560   9.313  0.7230  0.1752  0.6225
  415TMC3     O 6196   4.641   0.646   9.372 -0.1407  0.3950  0.0214
  415TMC3     H 6197   4.535   0.799   9.232  0.4461 -1.1696  0.9268
  415TMC3    H1 6198   4.341   0.427   9.259 -1.4467  0.8406  1.5607
  415TMC3    H2 6199   4.121   0.760   9.138  1.8539  3.4856  0.7378
  415TMC3    C7 6200   4.105   0.531   9.252  0.0624  0.0869  0.6496
  415TMC3    C8 6201   4.334   0.900   9.078 -0.0294  0.9357  0.2168
  415TMC3    O1 6202   4.010   0.512   9.181 -0.3914 -0.0755  0.7566
  415TMC3    O2 6203   4.264   0.884   8.977 -0.2144 -0.4764 -0.4407
  416MPD2     C 6204   2.345   4.645  11.150 -1.0213  0.1550 -0.5337
  416MPD2    C1 6205   2.256   4.609  11.056 -0.2481 -0.0197 -0.4741
  416MPD2    C2 6206   2.285   4.502  10.964  0.1357  0.2398 -1.0110
  416MPD2    C3 6207   2.404   4.428  10.979  0.0073  0.6306  0.1792
  416MPD2    C4 6208   2.498   4.475  11.063  0.6203 -0.0125 -0.7902
  416MPD2    C5 6209   2.463   4.580  11.149  0.0795 -0.5084  0.9100
  416MPD2     H 6210   2.212   4.479  10.887 -1.1515  1.9855 -0.3048
  416MPD2    H1 6211   2.593   4.423  11.074  0.4121 -0.3044 -0.3657
  416MPD2    H2 6212   2.333   0.002  11.224  2.0446 -0.1978  0.3185
  416MPD2    H3 6213   2.534   4.601  11.228  2.6620 -2.4598 -0.9142
  416MPD2     N 6214   2.427   4.325  10.881  0.4697  0.4482  0.2020
  416MPD2    H5 6215   2.523   4.294  10.870  1.1057  2.2170  0.7862
  416MPD2    N1 6216   2.131   4.674  11.064 -0.0944 -0.2588  0.5951
  416MPD2    H7 6217   2.123   0.022  11.137 -1.5079  1.6736 -1.3952
  417TMC3    C1 6218   1.897   4.714  11.029  0.6590  0.3519 -0.1174
  417TMC3    C2 6219   1.864   4.714  11.162 -0.4672  0.6908  0.7880
  417TMC3    C3 6220   1.730   4.712  11.195 -0.1645  0.2762  0.3433
  417TMC3    C4 6221   1.800   4.704  10.932  0.0636 -0.2155 -0.0872
  417TMC3    C5 6222   1.666   4.697  10.970 -1.1435  0.0786  0.0850
  417TMC3    C6 6223   1.628   4.713  11.101  0.5252  1.0138 -0.1207
  417TMC3     C 6224   2.018   4.645  10.992  0.7442 -0.4935  0.3541
  417TMC3     O 6225   2.013   4.596  10.879  0.1912 -0.0971 -0.3536
  417TMC3     H 6226   1.943   4.715  11.236  0.4466  0.3097 -0.1715
  417TMC3    H1 6227   1.812   4.694  10.825 -2.4282 -3.8423 -0.0314
  417TMC3    H2 6228   1.527   4.720  11.139  1.0119  1.6118  1.0695
  417TMC3    C7 6229   1.561   4.715  10.869 -0.0324 -0.3330  0.1929
  417TMC3    C8 6230   1.687   0.025  11.335 -0.8022 -0.4208  0.7320
  417TMC3    O1 6231   1.584   0.037  10.756  0.2821 -0.0807  0.3476
  417TMC3    O2 6232   1.578   0.079  11.356 -0.2640  0.1541 -0.0040
  418TMC3    C1 6233   0.900   0.986   0.048  0.4945 -0.5559  0.2997
  418TMC3    C2 6234   0.816   1.006  17.633 -0.3151 -0.6797 -0.1275
  418TMC3    C3 6235   0.688   0.976  17.651  0.2919 -0.4445  0.0563
  418TMC3    C4 6236   0.856   0.948   0.177 -0.2316 -0.3004 -0.0842
  418TMC3    C5 6237   0.719   0.929   0.193 -0.0920 -0.5152 -0.4081
  418TMC3    C6 6238   0.636   0.932   0.083 -0.2470 -0.1499 -0.3802
  418TMC3     C 6239   1.036   0.946   0.009  0.0254 -0.2994 -1.3145
  418TMC3     O 6240   1.079   0.998  17.595 -0.9017  0.2264 -0.4505
  418TMC3     H 6241   0.850   1.018  17.531 -0.9690 -1.5645 -0.4525
  418TMC3    H1 6242   0.927   0.940   0.259  1.4451 -0.2251 -1.5329
  418TMC3    H2 6243   0.531   0.926   0.107  0.3118 -2.1825  1.5590
  418TMC3    C7 6244   0.674   0.842   0.298  0.1260 -1.1121  0.2065
  418TMC3    C8 6245   0.620   0.937  17.531 -0.2472 -0.3586  0.6461
  418TMC3    O1 6246   0.572   0.775   0.282 -0.4182  0.3721 -0.3761
  418TMC3    O2 6247   0.634   1.001  17.430 -0.3660 -0.1968  0.4269
  419MPD2     C 6248   4.046   4.222  12.265 -0.4879  0.0087  0.1276
  419MPD2    C1 6249   4.102   4.335  12.217 -0.1942  0.9180 -0.4502
  419MPD2    C2 6250   4.151   4.420  12.311 -0.2561  0.7415  0.5204
  419MPD2    C3 6251   4.137   4.402  12.444  0.6009 -0.2542  0.0220
  419MPD2    C4 6252   4.070   4.292  12.488 -0.6992  0.7863 -0.0194
  419MPD2    C5 6253   4.018   4.204  12.398 -0.4705  0.1900  0.2833
  419MPD2     H 6254   4.217   4.500  12.281 -0.3402  0.2830 -0.9144
  419MPD2    H1 6255   4.054   4.265  12.592 -0.3930  0.2526 -0.1116
  419MPD2    H2 6256   4.007   4.151  12.193  0.9228  1.2435 -1.8473
  419MPD2    H3 6257   3.952   4.123  12.426  0.6767 -0.1993  1.8791
  419MPD2     N 6258   4.204   4.495  12.531  0.1530  0.5247 -0.0101
  419MPD2    H5 6259   4.239   4.580  12.488 -1.1236  0.9555 -0.2229
  419MPD2    N1 6260   4.118   4.372  12.085  0.1146 -0.1813 -0.4949
  419MPD2    H7 6261   4.176   4.456  12.077  0.9945 -0.7867 -0.4797
  420TMC3    C1 6262   4.266   4.593  12.733  0.0300 -0.1920 -0.4011
  420TMC3    C2 6263   4.275   4.716  12.683  0.1273 -0.8535  0.1901
  420TMC3    C3 6264   4.310   0.102  12.756 -0.7191  0.4335 -0.3122
  420TMC3    C4 6265   4.301   4.573  12.864 -0.0576 -0.3821  0.2368
  420TMC3    C5 6266   4.329   4.681  12.939 -0.4577  0.4380  0.3395
  420TMC3    C6 6267   4.346   0.086  12.889 -0.6449  0.1083  0.2887
  420TMC3     C 6268   4.206   4.478  12.667 -1.2366 -1.1112  0.3386
  420TMC3     O 6269   4.150   4.398  12.742 -0.3382  0.1374 -0.1170
  420TMC3     H 6270   4.219   0.014  12.592 -1.0147 -1.6216  0.7236
  420TMC3    H1 6271   4.311   4.472  12.902 -0.1813 -0.2702  0.5690
  420TMC3    H2 6272   4.365   0.176  12.948 -0.9211 -0.9203  1.9533
  420TMC3    C7 6273   4.319   4.662  13.086 -0.2449 -0.0193  0.1962
  420TMC3    C8 6274   4.309   0.234  12.686 -0.3120  0.1777 -0.6897
  420TMC3    O1 6275   4.316   4.550  13.135  0.4703 -0.7481 -0.0540
  420TMC3    O2 6276   4.244   0.244  12.583  0.6746  0.3932 -0.4612
  421TMC3    C1 6277   0.563   1.474  13.041  0.4687  0.3215 -0.0070
  421TMC3    C2 6278   0.542   1.603  13.091 -0.1899 -0.7586 -0.1955
  421TMC3    C3 6279   0.576   1.635  13.223  0.4089  0.2974 -0.4138
  421TMC3    C4 6280   0.613   1.373  13.127  0.2106 -0.3983  0.2357
  421TMC3    C5 6281   0.646   1.413  13.251  0.9925  0.4704 -0.0028
  421TMC3    C6 6282   0.631   1.543  13.302  0.4843 -0.5269  0.7045
  421TMC3     C 6283   0.496   1.443  12.917  0.3158 -0.0057  0.2114
  421TMC3     O 6284   0.474   1.530  12.833 -0.1000 -0.5241  0.0846
  421TMC3     H 6285   0.516   1.678  13.018 -0.1643  0.1179  0.6794
  421TMC3    H1 6286   0.623   1.269  13.098  0.9757  0.0038 -0.9514
  421TMC3    H2 6287   0.645   1.573  13.405 -0.9153  0.3685  0.6426
  421TMC3    C7 6288   0.718   1.319  13.339 -0.2419  0.1685  0.0572
  421TMC3    C8 6289   0.610   1.771  13.249 -0.4365  0.0073  0.5103
  421TMC3    O1 6290   0.802   1.367  13.410  0.0615 -0.3706 -0.3745
  421TMC3    O2 6291   0.722   1.786  13.293 -0.2450  0.3181 -0.0502
  422TMC3    C1 6292   3.264   2.945  12.126  0.4398 -0.2523  0.0289
  422TMC3    C2 6293   3.238   3.077  12.160  0.4474 -0.5093 -0.7032
  422TMC3    C3 6294   3.124   3.107  12.232 -0.1864 -0.0994  0.4886
  422TMC3    C4 6295   3.176   2.846  12.156  0.4662 -0.2780  0.4888
  422TMC3    C5 6296   3.066   2.878  12.231  0.1084 -0.3237  0.0330
  422TMC3    C6 6297   3.043   3.006  12.278 -1.1849  0.2256  0.7777
  422TMC3     C 6298   3.357   2.916  12.012  0.0870  0.1511  0.0748
  422TMC3     O 6299   3.394   3.022  11.954 -0.4771  0.3725 -0.9338
  422TMC3     H 6300   3.305   3.158  12.133 -0.6919  0.4646 -0.6269
  422TMC3    H1 6301   3.180   2.749  12.109 -2.6680  0.3006 -0.9711
  422TMC3    H2 6302   2.954   3.032  12.333 -0.2514 -1.1436  2.9626
  422TMC3    C7 6303   2.959   2.778  12.228 -0.3181  0.2509 -0.1386
  422TMC3    C8 6304   3.087   3.244  12.273 -0.0340 -0.4823 -1.0079
  422TMC3    O1 6305   2.988   2.669  12.185  0.4296 -0.1449 -0.0597
  422TMC3    O2 6306   3.186   3.315  12.288  0.4904 -0.5605 -0.4797
  423MPD2     C 6307   0.151   3.389   0.224  0.0033 -0.0910  0.0244
  423MPD2    C1 6308   0.061   3.290   0.256  0.0753 -0.5105  0.5132
  423MPD2    C2 6309   4.719   3.218   0.156  0.6287  0.2569 -0.0548
  423MPD2    C3 6310   0.029   3.246   0.024 -0.0362  0.4686 -1.1723
  423MPD2    C4 6311   0.130   3.338  17.675 -0.8628  0.4577  0.1142
  423MPD2    C5 6312   0.182   3.411   0.096  0.2408 -0.3599  0.4319
  423MPD2     H 6313   4.633   3.158   0.186 -0.7376  1.8162 -0.8717
  423MPD2    H1 6314   0.160   3.356  17.572  0.1135  0.0735  0.3314
  423MPD2    H2 6315   0.187   3.456   0.300 -1.5061  0.3076  0.3983
  423MPD2    H3 6316   0.241   3.500   0.076 -0.5078 -0.0657 -0.4826
  423MPD2     N 6317   4.697   3.176  17.601 -0.1977 -0.3118 -0.0122
  423MPD2    H5 6318   0.011   3.215  17.514  1.4120  0.2113  0.8826
  423MPD2    N1 6319   0.011   3.268   0.390 -0.2883 -0.4459 -0.1830
  423MPD2    H7 6320   4.644   3.218   0.397 -0.0107 -1.2375 -2.4409
  424TMC3    C1 6321   4.713   3.303   0.626  0.4636  0.1909 -0.0453
  424TMC3    C2 6322   0.062   3.281   0.744  0.6907 -0.1341 -0.1386
  424TMC3    C3 6323   4.706   3.228   0.844  0.2132 -0.0026  0.3424
  424TMC3    C4 6324   4.577   3.303   0.615  0.3926 -0.0074  0.5671
  424TMC3    C5 6325   4.506   3.260   0.717 -0.2154 -0.3470  0.1235
  424TMC3    C6 6326   4.568   3.211   0.833  0.5775  0.2410  0.1784
  424TMC3     C 6327   0.073   3.320   0.505 -0.8798  0.4788  0.3092
  424TMC3     O 6328   0.180   3.377   0.529  0.0842  0.3318 -0.1374
  424TMC3     H 6329   0.170   3.281   0.746  0.6895 -0.0341 -0.0465
  424TMC3    H1 6330   4.540   3.334   0.518  2.2962  2.1954  0.5448
  424TMC3    H2 6331   4.503   3.154   0.899  0.9270 -1.2599 -0.7766
  424TMC3    C7 6332   4.359   3.277   0.704 -0.2844  0.2170 -0.1492
  424TMC3    C8 6333   0.046   3.142   0.944  0.4803  0.4121 -0.4729
  424TMC3    O1 6334   4.318   3.320   0.596  0.3791  0.0916  0.4083
  424TMC3    O2 6335   4.691   3.060   0.992 -0.6117  0.5692  0.1181
  425MPD2     C 6336   3.639   2.786  17.407  0.0055  0.2122  0.9154
  425MPD2    C1 6337   3.591   2.705  17.302 -0.6681 -0.3964  0.1888
  425MPD2    C2 6338   3.463   2.731  17.255 -0.4139  0.4005 -1.2038
  425MPD2    C3 6339   3.372   2.814  17.323 -0.0805 -0.2213 -0.6566
  425MPD2    C4 6340   3.415   2.874  17.436 -0.8790  0.1222  0.5742
  425MPD2    C5 6341   3.552   2.872  17.473  0.2624 -0.6857  0.6273
  425MPD2     H 6342   3.425   2.676  17.170 -1.4867  1.9690 -1.7363
  425MPD2    H1 6343   3.360   2.940  17.503  0.6078  1.4985  0.4485
  425MPD2    H2 6344   3.738   2.781  17.450  0.5611 -2.8905 -0.7372
  425MPD2    H3 6345   3.586   2.933  17.556  0.5460  0.4293 -0.2976
  425MPD2     N 6346   3.245   2.809  17.263 -0.5613 -0.1598  0.4087
  425MPD2    H5 6347   3.245   2.764  17.172 -3.5335  0.7167 -0.0243
  425MPD2    N1 6348   3.676   2.602  17.248 -0.3365  1.2535 -0.2110
  425MPD2    H7 6349   3.773   2.608  17.278 -0.4285 -1.2402  0.5493
  426TMC3    C1 6350   3.718   2.402  17.136  0.4718  0.0120 -0.2189
  426TMC3    C2 6351   3.699   2.331  17.023  0.0691  0.2424 -0.1875
  426TMC3    C3 6352   3.735   2.198  17.018  0.6297  0.2552 -1.2118
  426TMC3    C4 6353   3.765   2.346  17.246 -0.0554  0.1777 -0.3094
  426TMC3    C5 6354   3.807   2.220  17.241 -0.9567  0.1841  0.5050
  426TMC3    C6 6355   3.802   2.143  17.125  0.0539 -0.5644 -0.2115
  426TMC3     C 6356   3.644   2.524  17.145  0.1611 -0.3325  0.4760
  426TMC3     O 6357   3.562   2.542  17.060  0.2296 -0.0315  0.0762
  426TMC3     H 6358   3.642   2.384  16.948  0.2136  1.3339  0.4613
  426TMC3    H1 6359   3.766   2.389  17.346 -0.3397  0.0766 -0.2622
  426TMC3    H2 6360   3.826   2.038  17.126 -0.9237 -0.7854  1.4449
  426TMC3    C7 6361   3.829   2.143  17.360  0.5794 -0.2017 -0.5646
  426TMC3    C8 6362   3.708   2.116  16.904  0.2259  0.8747  0.3518
  426TMC3    O1 6363   3.931   2.071  17.360  0.4929 -0.3883 -0.5407
  426TMC3    O2 6364   3.786   2.026  16.893 -0.0595 -0.1190 -0.0882
  427MPD2     C 6365   1.789   4.564  14.372 -0.2151  0.3705 -0.2786
  427MPD2    C1 6366   1.841   4.619  14.492  0.1316 -0.8097  0.4183
  427MPD2    C2 6367   1.781   0.010  14.546  0.0636 -0.4196  0.5223
  427MPD2    C3 6368   1.670   0.070  14.488  0.0324 -0.0493  0.8334
  427MPD2    C4 6369   1.620   0.016  14.375  0.2915  0.1417 -0.3377
  427MPD2    C5 6370   1.679   4.632  14.319  0.4195 -0.4486 -0.4074
  427MPD2     H 6371   1.835   0.046  14.633  2.1683 -1.8248 -0.2047
  427MPD2    H1 6372   1.528   0.045  14.325 -0.7729 -3.2873 -0.3800
  427MPD2    H2 6373   1.835   4.485  14.315 -3.0936 -1.4377 -0.0627
  427MPD2    H3 6374   1.637   4.599  14.224 -1.0974 -3.3088  1.2413
  427MPD2     N 6375   1.602   0.180  14.547 -0.0335  0.3552  0.2776
  427MPD2    H5 6376   1.519   0.208  14.495  0.5032 -0.7018 -1.1480
  427MPD2    N1 6377   1.954   4.558  14.566 -0.0171 -0.3469  1.1460
  427MPD2    H7 6378   1.987   4.598  14.653  0.6376 -0.8937  1.1513
  428TMC3    C1 6379   2.102   4.387  14.640 -0.7866  0.5645  0.7741
  428TMC3    C2 6380   2.082   4.250  14.654  0.3782 -0.2390  0.5524
  428TMC3    C3 6381   2.201   4.168  14.656 -0.1436  0.0711  0.8741
  428TMC3    C4 6382   2.232   4.439  14.621 -0.4778 -0.3123  0.3598
  428TMC3    C5 6383   2.340   4.358  14.609 -0.7244  0.0684  0.0855
  428TMC3    C6 6384   2.326   4.224  14.628  0.1203 -0.1239 -0.4782
  428TMC3     C 6385   2.000   4.431  14.546  0.4093  0.0155  0.3479
  428TMC3     O 6386   1.954   4.345  14.472 -0.6697  0.1199 -0.6122
  428TMC3     H 6387   1.982   4.209  14.657  0.1214  0.0562 -4.1457
  428TMC3    H1 6388   2.250   4.544  14.604  0.3011 -0.5245 -0.1401
  428TMC3    H2 6389   2.414   4.161  14.633  1.1703  1.4412  0.8125
  428TMC3    C7 6390   2.482   4.403  14.599  0.3996  0.4897 -0.1568
  428TMC3    C8 6391   2.186   4.020  14.649  0.2205 -0.2972  0.0874
  428TMC3    O1 6392   2.558   4.322  14.555  0.1116 -0.3140 -0.6209
  428TMC3    O2 6393   2.263   3.955  14.582  0.1956 -0.4012  0.4189
  429MPD2     C 6394   3.198   0.046  17.032  0.2033 -0.6238  0.0133
  429MPD2    C1 6395   3.321   4.702  17.037  0.3034  0.5368  0.2390
  429MPD2    C2 6396   3.433   0.046  16.986 -0.4867 -0.2310 -0.0071
  429MPD2    C3 6397   3.418   0.166  16.913 -0.5033 -0.7467 -0.2807
  429MPD2    C4 6398   3.289   0.222  16.894  0.3341  0.4579  0.3126
  429MPD2    C5 6399   3.185   0.167  16.964  0.8876 -0.2258  0.3084
  429MPD2     H 6400   3.533   0.009  17.005 -0.4461 -0.5617 -0.8378
  429MPD2    H1 6401   3.271   0.312  16.836 -3.2955 -0.9010 -0.6634
  429MPD2    H2 6402   3.107   0.010  17.078  0.1855  0.4786  0.8443
  429MPD2    H3 6403   3.088   0.213  16.950  0.7900 -0.6403 -0.3835
  429MPD2     N 6404   3.538   0.213  16.850  0.7565  0.2421 -0.6601
  429MPD2    H5 6405   3.622   0.157  16.861  1.4794  1.3324 -0.6371
  429MPD2    N1 6406   3.339   4.579  17.097 -0.0393 -0.7314 -0.4716
  429MPD2    H7 6407   3.431   4.535  17.095  0.0706 -0.6562  2.5603
  430TMC3    C1 6408   3.670   0.335  16.707 -0.6155 -0.3488  0.2484
  430TMC3    C2 6409   3.685   0.412  16.590  0.6310 -0.0740 -0.5421
  430TMC3    C3 6410   3.794   0.391  16.516  0.1188  0.8475  0.7416
  430TMC3    C4 6411   3.767   0.247  16.749  0.2537 -0.5283 -0.3524
  430TMC3    C5 6412   3.874   0.223  16.666 -0.0110  0.7046 -0.1467
  430TMC3    C6 6413   3.887   0.298  16.553  0.1827 -0.6663 -0.3688
  430TMC3     C 6414   3.539   0.324  16.768  0.2158  0.0858 -0.2445
  430TMC3     O 6415   3.451   0.392  16.714 -0.1359  0.0842  0.4719
  430TMC3     H 6416   3.608   0.481  16.556 -0.2110 -0.2797  0.9346
  430TMC3    H1 6417   3.768   0.203  16.848  0.3389  0.1290 -0.0675
  430TMC3    H2 6418   3.968   0.285  16.483  0.0472 -2.6990 -0.1448
  430TMC3    C7 6419   3.885   0.077  16.658 -0.3161  0.4275  0.0307
  430TMC3    C8 6420   3.779   0.408  16.375  0.5046  0.3081 -0.9173
  430TMC3    O1 6421   3.790   0.020  16.712  0.0697  0.3939 -0.3036
  430TMC3    O2 6422   3.884   0.415  16.310 -0.5183 -0.6480 -0.1751
  431MPD2     C 6423   3.948   0.535  11.658 -0.0258  0.6102 -0.3127
  431MPD2    C1 6424   4.031   0.475  11.747  0.0783  0.0347 -0.3069
  431MPD2    C2 6425   4.029   0.339  11.768 -0.1093 -0.7010  0.0290
  431MPD2    C3 6426   3.934   0.258  11.704 -0.1143  0.4053  0.5832
  431MPD2    C4 6427   3.843   0.318  11.622 -0.6647  0.1488 -0.2747
  431MPD2    C5 6428   3.854   0.451  11.598  0.8207 -0.5583 -0.3296
  431MPD2     H 6429   4.099   0.293  11.837  0.0579  0.1589  0.4411
  431MPD2    H1 6430   3.775   0.253  11.568  0.2080 -0.1679 -0.9721
  431MPD2    H2 6431   3.951   0.641  11.632  0.4517  0.8993  0.9309
  431MPD2    H3 6432   3.783   0.499  11.531  0.5229  0.4328  0.6923
  431MPD2     N 6433   3.932   0.114  11.721  0.0355  0.1106 -0.1308
  431MPD2    H5 6434   3.875   0.060  11.656 -1.5243 -0.9470  2.1333
  431MPD2    N1 6435   4.132   0.555  11.807 -0.8789  0.0780 -0.4279
  431MPD2    H7 6436   4.133   0.653  11.781 -1.8793 -0.1214 -1.2154
  432TMC3    C1 6437   3.990   4.616  11.795  0.3510  0.2848  0.7080
  432TMC3    C2 6438   3.963   4.562  11.669  0.4166 -0.3110  0.5797
  432TMC3    C3 6439   3.988   4.428  11.645  0.3047 -0.2715  0.4337
  432TMC3    C4 6440   4.044   4.542  11.894  0.6227 -0.2971  0.8395
  432TMC3    C5 6441   4.044   4.405  11.866 -0.3869 -0.0147  0.2411
  432TMC3    C6 6442   4.022   4.344  11.750  0.2569  0.1341  0.2175
  432TMC3     C 6443   4.020   0.040  11.797 -0.2954 -0.2620 -1.2578
  432TMC3     O 6444   4.103   0.078  11.874  0.0071 -0.1581  0.0067
  432TMC3     H 6445   3.926   4.632  11.594  0.3991 -0.3801  0.5243
  432TMC3    H1 6446   4.069   4.588  11.989  0.9132  1.8999 -0.2862
  432TMC3    H2 6447   4.055   4.242  11.734  1.9826  0.6308  0.5486
  432TMC3    C7 6448   4.046   4.315  11.980 -0.0668  0.1540  0.1771
  432TMC3    C8 6449   3.999   4.386  11.513  0.1183 -0.5834  0.0487
  432TMC3    O1 6450   3.990   4.211  11.972 -0.5945 -0.0551  0.0188
  432TMC3    O2 6451   3.967   4.266  11.491  0.0900 -0.0363  0.1507
  433MPD2     C 6452   3.373   3.600  10.356  0.7538 -0.4417  0.3152
  433MPD2    C1 6453   3.291   3.533  10.444  0.0780  0.4565  0.2894
  433MPD2    C2 6454   3.305   3.539  10.581 -0.5807  1.1422  0.3143
  433MPD2    C3 6455   3.411   3.618  10.632 -0.3210  0.1043 -0.0228
  433MPD2    C4 6456   3.501   3.681  10.542 -0.5978 -0.6473  0.1309
  433MPD2    C5 6457   3.479   3.674  10.404 -0.0111 -0.1177 -0.3165
  433MPD2     H 6458   3.244   3.481  10.650  0.7355 -1.4072 -0.6401
  433MPD2    H1 6459   3.575   3.748  10.583 -1.0393  1.0778 -1.9009
  433MPD2    H2 6460   3.362   3.594  10.249  1.9135  2.2959  0.0555
  433MPD2    H3 6461   3.547   3.716  10.330 -1.5403  1.4167 -0.8311
  433MPD2     N 6462   3.429   3.629  10.772  0.5978  0.2066  0.3028
  433MPD2    H5 6463   3.354   3.592  10.830  0.5735  1.3969  1.0323
  433MPD2    N1 6464   3.213   3.430  10.392  0.7019 -0.2699 -0.3265
  433MPD2    H7 6465   3.219   3.411  10.293  1.9181 -2.3081  0.1293
  434TMC3    C1 6466   3.109   3.225  10.383 -0.6498 -0.6856  0.3962
  434TMC3    C2 6467   3.127   3.105  10.446 -0.6428  0.4558  0.1623
  434TMC3    C3 6468   3.133   2.986  10.384 -0.8445 -0.2524  0.0693
  434TMC3    C4 6469   3.092   3.224  10.253  0.0637 -0.0422  0.2959
  434TMC3    C5 6470   3.086   3.099  10.191  0.5795  0.3164 -0.4055
  434TMC3    C6 6471   3.110   2.977  10.251 -0.0848  0.6853 -0.2637
  434TMC3     C 6472   3.133   3.339  10.465  0.2328  0.3861 -0.1632
  434TMC3     O 6473   3.103   3.328  10.582 -0.5246  0.7113 -0.6298
  434TMC3     H 6474   3.147   3.106  10.553  0.3912 -1.3101  0.0023
  434TMC3    H1 6475   3.070   3.319  10.207  1.2746 -0.1122 -0.4408
  434TMC3    H2 6476   3.130   2.878  10.212  3.3807  0.5564  1.7750
  434TMC3    C7 6477   3.071   3.095  10.048 -0.5426 -0.5285  0.1656
  434TMC3    C8 6478   3.208   2.884  10.456  0.6347  0.0655  0.3687
  434TMC3    O1 6479   3.059   3.199   9.990 -0.3231 -0.2366 -0.2039
  434TMC3    O2 6480   3.284   2.910  10.549  0.0648 -0.1222  0.0505
  435MPD2     C 6481   0.050   3.283  15.001 -0.0978 -0.2507  0.1951
  435MPD2    C1 6482   0.027   3.270  15.138  0.5330  0.0729 -0.9037
  435MPD2    C2 6483   0.137   3.247  15.220 -0.3837  0.1020 -0.6457
  435MPD2    C3 6484   0.269   3.227  15.168  0.4093 -0.2349 -0.9953
  435MPD2    C4 6485   0.286   3.245  15.033  0.2934  0.5789  0.2160
  435MPD2    C5 6486   0.175   3.263  14.951  0.6939  0.0830  0.1506
  435MPD2     H 6487   0.115   3.244  15.327 -0.2331 -1.6887 -0.6754
  435MPD2    H1 6488   0.383   3.224  14.989 -0.0504 -0.2018 -0.1690
  435MPD2    H2 6489   4.695   3.303  14.928  0.9228 -0.2575 -0.8776
  435MPD2    H3 6490   0.178   3.301  14.849  0.0910 -1.6210 -0.4871
  435MPD2     N 6491   0.376   3.200  15.254  0.4360 -0.1176  0.2217
  435MPD2    H5 6492   0.352   3.191  15.352  0.4572 -0.8483  0.1615
  435MPD2    N1 6493   4.620   3.291  15.198  0.1135  0.1559 -0.3593
  435MPD2    H7 6494   4.614   3.296  15.299  0.9604 -1.3348 -0.2386
  436TMC3    C1 6495   4.299   3.280  15.440 -0.1958 -1.3338 -0.5840
  436TMC3    C2 6496   4.402   3.264  15.362  0.2261  1.1067  0.1478
  436TMC3    C3 6497   4.397   3.301  15.229 -0.6160 -0.2027  0.2481
  436TMC3    C4 6498   4.185   3.347  15.389  0.6116 -0.3156  0.1938
  436TMC3    C5 6499   4.178   3.381  15.260 -0.1112  0.8135 -0.0150
  436TMC3    C6 6500   4.287   3.364  15.178 -0.2515 -0.2986  0.3733
  436TMC3     C 6501   4.319   3.260  15.586 -0.0418  0.1822  0.4544
  436TMC3     O 6502   4.401   3.178  15.608  0.8079  0.4278 -0.3344
  436TMC3     H 6503   4.487   3.207  15.397  1.5551  2.7287 -0.4137
  436TMC3    H1 6504   4.101   3.370  15.453  0.4954  2.9078 -1.1064
  436TMC3    H2 6505   4.279   3.385  15.072  0.1239 -0.5760  0.2872
  436TMC3    C7 6506   4.045   3.406  15.206 -0.3521  0.0232  0.3763
  436TMC3    C8 6507   4.502   3.300  15.134  0.9066  0.3708  0.3031
  436TMC3    O1 6508   3.953   3.442  15.284 -0.2424 -0.0703 -0.3771
  436TMC3    O2 6509   4.468   3.279  15.018 -0.5702  0.6859  0.2776
  437TMC3    C1 6510   3.613   0.991  12.474 -0.1485 -0.3457  0.1890
  437TMC3    C2 6511   3.477   0.998  12.448 -0.1104  0.4680 -0.6689
  437TMC3    C3 6512   3.436   1.023  12.322 -0.4669 -0.5637  0.4116
  437TMC3    C4 6513   3.707   1.002  12.374 -0.0138  0.5255  0.5306
  437TMC3    C5 6514   3.654   1.049  12.253 -0.2092 -0.2933  0.2851
  437TMC3    C6 6515   3.519   1.051  12.223  0.9415 -0.1706 -0.2299
  437TMC3     C 6516   3.658   0.907  12.583 -0.2473  0.5089  0.1415
  437TMC3     O 6517   3.603   0.924  12.690  0.8567 -0.5931  0.0246
  437TMC3     H 6518   3.410   0.965  12.527 -0.3561 -1.9941 -1.9163
  437TMC3    H1 6519   3.812   0.994  12.399  0.0698  0.8359  0.2817
  437TMC3    H2 6520   3.491   1.083  12.123  0.0525  0.9383  0.3797
  437TMC3    C7 6521   3.740   1.125  12.171 -0.0503 -0.3523  0.3163
  437TMC3    C8 6522   3.298   1.022  12.284 -0.2670  0.1696 -0.7680
  437TMC3    O1 6523   3.701   1.139  12.058 -0.4803  0.1999  0.0767
  437TMC3    O2 6524   3.272   0.990  12.172 -0.0989  0.2406 -0.6667
  438MPD2     C 6525   0.927   1.498  16.436 -0.7407 -0.2966 -0.2579
  438MPD2    C1 6526   1.037   1.419  16.471 -0.0639 -0.1893  0.5931
  438MPD2    C2 6527   1.036   1.370  16.602 -0.4124  0.4466  0.5418
  438MPD2    C3 6528   0.937   1.400  16.694  1.0368  0.4530  0.0681
  438MPD2    C4 6529   0.837   1.481  16.655 -0.7170 -0.4322  0.4715
  438MPD2    C5 6530   0.834   1.528  16.524 -0.2987 -0.1990 -0.7635
  438MPD2     H 6531   1.125   1.314  16.627 -1.5609 -1.4148  0.4106
  438MPD2    H1 6532   0.751   1.499  16.719  0.3489  2.4898  1.0663
  438MPD2    H2 6533   0.909   1.543  16.338  0.0199 -2.2997 -1.3127
  438MPD2    H3 6534   0.746   1.581  16.490 -0.5948  0.0448  0.4011
  438MPD2     N 6535   0.933   1.343  16.825 -0.2460 -1.1554  0.7591
  438MPD2    H5 6536   0.858   1.377  16.884  0.1713  0.0146  0.6230
  438MPD2    N1 6537   1.148   1.388  16.388  0.1297 -0.1327 -0.5406
  438MPD2    H7 6538   1.224   1.345  16.440  0.5397  0.9576 -0.2462
  439TMC3    C1 6539   1.280   1.348  16.207  0.3158 -0.0295  0.4998
  439TMC3    C2 6540   1.323   1.359  16.078 -0.3047  0.0774  0.5445
  439TMC3    C3 6541   1.451   1.310  16.047 -0.2172  0.0088 -0.5908
  439TMC3    C4 6542   1.372   1.296  16.300  0.2391 -0.1055 -0.4519
  439TMC3    C5 6543   1.503   1.256  16.269 -0.5317  0.0321  0.3044
  439TMC3    C6 6544   1.536   1.257  16.137 -0.3615  0.3704  0.4647
  439TMC3     C 6545   1.157   1.406  16.253  0.1101 -0.7917  0.0737
  439TMC3     O 6546   1.087   1.462  16.177 -0.3250  0.3355 -0.5215
  439TMC3     H 6547   1.255   1.393  16.000 -0.0956 -1.2147 -0.2210
  439TMC3    H1 6548   1.339   1.268  16.399 -1.8221  1.6565 -0.6351
  439TMC3    H2 6549   1.631   1.212  16.111 -0.1177  0.6602  0.8575
  439TMC3    C7 6550   1.594   1.205  16.365  0.8037 -0.1441  0.0621
  439TMC3    C8 6551   1.498   1.331  15.913  0.7431  0.0413 -1.1039
  439TMC3    O1 6552   1.684   1.130  16.329  0.1064  0.1997  0.9335
  439TMC3    O2 6553   1.608   1.285  15.895 -0.4959 -0.6274 -0.1995
  440MPD2     C 6554   0.228   2.091  14.044 -0.7540 -0.1181  1.0091
  440MPD2    C1 6555   0.146   2.115  14.154  0.2705  0.4011  0.1935
  440MPD2    C2 6556   0.189   2.073  14.280 -0.1112  0.3467 -0.3148
  440MPD2    C3 6557   0.309   2.009  14.296  0.0206  0.2176 -0.2029
  440MPD2    C4 6558   0.386   1.975  14.181 -0.1548 -0.1226 -0.4556
  440MPD2    C5 6559   0.345   2.023  14.059  0.3798  0.4478 -0.6687
  440MPD2     H 6560   0.119   2.088  14.361  0.2527 -1.5203  0.3282
  440MPD2    H1 6561   0.473   1.913  14.199  2.1268  3.0014 -0.6064
  440MPD2    H2 6562   0.200   2.120  13.943  0.2012 -0.8346  0.5404
  440MPD2    H3 6563   0.408   1.995  13.975 -0.5039  2.7658 -2.0828
  440MPD2     N 6564   0.358   1.966  14.424  0.0711 -0.3838 -0.3276
  440MPD2    H5 6565   0.451   1.926  14.427 -0.1486 -0.9785 -1.3252
  440MPD2    N1 6566   0.015   2.169  14.154 -0.4894  0.5663 -0.2497
  440MPD2    H7 6567   4.695   2.180  14.246  0.3897  1.7922  0.0067
  441TMC3    C1 6568   0.373   1.959  14.674 -0.0469 -0.5855 -0.1317
  441TMC3    C2 6569   0.373   2.047  14.781 -0.4550 -0.1925 -0.1847
  441TMC3    C3 6570   0.445   2.011  14.888 -0.8832  0.3804 -0.6741
  441TMC3    C4 6571   0.446   1.841  14.668  1.3753  0.0020 -0.4738
  441TMC3    C5 6572   0.510   1.813  14.786 -0.3018  0.3976 -0.1079
  441TMC3    C6 6573   0.517   1.899  14.890 -0.8352 -0.2504  0.4377
  441TMC3     C 6574   0.306   2.011  14.548  0.3172 -0.8932  0.5139
  441TMC3     O 6575   0.201   2.073  14.564  0.0985 -0.5375  0.2481
  441TMC3     H 6576   0.319   2.141  14.771  1.8986  0.8314 -3.6127
  441TMC3    H1 6577   0.439   1.767  14.589  2.1658 -0.0855 -0.4560
  441TMC3    H2 6578   0.533   1.862  14.991 -2.5178  0.3292  0.9063
  441TMC3    C7 6579   0.532   1.667  14.811 -0.3125  0.9799  0.3691
  441TMC3    C8 6580   0.417   2.082  15.011 -0.3911  0.1542  0.1368
  441TMC3    O1 6581   0.449   1.591  14.759  0.0634 -0.4389 -0.1171
  441TMC3    O2 6582   0.510   2.092  15.087 -0.7101 -0.5992  0.0846
  442MPD2     C 6583   2.978   2.224  16.157 -0.4641 -0.1343 -0.1229
  442MPD2    C1 6584   2.935   2.146  16.261 -0.6931 -0.8274 -0.1217
  442MPD2    C2 6585   2.967   2.012  16.265 -0.5895 -0.1740  0.4980
  442MPD2    C3 6586   3.058   1.952  16.174  0.3057  0.2275  0.0084
  442MPD2    C4 6587   3.103   2.038  16.073 -0.3118 -0.1797 -0.2736
  442MPD2    C5 6588   3.054   2.163  16.057  0.7964 -0.5801  0.5676
  442MPD2     H 6589   2.930   1.949  16.345 -0.3659 -0.7841  0.1241
  442MPD2    H1 6590   3.154   1.992  15.989 -0.0115  0.4604 -0.4445
  442MPD2    H2 6591   2.966   2.330  16.140  3.1796  0.7173  2.4069
  442MPD2    H3 6592   3.076   2.218  15.966 -0.1355  0.1135  0.7580
  442MPD2     N 6593   3.113   1.819  16.181 -0.3727 -0.6258 -0.8440
  442MPD2    H5 6594   3.185   1.807  16.111 -0.0751  1.7668 -0.9569
  442MPD2    N1 6595   2.862   2.204  16.369  0.2557  0.8465 -0.0336
  442MPD2    H7 6596   2.833   2.141  16.444 -0.4746 -0.4820 -1.4295
  443TMC3    C1 6597   2.769   2.378  16.508 -0.2341  0.1608 -0.4661
  443TMC3    C2 6598   2.767   2.512  16.530 -0.5523  0.2332 -0.0471
  443TMC3    C3 6599   2.718   2.562  16.648  0.3183  0.8105 -0.0310
  443TMC3    C4 6600   2.722   2.290  16.603  0.2502 -0.2141 -0.2270
  443TMC3    C5 6601   2.689   2.343  16.728  0.5605  0.4404 -0.3237
  443TMC3    C6 6602   2.673   2.477  16.744  0.1154  0.1727 -0.0725
  443TMC3     C 6603   2.842   2.339  16.388 -0.4881 -0.0722 -0.1135
  443TMC3     O 6604   2.869   2.430  16.313  0.4251  0.3406  0.1517
  443TMC3     H 6605   2.813   2.585  16.465  1.8343  0.6298  2.0586
  443TMC3    H1 6606   2.713   2.183  16.587  0.9807  0.0654 -2.5416
  443TMC3    H2 6607   2.629   2.523  16.832 -2.1202 -0.2581 -0.9550
  443TMC3    C7 6608   2.625   2.248  16.821  0.1603  0.0454  0.1149
  443TMC3    C8 6609   2.694   2.704  16.676  0.1031  0.0019  0.1903
  443TMC3    O1 6610   2.579   2.144  16.777 -0.4330  0.8967 -0.1394
  443TMC3    O2 6611   2.729   2.737  16.793  0.2113  0.1466  0.6211
  444MPD2     C 6612   3.601   1.721  16.829  0.4814  0.0295 -0.4408
  444MPD2    C1 6613   3.512   1.641  16.766  0.2543  0.1515 -0.0518
  444MPD2    C2 6614   3.561   1.532  16.690 -0.0249  0.1852  0.4685
  444MPD2    C3 6615   3.696   1.515  16.684 -0.4314  0.1573  0.0204
  444MPD2    C4 6616   3.784   1.599  16.743  0.3287 -0.5470  0.7560
  444MPD2    C5 6617   3.731   1.704  16.819  0.4245 -1.0204  0.4820
  444MPD2     H 6618   3.495   1.468  16.632  0.1935  1.7207 -1.4426
  444MPD2    H1 6619   3.892   1.596  16.732  0.2008 -1.2740 -0.1957
  444MPD2    H2 6620   3.571   1.813  16.879 -0.6163 -0.8240  0.4796
  444MPD2    H3 6621   3.799   1.779  16.858 -0.0889 -0.2462 -0.1233
  444MPD2     N 6622   3.740   1.399  16.613 -0.0230  0.0624 -0.3342
  444MPD2    H5 6623   3.662   1.350  16.570 -0.5586  0.7733 -0.1768
  444MPD2    N1 6624   3.378   1.661  16.762 -0.1331 -0.3186  0.4393
  444MPD2    H7 6625   3.324   1.609  16.693  0.4922 -0.1580 -0.1701
  445TMC3    C1 6626   3.876   1.244  16.505 -0.1096 -0.6044 -0.4689
  445TMC3    C2 6627   3.762   1.173  16.483 -0.6671  1.1522  0.4133
  445TMC3    C3 6628   3.776   1.069  16.394  0.0370  0.0481 -0.6091
  445TMC3    C4 6629   4.000   1.215  16.450  0.0633  0.3525  1.1520
  445TMC3    C5 6630   4.009   1.097  16.383 -0.4173  0.3682  0.2073
  445TMC3    C6 6631   3.896   1.038  16.329 -0.3485 -0.3503 -0.3165
  445TMC3     C 6632   3.869   1.355  16.595  1.1618 -0.3620 -0.0056
  445TMC3     O 6633   3.972   1.420  16.606 -1.0174 -0.0676  0.3045
  445TMC3     H 6634   3.674   1.179  16.546 -0.5337  1.5530  0.5628
  445TMC3    H1 6635   4.092   1.265  16.478 -0.8866  3.6953 -1.6935
  445TMC3    H2 6636   3.905   0.950  16.266 -1.8381 -0.3381 -0.5377
  445TMC3    C7 6637   4.145   1.051  16.350  0.5276 -0.0261  0.2593
  445TMC3    C8 6638   3.654   1.033  16.321  0.0554  0.2842  1.1322
  445TMC3    O1 6639   4.247   1.107  16.391 -0.2027  1.1527 -0.4057
  445TMC3    O2 6640   3.548   1.086  16.353  0.4619  0.5474  0.0323
  446MPD2     C 6641   3.095   2.788  11.055  0.5052  0.4756  0.2464
  446MPD2    C1 6642   3.088   2.778  10.917  0.1317  0.0928  0.3781
  446MPD2    C2 6643   3.155   2.878  10.841 -0.2180  0.2956  0.0747
  446MPD2    C3 6644   3.238   2.968  10.902 -0.2919  0.0708 -0.2186
  446MPD2    C4 6645   3.239   2.968  11.039 -0.2171  0.4635 -0.0540
  446MPD2    C5 6646   3.165   2.882  11.110  0.2276  0.2297 -0.5632
  446MPD2     H 6647   3.144   2.874  10.734  2.2189  0.8879 -0.2096
  446MPD2    H1 6648   3.297   3.043  11.092 -0.2598 -1.1137  2.1848
  446MPD2    H2 6649   3.046   2.718  11.122  1.8345 -0.8129 -0.1257
  446MPD2    H3 6650   3.176   2.888  11.218 -0.0078 -0.2632 -0.5083
  446MPD2     N 6651   3.321   3.052  10.816 -0.3616  0.0315  0.2722
  446MPD2    H5 6652   3.316   3.020  10.720  1.7895  1.2130 -0.2245
  446MPD2    N1 6653   2.996   2.685  10.851  0.4220  0.5349  0.2411
  446MPD2    H7 6654   2.964   2.703  10.756  0.5746 -0.9681 -0.0998
  447TMC3    C1 6655   3.492   3.212  10.756 -0.3853  0.3238 -0.5832
  447TMC3    C2 6656   3.457   3.198  10.627 -0.1592 -0.8838  0.2288
  447TMC3    C3 6657   3.531   3.268  10.533 -0.5837 -0.1450  0.0255
  447TMC3    C4 6658   3.598   3.286  10.791  0.1806 -0.6055  0.0159
  447TMC3    C5 6659   3.665   3.366  10.699 -0.5038 -1.2957  0.5032
  447TMC3    C6 6660   3.631   3.359  10.568 -0.5014  0.2509 -0.6732
  447TMC3     C 6661   3.405   3.154  10.861  0.0062  0.3690 -0.0566
  447TMC3     O 6662   3.410   3.201  10.975  0.4516  0.3945 -0.1378
  447TMC3     H 6663   3.380   3.129  10.594  0.7616 -1.0547 -1.5490
  447TMC3    H1 6664   3.619   3.283  10.898 -0.5814  0.2129  0.1822
  447TMC3    H2 6665   3.691   3.413  10.496  0.7409 -1.6551 -1.0665
  447TMC3    C7 6666   3.796   3.391  10.738  1.2622 -0.2173 -0.7002
  447TMC3    C8 6667   3.527   3.237  10.400 -0.3287  0.1962  0.5831
  447TMC3    O1 6668   3.851   3.297  10.788 -0.2010 -0.5741 -0.5033
  447TMC3    O2 6669   3.548   3.332  10.323 -0.4639 -0.3274  0.0177
  448TMC3    C1 6670   2.167   2.776  16.449  0.0232 -0.3214  0.1384
  448TMC3    C2 6671   2.075   2.677  16.414 -0.3869 -0.5413 -0.2248
  448TMC3    C3 6672   2.078   2.557  16.483  0.3159  0.2333 -0.4736
  448TMC3    C4 6673   2.252   2.765  16.560 -0.1714  0.2654 -0.9223
  448TMC3    C5 6674   2.240   2.654  16.641 -0.5950  0.8079  0.2773
  448TMC3    C6 6675   2.158   2.553  16.599  0.2722 -0.9018  0.0693
  448TMC3     C 6676   2.176   2.892  16.361  0.6298 -0.0679 -0.2075
  448TMC3     O 6677   2.129   2.879  16.249 -0.2862 -0.4152 -0.4693
  448TMC3     H 6678   2.010   2.687  16.328 -0.8729  1.4159  0.3756
  448TMC3    H1 6679   2.324   2.844  16.581 -1.0554  1.5297 -2.6426
  448TMC3    H2 6680   2.164   2.458  16.651 -0.2687 -0.6754  0.5544
  448TMC3    C7 6681   2.288   2.656  16.778 -0.5903 -0.5702  0.5574
  448TMC3    C8 6682   1.980   2.445  16.465 -1.4625  0.4687  0.1837
  448TMC3    O1 6683   2.373   2.739  16.807 -0.3363 -0.0109  0.2127
  448TMC3    O2 6684   1.965   2.365  16.556  0.1308  0.5781  0.2198
  449MPD2     C 6685   2.561   0.954  13.623 -0.0769 -0.2327 -1.1591
  449MPD2    C1 6686   2.424   0.956  13.591 -0.7464  0.8992  0.0855
  449MPD2    C2 6687   2.340   1.021  13.680  1.0379  0.1395 -0.7284
  449MPD2    C3 6688   2.385   1.087  13.790  0.0039  0.0950  0.5554
  449MPD2    C4 6689   2.518   1.077  13.822 -0.4001  0.4902  0.3643
  449MPD2    C5 6690   2.601   1.018  13.734 -0.3983 -0.0311 -0.4129
  449MPD2     H 6691   2.232   1.019  13.669  1.1504 -1.9599 -1.5081
  449MPD2    H1 6692   2.564   1.118  13.912 -0.2415  0.9732  0.0641
  449MPD2    H2 6693   2.643   0.908  13.568  0.3742 -0.9943  0.1578
  449MPD2    H3 6694   2.707   1.022  13.758 -1.4890  1.7960  4.1841
  449MPD2     N 6695   2.300   1.173  13.857 -0.2292  0.1931 -0.4362
  449MPD2    H5 6696   2.206   1.170  13.820  0.3642  2.1056 -2.0562
  449MPD2    N1 6697   2.371   0.895  13.482 -0.0260  0.3605 -0.6357
  449MPD2    H7 6698   2.272   0.908  13.467 -0.1419 -0.0075 -0.1725
  450TMC3    C1 6699   2.358   0.826  13.268  0.0191 -0.1372 -0.2997
  450TMC3    C2 6700   2.398   0.915  13.179  0.2685 -0.4922 -0.4321
  450TMC3    C3 6701   2.305   0.990  13.108  0.3678 -0.2729 -0.2134
  450TMC3    C4 6702   2.226   0.818  13.302  0.6794 -0.0882  0.3205
  450TMC3    C5 6703   2.135   0.907  13.251  0.1287 -0.1926 -0.0451
  450TMC3    C6 6704   2.172   0.997  13.152  0.5973  0.0900  0.2333
  450TMC3     C 6705   2.443   0.832  13.376  0.3423  0.3193  0.1503
  450TMC3     O 6706   2.564   0.825  13.358 -0.0630 -0.2640  0.5099
  450TMC3     H 6707   2.506   0.920  13.169  0.2772 -1.7318 -0.9286
  450TMC3    H1 6708   2.192   0.743  13.373 -0.5557 -1.0151 -1.2619
  450TMC3    H2 6709   2.106   1.081  13.134  2.6309  1.1434 -2.3487
  450TMC3    C7 6710   2.050   0.962  13.357 -0.0382  0.3247 -0.2727
  450TMC3    C8 6711   2.350   1.108  13.040 -0.3075 -0.3005  0.0176
  450TMC3    O1 6712   2.107   0.963  13.468  0.5300 -0.2231 -0.1859
  450TMC3    O2 6713   2.272   1.201  13.025 -0.2835  0.3724  0.5746
  451MPD2     C 6714   4.516   0.167   0.802  0.0858  0.1494  0.2991
  451MPD2    C1 6715   4.387   0.124   0.818  0.2200 -0.5179  0.2171
  451MPD2    C2 6716   4.364   4.709   0.837 -0.0166 -0.1566 -0.2751
  451MPD2    C3 6717   4.466   4.617   0.836  0.0449  0.1172  0.8186
  451MPD2    C4 6718   4.593   4.665   0.833 -0.5075 -0.1999 -0.2675
  451MPD2    C5 6719   4.623   0.075   0.815 -0.1113 -0.1534 -0.1542
  451MPD2     H 6720   4.267   4.675   0.869 -0.3022  0.0312 -0.9246
  451MPD2    H1 6721   4.679   4.600   0.837  0.4233  1.0493 -0.1944
  451MPD2    H2 6722   4.544   0.271   0.804 -0.3070  0.2658 -0.4940
  451MPD2    H3 6723   0.005   0.107   0.808  0.1374 -0.8023  0.6548
  451MPD2     N 6724   4.454   4.482   0.860 -0.1450 -0.1200  0.4663
  451MPD2    H5 6725   4.542   4.431   0.869  1.0255  1.6409 -0.9378
  451MPD2    N1 6726   4.287   0.220   0.831  0.4533 -0.2027 -0.4931
  451MPD2    H7 6727   4.310   0.318   0.839  0.0702 -0.1030 -0.6529
  452TMC3    C1 6728   4.360   4.271   0.873 -0.2887  0.0987 -0.3821
  452TMC3    C2 6729   4.447   4.224   0.963  0.5575 -0.2525 -0.9090
  452TMC3    C3 6730   4.471   4.084   0.962 -0.2655  0.0306  0.4898
  452TMC3    C4 6731   4.301   4.190   0.785  0.7177  0.2827 -0.2246
  452TMC3    C5 6732   4.336   4.055   0.779 -0.1644 -0.2155 -0.8118
  452TMC3    C6 6733   4.422   3.998   0.862  0.1647 -0.4883 -0.4339
  452TMC3     C 6734   4.337   4.412   0.860  0.1095  0.6391  0.1916
  452TMC3     O 6735   4.221   4.447   0.847  0.9588 -0.1595  0.3273
  452TMC3     H 6736   4.478   4.293   1.041  0.9957 -4.3603  2.6030
  452TMC3    H1 6737   4.238   4.240   0.713  1.2400  2.4392  0.8327
  452TMC3    H2 6738   4.443   3.892   0.854 -1.5646 -0.7860 -0.9585
  452TMC3    C7 6739   4.332   3.989   0.652  0.0215 -0.2424  0.5646
  452TMC3    C8 6740   4.542   4.023   1.072 -0.2242 -0.3172  0.0731
  452TMC3    O1 6741   4.364   4.066   0.562  0.2397  0.1234 -0.5895
  452TMC3    O2 6742   4.504   3.917   1.119 -0.1305  0.5913  0.2771
  453TMC3    C1 6743   0.499   2.447  11.344  0.8136  0.1678  0.0371
  453TMC3    C2 6744   0.442   2.340  11.398 -0.3166 -0.5485  0.1145
  453TMC3    C3 6745   0.421   2.230  11.316  0.1106  0.0977  0.2674
  453TMC3    C4 6746   0.557   2.442  11.222 -0.3079  0.2928 -0.2747
  453TMC3    C5 6747   0.530   2.334  11.141 -0.0594 -0.2090 -0.0455
  453TMC3    C6 6748   0.454   2.229  11.186 -0.5855 -0.4289 -0.2136
  453TMC3     C 6749   0.575   2.533  11.430 -0.3299 -0.2583  0.8054
  453TMC3     O 6750   0.689   2.544  11.391 -0.1051 -0.1003  0.1111
  453TMC3     H 6751   0.413   2.347  11.503  1.8500  1.3270  0.5940
  453TMC3    H1 6752   0.608   2.530  11.184  2.1443 -1.1639 -0.3647
  453TMC3    H2 6753   0.414   2.155  11.118  0.9284 -1.3985 -0.0431
  453TMC3    C7 6754   0.588   2.322  11.008 -0.8326  0.2148 -0.3234
  453TMC3    C8 6755   0.375   2.113  11.385  0.4719 -0.9883  0.4066
  453TMC3    O1 6756   0.613   2.203  10.973  0.1063  0.2727 -0.2765
  453TMC3    O2 6757   0.323   2.133  11.492 -0.3374  0.1084  0.4566
  454MPD2     C 6758   4.329   1.315  16.015  0.3498 -0.8844  0.2366
  454MPD2    C1 6759   4.269   1.398  15.927 -0.6367 -0.0109  0.1971
  454MPD2    C2 6760   4.210   1.512  15.972 -0.2692 -0.0803 -0.3889
  454MPD2    C3 6761   4.197   1.530  16.113 -0.5027  0.7598 -0.5688
  454MPD2    C4 6762   4.251   1.440  16.200 -0.2118 -0.2773 -0.1392
  454MPD2    C5 6763   4.321   1.335  16.150  0.9663  0.5611  0.0271
  454MPD2     H 6764   4.156   1.581  15.910 -1.5641  0.4074  1.2765
  454MPD2    H1 6765   4.246   1.441  16.308  2.3159 -0.7941 -0.0157
  454MPD2    H2 6766   4.386   1.233  15.973  1.1736 -0.6743  0.9342
  454MPD2    H3 6767   4.372   1.266  16.217  0.0688  0.4261  0.5660
  454MPD2     N 6768   4.110   1.616  16.174  0.3580  0.5835 -0.3915
  454MPD2    H5 6769   4.089   1.590  16.270  0.0498  2.0634 -0.0601
  454MPD2    N1 6770   4.255   1.377  15.789 -0.1468 -0.0981 -0.2544
  454MPD2    H7 6771   4.207   1.441  15.727 -0.2325 -1.8462 -1.9739
  455TMC3    C1 6772   3.929   1.757  16.169 -0.2856  0.5865 -0.8313
  455TMC3    C2 6773   3.920   1.788  16.301 -0.2977 -0.1924  0.5060
  455TMC3    C3 6774   3.813   1.731  16.361  0.3720  0.4321 -0.6120
  455TMC3    C4 6775   3.860   1.647  16.121  0.5472 -0.0056 -0.0351
  455TMC3    C5 6776   3.765   1.587  16.194  0.3143  0.4170  0.3009
  455TMC3    C6 6777   3.734   1.628  16.320  0.6423 -0.1767 -0.0654
  455TMC3     C 6778   4.061   1.739  16.125 -0.0253 -0.3549 -0.0860
  455TMC3     O 6779   4.099   1.785  16.017 -0.2795  0.4733 -0.1270
  455TMC3     H 6780   3.982   1.868  16.341  0.0262 -1.1144  1.8337
  455TMC3    H1 6781   3.887   1.608  16.024  1.0638 -0.7471  0.4139
  455TMC3    H2 6782   3.658   1.575  16.377  1.4556  0.4374  1.6104
  455TMC3    C7 6783   3.739   1.452  16.160  0.2843 -0.0427 -0.0699
  455TMC3    C8 6784   3.763   1.804  16.472  0.0109  0.0288  0.9574
  455TMC3    O1 6785   3.633   1.397  16.184  0.6314 -0.1767 -0.0867
  455TMC3    O2 6786   3.845   1.864  16.541 -0.1780 -0.8686 -0.3563
  456MPD2     C 6787   1.687   1.566  16.021  0.6779 -0.5880 -0.0792
  456MPD2    C1 6788   1.751   1.510  16.129  0.2103  1.2516  0.3227
  456MPD2    C2 6789   1.702   1.528  16.257 -0.1988 -0.3935  0.2288
  456MPD2    C3 6790   1.598   1.620  16.279  0.0983 -0.0260 -0.0352
  456MPD2    C4 6791   1.531   1.674  16.175 -0.3804  0.3577  0.7917
  456MPD2    C5 6792   1.572   1.637  16.048  0.0391  0.4349  0.1405
  456MPD2     H 6793   1.746   1.477  16.341  1.7214  0.3110 -0.3398
  456MPD2    H1 6794   1.444   1.738  16.183 -1.6382 -1.3882  0.9787
  456MPD2    H2 6795   1.711   1.547  15.917 -2.7646 -0.8857 -0.8103
  456MPD2    H3 6796   1.506   1.672  15.969 -2.9522 -2.6650  1.2734
  456MPD2     N 6797   1.552   1.669  16.405 -0.3432 -0.2408 -0.3302
  456MPD2    H5 6798   1.464   1.720  16.405 -0.1056  0.1808  0.8392
  456MPD2    N1 6799   1.856   1.424  16.092  0.8888  0.7060 -0.2699
  456MPD2    H7 6800   1.863   1.388  15.997 -2.2405  1.5998 -0.8485
  457TMC3    C1 6801   1.563   1.750  16.620 -0.1407  0.7010  1.1075
  457TMC3    C2 6802   1.537   1.877  16.568  0.3497  0.0701  0.1987
  457TMC3    C3 6803   1.564   1.983  16.649  0.4150 -0.1040 -0.1863
  457TMC3    C4 6804   1.605   1.727  16.744  0.3853  0.1656  0.3838
  457TMC3    C5 6805   1.619   1.839  16.827  0.0849 -0.1086  0.0218
  457TMC3    C6 6806   1.604   1.969  16.778  0.3662 -0.1429 -0.3488
  457TMC3     C 6807   1.617   1.657  16.524 -0.0396  1.0166  0.3948
  457TMC3     O 6808   1.733   1.626  16.541 -0.1521 -0.0171 -0.3962
  457TMC3     H 6809   1.495   1.883  16.468  1.3908 -0.9055 -0.2979
  457TMC3    H1 6810   1.612   1.626  16.784 -0.6796 -0.2699 -0.5416
  457TMC3    H2 6811   1.612   2.056  16.843  0.7342 -0.7776  0.4545
  457TMC3    C7 6812   1.711   1.823  16.941 -0.1211 -0.4503 -0.5019
  457TMC3    C8 6813   1.612   2.111  16.595 -0.6401  0.4296 -0.1507
  457TMC3    O1 6814   1.716   1.709  16.987  0.2930  0.3454  0.4343
  457TMC3    O2 6815   1.680   2.184  16.667  0.9511 -0.0738  0.2472
  458MPD2     C 6816   4.183   1.339  12.015  0.4493 -0.7311 -0.5821
  458MPD2    C1 6817   4.206   1.261  12.127 -0.4012  0.5573  0.9548
  458MPD2    C2 6818   4.096   1.207  12.189 -0.2879  0.6731 -0.0313
  458MPD2    C3 6819   3.967   1.209  12.141 -0.4703 -0.0953 -1.0469
  458MPD2    C4 6820   3.952   1.280  12.023  0.3775  0.0595  0.6083
  458MPD2    C5 6821   4.057   1.341  11.960 -0.4529  0.4425 -0.8395
  458MPD2     H 6822   4.110   1.150  12.281  0.8710  0.1682 -0.5158
  458MPD2    H1 6823   3.852   1.296  11.985  1.6021  2.8009 -1.5004
  458MPD2    H2 6824   4.267   1.385  11.965  0.3613  0.3201  0.2356
  458MPD2    H3 6825   4.037   1.410  11.879 -0.1428  1.7910  0.2193
  458MPD2     N 6826   3.867   1.142  12.215 -0.2612 -0.4418 -0.1152
  458MPD2    H5 6827   3.887   1.106  12.307  0.1726 -0.9264 -0.4038
  458MPD2    N1 6828   4.340   1.256  12.177  0.4064 -0.5299 -0.9527
  458MPD2    H7 6829   4.405   1.312  12.122  2.0303 -1.4054  0.0650
  459TMC3    C1 6830   4.523   1.190  12.321 -0.9423 -0.5766  0.0227
  459TMC3    C2 6831   4.616   1.237  12.230 -0.2089  0.3857 -0.5525
  459TMC3    C3 6832   0.028   1.217  12.269 -0.2097  0.8841  0.1316
  459TMC3    C4 6833   4.569   1.122  12.432 -0.2465 -0.4167 -0.0928
  459TMC3    C5 6834   4.698   1.116  12.472 -0.6677 -0.3649  0.4904
  459TMC3    C6 6835   0.074   1.160  12.384 -0.3359  0.0935  0.4575
  459TMC3     C 6836   4.383   1.180  12.285 -0.0782  0.4585 -0.0524
  459TMC3     O 6837   4.327   1.099  12.355  0.0533  0.6824  0.1310
  459TMC3     H 6838   4.586   1.291  12.141 -1.6802  0.7323  0.1616
  459TMC3    H1 6839   4.493   1.089  12.502  1.5002 -0.9066  1.5664
  459TMC3    H2 6840   0.180   1.159  12.405  0.2714  0.5080 -2.5496
  459TMC3    C7 6841   0.003   1.129  12.608 -0.5270  0.0026  0.3751
  459TMC3    C8 6842   0.125   1.287  12.191 -0.5786 -0.7399  0.0882
  459TMC3    O1 6843   0.094   1.209  12.641  0.2381  0.1806 -0.3411
  459TMC3    O2 6844   0.249   1.270  12.214  0.5190  0.3793  0.3570
  460MPD2     C 6845   3.469   2.901  10.236  0.0468  0.6623  0.4486
  460MPD2    C1 6846   3.485   3.037  10.249  0.0734 -0.0566 -0.1766
  460MPD2    C2 6847   3.479   3.115  10.125 -0.5520 -0.6776 -0.1146
  460MPD2    C3 6848   3.457   3.060  10.001  1.0663  1.0725  0.5872
  460MPD2    C4 6849   3.449   2.927   9.996  0.3299  0.2122 -0.4362
  460MPD2    C5 6850   3.446   2.850  10.111  0.3942  0.0381 -1.1111
  460MPD2     H 6851   3.472   3.223  10.136 -1.6372 -0.7868  0.2851
  460MPD2    H1 6852   3.430   2.880   9.900  0.7985  0.2107 -0.5304
  460MPD2    H2 6853   3.463   2.837  10.324 -1.3416 -1.4944 -1.1998
  460MPD2    H3 6854   3.417   2.746  10.097  0.6931 -0.4220  1.7283
  460MPD2     N 6855   3.455   3.132   9.880  0.2904  0.8418  0.5860
  460MPD2    H5 6856   3.446   3.079   9.795 -1.4938 -1.1386  2.0214
  460MPD2    N1 6857   3.499   3.098  10.378  0.6166 -0.2987 -0.0296
  460MPD2    H7 6858   3.495   3.044  10.464  2.3587  1.5106  1.1746
  461TMC3    C1 6859   3.436   3.321   9.736  0.0044 -0.0856 -0.2308
  461TMC3    C2 6860   3.447   3.237   9.633  0.2909 -0.5427 -0.8552
  461TMC3    C3 6861   3.420   3.286   9.505  0.4189  0.3097  0.1307
  461TMC3    C4 6862   3.393   3.453   9.726  0.2061 -0.1448  0.2293
  461TMC3    C5 6863   3.367   3.499   9.600 -0.4107 -0.0547 -0.4855
  461TMC3    C6 6864   3.377   3.414   9.489  0.3265 -0.5063 -0.1222
  461TMC3     C 6865   3.473   3.266   9.865  0.6693  0.3043 -0.4258
  461TMC3     O 6866   3.485   3.348   9.950 -0.0862 -0.1092 -0.2921
  461TMC3     H 6867   3.491   3.138   9.633  1.5818  0.0415  1.3076
  461TMC3    H1 6868   3.378   3.510   9.816 -0.8105  0.8093 -0.5486
  461TMC3    H2 6869   3.358   3.456   9.390  3.2782 -1.6138 -1.1498
  461TMC3    C7 6870   3.306   3.630   9.582 -0.5149  0.4125  1.1746
  461TMC3    C8 6871   3.359   3.181   9.422  0.4550  0.0580  0.0673
  461TMC3    O1 6872   3.259   3.653   9.474 -0.1990  0.3625  0.4813
  461TMC3    O2 6873   3.425   3.089   9.385  0.9310 -0.5536  0.0847
  462TMC3    C1 6874   3.794   3.608   0.305  0.1971  0.5163 -0.1334
  462TMC3    C2 6875   3.840   3.476   0.277 -0.0456  0.0080 -0.8581
  462TMC3    C3 6876   3.787   3.412   0.168  0.0740  0.5744  0.6859
  462TMC3    C4 6877   3.691   3.658   0.232  0.2157 -1.1294 -0.4945
  462TMC3    C5 6878   3.628   3.584   0.138 -0.3468  0.2842 -0.1276
  462TMC3    C6 6879   3.684   3.464   0.091 -0.5146  0.4698  0.1877
  462TMC3     C 6880   3.851   3.674   0.423 -0.3639  0.0908  0.7644
  462TMC3     O 6881   3.843   3.595   0.515  0.0367 -0.3887 -0.3929
  462TMC3     H 6882   3.920   3.436   0.338 -1.9591 -1.4183  0.7435
  462TMC3    H1 6883   3.655   3.752   0.271 -0.3499 -1.2083 -0.8369
  462TMC3    H2 6884   3.634   3.408   0.014  0.1613  1.0543 -0.6787
  462TMC3    C7 6885   3.516   3.636   0.063  0.1159 -0.0337  0.1111
  462TMC3    C8 6886   3.862   3.297   0.117 -0.1868  0.2457 -0.5818
  462TMC3    O1 6887   3.444   3.567  17.680 -0.0953  0.0522 -0.5460
  462TMC3    O2 6888   3.940   3.245   0.196 -0.1864 -0.0767  0.1416
  463MPD2     C 6889   0.078   2.361   1.756 -0.1766  0.2287  0.5229
  463MPD2    C1 6890   4.701   2.428   1.688 -0.0018  0.4220  0.6275
  463MPD2    C2 6891   4.720   2.564   1.670  0.2123 -0.5293 -0.5042
  463MPD2    C3 6892   0.122   2.626   1.697 -0.4563  0.6838 -1.4780
  463MPD2    C4 6893   0.220   2.554   1.761 -0.4509  0.1063 -0.3514
  463MPD2    C5 6894   0.193   2.425   1.796  0.7621 -0.4716 -0.4447
  463MPD2     H 6895   4.643   2.622   1.619  0.9660  0.7672 -0.1781
  463MPD2    H1 6896   0.314   2.596   1.795  0.0489 -2.3388  1.2545
  463MPD2    H2 6897   0.071   2.259   1.791 -1.4590 -0.6202 -2.1910
  463MPD2    H3 6898   0.263   2.362   1.850  1.6179  0.6986 -0.1877
  463MPD2     N 6899   0.158   2.756   1.667  0.0195  0.4928 -0.3427
  463MPD2    H5 6900   0.253   2.777   1.696  0.4856 -0.4206 -1.2222
  463MPD2    N1 6901   4.585   2.370   1.642 -0.3568  0.2703 -0.0848
  463MPD2    H7 6902   4.516   2.440   1.619 -1.6410 -1.2602 -0.9191
  464TMC3    C1 6903   4.449   2.196   1.550  0.1757 -0.1129  0.4474
  464TMC3    C2 6904   4.346   2.276   1.572 -0.5003  0.8118  0.4013
  464TMC3    C3 6905   4.227   2.240   1.519  0.0092  0.3759  0.1876
  464TMC3    C4 6906   4.444   2.071   1.495 -0.2176  0.1955  0.7650
  464TMC3    C5 6907   4.319   2.041   1.448 -0.3141  0.3835 -0.4358
  464TMC3    C6 6908   4.206   2.117   1.463  0.0285 -0.2042  0.0068
  464TMC3     C 6909   4.572   2.231   1.622 -0.6032 -0.1409 -0.6791
  464TMC3     O 6910   4.651   2.137   1.632  0.0949  0.2072 -0.4854
  464TMC3     H 6911   4.354   2.376   1.614 -1.1620 -0.1922  2.8534
  464TMC3    H1 6912   4.525   2.000   1.490 -0.4223 -0.0400  0.7636
  464TMC3    H2 6913   4.107   2.093   1.426  0.9638 -0.3381 -2.4400
  464TMC3    C7 6914   4.311   1.918   1.368 -1.0913  0.4402  0.0042
  464TMC3    C8 6915   4.112   2.333   1.525  0.1131  0.3408 -0.2535
  464TMC3    O1 6916   4.400   1.835   1.374 -0.0322  0.3934 -0.3499
  464TMC3    O2 6917   4.021   2.316   1.447 -0.7727  0.7380  0.4979
  465MPD2     C 6918   0.715   1.352  16.158  0.5999  0.5483 -0.2903
  465MPD2    C1 6919   0.625   1.389  16.262  0.6083  0.4487 -0.4628
  465MPD2    C2 6920   0.535   1.486  16.244  0.4383  1.4805 -0.7750
  465MPD2    C3 6921   0.518   1.545  16.127  0.0223  0.0585 -0.3977
  465MPD2    C4 6922   0.594   1.501  16.022  0.0507 -0.1772  0.0687
  465MPD2    C5 6923   0.689   1.400  16.032 -0.2392  0.2227 -0.3813
  465MPD2     H 6924   0.472   1.516  16.327  0.0887 -1.2513 -0.0528
  465MPD2    H1 6925   0.567   1.539  15.924 -1.3587  0.7193  0.8054
  465MPD2    H2 6926   0.786   1.271  16.163 -0.1257  0.2039  4.6710
  465MPD2    H3 6927   0.757   1.375  15.951 -2.3914 -4.8657 -0.6166
  465MPD2     N 6928   0.415   1.646  16.125  0.1659 -0.5505  0.4357
  465MPD2    H5 6929   0.368   1.665  16.212 -1.8293 -4.1613  0.1326
  465MPD2    N1 6930   0.634   1.346  16.393  0.0559 -0.3090 -0.1950
  465MPD2    H7 6931   0.581   1.394  16.464 -0.2400  0.4555 -0.9362
  466TMC3    C1 6932   0.104   1.898  16.175  0.7694  1.3252  0.2655
  466TMC3    C2 6933   0.103   2.019  16.111  0.1370 -0.5177  0.3470
  466TMC3    C3 6934   0.185   2.024  15.999 -0.2919  0.9629  0.0494
  466TMC3    C4 6935   0.195   1.798  16.140 -0.1439  0.5388 -0.4151
  466TMC3    C5 6936   0.273   1.814  16.037  0.6004 -0.1399  0.3785
  466TMC3    C6 6937   0.265   1.925  15.954 -0.2756 -0.5589 -0.2155
  466TMC3     C 6938   0.069   1.894  16.315 -0.3442  0.0625 -0.0403
  466TMC3     O 6939   0.134   1.815  16.385 -0.0295  0.1803 -0.6874
  466TMC3     H 6940   0.054   2.105  16.155  0.2844 -0.0547 -0.3846
  466TMC3    H1 6941   0.195   1.701  16.188  1.2999 -0.0770 -1.7020
  466TMC3    H2 6942   0.343   1.939  15.880  0.5738 -1.7635  0.4515
  466TMC3    C7 6943   0.391   1.736  16.022 -0.0822  1.0141  0.0175
  466TMC3    C8 6944   0.203   2.146  15.935 -0.3172 -0.1973  0.8100
  466TMC3    O1 6945   0.458   1.741  15.918 -0.3868  0.0936  0.3220
  466TMC3    O2 6946   0.258   2.153  15.825  0.4134 -0.5044 -0.0326
  467TMC3    C1 6947   1.405   0.820  13.459 -0.0406 -0.3844 -0.2003
  467TMC3    C2 6948   1.415   0.889  13.338 -0.3883 -0.3762  0.4222
  467TMC3    C3 6949   1.341   0.840  13.234 -0.0316  0.6498  0.3138
  467TMC3    C4 6950   1.314   0.713  13.471 -0.2261 -0.5039  0.4153
  467TMC3    C5 6951   1.240   0.671  13.363  0.2505  1.0844  0.0264
  467TMC3    C6 6952   1.256   0.730  13.241 -0.4886 -0.0238 -0.4187
  467TMC3     C 6953   1.534   0.773  13.502  0.0629  0.4087  0.5852
  467TMC3     O 6954   1.546   0.744  13.623 -0.4427  0.3093 -0.0056
  467TMC3     H 6955   1.477   0.978  13.337  1.5531 -1.7456 -1.7701
  467TMC3    H1 6956   1.314   0.657  13.564  0.3274 -1.3157 -0.0710
  467TMC3    H2 6957   1.200   0.696  13.154  0.6179  1.6962 -1.8050
  467TMC3    C7 6958   1.159   0.551  13.377  1.0202 -0.5913  0.2761
  467TMC3    C8 6959   1.413   0.846  13.114  0.5353  0.2538  0.1560
  467TMC3    O1 6960   1.148   0.477  13.281 -0.2156  0.0524  0.0133
  467TMC3    O2 6961   1.531   0.826  13.138 -0.1989  0.2428 -0.2061
  468MPD2     C 6962   0.387   3.260  10.164  0.0749  0.4931  0.7820
  468MPD2    C1 6963   0.506   3.230  10.233  0.6643 -0.2324 -0.4426
  468MPD2    C2 6964   0.561   3.112  10.213 -0.3371  0.0526 -0.0292
  468MPD2    C3 6965   0.493   3.013  10.136 -0.4051  0.2657 -0.3343
  468MPD2    C4 6966   0.382   3.039  10.066 -0.3379  0.3464  0.2550
  468MPD2    C5 6967   0.329   3.163  10.079  0.2785  0.7399 -0.0989
  468MPD2     H 6968   0.644   3.095  10.280  1.7714 -1.9061 -3.1415
  468MPD2    H1 6969   0.335   2.962  10.006 -0.5169  1.0192 -0.4579
  468MPD2    H2 6970   0.335   3.355  10.170  2.0538  1.6921 -0.8752
  468MPD2    H3 6971   0.233   3.186  10.034  0.2279  0.3919 -0.1653
  468MPD2     N 6972   0.543   2.881  10.134  0.0657  0.8795  0.2768
  468MPD2    H5 6973   0.483   2.811  10.091  1.2940  0.0557 -0.0927
  468MPD2    N1 6974   0.568   3.329  10.317 -0.4027 -0.0070 -0.0995
  468MPD2    H7 6975   0.654   3.308  10.366 -1.0411  0.4240  1.2325
  469TMC3    C1 6976   0.612   3.514  10.444 -0.0003  0.2724  0.0514
  469TMC3    C2 6977   0.752   3.492  10.424 -0.1498 -0.7718  0.2357
  469TMC3    C3 6978   0.842   3.582  10.483 -0.2276 -0.5146 -0.3667
  469TMC3    C4 6979   0.574   3.625  10.517  0.2442  0.6111  0.1796
  469TMC3    C5 6980   0.674   3.696  10.587 -0.1256 -0.1069  0.6989
  469TMC3    C6 6981   0.807   3.679  10.569 -0.6374  0.0532  0.1698
  469TMC3     C 6982   0.509   3.436  10.372 -0.4488 -0.2185  0.7411
  469TMC3     O 6983   0.393   3.478  10.371  0.2901  0.2809  0.5435
  469TMC3     H 6984   0.782   3.416  10.353 -1.9415 -2.2343  1.0766
  469TMC3    H1 6985   0.470   3.650  10.532  0.0419  0.8548 -1.6087
  469TMC3    H2 6986   0.878   3.748  10.613  1.0437 -2.7086  1.8211
  469TMC3    C7 6987   0.628   3.761  10.712  0.4657 -0.0689 -0.8626
  469TMC3    C8 6988   0.980   3.594  10.429 -0.6630 -0.5773 -0.9510
  469TMC3    O1 6989   0.514   3.811  10.709 -0.1694  0.5174 -0.5136
  469TMC3    O2 6990   0.985   3.556  10.311 -0.0941  0.2248 -0.6157
  470TMC3    C1 6991   3.174   3.636   0.304 -0.3109  0.0587  0.4922
  470TMC3    C2 6992   3.221   3.752   0.353 -0.3255  0.3996  0.4475
  470TMC3    C3 6993   3.130   3.858   0.374  0.4224  0.7504  0.3035
  470TMC3    C4 6994   3.046   3.606   0.289  0.9119 -0.0328 -0.3029
  470TMC3    C5 6995   2.958   3.700   0.342 -0.1804 -0.0483  0.0651
  470TMC3    C6 6996   2.992   3.830   0.363 -0.7759 -0.2415 -0.2064
  470TMC3     C 6997   3.270   3.528   0.274 -0.6556 -0.0657  0.2703
  470TMC3     O 6998   3.377   3.530   0.340  0.2707 -0.0071 -0.4730
  470TMC3     H 6999   3.329   3.761   0.360 -0.1547 -1.5571  0.5347
  470TMC3    H1 7000   3.020   3.501   0.296  1.3125 -0.1110  0.0055
  470TMC3    H2 7001   2.924   3.911   0.387 -1.1126 -0.9578  1.2653
  470TMC3    C7 7002   2.838   3.661   0.416  0.2933 -0.0396  0.5845
  470TMC3    C8 7003   3.169   3.991   0.393 -0.6602  0.1164 -0.2520
  470TMC3    O1 7004   2.778   3.560   0.381 -0.2496  0.2316  0.1958
  470TMC3    O2 7005   3.077   4.073   0.382 -0.2417 -0.2052 -0.1045
  471MPD2     C 7006   3.503   0.337  15.952  0.3427 -0.1605  0.9695
  471MPD2    C1 7007   3.415   0.345  16.062  0.2538  0.3153  0.3585
  471MPD2    C2 7008   3.467   0.358  16.188  1.2511  1.1516  0.3026
  471MPD2    C3 7009   3.603   0.380  16.204  0.1482 -0.0403  0.5128
  471MPD2    C4 7010   3.689   0.362  16.098 -0.0782 -0.8370  0.7938
  471MPD2    C5 7011   3.638   0.343  15.972 -0.0369  0.3092  0.1906
  471MPD2     H 7012   3.402   0.377  16.273  0.8160  0.9813  0.0101
  471MPD2    H1 7013   3.795   0.372  16.116 -0.0927  0.2963  0.2282
  471MPD2    H2 7014   3.467   0.335  15.850  2.4039 -1.9411  0.2833
  471MPD2    H3 7015   3.704   0.343  15.886 -0.0016  2.3607  0.2133
  471MPD2     N 7016   3.649   0.393  16.339  0.4202  0.6702  0.1876
  471MPD2    H5 7017   3.579   0.383  16.412  1.0259 -1.6629  0.4404
  471MPD2    N1 7018   3.276   0.327  16.049  0.5168  0.1045  0.8773
  471MPD2    H7 7019   3.228   0.324  16.138  1.0112 -1.0551  1.0961
  472TMC3    C1 7020   3.076   0.271  15.965  0.0439  0.2282 -0.0491
  472TMC3    C2 7021   2.972   0.324  15.886  0.0968  0.4105  0.3603
  472TMC3    C3 7022   2.844   0.310  15.939  0.4836  0.1805 -0.0205
  472TMC3    C4 7023   3.049   0.220  16.090  0.7436  0.6062 -0.9125
  472TMC3    C5 7024   2.923   0.223  16.138  0.7029  0.1658 -0.7804
  472TMC3    C6 7025   2.817   0.276  16.073  0.4318  0.1344 -0.0828
  472TMC3     C 7026   3.207   0.294  15.932 -0.5983  0.0006 -0.0430
  472TMC3     O 7027   3.244   0.323  15.824 -0.1552 -0.4566 -0.1791
  472TMC3     H 7028   2.981   0.317  15.778 -0.5396 -0.2646  0.3539
  472TMC3    H1 7029   3.119   0.165  16.152  0.1169  1.4292  0.5015
  472TMC3    H2 7030   2.719   0.261  16.116 -0.1070 -1.3448 -1.8100
  472TMC3    C7 7031   2.896   0.159  16.261  0.0279 -0.5254 -0.3677
  472TMC3    C8 7032   2.743   0.294  15.838  0.6633 -0.7540  0.1801
  472TMC3    O1 7033   2.905   0.042  16.270 -0.0003  0.4586 -0.0111
  472TMC3    O2 7034   2.753   0.347  15.726 -0.4874  0.2672 -0.1558
  473MPD2     C 7035   2.853   2.765  13.424  1.0045 -0.7438  0.4782
  473MPD2    C1 7036   2.976   2.831  13.432 -0.5110 -0.2899 -0.6678
  473MPD2    C2 7037   3.004   2.924  13.534  0.1441  0.2599 -0.2685
  473MPD2    C3 7038   2.912   2.945  13.640  0.1488  0.7610  0.2287
  473MPD2    C4 7039   2.785   2.885  13.630 -0.6271 -0.5076  0.5377
  473MPD2    C5 7040   2.760   2.794  13.523 -0.4177 -0.2033 -0.6443
  473MPD2     H 7041   3.101   2.972  13.523  0.1425  0.7757  1.9805
  473MPD2    H1 7042   2.711   2.889  13.709  0.0527  0.2374  1.1257
  473MPD2    H2 7043   2.826   2.695  13.346  1.2697  1.7405 -1.8271
  473MPD2    H3 7044   2.666   2.740  13.523  0.3710 -1.6074  1.5627
  473MPD2     N 7045   2.935   3.032  13.749  0.3450 -0.4307 -0.2341
  473MPD2    H5 7046   2.849   3.048  13.800 -0.6521 -1.9355 -1.4802
  473MPD2    N1 7047   3.078   2.817  13.332 -0.0394 -0.3910 -0.3401
  473MPD2    H7 7048   3.162   2.872  13.348  0.0295 -0.7306  0.4845
  474TMC3    C1 7049   3.046   3.172  13.889 -0.2021 -0.0591  0.2051
  474TMC3    C2 7050   2.944   3.258  13.892 -0.8022  0.1596  0.1648
  474TMC3    C3 7051   2.969   3.368  13.972 -0.1574  0.6713 -0.2010
  474TMC3    C4 7052   3.159   3.184  13.968 -0.1657 -0.3073  0.0369
  474TMC3    C5 7053   3.163   3.281  14.064 -0.5607  0.9925  0.4785
  474TMC3    C6 7054   3.066   3.377  14.062  0.1143 -0.2621 -0.3656
  474TMC3     C 7055   3.056   3.085  13.780  0.4317 -0.4011  0.2859
  474TMC3     O 7056   3.170   3.046  13.746  0.1202  0.2152  0.0869
  474TMC3     H 7057   2.857   3.263  13.827 -0.7334 -1.3218 -0.0491
  474TMC3    H1 7058   3.223   3.096  13.971 -0.6798 -0.7112 -0.7255
  474TMC3    H2 7059   3.080   3.463  14.127 -1.8298  0.8266 -1.3947
  474TMC3    C7 7060   3.263   3.264  14.171 -0.1201  0.4448 -0.7561
  474TMC3    C8 7061   2.873   3.475  13.957 -0.1200  0.5621  0.8018
  474TMC3    O1 7062   3.363   3.197  14.147  0.5419 -0.1658 -0.0056
  474TMC3    O2 7063   2.752   3.446  13.963 -0.3355  0.0976  0.0250
  475MPD2     C 7064   1.881   0.767   9.332  0.3994 -0.5809  0.1810
  475MPD2    C1 7065   1.874   0.876   9.419 -0.0752  0.6488 -0.3097
  475MPD2    C2 7066   1.770   0.868   9.508 -0.1877 -0.3624  0.0948
  475MPD2    C3 7067   1.681   0.766   9.515  0.1027 -0.1272 -0.2977
  475MPD2    C4 7068   1.700   0.654   9.436 -0.0494  0.4979  0.6676
  475MPD2    C5 7069   1.792   0.661   9.339 -0.3709 -0.8188  0.1564
  475MPD2     H 7070   1.768   0.949   9.580 -3.0336  0.8491 -1.3403
  475MPD2    H1 7071   1.619   0.582   9.428  1.2249 -0.7635 -1.0388
  475MPD2    H2 7072   1.959   0.769   9.258  1.4481 -0.5119  1.2969
  475MPD2    H3 7073   1.808   0.589   9.260  1.7686 -0.3446  0.1729
  475MPD2     N 7074   1.563   0.785   9.586  0.0170 -0.1344  0.0191
  475MPD2    H5 7075   1.541   0.880   9.613 -0.1145 -0.7658  2.1234
  475MPD2    N1 7076   1.946   1.002   9.415 -0.2482 -0.3365  0.1934
  475MPD2    H7 7077   1.932   1.068   9.490  1.2251  0.0360  0.1495
  476TMC3    C1 7078   1.981   1.199   9.310 -0.3992 -0.0847 -0.6793
  476TMC3    C2 7079   1.859   1.232   9.245 -0.1130 -0.2819  0.0727
  476TMC3    C3 7080   1.775   1.320   9.318  0.8819 -0.0688 -0.4417
  476TMC3    C4 7081   2.009   1.256   9.429 -0.3697 -0.8690 -0.1774
  476TMC3    C5 7082   1.919   1.340   9.491  0.3148 -0.5142  0.2973
  476TMC3    C6 7083   1.801   1.373   9.438 -0.2728  0.5287 -0.0870
  476TMC3     C 7084   1.998   1.055   9.299  0.3818 -0.0008 -0.5166
  476TMC3     O 7085   2.015   0.993   9.198 -0.0629 -0.1103 -0.2205
  476TMC3     H 7086   1.829   1.195   9.147  1.2068 -1.8511  0.2594
  476TMC3    H1 7087   2.091   1.208   9.481  0.4448  1.1193  0.4027
  476TMC3    H2 7088   1.724   1.408   9.506  0.4140 -0.4017  1.1730
  476TMC3    C7 7089   1.895   1.283   9.618 -0.2028 -0.3740  0.2752
  476TMC3    C8 7090   1.630   1.300   9.315 -0.0813 -0.0066  0.2335
  476TMC3    O1 7091   1.835   1.178   9.627  0.2784  0.4887  0.6838
  476TMC3    O2 7092   1.559   1.385   9.366  0.5363  0.5292 -0.6509
  477MPD2     C 7093   4.141   2.649  11.116  0.9208  0.6919  0.1437
  477MPD2    C1 7094   4.036   2.574  11.154  0.7038 -0.2903  0.3111
  477MPD2    C2 7095   4.065   2.467  11.235 -0.1413  0.9202  0.0256
  477MPD2    C3 7096   4.195   2.441  11.291  0.7047 -0.2199  0.2114
  477MPD2    C4 7097   4.294   2.536  11.261  0.6513 -0.1474  0.7153
  477MPD2    C5 7098   4.263   2.630  11.168  0.3578 -0.7340  0.4086
  477MPD2     H 7099   3.978   2.408  11.262 -1.2228  3.1182  1.4118
  477MPD2    H1 7100   4.399   2.522  11.283  0.3833 -0.2000  1.9869
  477MPD2    H2 7101   4.130   2.728  11.043  1.2036  0.6872  0.0947
  477MPD2    H3 7102   4.342   2.702  11.146 -0.6486  0.0730 -0.5447
  477MPD2     N 7103   4.211   2.329  11.383  0.5574 -0.6245 -0.0439
  477MPD2    H5 7104   4.129   2.274  11.408 -0.1647 -0.4211 -1.9215
  477MPD2    N1 7105   3.917   2.603  11.085 -0.4051  1.1579 -0.0938
  477MPD2    H7 7106   3.908   2.693  11.038  5.2243  1.9719  0.3241
  478TMC3    C1 7107   3.695   2.581  11.013  0.0685 -0.2623  0.2423
  478TMC3    C2 7108   3.646   2.704  11.053  0.1976  0.2555 -0.3031
  478TMC3    C3 7109   3.513   2.715  11.066  0.8593  0.5243  0.0847
  478TMC3    C4 7110   3.612   2.475  10.985 -0.0839  0.5248  0.1421
  478TMC3    C5 7111   3.480   2.502  10.983  0.5682  0.5261  0.2301
  478TMC3    C6 7112   3.430   2.614  11.041 -0.3689  0.3870 -0.2986
  478TMC3     C 7113   3.805   2.532  11.084 -0.2680 -0.4821 -0.1644
  478TMC3     O 7114   3.780   2.427  11.143 -0.0487  1.0137  0.3287
  478TMC3     H 7115   3.713   2.783  11.085  2.2662 -2.2076  1.4888
  478TMC3    H1 7116   3.653   2.380  10.952  0.3938  1.3182 -1.5520
  478TMC3    H2 7117   3.330   2.617  11.083  0.0470 -1.1783  0.8268
  478TMC3    C7 7118   3.391   2.443  10.891  0.3108  0.8125  0.1756
  478TMC3    C8 7119   3.481   2.796  11.181 -0.0196  0.0716  0.2304
  478TMC3    O1 7120   3.400   2.322  10.873  0.2219  0.5430  0.5943
  478TMC3    O2 7121   3.418   2.743  11.277 -0.2398 -1.0428 -0.0043
  479MPD2     C 7122   2.732   4.538  14.547  0.1947 -0.4356 -0.1383
  479MPD2    C1 7123   2.627   4.595  14.606  0.0210  0.0904  0.7686
  479MPD2    C2 7124   2.643   0.006  14.649 -0.4833  0.4912 -0.0258
  479MPD2    C3 7125   2.765   0.070  14.657  0.0856 -0.0112 -0.0130
  479MPD2    C4 7126   2.873   0.008  14.604  0.1936  0.0880  0.6517
  479MPD2    C5 7127   2.850   4.612  14.536  0.2485  1.1054 -0.1730
  479MPD2     H 7128   2.560   0.052  14.701  0.5655  2.3040  0.0301
  479MPD2    H1 7129   2.968   0.058  14.591 -1.0841  2.3853  0.1161
  479MPD2    H2 7130   2.736   4.444  14.493 -1.9168  0.0651 -1.1477
  479MPD2    H3 7131   2.934   4.582  14.475  0.4187  0.9478  0.1377
  479MPD2     N 7132   2.780   0.208  14.690 -0.1330 -0.0298  0.0393
  479MPD2    H5 7133   2.875   0.241  14.702  0.4064 -1.6439  0.0810
  479MPD2    N1 7134   2.498   4.538  14.614  0.4617 -0.2353  0.0214
  479MPD2    H7 7135   2.429   4.599  14.656 -1.1840 -2.3184  0.3856
  480TMC3    C1 7136   2.696   0.429  14.976  0.6376 -0.5251 -0.1816
  480TMC3    C2 7137   2.570   0.476  14.978  0.0205  0.8218 -0.2812
  480TMC3    C3 7138   2.520   0.511  14.856  0.7493 -0.1789  0.2884
  480TMC3    C4 7139   2.775   0.401  14.869 -0.5128  0.2044 -0.0885
  480TMC3    C5 7140   2.707   0.422  14.751  0.3217  0.8009 -0.4062
  480TMC3    C6 7141   2.589   0.486  14.745 -0.8518  0.7817 -0.2861
  480TMC3     C 7142   2.724   0.359  15.100 -0.3897 -0.1321  0.6817
  480TMC3     O 7143   2.636   0.289  15.142 -0.4323 -0.6807 -0.9367
  480TMC3     H 7144   2.502   0.463  15.062 -1.3784  1.1425 -1.3510
  480TMC3    H1 7145   2.877   0.370  14.886 -0.5844  0.5825  1.0056
  480TMC3    H2 7146   2.560   0.515  14.645  2.1659 -1.5319 -1.8393
  480TMC3    C7 7147   2.680   0.299  14.673 -0.3296  0.2045  0.0895
  480TMC3    C8 7148   2.375   0.498  14.851 -0.2623  0.4640  0.4409
  480TMC3    O1 7149   2.567   0.289  14.625 -0.1610 -0.1009  0.2449
  480TMC3    O2 7150   2.306   0.542  14.944 -0.0522 -0.1191 -0.6441
  481MPD2     C 7151   4.519   4.365  14.282 -0.1345  0.1158 -0.2301
  481MPD2    C1 7152   4.386   4.348  14.275  0.5978 -0.4821  0.1591
  481MPD2    C2 7153   4.320   4.304  14.393 -0.0556 -0.2216  0.0867
  481MPD2    C3 7154   4.388   4.267  14.504 -0.8850 -0.4472  0.1664
  481MPD2    C4 7155   4.527   4.279  14.508  0.1748 -0.3200 -0.2239
  481MPD2    C5 7156   4.590   4.321  14.390  0.0613  0.3973 -0.1820
  481MPD2     H 7157   4.212   4.316  14.398 -0.1568 -0.9117 -0.4663
  481MPD2    H1 7158   4.584   4.246  14.594 -0.6277  0.4375  0.5885
  481MPD2    H2 7159   4.573   4.396  14.194 -2.4883 -1.8159 -2.3707
  481MPD2    H3 7160   4.698   4.324  14.384  0.0861 -2.9203 -1.8315
  481MPD2     N 7161   4.319   4.208  14.614  0.2866  0.1521 -0.1200
  481MPD2    H5 7162   4.373   4.176  14.694  0.1340  0.5407  0.1367
  481MPD2    N1 7163   4.314   4.383  14.157 -0.3455  0.2613  0.1179
  481MPD2    H7 7164   4.370   4.422  14.082 -1.0179 -0.1263 -0.5887
  482TMC3    C1 7165   4.139   4.397  14.015  0.6662 -0.2912 -1.3119
  482TMC3    C2 7166   4.069   4.304  13.938  0.0524 -0.2405  0.0580
  482TMC3    C3 7167   4.048   4.326  13.808 -0.4767 -0.5533  0.0217
  482TMC3    C4 7168   4.200   4.505  13.955 -0.6995 -0.7362 -0.2349
  482TMC3    C5 7169   4.172   4.523  13.820 -0.4109  0.7417 -0.2291
  482TMC3    C6 7170   4.092   4.439  13.746  0.2543  0.5940  0.2094
  482TMC3     C 7171   4.182   4.361  14.140  0.6929 -0.1023  0.2638
  482TMC3     O 7172   4.111   4.279  14.200  0.4964  0.7765 -0.1053
  482TMC3     H 7173   4.029   4.211  13.977 -0.4007  0.7517  1.9809
  482TMC3    H1 7174   4.270   4.570  14.007 -1.3365 -1.9594  2.1530
  482TMC3    H2 7175   4.068   4.453  13.641 -0.2940  0.9964  0.3881
  482TMC3    C7 7176   4.225   4.647  13.760  0.3695 -0.9501 -1.0073
  482TMC3    C8 7177   3.946   4.238  13.745  0.3677  0.1635 -0.2057
  482TMC3    O1 7178   4.231   0.026  13.831 -0.4380 -0.2900  0.5461
  482TMC3    O2 7179   3.963   4.117  13.749  0.2765 -0.3356 -0.6284
  483TMC3    C1 7180   2.005   3.004   0.169 -0.6008 -0.4683  0.3610
  483TMC3    C2 7181   1.972   3.134   0.161 -0.2612 -0.3178  0.6608
  483TMC3    C3 7182   1.973   3.206   0.275  0.3748 -0.1161 -0.3821
  483TMC3    C4 7183   2.042   2.946   0.285  0.4688  0.1830 -0.5882
  483TMC3    C5 7184   2.032   3.019   0.405  0.1028 -0.5965  0.4148
  483TMC3    C6 7185   2.002   3.155   0.397 -0.5060  0.5563  0.9057
  483TMC3     C 7186   2.042   2.940   0.042 -0.3131 -0.5085 -0.1582
  483TMC3     O 7187   1.987   2.973  17.631 -0.1868  0.1092 -0.0008
  483TMC3     H 7188   1.951   3.179   0.064 -0.0670  0.1251  0.8257
  483TMC3    H1 7189   2.049   2.838   0.289  2.1741  0.2895 -0.6375
  483TMC3    H2 7190   2.018   3.218   0.484  0.5600 -0.6121  1.5515
  483TMC3    C7 7191   2.032   2.953   0.534 -0.8629  0.9656  0.1548
  483TMC3    C8 7192   2.036   3.337   0.255  0.3579  1.0238 -0.1402
  483TMC3    O1 7193   2.071   2.838   0.528  0.1874  0.3612 -0.4545
  483TMC3    O2 7194   2.090   3.340   0.145  0.2126  0.0548  0.0004
  484MPD2     C 7195   0.064   1.597  12.007  0.4296 -0.1800 -0.7644
  484MPD2    C1 7196   0.128   1.480  12.035 -0.3019  0.6777  0.1875
  484MPD2    C2 7197   0.250   1.452  11.976 -0.0137 -0.0016  0.3896
  484MPD2    C3 7198   0.311   1.551  11.889 -0.4306  0.6165  0.4993
  484MPD2    C4 7199   0.250   1.673  11.870  0.9684 -0.3761  0.0885
  484MPD2    C5 7200   0.126   1.694  11.924 -0.5673 -0.2044 -0.3371
  484MPD2     H 7201   0.294   1.354  11.985 -1.1878 -0.4587  1.2382
  484MPD2    H1 7202   0.288   1.758  11.816  2.0105 -0.9121 -0.0176
  484MPD2    H2 7203   4.691   1.617  12.056 -1.4460 -3.4908 -3.0072
  484MPD2    H3 7204   0.075   1.782  11.889  0.3305  0.5384  0.2166
  484MPD2     N 7205   0.441   1.521  11.830 -0.3046 -0.2645 -0.4478
  484MPD2    H5 7206   0.490   1.605  11.800 -1.4903  1.2814  1.8253
  484MPD2    N1 7207   0.065   1.398  12.132 -0.2651  0.2231 -0.5422
  484MPD2    H7 7208   4.694   1.422  12.168  0.0415  1.9398 -0.9322
  485TMC3    C1 7209   0.640   1.409  11.792  0.1864 -0.1660  0.4599
  485TMC3    C2 7210   0.717   1.338  11.872  0.8726 -0.7656 -0.2582
  485TMC3    C3 7211   0.842   1.299  11.833  0.4461  0.1335 -0.4014
  485TMC3    C4 7212   0.683   1.449  11.669 -0.1274  0.1217 -0.1694
  485TMC3    C5 7213   0.811   1.414  11.629  0.1222 -0.3759 -0.0258
  485TMC3    C6 7214   0.897   1.349  11.713  0.0616  0.2662 -0.2544
  485TMC3     C 7215   0.508   1.402  11.830 -0.0760  0.3646  0.0673
  485TMC3     O 7216   0.464   1.289  11.840 -0.1150 -0.3032  0.1679
  485TMC3     H 7217   0.687   1.316  11.973  1.1185 -1.1424 -0.2681
  485TMC3    H1 7218   0.611   1.475  11.592  2.0986  0.1904 -2.2027
  485TMC3    H2 7219   0.989   1.308  11.672  0.2331 -0.5548  0.9675
  485TMC3    C7 7220   0.806   1.324  11.515  0.5972  0.4203  0.1833
  485TMC3    C8 7221   0.860   1.161  11.847 -0.0137 -0.3057  0.3445
  485TMC3    O1 7222   0.727   1.228  11.528 -0.2954 -0.1146 -0.0757
  485TMC3    O2 7223   0.763   1.092  11.877 -0.2094 -0.2550 -0.2462
  486MPD2     C 7224   2.573   0.410  12.165  0.3582  0.1576 -0.4801
  486MPD2    C1 7225   2.484   0.308  12.131 -0.0452  0.2234  0.2252
  486MPD2    C2 7226   2.351   0.330  12.120 -0.0592 -0.1718  1.0874
  486MPD2    C3 7227   2.293   0.447  12.169 -0.3539 -0.1941  0.0340
  486MPD2    C4 7228   2.381   0.552  12.192 -0.2539 -0.2716  0.0091
  486MPD2    C5 7229   2.515   0.534  12.191 -0.0675  0.2442  0.5983
  486MPD2     H 7230   2.285   0.255  12.077 -0.9848  0.8787  0.6847
  486MPD2    H1 7231   2.351   0.649  12.228 -0.8407 -0.3280 -0.3102
  486MPD2    H2 7232   2.680   0.406  12.152  0.7439  1.1344  2.2462
  486MPD2    H3 7233   2.585   0.615  12.209 -1.0177  1.3701 -0.6920
  486MPD2     N 7234   2.151   0.468  12.154 -0.1466 -0.4321 -0.2475
  486MPD2    H5 7235   2.110   0.410  12.081  0.3220  1.2664 -1.8736
  486MPD2    N1 7236   2.548   0.192  12.088 -0.2821 -0.1851  0.4292
  486MPD2    H7 7237   2.649   0.190  12.104  0.0558 -3.2234 -2.0289
  487TMC3    C1 7238   2.584   4.687  12.040 -0.1706  0.4723 -0.3281
  487TMC3    C2 7239   2.526   4.563  12.011 -0.3592  0.3003  0.7066
  487TMC3    C3 7240   2.620   4.458  12.023  0.6765  0.4073  0.1085
  487TMC3    C4 7241   2.715   4.701  12.074  0.5259  0.2001 -0.4505
  487TMC3    C5 7242   2.795   4.594  12.099  0.0198  0.0641 -0.0391
  487TMC3    C6 7243   2.752   4.473  12.054  0.3308  0.2811  0.3393
  487TMC3     C 7244   2.492   0.077  12.040  0.5895 -0.8081 -0.1007
  487TMC3     O 7245   2.375   0.050  12.018 -0.3105 -0.1793 -0.1837
  487TMC3     H 7246   2.428   4.559  11.965 -0.1703  0.5835  0.2836
  487TMC3    H1 7247   2.760   0.074  12.104  1.8869  0.2368 -2.6334
  487TMC3    H2 7248   2.798   4.379  12.081 -0.5852  0.1612  1.4932
  487TMC3    C7 7249   2.905   4.596  12.196  0.2091  0.0172 -0.3850
  487TMC3    C8 7250   2.561   4.344  12.087  0.6365  0.1731  0.6763
  487TMC3    O1 7251   2.909   4.510  12.282 -0.2807  0.5421  0.7942
  487TMC3    O2 7252   2.631   4.252  12.121 -0.5376 -0.1588  0.2390
  488MPD2     C 7253   2.296   1.632  16.362  0.1363  0.1264  0.0538
  488MPD2    C1 7254   2.350   1.723  16.445 -0.2223 -0.7653 -0.5173
  488MPD2    C2 7255   2.340   1.701  16.581  0.8111  0.3488  1.0798
  488MPD2    C3 7256   2.283   1.593  16.638 -0.0373  0.6111  0.1775
  488MPD2    C4 7257   2.228   1.500  16.548 -0.2213 -1.1368 -0.2716
  488MPD2    C5 7258   2.232   1.525  16.417 -0.7376 -0.3519 -0.2859
  488MPD2     H 7259   2.392   1.780  16.634  2.6969  1.1252 -1.9112
  488MPD2    H1 7260   2.168   1.418  16.586  0.8379 -2.6203 -1.7947
  488MPD2    H2 7261   2.288   1.639  16.254  0.8708  1.9668  0.1066
  488MPD2    H3 7262   2.188   1.442  16.365 -0.3712  0.4541 -1.8698
  488MPD2     N 7263   2.293   1.581  16.780 -0.0726 -0.1768 -0.3775
  488MPD2    H5 7264   2.337   1.657  16.830  1.3465 -0.5107 -1.1090
  488MPD2    N1 7265   2.414   1.831  16.394  0.3360 -0.7663 -1.0080
  488MPD2    H7 7266   2.478   1.879  16.457  0.2330 -0.3263 -1.2414
  489TMC3    C1 7267   2.259   1.497  16.993  0.4271 -0.2446 -0.4512
  489TMC3    C2 7268   2.255   1.636  17.015  0.0179 -0.2916  0.2251
  489TMC3    C3 7269   2.325   1.687  17.116  0.5906  0.2874 -1.0754
  489TMC3    C4 7270   2.349   1.421  17.066  0.4425 -0.3139 -0.2134
  489TMC3    C5 7271   2.426   1.483  17.161 -0.0096 -1.0665 -0.2450
  489TMC3    C6 7272   2.413   1.613  17.185  0.1831  0.8150 -0.3823
  489TMC3     C 7273   2.257   1.469  16.848 -0.4517  0.3066 -1.1415
  489TMC3     O 7274   2.240   1.351  16.820  0.0279 -0.0999 -0.2064
  489TMC3     H 7275   2.182   1.697  16.963 -0.9305 -1.0129  0.7308
  489TMC3    H1 7276   2.362   1.317  17.040  0.2121 -0.5262  0.5324
  489TMC3    H2 7277   2.488   1.656  17.251 -2.7768 -0.1180  3.5962
  489TMC3    C7 7278   2.504   1.395  17.233 -0.2388  0.1884 -0.0288
  489TMC3    C8 7279   2.384   1.812  17.078 -0.3507  0.0563 -0.6706
  489TMC3    O1 7280   2.459   1.280  17.245 -0.1380  0.4779 -0.6537
  489TMC3    O2 7281   2.394   1.823  16.959 -0.0103 -0.3647  0.1940
  490MPD2     C 7282   3.711   0.557  16.964  0.5954  0.1241  0.0999
  490MPD2    C1 7283   3.636   0.657  16.906 -0.7978 -0.5849  0.1555
  490MPD2    C2 7284   3.714   0.768  16.868  0.2458 -0.3827 -0.0047
  490MPD2    C3 7285   3.850   0.780  16.895 -0.0522 -0.3753 -0.0643
  490MPD2    C4 7286   3.920   0.673  16.954  0.0637 -0.0872  0.8433
  490MPD2    C5 7287   3.848   0.563  16.986 -0.9356 -0.2721  0.1131
  490MPD2     H 7288   3.662   0.846  16.814 -1.3814 -1.4323  0.0409
  490MPD2    H1 7289   4.026   0.682  16.975  0.2965  2.2541 -1.3234
  490MPD2    H2 7290   3.660   0.465  16.992 -0.0669  0.0457 -1.3750
  490MPD2    H3 7291   3.898   0.484  17.041 -2.4714 -1.0623  0.3902
  490MPD2     N 7292   3.929   0.892  16.863  0.1888 -0.0464  0.2342
  490MPD2    H5 7293   4.026   0.890  16.894  0.5690  2.1952 -0.8254
  490MPD2    N1 7294   3.495   0.640  16.904  0.2734 -0.1424  0.8793
  490MPD2    H7 7295   3.459   0.565  16.962  1.0563  1.0966  2.9625
  491TMC3    C1 7296   3.273   0.692  16.841 -0.5292 -1.0530 -0.5039
  491TMC3    C2 7297   3.228   0.614  16.943 -0.7747  0.2614 -0.1728
  491TMC3    C3 7298   3.100   0.560  16.922  0.3808 -0.4152 -0.0384
  491TMC3    C4 7299   3.204   0.705  16.722  0.0897 -0.1083 -0.1957
  491TMC3    C5 7300   3.084   0.642  16.711  0.3955  0.1515 -0.1303
  491TMC3    C6 7301   3.027   0.582  16.811 -0.1211 -0.1213  0.1209
  491TMC3     C 7302   3.418   0.717  16.820 -0.4729  0.1338 -0.7045
  491TMC3     O 7303   3.460   0.764  16.718 -0.0966  0.3044 -0.4134
  491TMC3     H 7304   3.276   0.629  17.039  0.8107 -0.1672 -0.8920
  491TMC3    H1 7305   3.237   0.766  16.638  2.3564  2.1645  2.3253
  491TMC3    H2 7306   2.925   0.546  16.802 -0.5782  1.4548 -0.8594
  491TMC3    C7 7307   3.011   0.632  16.587  0.3143  0.0697 -0.8936
  491TMC3    C8 7308   3.029   0.505  17.035 -0.1787  0.6393  0.0384
  491TMC3    O1 7309   2.896   0.608  16.604  0.5341  0.0306 -0.5654
  491TMC3    O2 7310   2.914   0.478  17.016 -0.2701  0.1927  0.3234
  492MPD2     C 7311   3.443   1.236  10.962  0.3322 -0.5558 -0.3402
  492MPD2    C1 7312   3.353   1.179  10.871  0.2062 -1.0438 -0.6053
  492MPD2    C2 7313   3.255   1.091  10.920 -0.1667  1.1516 -1.0147
  492MPD2    C3 7314   3.236   1.072  11.057  0.2791  0.3523  0.6128
  492MPD2    C4 7315   3.319   1.135  11.143  0.2334 -0.1278  0.4169
  492MPD2    C5 7316   3.426   1.209  11.098  0.7092  0.1490  0.2004
  492MPD2     H 7317   3.186   1.050  10.847 -0.9059 -1.6404  1.2703
  492MPD2    H1 7318   3.307   1.115  11.249 -2.3193 -1.7962 -0.2050
  492MPD2    H2 7319   3.537   1.279  10.929  0.2565 -1.6129 -1.9280
  492MPD2    H3 7320   3.490   1.252  11.175 -1.5562  3.1883  0.3709
  492MPD2     N 7321   3.143   0.989  11.122 -0.4025  0.5995 -0.2519
  492MPD2    H5 7322   3.141   0.978  11.222  1.4275 -2.8023 -0.5732
  492MPD2    N1 7323   3.372   1.204  10.732  0.2092 -0.2295  0.1439
  492MPD2    H7 7324   3.454   1.260  10.714 -0.1446  0.2156 -0.0879
  493TMC3    C1 7325   3.335   1.226  10.495  0.4350  0.2531  0.0449
  493TMC3    C2 7326   3.385   1.353  10.493 -0.1605 -0.4105 -0.3031
  493TMC3    C3 7327   3.392   1.420  10.376  0.2400 -0.0767 -0.2742
  493TMC3    C4 7328   3.278   1.172  10.384 -0.4720 -0.6791  0.3176
  493TMC3    C5 7329   3.261   1.257  10.278  0.6794 -0.1761  0.6375
  493TMC3    C6 7330   3.322   1.381  10.262  0.4246 -0.0651 -0.1789
  493TMC3     C 7331   3.293   1.167  10.626 -0.5058 -0.2515  0.1172
  493TMC3     O 7332   3.186   1.106  10.632  0.2827 -0.1083 -0.5332
  493TMC3     H 7333   3.414   1.407  10.583 -0.7385 -0.1649 -0.2636
  493TMC3    H1 7334   3.241   1.071  10.388  1.8057 -1.4350  2.8847
  493TMC3    H2 7335   3.296   1.446  10.179  0.9327  2.5966  1.7384
  493TMC3    C7 7336   3.143   1.224  10.211 -0.5600 -0.9975  0.1972
  493TMC3    C8 7337   3.430   1.560  10.383 -0.2019 -0.2016  0.0102
  493TMC3    O1 7338   3.140   1.272  10.099  0.3133  0.3316  0.4027
  493TMC3    O2 7339   3.447   1.613  10.492  0.4147  0.5688  0.4394
  494TMC3    C1 7340   4.121   2.962   0.379 -0.0367  0.4032  0.4699
  494TMC3    C2 7341   4.188   2.846   0.412  0.1555  0.4088 -0.1538
  494TMC3    C3 7342   4.284   2.805   0.324  0.5362  0.4502  0.0608
  494TMC3    C4 7343   4.163   3.053   0.287  0.1205 -0.2697 -0.2388
  494TMC3    C5 7344   4.249   2.999   0.194 -0.0483  0.1462  0.6014
  494TMC3    C6 7345   4.302   2.874   0.207  0.3743  0.3065 -1.0776
  494TMC3     C 7346   4.026   2.998   0.483 -0.3414 -0.9687 -0.0039
  494TMC3     O 7347   4.009   2.924   0.577  0.1773 -0.7910 -0.3587
  494TMC3     H 7348   4.158   2.783   0.496  0.2980  0.6682  0.0900
  494TMC3    H1 7349   4.133   3.156   0.274 -2.7239 -0.9032  1.4677
  494TMC3    H2 7350   4.359   2.831   0.125 -1.4597 -1.7630 -1.2682
  494TMC3    C7 7351   4.263   3.049   0.059  0.2188  0.0364  0.2205
  494TMC3    C8 7352   4.335   2.669   0.350  0.4394  0.3968  0.0405
  494TMC3    O1 7353   4.284   2.965  17.656  0.2704 -0.2727  0.0264
  494TMC3    O2 7354   4.305   2.615   0.458  0.3662  0.5746 -0.3312
  495TMC3    C1 7355   2.107   4.507  14.162  0.5352  0.1392 -0.7470
  495TMC3    C2 7356   2.015   4.556  14.081 -0.5677 -0.1943  0.4346
  495TMC3    C3 7357   1.971   4.685  14.099  0.7145 -0.1053 -0.8801
  495TMC3    C4 7358   2.157   4.583  14.271  0.0930 -0.0722  0.8383
  495TMC3    C5 7359   2.104   4.707  14.288  0.0885  0.0351  0.2951
  495TMC3    C6 7360   2.004   0.042  14.208 -0.0596  0.5711 -0.5207
  495TMC3     C 7361   2.200   4.409  14.101  0.4375 -0.4195 -0.5522
  495TMC3     O 7362   2.164   4.369  13.992  0.0076 -0.3247 -0.5229
  495TMC3     H 7363   1.967   4.484  14.016  0.1633 -0.1437 -0.1592
  495TMC3    H1 7364   2.231   4.549  14.342 -1.8672 -1.6612  2.1036
  495TMC3    H2 7365   1.979   0.147  14.199 -1.5861  0.2218 -0.3425
  495TMC3    C7 7366   2.151   0.067  14.395  0.1425 -0.1895  0.0754
  495TMC3    C8 7367   1.921   0.033  13.979 -0.5104  1.2678  0.1955
  495TMC3    O1 7368   2.257   0.030  14.454 -0.0446 -0.5724 -0.2607
  495TMC3    O2 7369   1.866   0.140  14.001  0.4846  0.9674  0.2142
  496MPD2     C 7370   0.665   0.440  15.567  0.4553  0.4680 -0.0479
  496MPD2    C1 7371   0.541   0.388  15.567 -0.3766 -0.0838 -0.1759
  496MPD2    C2 7372   0.483   0.369  15.690  0.9882 -0.0725 -0.3852
  496MPD2    C3 7373   0.544   0.364  15.813 -0.8655  0.3276  0.1594
  496MPD2    C4 7374   0.675   0.410  15.804  0.3930  0.6194 -0.0254
  496MPD2    C5 7375   0.729   0.456  15.682 -0.1529  0.1730  0.2741
  496MPD2     H 7376   0.381   0.335  15.698  1.3097 -0.8297  0.5135
  496MPD2    H1 7377   0.740   0.406  15.890  0.2636  0.1056  0.0512
  496MPD2    H2 7378   0.717   0.472  15.478 -1.0723  0.4190 -0.9544
  496MPD2    H3 7379   0.835   0.482  15.683  0.3208 -1.7176 -0.6755
  496MPD2     N 7380   0.467   0.306  15.917 -0.7167  0.0793  0.3875
  496MPD2    H5 7381   0.367   0.291  15.908 -0.8698 -1.5731  4.6879
  496MPD2    N1 7382   0.476   0.354  15.446 -0.1737  0.1898 -0.0701
  496MPD2    H7 7383   0.531   0.380  15.365 -0.0524 -2.8830 -0.9877
  497TMC3    C1 7384   0.437   0.184  16.110  0.5786 -0.0881  0.7026
  497TMC3    C2 7385   0.316   0.138  16.062 -0.0115  0.6970 -0.3283
  497TMC3    C3 7386   0.228   0.092  16.156 -0.8934 -0.3310 -0.6235
  497TMC3    C4 7387   0.481   0.173  16.241  0.1282 -0.0632 -0.0378
  497TMC3    C5 7388   0.393   0.112  16.327 -0.4942 -0.0727 -0.0848
  497TMC3    C6 7389   0.263   0.082  16.294  0.1707 -0.1742 -0.0207
  497TMC3     C 7390   0.524   0.262  16.031  0.3810 -0.0699 -0.0482
  497TMC3     O 7391   0.635   0.282  16.074  0.6166  0.2376  0.5012
  497TMC3     H 7392   0.292   0.141  15.956  1.2742  0.5367 -0.6261
  497TMC3    H1 7393   0.576   0.206  16.281 -0.3169 -1.2982  1.9936
  497TMC3    H2 7394   0.205   0.020  16.361 -2.2134  2.0879  0.0232
  497TMC3    C7 7395   0.420   0.125  16.474  0.2406 -0.0062  0.0054
  497TMC3    C8 7396   0.102   0.030  16.112 -0.0076  1.0104  0.1372
  497TMC3    O1 7397   0.316   0.118  16.541 -0.0504 -1.0071  0.0241
  497TMC3    O2 7398   0.040   4.696  16.198  0.1364 -0.7410 -0.5438
  498MPD2     C 7399   4.530   1.337   8.877 -0.1575 -0.1400  0.3545
  498MPD2    C1 7400   4.595   1.311   8.998 -0.6418  0.2266  0.0660
  498MPD2    C2 7401   4.546   1.209   9.077  0.5328 -0.0186 -0.4954
  498MPD2    C3 7402   4.456   1.116   9.027 -0.1513 -0.1553  0.0350
  498MPD2    C4 7403   4.407   1.129   8.894  0.2383  0.1415  0.1450
  498MPD2    C5 7404   4.443   1.241   8.822  0.2839  0.4310  0.7860
  498MPD2     H 7405   4.580   1.179   9.176 -0.2526  0.4159 -0.0922
  498MPD2    H1 7406   4.331   1.058   8.862 -0.2703  0.9386 -0.3942
  498MPD2    H2 7407   4.552   1.428   8.822 -0.5063 -0.8932 -1.0469
  498MPD2    H3 7408   4.408   1.255   8.720 -0.7827 -2.2102  0.8003
  498MPD2     N 7409   4.417   1.005   9.113  0.0345  0.4035  0.0938
  498MPD2    H5 7410   4.451   1.005   9.209  1.2768  3.4194 -0.3236
  498MPD2    N1 7411   4.683   1.395   9.056  0.7150  0.6825 -0.1304
  498MPD2    H7 7412   4.713   1.368   9.149  0.8825  0.7181 -0.1732
  499TMC3    C1 7413   0.107   1.576   9.059 -0.4899 -0.1753 -0.7978
  499TMC3    C2 7414   0.088   1.605   9.194  0.2957 -0.2560  0.1881
  499TMC3    C3 7415   0.174   1.689   9.255 -0.4810  0.4480 -0.2035
  499TMC3    C4 7416   0.207   1.641   8.984 -1.1579  0.2144 -0.1120
  499TMC3    C5 7417   0.282   1.738   9.056  0.5063  0.0151  0.1077
  499TMC3    C6 7418   0.276   1.753   9.196 -0.5105  0.5699  0.3125
  499TMC3     C 7419   0.020   1.494   8.984  0.1213  0.3453 -0.1860
  499TMC3     O 7420   0.012   1.523   8.863  0.2185  0.7920 -0.7576
  499TMC3     H 7421   0.004   1.562   9.247 -0.8797 -0.2057 -1.6363
  499TMC3    H1 7422   0.228   1.612   8.882  1.5930 -0.1296  0.5449
  499TMC3    H2 7423   0.345   1.819   9.247  0.4925  1.6794 -2.5089
  499TMC3    C7 7424   0.386   1.815   8.993  0.4007  0.2118  0.1520
  499TMC3    C8 7425   0.135   1.721   9.389 -0.6083 -0.0487  0.3299
  499TMC3    O1 7426   0.479   1.860   9.058 -0.0423  0.9942  0.4036
  499TMC3    O2 7427   0.057   1.644   9.449  0.3375 -0.1262 -0.2926
  500MPD2     C 7428   2.744   1.811   9.487 -0.0153 -0.4008 -0.1204
  500MPD2    C1 7429   2.709   1.938   9.493 -0.0328  0.4530 -0.6852
  500MPD2    C2 7430   2.583   1.974   9.445 -0.2471  0.1531  0.7789
  500MPD2    C3 7431   2.490   1.880   9.403  0.8041 -0.1100 -0.1251
  500MPD2    C4 7432   2.529   1.748   9.402 -0.3016 -0.4173  0.3252
  500MPD2    C5 7433   2.657   1.720   9.442  0.0663 -0.6094 -0.1228
  500MPD2     H 7434   2.540   2.073   9.463 -0.3561  0.4400 -1.1383
  500MPD2    H1 7435   2.468   1.666   9.365 -1.6039  1.3589 -1.4611
  500MPD2    H2 7436   2.842   1.778   9.518  1.1521  2.4206 -0.8303
  500MPD2    H3 7437   2.691   1.617   9.448 -0.1738 -0.7650 -1.3287
  500MPD2     N 7438   2.363   1.927   9.364 -0.3104  0.9017  0.0960
  500MPD2    H5 7439   2.348   2.023   9.334  3.0884  1.0146 -1.2344
  500MPD2    N1 7440   2.804   2.024   9.557  0.5496 -0.0009  0.2287
  500MPD2    H7 7441   2.886   1.979   9.596 -0.8455 -1.2168  1.7568
  501TMC3    C1 7442   2.872   2.210   9.687  0.3317  0.4138  0.8108
  501TMC3    C2 7443   2.917   2.339   9.682  0.3097 -0.4860 -0.0999
  501TMC3    C3 7444   3.026   2.367   9.758  0.2641  0.3656  0.1070
  501TMC3    C4 7445   2.922   2.113   9.768 -0.2514 -0.1629 -0.3612
  501TMC3    C5 7446   3.031   2.149   9.837  0.5326  0.0931 -0.1634
  501TMC3    C6 7447   3.090   2.276   9.837  0.3388  0.4805 -0.1443
  501TMC3     C 7448   2.792   2.161   9.572  0.6486  0.1500 -0.3029
  501TMC3     O 7449   2.713   2.236   9.520 -0.0249  0.0456  0.2098
  501TMC3     H 7450   2.873   2.412   9.615 -0.6273 -1.5722 -0.6758
  501TMC3    H1 7451   2.880   2.014   9.785 -0.1375 -0.2300 -0.4665
  501TMC3    H2 7452   3.187   2.291   9.883  0.6558  2.7247 -1.5361
  501TMC3    C7 7453   3.035   2.104   9.973 -0.0153  0.7930  0.1732
  501TMC3    C8 7454   3.069   2.500   9.793 -0.3013  0.0770 -0.2672
  501TMC3    O1 7455   3.145   2.096  10.022 -0.1504  0.3096  0.4775
  501TMC3    O2 7456   3.147   2.515   9.887  0.6217  0.0367 -0.6499
  502TMC3    C1 7457   1.985   0.796  14.412  0.0757  0.2114 -0.1825
  502TMC3    C2 7458   2.000   0.910  14.335  0.3630  0.3821 -0.2018
  502TMC3    C3 7459   1.916   1.017  14.358 -0.1228  0.2787 -0.3868
  502TMC3    C4 7460   1.877   0.779  14.491  0.7166 -0.2473 -0.2523
  502TMC3    C5 7461   1.788   0.886  14.499  0.6547 -0.1849  0.3283
  502TMC3    C6 7462   1.806   1.008  14.435 -0.6661 -0.6838 -1.0696
  502TMC3     C 7463   2.091   0.797  14.500  0.2094  0.0074 -0.2795
  502TMC3     O 7464   2.193   0.825  14.439 -0.1106  0.1825  0.1686
  502TMC3     H 7465   2.088   0.907  14.273 -2.2514  0.0804 -3.9050
  502TMC3    H1 7466   1.865   0.686  14.545  0.7445  0.0052  0.1934
  502TMC3    H2 7467   1.758   1.099  14.471 -0.5053 -0.7750 -0.6273
  502TMC3    C7 7468   1.730   0.886  14.631  0.2152  0.5166  0.1371
  502TMC3    C8 7469   1.980   1.147  14.369 -0.1543  0.5486  0.5613
  502TMC3    O1 7470   1.775   0.806  14.711 -0.0340  1.0433 -0.5982
  502TMC3    O2 7471   1.908   1.243  14.361 -0.1721  0.0028 -0.3559
  503MPD2     C 7472   4.296   1.934  16.347 -0.2630 -0.1029 -0.2090
  503MPD2    C1 7473   4.244   1.921  16.473 -0.0561 -0.0813  0.6913
  503MPD2    C2 7474   4.284   1.812  16.551 -0.2030  0.3200  0.2799
  503MPD2    C3 7475   4.375   1.714  16.503  0.5079 -0.3101 -0.3007
  503MPD2    C4 7476   4.414   1.723  16.371  0.0485  0.2345  0.0678
  503MPD2    C5 7477   4.371   1.829  16.295  0.3984 -0.5303  0.2023
  503MPD2     H 7478   4.244   1.799  16.651  0.4520  2.5179  0.8233
  503MPD2    H1 7479   4.481   1.649  16.327  0.9313  1.9338 -1.4441
  503MPD2    H2 7480   4.276   2.021  16.285  2.5998 -0.5982 -1.8341
  503MPD2    H3 7481   4.404   1.847  16.193 -1.6345  1.3960 -0.1115
  503MPD2     N 7482   4.405   1.609  16.588 -0.2276 -0.4539  0.4899
  503MPD2    H5 7483   4.380   1.627  16.685  0.2360  0.2249  0.4855
  503MPD2    N1 7484   4.154   2.014  16.530 -0.2077 -0.2789  0.1442
  503MPD2    H7 7485   4.115   1.979  16.616  0.6233 -2.6298 -0.4308
  504TMC3    C1 7486   4.527   1.425  16.658  0.3493  0.8574  0.1499
  504TMC3    C2 7487   4.545   1.490  16.780 -0.0298 -0.6065 -0.2253
  504TMC3    C3 7488   4.618   1.424  16.872 -0.0935  0.0754 -0.2421
  504TMC3    C4 7489   4.582   1.299  16.633 -0.2322 -0.1486 -0.0950
  504TMC3    C5 7490   4.662   1.242  16.731 -0.4534 -0.0020 -0.0746
  504TMC3    C6 7491   4.669   1.300  16.854 -0.1791 -0.0418  0.9205
  504TMC3     C 7492   4.455   1.492  16.553  0.1307 -0.5995  0.7786
  504TMC3     O 7493   4.475   1.441  16.441 -0.3179 -0.1487 -0.5964
  504TMC3     H 7494   4.499   1.579  16.819  0.2947  0.7284 -2.9167
  504TMC3    H1 7495   4.579   1.257  16.533 -2.5906 -2.1701  0.8522
  504TMC3    H2 7496   0.021   1.265  16.927 -0.1460 -1.5981  0.1393
  504TMC3    C7 7497   0.037   1.140  16.680  0.2302  0.3486 -0.2859
  504TMC3    C8 7498   4.600   1.473  17.003  0.0643  0.2819 -0.0973
  504TMC3    O1 7499   0.043   1.148  16.556  0.4674 -0.3209 -0.5154
  504TMC3    O2 7500   4.578   1.592  17.022  0.1702  0.0968 -0.3990
  505MPD2     C 7501   4.312   0.783  10.419  0.0690 -0.2052 -0.2758
  505MPD2    C1 7502   4.328   0.699  10.310 -0.5268 -0.1604 -0.4247
  505MPD2    C2 7503   4.447   0.695  10.240  0.2839 -0.1016 -0.2696
  505MPD2    C3 7504   4.554   0.761  10.288  0.2130 -0.6284  0.0656
  505MPD2    C4 7505   4.539   0.848  10.389 -0.2024  0.7868 -0.1699
  505MPD2    C5 7506   4.417   0.866  10.455  0.3376  0.5171 -0.4294
  505MPD2     H 7507   4.457   0.634  10.151  0.5874 -0.6937  0.1699
  505MPD2    H1 7508   4.621   0.914  10.414  1.3183 -1.9930  2.3153
  505MPD2    H2 7509   4.221   0.772  10.476 -0.1678 -0.7229 -0.7578
  505MPD2    H3 7510   4.409   0.938  10.536  1.6261  0.7217 -0.4892
  505MPD2     N 7511   4.681   0.739  10.235  0.6086  0.0995  0.3120
  505MPD2    H5 7512   0.040   0.771  10.288  0.7479  1.8258 -0.9278
  505MPD2    N1 7513   4.220   0.620  10.275 -0.0847  0.0591 -1.0276
  505MPD2    H7 7514   4.131   0.640  10.321 -0.5310  0.0073 -1.8712
  506TMC3    C1 7515   4.104   0.422  10.213 -0.2232 -0.1198 -0.0474
  506TMC3    C2 7516   4.021   0.431  10.107  0.0929  0.8448 -0.3179
  506TMC3    C3 7517   3.964   0.316  10.059 -0.0986 -0.3708  0.1684
  506TMC3    C4 7518   4.134   0.294  10.261 -0.4269  0.3726  0.5649
  506TMC3    C5 7519   4.081   0.181  10.206  0.0540  0.3999 -0.8276
  506TMC3    C6 7520   3.992   0.190  10.110  0.5401 -1.0278 -0.5796
  506TMC3     C 7521   4.224   0.504  10.200  1.0352  0.8530 -0.5233
  506TMC3     O 7522   4.321   0.447  10.158  0.2984  0.6871  0.0804
  506TMC3     H 7523   4.005   0.523  10.052 -1.2508 -1.7552 -4.2426
  506TMC3    H1 7524   4.207   0.292  10.341 -0.3466 -2.8576  0.4129
  506TMC3    H2 7525   3.972   0.103  10.049  2.0110 -1.6762 -0.1286
  506TMC3    C7 7526   4.177   0.078  10.167  0.6501 -0.1748  0.2746
  506TMC3    C8 7527   3.910   0.307   9.924  0.3276  0.0346  0.3841
  506TMC3    O1 7528   4.141   4.690  10.127  0.1019 -0.9159  0.1514
  506TMC3    O2 7529   3.835   0.217   9.899 -0.2133  0.0695  0.3849
  507TMC3    C1 7530   0.766   1.943  14.226 -0.2736 -0.1710 -0.0140
  507TMC3    C2 7531   0.823   1.875  14.125  0.2262  0.5282 -0.2663
  507TMC3    C3 7532   0.841   1.940  14.007  0.1764  0.1090 -0.1008
  507TMC3    C4 7533   0.713   2.070  14.217  0.8286  0.4155  0.0987
  507TMC3    C5 7534   0.747   2.131  14.097  0.2437  0.3006 -0.6560
  507TMC3    C6 7535   0.823   2.072  14.003  0.5629 -0.7728  0.2678
  507TMC3     C 7536   0.690   1.858  14.307  0.2393 -0.5442 -0.9393
  507TMC3     O 7537   0.655   1.890  14.419 -0.1651 -0.7091 -0.0570
  507TMC3     H 7538   0.869   1.778  14.136 -1.1999 -0.0564  0.5880
  507TMC3    H1 7539   0.635   2.111  14.280  1.1174  0.3481  0.4978
  507TMC3    H2 7540   0.838   2.119  13.907  0.3673 -1.4838 -0.1117
  507TMC3    C7 7541   0.663   2.236  14.038 -0.0459  0.1810 -0.0026
  507TMC3    C8 7542   0.791   1.861  13.901 -0.1064  0.0296 -0.5438
  507TMC3    O1 7543   0.662   2.240  13.916  0.3162 -0.1653 -0.5774
  507TMC3    O2 7544   0.795   1.740  13.917 -0.3755  0.2639 -0.2583
  508MPD2     C 7545   1.698   3.556  15.739 -0.2969 -0.3522  0.0846
  508MPD2    C1 7546   1.778   3.663  15.761  0.0951 -0.7801 -0.0552
  508MPD2    C2 7547   1.808   3.745  15.651  0.2474 -0.3258 -0.2802
  508MPD2    C3 7548   1.737   3.729  15.528  0.7101  0.6140  0.6298
  508MPD2    C4 7549   1.649   3.626  15.512 -0.1957  0.8278 -0.5364
  508MPD2    C5 7550   1.635   3.537  15.616  0.2949 -0.0474 -0.7369
  508MPD2     H 7551   1.873   3.833  15.654 -0.4813  0.1414  2.0184
  508MPD2    H1 7552   1.591   3.604  15.423 -0.2519  0.3037 -0.3706
  508MPD2    H2 7553   1.686   3.484  15.819  0.9271 -1.5745 -0.8318
  508MPD2    H3 7554   1.567   3.453  15.611  2.1572 -1.6651  1.1671
  508MPD2     N 7555   1.758   3.827  15.422  0.7066  0.2208  0.1890
  508MPD2    H5 7556   1.797   3.918  15.442 -0.5914  0.3152  2.2388
  508MPD2    N1 7557   1.840   3.679  15.879  0.2959 -0.3275  0.7797
  508MPD2    H7 7558   1.804   3.619  15.954  0.8948  1.0218  2.1545
  509TMC3    C1 7559   1.608   4.130  15.153 -0.2211 -0.3501 -0.4409
  509TMC3    C2 7560   1.724   4.209  15.164  0.1917  0.6521  0.0494
  509TMC3    C3 7561   1.837   4.151  15.213 -0.3139 -0.0031  1.0405
  509TMC3    C4 7562   1.608   3.992  15.179 -0.6298  0.0120 -0.0503
  509TMC3    C5 7563   1.722   3.943  15.234  0.5665  0.1466 -0.0726
  509TMC3    C6 7564   1.841   4.016  15.251 -0.8101  0.0998  0.3265
  509TMC3     C 7565   1.484   4.197  15.139 -0.0944  0.4415 -0.0179
  509TMC3     O 7566   1.386   4.130  15.157 -0.2573 -0.0124 -0.0809
  509TMC3     H 7567   1.726   4.316  15.148 -1.6856  0.4111 -1.8504
  509TMC3    H1 7568   1.518   3.931  15.175 -0.5124 -0.3488  2.5174
  509TMC3    H2 7569   1.927   3.966  15.293 -2.8271 -3.2197  0.5434
  509TMC3    C7 7570   1.721   3.816  15.295 -0.1799  0.0716  0.7393
  509TMC3    C8 7571   1.971   4.214  15.219 -0.0030  0.1514  0.9519
  509TMC3    O1 7572   1.655   3.733  15.238  0.7270  0.2147  0.0403
  509TMC3    O2 7573   2.061   4.148  15.268  0.2625  0.5558 -0.0449
  510MPD2     C 7574   4.010   0.807  13.980  0.0399 -0.0996  0.8218
  510MPD2    C1 7575   4.071   0.789  14.103  0.6205 -0.7161  0.1244
  510MPD2    C2 7576   4.210   0.812  14.111  0.4214  0.6146  0.3325
  510MPD2    C3 7577   4.271   0.868  14.000  0.2615 -0.2889 -0.5138
  510MPD2    C4 7578   4.200   0.905  13.890  0.1984 -0.0838  0.0847
  510MPD2    C5 7579   4.069   0.873  13.877  1.0473  0.5807  0.1304
  510MPD2     H 7580   4.272   0.793  14.198  0.4252  0.3166  0.2677
  510MPD2    H1 7581   4.242   0.964  13.809 -0.5077 -1.9195 -1.6089
  510MPD2    H2 7582   3.904   0.784  13.974 -0.6782  3.9220 -1.6450
  510MPD2    H3 7583   4.014   0.900  13.787  0.1609  1.6341  0.9856
  510MPD2     N 7584   4.405   0.893  14.014 -0.1153  0.1300  0.0816
  510MPD2    H5 7585   4.448   0.867  14.103  0.5244 -1.1347 -0.6042
  510MPD2    N1 7586   4.005   0.717  14.200  0.0628  0.0913 -0.0829
  510MPD2    H7 7587   3.929   0.658  14.168  1.4251 -2.4056  1.2743
  511TMC3    C1 7588   3.963   0.619  14.414  0.3362 -0.5696 -0.3469
  511TMC3    C2 7589   3.939   0.624  14.544  0.5304 -0.7327  0.2647
  511TMC3    C3 7590   3.863   0.537  14.616 -0.4945  0.2877  0.0756
  511TMC3    C4 7591   3.912   0.512  14.343  0.1263  0.0762  0.1156
  511TMC3    C5 7592   3.832   0.420  14.414 -0.6940 -0.1835  0.5453
  511TMC3    C6 7593   3.808   0.432  14.550  0.2904  0.0797  0.1587
  511TMC3     C 7594   4.025   0.724  14.339 -0.1689  0.3628  0.0648
  511TMC3     O 7595   4.101   0.807  14.394 -0.4237 -0.4329 -0.3975
  511TMC3     H 7596   3.957   0.718  14.594  3.0533 -0.2749 -1.5126
  511TMC3    H1 7597   3.950   0.484  14.245 -0.5638  0.4775 -0.2684
  511TMC3    H2 7598   3.736   0.372  14.605 -0.4894  0.6207 -0.2660
  511TMC3    C7 7599   3.772   0.313  14.336  0.8132 -0.4117 -0.0372
  511TMC3    C8 7600   3.837   0.569  14.758 -0.4212 -0.6738 -0.2226
  511TMC3    O1 7601   3.767   0.330  14.216 -0.5188 -0.3515  0.2679
  511TMC3    O2 7602   3.837   0.683  14.803  0.3150  0.1709 -0.7588
  512TMC3    C1 7603   3.595   0.370  12.782  0.6317  0.1414  0.8085
  512TMC3    C2 7604   3.598   0.317  12.905  0.3703  0.7209  0.6438
  512TMC3    C3 7605   3.619   0.182  12.913  0.0902 -0.4879 -0.1093
  512TMC3    C4 7606   3.583   0.290  12.673  0.9047 -0.2131 -0.4881
  512TMC3    C5 7607   3.591   0.153  12.688 -0.7616 -0.1178 -0.4973
  512TMC3    C6 7608   3.608   0.098  12.806 -0.2115 -0.5458  0.1181
  512TMC3     C 7609   3.526   0.500  12.770  0.1754 -0.1563 -0.1220
  512TMC3     O 7610   3.500   0.557  12.876  0.2328  0.5631  0.0199
  512TMC3     H 7611   3.606   0.380  12.993  0.0870  1.5902  0.0374
  512TMC3    H1 7612   3.576   0.340  12.577 -1.1950  1.2005  0.3880
  512TMC3    H2 7613   3.619   4.712  12.812  1.6395 -0.4185 -1.0209
  512TMC3    C7 7614   3.571   0.077  12.564 -0.8202 -0.2439  0.1800
  512TMC3    C8 7615   3.608   0.116  13.033  0.5066  0.6836 -0.2025
  512TMC3    O1 7616   3.553   0.144  12.462  0.4641  0.1622 -0.5282
  512TMC3    O2 7617   3.589   4.715  13.031  0.0097  0.7884 -0.4330
  513MPD2     C 7618   0.130   0.009  12.061  0.5178 -0.6133  0.1455
  513MPD2    C1 7619   0.229   4.633  12.047 -0.3722  0.3666  0.0921
  513MPD2    C2 7620   0.332   4.648  12.131 -0.0088  0.2796  0.4979
  513MPD2    C3 7621   0.354   0.032  12.212 -0.8648  0.1148  0.2439
  513MPD2    C4 7622   0.257   0.137  12.220 -0.5179 -0.6595 -0.5201
  513MPD2    C5 7623   0.139   0.109  12.150 -0.4345 -0.3266 -0.5033
  513MPD2     H 7624   0.416   4.583  12.113  1.0479  1.9081 -0.5014
  513MPD2    H1 7625   0.264   0.218  12.291 -2.4992 -1.9231  1.1299
  513MPD2    H2 7626   0.042   0.002  11.999 -0.5790 -2.6845  1.9104
  513MPD2    H3 7627   0.059   0.181  12.160 -0.4199 -0.4204  0.2374
  513MPD2     N 7628   0.478   0.030  12.283 -0.3315 -0.1470  0.3046
  513MPD2    H5 7629   0.547   4.683  12.256  0.1790 -0.6918  3.0343
  513MPD2    N1 7630   0.204   4.525  11.959  0.0852  0.5318 -0.1035
  513MPD2    H7 7631   0.125   4.529  11.895 -0.7675 -0.9139  0.8753
  514TMC3    C1 7632   0.242   4.301  11.860 -0.6065 -0.1092 -0.1879
  514TMC3    C2 7633   0.219   4.352  11.733 -0.8042 -0.3422  0.1253
  514TMC3    C3 7634   0.290   4.306  11.629  0.9059 -0.2740  0.4218
  514TMC3    C4 7635   0.338   4.205  11.875 -0.1622  0.2461 -0.8955
  514TMC3    C5 7636   0.415   4.177  11.767  0.7906  1.3714 -0.1220
  514TMC3    C6 7637   0.384   4.210  11.636  0.6685 -0.1837  0.3717
  514TMC3     C 7638   0.268   4.404  11.964  0.2549  0.7307  0.0848
  514TMC3     O 7639   0.354   4.371  12.044 -0.0329 -0.2647 -0.1560
  514TMC3     H 7640   0.140   4.425  11.721  0.1793  0.6454 -0.3040
  514TMC3    H1 7641   0.369   4.165  11.971 -0.8408  0.7159 -0.4854
  514TMC3    H2 7642   0.457   4.195  11.558  0.4478  2.0538 -0.2667
  514TMC3    C7 7643   0.553   4.148  11.799 -0.2320 -0.0671 -0.4370
  514TMC3    C8 7644   0.253   4.363  11.503  0.2369 -0.4276  0.1376
  514TMC3    O1 7645   0.621   4.081  11.719  0.3498  0.2506 -0.2806
  514TMC3    O2 7646   0.189   4.468  11.496  0.4035  0.3366  0.2737
  515MPD2     C 7647   2.934   2.064  14.225  0.0938  0.2757  0.0384
  515MPD2    C1 7648   2.995   1.935  14.222 -0.2038 -0.2264  0.4646
  515MPD2    C2 7649   3.103   1.911  14.303  0.1817 -0.0042  0.0685
  515MPD2    C3 7650   3.168   2.020  14.368  0.1835  0.4671 -0.2516
  515MPD2    C4 7651   3.112   2.148  14.361  0.4912  0.2076 -0.1043
  515MPD2    C5 7652   2.992   2.164  14.287 -0.4246 -0.6869 -0.5213
  515MPD2     H 7653   3.135   1.808  14.303  0.9296  0.2254  0.4567
  515MPD2    H1 7654   3.156   2.235  14.409 -2.3570 -0.9242  4.4399
  515MPD2    H2 7655   2.848   2.093  14.166  0.0132  1.8718  0.9294
  515MPD2    H3 7656   2.950   2.263  14.274  1.4567 -0.1072 -2.1612
  515MPD2     N 7657   3.296   2.013  14.429  0.7241  0.7060  0.2116
  515MPD2    H5 7658   3.332   2.094  14.478  3.3361 -0.2775 -0.0872
  515MPD2    N1 7659   2.933   1.824  14.156  0.2135 -0.4207  0.2864
  515MPD2    H7 7660   2.973   1.734  14.181 -0.5445 -1.0221 -0.6752
  516TMC3    C1 7661   2.774   1.694  14.038  0.4908  0.2034  0.2533
  516TMC3    C2 7662   2.713   1.682  13.915 -0.1906 -0.0511 -0.8781
  516TMC3    C3 7663   2.677   1.561  13.867  1.1605 -0.0570 -0.6703
  516TMC3    C4 7664   2.807   1.584  14.112 -0.6230 -0.3708 -0.0978
  516TMC3    C5 7665   2.751   1.465  14.069  0.4713  0.3970 -0.0057
  516TMC3    C6 7666   2.692   1.455  13.949 -0.0397 -0.1684  0.6294
  516TMC3     C 7667   2.825   1.830  14.068  0.0348 -0.2095 -0.4687
  516TMC3     O 7668   2.764   1.929  14.029 -0.5166  0.0755 -0.0249
  516TMC3     H 7669   2.706   1.773  13.856  1.5702 -0.4062 -1.6367
  516TMC3    H1 7670   2.850   1.591  14.212  0.2097 -1.0196 -0.4091
  516TMC3    H2 7671   2.653   1.358  13.921 -0.3615 -0.4186  1.9503
  516TMC3    C7 7672   2.765   1.355  14.160  0.7723 -0.2748  0.2872
  516TMC3    C8 7673   2.584   1.556  13.756  0.2544  0.4386 -0.3620
  516TMC3    O1 7674   2.819   1.369  14.273 -0.2468 -0.2639 -0.5628
  516TMC3    O2 7675   2.525   1.660  13.729 -0.1849  0.2954 -0.4991
  517MPD2     C 7676   2.452   3.157  17.300  0.0742 -0.0747 -0.0180
  517MPD2    C1 7677   2.581   3.150  17.353 -0.1072  0.4738  0.4569
  517MPD2    C2 7678   2.624   3.253  17.431  0.3666 -0.4166  0.4012
  517MPD2    C3 7679   2.537   3.341  17.481 -0.0944 -0.0952  0.5510
  517MPD2    C4 7680   2.406   3.337  17.436 -0.2596 -0.3143  1.1408
  517MPD2    C5 7681   2.368   3.250  17.347 -0.0225 -0.2114 -0.3555
  517MPD2     H 7682   2.725   3.251  17.469  0.7925  0.2696 -0.6763
  517MPD2    H1 7683   2.329   3.399  17.480 -0.7156 -0.2774  0.2766
  517MPD2    H2 7684   2.413   3.079  17.235 -0.5063  0.4637 -0.3182
  517MPD2    H3 7685   2.265   3.246  17.312 -0.1931  1.1192  0.0038
  517MPD2     N 7686   2.574   3.451  17.565 -0.0167 -0.2711 -0.0840
  517MPD2    H5 7687   2.502   3.508  17.608 -0.4690  0.2836 -1.5933
  517MPD2    N1 7688   2.678   3.050  17.322  0.2345  0.7357  0.3192
  517MPD2    H7 7689   2.766   3.057  17.372  0.0604  0.7278  0.6270
  518TMC3    C1 7690   2.779   2.863  17.211  0.0740  0.0280  0.9659
  518TMC3    C2 7691   2.772   2.745  17.148  0.2093  0.2964 -0.5578
  518TMC3    C3 7692   2.891   2.686  17.113 -0.0158  0.0458  0.0253
  518TMC3    C4 7693   2.901   2.907  17.258 -0.1948 -0.1782  0.9255
  518TMC3    C5 7694   3.008   2.834  17.230 -0.4944  0.7894  0.3564
  518TMC3    C6 7695   3.012   2.731  17.144 -0.3167 -0.3179  0.0633
  518TMC3     C 7696   2.661   2.950  17.228 -0.8594 -0.4649  0.6957
  518TMC3     O 7697   2.569   2.924  17.152 -0.1234  0.1292  0.1772
  518TMC3     H 7698   2.672   2.710  17.125  0.6844 -0.1763 -1.9112
  518TMC3    H1 7699   2.913   3.008  17.297 -2.3721 -0.3615  2.0800
  518TMC3    H2 7700   3.101   2.675  17.118 -0.0818 -0.3247  0.8604
  518TMC3    C7 7701   3.128   2.865  17.311 -0.6320 -0.2214  0.2958
  518TMC3    C8 7702   2.892   2.566  17.034  0.3354  0.1723 -0.8076
  518TMC3    O1 7703   3.119   2.938  17.410  0.0359 -0.1550 -0.5987
  518TMC3    O2 7704   2.801   2.488  17.058 -0.4334 -0.2201 -0.3107
  519MPD2     C 7705   4.183   1.902  13.640  0.0895  0.7033 -0.7639
  519MPD2    C1 7706   4.160   1.852  13.514 -0.6424 -0.1595 -0.0432
  519MPD2    C2 7707   4.224   1.733  13.489  0.2027  0.2825  0.2398
  519MPD2    C3 7708   4.313   1.671  13.577  0.5303 -0.5100  0.7922
  519MPD2    C4 7709   4.341   1.727  13.699  0.2952  0.0061 -0.0915
  519MPD2    C5 7710   4.271   1.844  13.732  0.5280  0.6270  0.1394
  519MPD2     H 7711   4.210   1.680  13.396  2.2583 -0.5141  0.3808
  519MPD2    H1 7712   4.405   1.685  13.776 -1.2504  0.5933  1.5243
  519MPD2    H2 7713   4.122   1.986  13.672 -0.3176  0.2266 -0.2958
  519MPD2    H3 7714   4.290   1.888  13.829  1.1369  0.0102  0.2947
  519MPD2     N 7715   4.383   1.556  13.530 -0.1008  0.2574  0.0273
  519MPD2    H5 7716   4.372   1.546  13.430 -1.5570 -0.6442  0.2736
  519MPD2    N1 7717   4.072   1.919  13.429  0.4039  0.4410  0.6688
  519MPD2    H7 7718   4.022   1.999  13.466  0.4576  0.6079  0.3866
  520TMC3    C1 7719   4.515   1.366  13.531  0.0274 -0.3987 -0.3937
  520TMC3    C2 7720   4.429   1.297  13.450  0.0999 -0.0439 -0.0193
  520TMC3    C3 7721   4.468   1.177  13.403 -0.0141  0.9164 -0.5805
  520TMC3    C4 7722   4.628   1.306  13.571 -0.0987 -0.0115  0.1931
  520TMC3    C5 7723   4.667   1.190  13.510  0.5800 -0.3442  0.4085
  520TMC3    C6 7724   4.585   1.117  13.430 -0.3654  0.0948 -0.2407
  520TMC3     C 7725   4.477   1.482  13.599 -0.3979  0.9558 -0.1840
  520TMC3     O 7726   4.501   1.486  13.721  0.6310  0.2730  0.2554
  520TMC3     H 7727   4.353   1.351  13.395 -2.0441 -3.1112 -0.0353
  520TMC3    H1 7728   4.697   1.374  13.620 -0.9899  1.1578 -0.1863
  520TMC3    H2 7729   4.620   1.032  13.374 -2.4467 -0.5631 -0.5538
  520TMC3    C7 7730   0.075   1.150  13.537 -0.2975 -0.3329 -0.2297
  520TMC3    C8 7731   4.375   1.114  13.306 -0.5052  0.0447 -0.3000
  520TMC3    O1 7732   0.113   1.034  13.532 -0.0257 -0.5492  0.3464
  520TMC3    O2 7733   4.426   1.014  13.255 -0.4290  0.3854 -0.2045
  521MPD2     C 7734   0.713   4.258  17.220 -0.0555  0.1889  0.0484
  521MPD2    C1 7735   0.650   4.167  17.143  0.2253  0.2445  0.6586
  521MPD2    C2 7736   0.719   4.070  17.088  0.0645  1.1881  0.4941
  521MPD2    C3 7737   0.860   4.072  17.082  0.4442 -0.1932 -0.0126
  521MPD2    C4 7738   0.927   4.177  17.142  0.6451  0.3144  0.1093
  521MPD2    C5 7739   0.850   4.258  17.220  0.4802 -0.4331  0.4320
  521MPD2     H 7740   0.667   3.989  17.038 -0.7217  2.0601 -0.1202
  521MPD2    H1 7741   1.034   4.190  17.135  0.5307  0.3040 -1.7633
  521MPD2    H2 7742   0.659   4.336  17.273 -0.9610 -0.6629  0.3777
  521MPD2    H3 7743   0.895   4.341  17.273  1.4014  0.2409 -1.4193
  521MPD2     N 7744   0.922   3.960  17.025  0.0006 -0.1197  0.6371
  521MPD2    H5 7745   0.861   3.895  16.977 -1.7341 -1.0752  4.1487
  521MPD2    N1 7746   0.506   4.183  17.139  0.0636 -0.3563 -0.6721
  521MPD2    H7 7747   0.463   4.243  17.209 -1.6189 -2.7013  0.3226
  522TMC3    C1 7748   1.099   3.831  16.923  0.0160 -0.0111  0.5517
  522TMC3    C2 7749   1.224   3.792  16.940 -0.0530  0.5550 -0.1586
  522TMC3    C3 7750   1.277   3.710  16.839 -0.7449 -0.1539 -0.2215
  522TMC3    C4 7751   1.030   3.803  16.813  0.9918 -0.3956  0.3628
  522TMC3    C5 7752   1.085   3.725  16.716 -0.2848 -0.2153  0.9357
  522TMC3    C6 7753   1.208   3.671  16.731 -0.4308 -0.2062 -0.2136
  522TMC3     C 7754   1.062   3.946  17.009  0.1951 -0.1632 -0.4909
  522TMC3     O 7755   1.153   3.985  17.085 -0.1395  0.7479 -0.0958
  522TMC3     H 7756   1.291   3.839  17.010 -1.1775  2.3134 -0.2607
  522TMC3    H1 7757   0.926   3.835  16.811  1.0119 -0.3403  0.2481
  522TMC3    H2 7758   1.237   3.589  16.665 -0.5379 -0.4303  0.0179
  522TMC3    C7 7759   0.990   3.662  16.629 -0.2386  0.1746  0.8045
  522TMC3    C8 7760   1.409   3.666  16.859 -0.1084  0.1883  0.8764
  522TMC3    O1 7761   1.010   3.541  16.618 -0.3879  0.1246  0.5087
  522TMC3    O2 7762   1.453   3.696  16.964 -0.2400  0.0582  0.5275
  523MPD2     C 7763   3.324   3.909   9.829  0.0750  0.1383  0.3404
  523MPD2    C1 7764   3.295   3.851   9.707  0.1939  0.7173 -0.0704
  523MPD2    C2 7765   3.224   3.923   9.610 -0.0931  0.5676 -0.2271
  523MPD2    C3 7766   3.178   4.051   9.636  0.0781  0.1423  0.0359
  523MPD2    C4 7767   3.215   4.105   9.755  0.5707 -0.5177 -0.3235
  523MPD2    C5 7768   3.283   4.043   9.850 -0.0941 -0.6095  0.1796
  523MPD2     H 7769   3.200   3.877   9.515  2.3906 -1.0162 -0.0988
  523MPD2    H1 7770   3.186   4.207   9.780 -0.3803 -1.1297  1.1122
  523MPD2    H2 7771   3.378   3.859   9.910 -0.3014  0.4290  0.7681
  523MPD2    H3 7772   3.307   4.095   9.942 -1.7736  1.6359 -0.6538
  523MPD2     N 7773   3.109   4.140   9.548  0.1774  0.3758 -0.0902
  523MPD2    H5 7774   3.082   4.232   9.581  0.8779  0.5068  0.1216
  523MPD2    N1 7775   3.334   3.714   9.683 -0.3938 -0.6051 -0.2009
  523MPD2    H7 7776   3.392   3.675   9.758 -0.3397 -1.8712 -0.8920
  524TMC3    C1 7777   3.059   4.245   9.344 -0.4548  0.1823  0.2740
  524TMC3    C2 7778   3.082   4.245   9.213 -0.1672  0.8289 -0.7840
  524TMC3    C3 7779   3.120   4.365   9.156 -0.7940  0.4623  0.0092
  524TMC3    C4 7780   3.028   4.356   9.412  0.2558 -0.3636  0.2269
  524TMC3    C5 7781   3.044   4.474   9.348 -0.5813 -0.8607 -0.0925
  524TMC3    C6 7782   3.079   4.478   9.216  0.1993 -0.5191  0.0403
  524TMC3     C 7783   3.092   4.123   9.417 -0.1392  0.0133  0.0337
  524TMC3     O 7784   3.103   4.015   9.360  0.0181  0.2691 -0.0105
  524TMC3     H 7785   3.115   4.152   9.167  1.6786  1.6331 -1.1007
  524TMC3    H1 7786   3.011   4.356   9.519 -0.2676 -2.9930  0.1541
  524TMC3    H2 7787   3.095   4.575   9.171 -0.2056  0.1076  1.2432
  524TMC3    C7 7788   3.006   4.595   9.417  0.2222  0.5296 -0.0854
  524TMC3    C8 7789   3.142   4.368   9.012  0.8034  0.5979 -0.0856
  524TMC3    O1 7790   3.010   4.580   9.538  0.6543 -0.4510 -0.2574
  524TMC3    O2 7791   3.094   4.469   8.961 -0.3866  0.0469 -0.5691
  525MPD2     C 7792   0.955   1.161  14.214  0.3813 -0.3551  0.4850
  525MPD2    C1 7793   1.088   1.136  14.234  0.0715 -0.7075 -0.3212
  525MPD2    C2 7794   1.176   1.219  14.177  0.8051  0.4103  0.1320
  525MPD2    C3 7795   1.133   1.311  14.083  0.1723  0.2693  0.1860
  525MPD2    C4 7796   1.003   1.321  14.050  0.1445 -0.3004  0.0760
  525MPD2    C5 7797   0.911   1.237  14.109 -0.0209  0.2194 -0.3445
  525MPD2     H 7798   1.278   1.187  14.196  0.8045  0.4343  0.1761
  525MPD2    H1 7799   0.961   1.394  13.981 -0.2882 -1.7775 -1.2383
  525MPD2    H2 7800   0.881   1.107  14.273 -0.8881  1.1826  0.2881
  525MPD2    H3 7801   0.807   1.250  14.080  0.2990  0.6726 -1.2826
  525MPD2     N 7802   1.224   1.399  14.014  0.1164 -0.3921 -0.2633
  525MPD2    H5 7803   1.183   1.462  13.946  1.4810  0.4284 -0.3240
  525MPD2    N1 7804   1.136   1.047  14.330 -0.3322  0.3003  0.2711
  525MPD2    H7 7805   1.237   1.048  14.332 -0.3161  0.6347 -0.6256
  526TMC3    C1 7806   1.145   0.869  14.480  0.3618  0.3019 -0.4774
  526TMC3    C2 7807   1.091   0.848  14.603  0.3046 -0.1894  0.3937
  526TMC3    C3 7808   1.173   0.797  14.698  0.3578 -0.0106  0.1964
  526TMC3    C4 7809   1.271   0.833  14.444 -0.3088  0.3197  0.8173
  526TMC3    C5 7810   1.346   0.770  14.538 -0.0836 -0.0925 -0.7128
  526TMC3    C6 7811   1.300   0.749  14.667 -0.0128  0.2550 -0.6891
  526TMC3     C 7812   1.063   0.947  14.397 -0.0627 -0.1416 -0.1432
  526TMC3     O 7813   0.943   0.924  14.394  0.6793  0.1670  0.0885
  526TMC3     H 7814   0.985   0.865  14.618  0.0758 -0.3868 -0.9277
  526TMC3    H1 7815   1.317   0.859  14.349 -2.1034 -2.4980 -0.8292
  526TMC3    H2 7816   1.353   0.696  14.745 -1.7686 -1.1356 -0.4415
  526TMC3    C7 7817   1.455   0.677  14.497 -0.5728 -0.7449 -0.4321
  526TMC3    C8 7818   1.151   0.810  14.841  0.6668 -0.4296  0.2113
  526TMC3    O1 7819   1.521   0.634  14.587 -0.6927 -0.5421 -0.3328
  526TMC3    O2 7820   1.241   0.784  14.917  0.2506  0.2051 -0.4243
  527MPD2     C 7821   3.895   3.384   0.905  0.3580 -0.3708 -0.4890
  527MPD2    C1 7822   3.970   3.335   1.002  0.0992  0.9649 -0.1654
  527MPD2    C2 7823   4.100   3.293   0.971 -0.0849 -0.4591  0.0388
  527MPD2    C3 7824   4.159   3.307   0.845  0.6052 -0.3013  0.6905
  527MPD2    C4 7825   4.080   3.365   0.741  0.3174 -0.3763  0.1391
  527MPD2    C5 7826   3.950   3.409   0.782 -0.3694  0.0808 -0.0790
  527MPD2     H 7827   4.152   3.239   1.049  1.3976 -0.6915 -1.0878
  527MPD2    H1 7828   4.103   3.361   0.636 -0.3217 -0.8610  0.0173
  527MPD2    H2 7829   3.789   3.408   0.909  0.4823 -0.3571  2.6298
  527MPD2    H3 7830   3.895   3.459   0.704 -0.6108 -0.2777 -0.1379
  527MPD2     N 7831   4.292   3.263   0.825 -0.1440  0.2621 -0.3296
  527MPD2    H5 7832   4.348   3.249   0.908  0.1543 -1.5671 -0.8332
  527MPD2    N1 7833   3.932   3.322   1.138 -0.0815 -0.7734 -0.9255
  527MPD2    H7 7834   3.996   3.284   1.207 -0.9367  0.5214  0.5800
  528TMC3    C1 7835   3.836   3.387   1.336  0.3510  0.2335  0.2102
  528TMC3    C2 7836   3.961   3.418   1.382  0.2028 -0.1555 -0.8449
  528TMC3    C3 7837   3.997   3.372   1.504  0.1825 -0.2027 -0.6295
  528TMC3    C4 7838   3.745   3.315   1.400  0.8708 -0.2008  0.0423
  528TMC3    C5 7839   3.788   3.268   1.517 -0.8482  0.5323 -0.1859
  528TMC3    C6 7840   3.909   3.297   1.578 -0.1225 -0.5027  0.1962
  528TMC3     C 7841   3.824   3.376   1.195 -0.3120  0.1559  0.1756
  528TMC3     O 7842   3.730   3.428   1.141  0.0885 -0.7943 -0.0673
  528TMC3     H 7843   4.030   3.484   1.330  1.4219  1.2268  2.5713
  528TMC3    H1 7844   3.642   3.312   1.367  0.8233  0.3781  0.1418
  528TMC3    H2 7845   3.943   3.262   1.675  0.7922 -2.1971 -0.7286
  528TMC3    C7 7846   3.705   3.172   1.577  0.3022  0.5367 -0.0704
  528TMC3    C8 7847   4.130   3.372   1.546  0.0924 -0.0065  0.4650
  528TMC3    O1 7848   3.742   3.143   1.691  0.4044 -0.1319 -0.0686
  528TMC3    O2 7849   4.188   3.476   1.515 -0.0905 -0.0989  0.8623
  529MPD2     C 7850   2.248   1.735   0.324 -0.3955 -0.6018 -0.0602
  529MPD2    C1 7851   2.112   1.712   0.306 -0.2196 -0.0105  0.5360
  529MPD2    C2 7852   2.050   1.781   0.202 -0.4793  0.1724 -0.8585
  529MPD2    C3 7853   2.124   1.857   0.113 -0.9656  0.6717  0.1450
  529MPD2    C4 7854   2.263   1.875   0.129  0.7512 -0.5697  0.8342
  529MPD2    C5 7855   2.320   1.818   0.237  0.6996  0.5334  0.1799
  529MPD2     H 7856   1.945   1.761   0.184 -0.4850  0.9337 -1.6486
  529MPD2    H1 7857   2.321   1.946   0.071 -0.5282 -0.3840 -0.2068
  529MPD2    H2 7858   2.298   1.674   0.399  0.3845 -1.4567 -1.2745
  529MPD2    H3 7859   2.425   1.818   0.265  0.3916 -1.3168  1.2987
  529MPD2     N 7860   2.075   1.930   0.006  0.0718  0.0440 -0.3322
  529MPD2    H5 7861   2.138   1.991  17.644 -1.5379 -0.1054 -2.4989
  529MPD2    N1 7862   2.038   1.614   0.379  0.1755 -0.7861  0.2394
  529MPD2    H7 7863   1.940   1.606   0.354 -0.4107  0.6330  2.0813
  530TMC3    C1 7864   1.989   1.470   0.568  0.2417  0.2645  0.1010
  530TMC3    C2 7865   2.031   1.373   0.657 -0.3900 -0.8402  0.4136
  530TMC3    C3 7866   1.938   1.280   0.692 -0.2394  0.5166 -0.3244
  530TMC3    C4 7867   1.858   1.499   0.553  0.1832  0.4048  0.1167
  530TMC3    C5 7868   1.767   1.407   0.592  0.1796  0.2503 -0.8262
  530TMC3    C6 7869   1.800   1.294   0.662 -0.2465 -0.1761 -0.1343
  530TMC3     C 7870   2.089   1.543   0.487 -0.7832 -0.2615 -0.7595
  530TMC3     O 7871   2.208   1.525   0.518 -0.4991  0.1537 -0.2756
  530TMC3     H 7872   2.138   1.360   0.655 -0.0462  1.6852  2.3912
  530TMC3    H1 7873   1.829   1.589   0.500  1.1393  0.6673  0.0509
  530TMC3    H2 7874   1.729   1.213   0.671  0.4978 -0.6269  1.7712
  530TMC3    C7 7875   1.624   1.446   0.586  0.1848 -0.4999  0.3070
  530TMC3    C8 7876   1.975   1.145   0.735 -0.0696  0.2429 -0.3430
  530TMC3    O1 7877   1.572   1.522   0.508  0.0852  0.2940 -0.6086
  530TMC3    O2 7878   1.879   1.063   0.726  0.4718 -0.2242  0.2262
  531MPD2     C 7879   0.958   4.286  12.068  0.3045  0.4239  0.0212
  531MPD2    C1 7880   0.850   4.356  12.114 -0.3233 -0.0258 -0.5565
  531MPD2    C2 7881   0.730   4.339  12.054  0.2741  0.3006 -0.3856
  531MPD2    C3 7882   0.718   4.253  11.953  0.3712  0.0385  0.8446
  531MPD2    C4 7883   0.829   4.197  11.900  0.5279 -0.2057 -0.2178
  531MPD2    C5 7884   0.951   4.210  11.957 -0.1808 -0.7554 -0.4916
  531MPD2     H 7885   0.635   4.384  12.080 -0.0758 -0.3718 -0.5223
  531MPD2    H1 7886   0.821   4.134  11.812 -0.1775 -0.1899 -0.1631
  531MPD2    H2 7887   1.057   4.299  12.111  0.6316 -1.2992 -0.2196
  531MPD2    H3 7888   1.045   4.171  11.920 -0.7610 -2.3837 -0.2469
  531MPD2     N 7889   0.595   4.240  11.900  0.3682 -0.0429  0.1224
  531MPD2    H5 7890   0.527   4.302  11.943  1.0095  0.2371  0.7310
  531MPD2    N1 7891   0.867   4.440  12.228  0.0407  0.1956 -0.7673
  531MPD2    H7 7892   0.961   4.449  12.266 -0.1052  1.7278 -0.7649
  532TMC3    C1 7893   0.796   4.634  12.354  0.2077  0.6332 -0.1344
  532TMC3    C2 7894   0.721   0.030  12.330  0.3560 -0.3430  0.0725
  532TMC3    C3 7895   0.649   0.084  12.432 -0.3508  0.1887  0.5029
  532TMC3    C4 7896   0.820   4.587  12.479  0.3607 -0.3006 -0.3855
  532TMC3    C5 7897   0.753   4.645  12.576  0.5681  0.5736  0.3626
  532TMC3    C6 7898   0.662   0.025  12.557  0.4222  0.3585  0.1121
  532TMC3     C 7899   0.764   4.528  12.259 -0.1408  0.5199  0.1343
  532TMC3     O 7900   0.641   4.526  12.240 -0.1582  0.3321  0.3011
  532TMC3     H 7901   0.715   0.071  12.230  0.5017  0.3843  0.3635
  532TMC3    H1 7902   0.852   4.486  12.499 -1.5481 -0.4456  1.8659
  532TMC3    H2 7903   0.593   0.055  12.635 -0.6620  0.5956 -0.9434
  532TMC3    C7 7904   0.753   4.591  12.711  0.2202 -1.1046 -0.3344
  532TMC3    C8 7905   0.512   0.104  12.388  0.0324  0.1241  0.8279
  532TMC3    O1 7906   0.661   4.628  12.782 -0.4562 -0.0051 -0.1570
  532TMC3    O2 7907   0.435   0.168  12.458  0.1342  0.3614  0.1474
  533TMC3    C1 7908   1.428   1.520  13.983 -0.0154  0.4239 -0.2215
  533TMC3    C2 7909   1.562   1.533  14.015 -0.5380 -0.9786 -0.1079
  533TMC3    C3 7910   1.616   1.660  14.012  0.0270  0.3229  0.2735
  533TMC3    C4 7911   1.347   1.635  13.957 -0.1117 -0.7213 -0.5330
  533TMC3    C5 7912   1.406   1.761  13.955  0.0320  0.4775 -0.0488
  533TMC3    C6 7913   1.541   1.772  13.981 -0.1006  0.2889  0.0982
  533TMC3     C 7914   1.360   1.401  14.037  0.4175  0.8270  0.1582
  533TMC3     O 7915   1.425   1.346  14.125  0.0408  0.3179 -0.0448
  533TMC3     H 7916   1.624   1.445  14.028 -1.2217 -1.8230 -2.4147
  533TMC3    H1 7917   1.242   1.626  13.934  0.3084 -1.3038 -2.1956
  533TMC3    H2 7918   1.573   1.872  14.008  0.8951 -0.2908  1.0510
  533TMC3    C7 7919   1.324   1.848  14.037  0.8875  0.2759 -0.7016
  533TMC3    C8 7920   1.761   1.674  14.021 -0.8630  0.1867 -0.0394
  533TMC3    O1 7921   1.317   1.967  14.012  0.5036  0.5791 -0.2807
  533TMC3    O2 7922   1.834   1.594  14.081 -0.3371 -0.4606 -0.3706
  534MPD2     C 7923   4.243   1.696   1.154 -0.5831 -0.1574 -0.1423
  534MPD2    C1 7924   4.174   1.811   1.192 -0.0256  0.9787  0.6860
  534MPD2    C2 7925   4.056   1.835   1.117 -0.0853  0.7428  0.2038
  534MPD2    C3 7926   4.019   1.758   1.008  0.3218  0.1557  0.0654
  534MPD2    C4 7927   4.081   1.638   0.991  0.6822 -0.1116  0.0883
  534MPD2    C5 7928   4.193   1.608   1.061  0.2167 -0.7624 -0.8981
  534MPD2     H 7929   4.000   1.921   1.150 -0.2795  0.1169  1.5230
  534MPD2    H1 7930   4.030   1.562   0.932  1.8387  0.0473 -1.1232
  534MPD2    H2 7931   4.334   1.666   1.205 -0.3473  0.1671 -0.3775
  534MPD2    H3 7932   4.232   1.509   1.041 -1.7936 -1.2149 -2.5656
  534MPD2     N 7933   3.917   1.791   0.917 -0.1018 -0.3686  0.3411
  534MPD2    H5 7934   3.906   1.733   0.835  0.1781  1.4458 -0.9599
  534MPD2    N1 7935   4.197   1.903   1.295  0.3341 -0.3456  0.1698
  534MPD2    H7 7936   4.127   1.975   1.310 -1.2112 -1.7094 -0.4086
  535TMC3    C1 7937   3.754   1.913   0.814 -0.3026 -0.1793  0.2712
  535TMC3    C2 7938   3.620   1.931   0.835 -0.0895  0.1638  0.8416
  535TMC3    C3 7939   3.539   1.959   0.730 -0.4572  0.2963  0.3373
  535TMC3    C4 7940   3.807   1.922   0.687 -0.0250 -0.0338  0.0663
  535TMC3    C5 7941   3.721   1.956   0.589 -0.2577 -0.4343 -0.5719
  535TMC3    C6 7942   3.586   1.992   0.603  0.0541 -0.2911 -0.5082
  535TMC3     C 7943   3.827   1.895   0.931  0.1694 -0.1977 -0.6218
  535TMC3     O 7944   3.809   1.978   1.017 -0.9539  0.3557  0.2447
  535TMC3     H 7945   3.588   1.912   0.936 -0.9756  3.1732  1.1332
  535TMC3    H1 7946   3.912   1.908   0.664  0.1120 -1.2953  1.4540
  535TMC3    H2 7947   3.523   2.004   0.515  0.5679 -1.1325 -0.9906
  535TMC3    C7 7948   3.778   1.981   0.464 -0.0121  0.2448  0.5136
  535TMC3    C8 7949   3.401   1.911   0.722  0.2083  0.3083  0.2757
  535TMC3    O1 7950   3.880   1.918   0.436  0.3468 -0.7975 -0.1508
  535TMC3    O2 7951   3.349   1.890   0.615 -0.2273 -0.2327 -0.2815
  536MPD2     C 7952   2.594   1.088  15.821 -0.3178  0.5208 -0.6870
  536MPD2    C1 7953   2.467   1.034  15.837  0.3051  0.4078 -0.3374
  536MPD2    C2 7954   2.369   1.073  15.755  0.5465 -0.8138 -0.8275
  536MPD2    C3 7955   2.390   1.179  15.663 -0.3132 -0.3544 -0.0694
  536MPD2    C4 7956   2.509   1.244  15.652  0.2020  0.0407  0.6112
  536MPD2    C5 7957   2.617   1.195  15.726  0.1753 -0.1958  0.4454
  536MPD2     H 7958   2.270   1.030  15.761  0.5333 -0.5859  0.5979
  536MPD2    H1 7959   2.521   1.330  15.587  1.6789 -0.5710  0.0596
  536MPD2    H2 7960   2.667   1.078  15.900 -1.7223 -0.3786  0.5006
  536MPD2    H3 7961   2.712   1.246  15.714  0.1148 -0.4736 -1.2498
  536MPD2     N 7962   2.289   1.213  15.564  0.5545 -0.2046 -0.2026
  536MPD2    H5 7963   2.315   1.292  15.507  1.2847 -1.1553 -1.1999
  536MPD2    N1 7964   2.460   0.930  15.928 -0.0351  0.1768 -0.5686
  536MPD2    H7 7965   2.551   0.897  15.960  0.8495  0.3922 -2.8466
  537TMC3    C1 7966   2.376   0.730  16.026 -0.1127  0.0620  0.0062
  537TMC3    C2 7967   2.503   0.709  16.076 -0.4176 -0.1611 -0.0322
  537TMC3    C3 7968   2.531   0.583  16.125  0.7417  0.7571 -0.3647
  537TMC3    C4 7969   2.280   0.635  16.036  0.1075  0.3073 -0.0095
  537TMC3    C5 7970   2.308   0.519  16.099 -0.0206 -0.2454  0.5422
  537TMC3    C6 7971   2.434   0.489  16.150  0.5344  0.8396  0.6474
  537TMC3     C 7972   2.348   0.858  15.956 -0.4416  0.6261 -0.8608
  537TMC3     O 7973   2.230   0.880  15.932 -0.0996 -0.2083  0.2077
  537TMC3     H 7974   2.574   0.790  16.089  1.2675 -1.0357 -4.0148
  537TMC3    H1 7975   2.187   0.658  15.985 -0.7950  0.2191  1.5895
  537TMC3    H2 7976   2.464   0.397  16.198  0.7469 -0.1613 -1.3717
  537TMC3    C7 7977   2.189   0.439  16.130  1.7368 -0.7878  0.1659
  537TMC3    C8 7978   2.664   0.566  16.185  0.6795  0.2014 -0.4358
  537TMC3    O1 7979   2.084   0.454  16.061 -0.1844 -0.0225  0.2341
  537TMC3    O2 7980   2.665   0.500  16.284 -0.4747  0.7734  0.2428
  538TMC3    C1 7981   4.210   3.762  10.210  0.2806  0.3969 -0.5724
  538TMC3    C2 7982   4.196   3.733  10.072  0.4460  0.5097 -0.1259
  538TMC3    C3 7983   4.077   3.764  10.015  0.2241 -0.0138  0.1120
  538TMC3    C4 7984   4.112   3.826  10.282 -0.2363  0.0384  0.3882
  538TMC3    C5 7985   4.005   3.868  10.218 -0.3873 -0.4399 -0.7038
  538TMC3    C6 7986   3.986   3.842  10.085  0.0651 -0.1543 -0.0704
  538TMC3     C 7987   4.338   3.730  10.259  0.0144 -0.3234 -0.7373
  538TMC3     O 7988   4.406   3.651  10.199 -0.1151 -0.7331  0.7367
  538TMC3     H 7989   4.275   3.691  10.012 -1.1366 -2.3716 -0.1839
  538TMC3    H1 7990   4.132   3.838  10.388  0.2097 -3.5327  0.7234
  538TMC3    H2 7991   3.889   3.872  10.046  0.6257  0.5269 -0.9679
  538TMC3    C7 7992   3.897   3.927  10.293  0.3927  0.4170 -0.1699
  538TMC3    C8 7993   4.088   3.773   9.868  0.1156  0.2826  0.3321
  538TMC3    O1 7994   3.796   3.921  10.233 -0.0550 -0.2984 -0.2185
  538TMC3    O2 7995   4.143   3.682   9.812  0.4172  0.2646 -0.0389
  539MPD2     C 7996   3.481   3.003  11.409  0.0711 -0.1406  0.7820
  539MPD2    C1 7997   3.532   3.024  11.281  0.2684 -0.1778  0.8164
  539MPD2    C2 7998   3.583   3.150  11.259  0.3220  0.0318 -0.1601
  539MPD2    C3 7999   3.560   3.252  11.351 -0.1410  0.1158 -0.0058
  539MPD2    C4 8000   3.511   3.224  11.479 -0.0137 -0.0724  0.1735
  539MPD2    C5 8001   3.466   3.096  11.502  0.3453 -0.2044  0.8005
  539MPD2     H 8002   3.609   3.167  11.155  0.4424  0.7991 -0.0000
  539MPD2    H1 8003   3.497   3.303  11.553 -2.6173 -1.1764  0.8537
  539MPD2    H2 8004   3.433   2.909  11.434  0.4289 -1.0737 -1.9524
  539MPD2    H3 8005   3.423   3.068  11.597  0.8529  1.0222  1.3904
  539MPD2     N 8006   3.592   3.385  11.311  0.4095 -0.2199 -0.2739
  539MPD2    H5 8007   3.571   3.457  11.379  1.9910 -1.8190  1.8905
  539MPD2    N1 8008   3.540   2.924  11.180 -0.0242 -0.5740  0.3112
  539MPD2    H7 8009   3.579   2.954  11.091 -0.8797 -2.2983 -0.6474
  540TMC3    C1 8010   3.641   3.566  11.165 -0.1745 -0.5162 -0.5648
  540TMC3    C2 8011   3.643   3.593  11.030 -0.0536 -0.3292  0.1998
  540TMC3    C3 8012   3.535   3.657  10.976 -0.3967  0.8887  0.1797
  540TMC3    C4 8013   3.555   3.632  11.240 -0.2723 -0.4063 -0.3680
  540TMC3    C5 8014   3.461   3.711  11.182  0.5171 -0.0019  0.2520
  540TMC3    C6 8015   3.434   3.712  11.049 -0.4698 -0.4438 -1.4002
  540TMC3     C 8016   3.658   3.423  11.193  0.2749  0.3645  0.3251
  540TMC3     O 8017   3.716   3.359  11.108 -0.1144 -0.6562 -0.3716
  540TMC3     H 8018   3.718   3.549  10.965 -0.8391 -0.5597 -0.5504
  540TMC3    H1 8019   3.555   3.625  11.348  0.1907 -0.4101 -0.3680
  540TMC3    H2 8020   3.355   3.763  10.995 -1.7783 -2.4876 -1.4216
  540TMC3    C7 8021   3.359   3.766  11.267 -0.2439 -0.4279  0.2753
  540TMC3    C8 8022   3.543   3.663  10.830  0.1867  0.1631  1.0540
  540TMC3    O1 8023   3.245   3.775  11.228  0.3488  0.1120  0.0656
  540TMC3    O2 8024   3.652   3.680  10.777  0.4146  0.1724 -0.4867
  541MPD2     C 8025   1.625   0.328  12.634 -0.7054 -0.6300  0.1057
  541MPD2    C1 8026   1.639   0.216  12.553  0.0321  0.1855  1.0743
  541MPD2    C2 8027   1.579   0.212  12.427 -0.1752  0.0586  0.2443
  541MPD2    C3 8028   1.493   0.313  12.393 -0.2621 -0.0217  0.2952
  541MPD2    C4 8029   1.494   0.432  12.466 -0.0343  0.8338 -0.0999
  541MPD2    C5 8030   1.556   0.436  12.584  1.0445  0.1317  0.5057
  541MPD2     H 8031   1.603   0.132  12.358  1.2521  0.2934  0.4799
  541MPD2    H1 8032   1.453   0.523  12.423 -1.6652  0.3127  0.3237
  541MPD2    H2 8033   1.682   0.344  12.725  0.5956 -0.5595 -0.7288
  541MPD2    H3 8034   1.547   0.528  12.642  1.1046 -0.6092  1.6901
  541MPD2     N 8035   1.434   0.295  12.266 -0.6477 -0.2183  0.3733
  541MPD2    H5 8036   1.451   0.208  12.217 -0.2686 -0.4485  0.9059
  541MPD2    N1 8037   1.726   0.120  12.604 -0.1652  0.2569  0.6818
  541MPD2    H7 8038   1.781   0.141  12.687  1.5726  0.3568 -0.5120
  542TMC3    C1 8039   1.302   0.323  12.079  0.1719  1.1884  0.4403
  542TMC3    C2 8040   1.373   0.230  12.012  0.4421 -0.4927 -0.2920
  542TMC3    C3 8041   1.320   0.168  11.900 -0.2596 -0.0184  0.3218
  542TMC3    C4 8042   1.178   0.356  12.037 -0.1941  0.1701 -0.0721
  542TMC3    C5 8043   1.120   0.290  11.926  0.1566  0.1765 -1.0122
  542TMC3    C6 8044   1.191   0.193  11.861  0.3254 -0.2990 -0.1817
  542TMC3     C 8045   1.349   0.375  12.205 -0.3638 -0.0233 -0.1473
  542TMC3     O 8046   1.295   0.471  12.257 -0.3765 -0.3789 -0.2035
  542TMC3     H 8047   1.480   0.232  12.028  0.0918  1.3146  1.8765
  542TMC3    H1 8048   1.123   0.432  12.090 -3.7687 -1.7242 -1.0170
  542TMC3    H2 8049   1.155   0.144  11.771 -1.3280 -0.5771  0.6264
  542TMC3    C7 8050   1.001   0.350  11.872 -0.5605  0.5119  0.3190
  542TMC3    C8 8051   1.406   0.105  11.799  0.4291 -0.6820 -0.0190
  542TMC3    O1 8052   0.966   0.456  11.923  0.0066  0.3183 -0.0481
  542TMC3    O2 8053   1.361   0.100  11.685 -0.6453  0.4071  0.1405
  543TMC3    C1 8054   1.035   1.229  17.016 -0.2804 -0.2009  1.0490
  543TMC3    C2 8055   1.145   1.154  17.050  0.3290  0.7522 -0.3231
  543TMC3    C3 8056   1.156   1.118  17.182  0.2193  0.4618 -0.0002
  543TMC3    C4 8057   0.946   1.285  17.108 -0.3017  0.3586 -0.0153
  543TMC3    C5 8058   0.976   1.251  17.236  0.7473  0.1401 -0.2867
  543TMC3    C6 8059   1.076   1.169  17.278  0.3028 -0.6671 -0.3632
  543TMC3     C 8060   1.036   1.258  16.870 -0.7838 -0.0125 -0.1547
  543TMC3     O 8061   1.124   1.197  16.809  0.4050 -0.1371  1.1503
  543TMC3     H 8062   1.211   1.116  16.973 -0.4775  0.1269 -0.7096
  543TMC3    H1 8063   0.858   1.343  17.082 -0.8156 -1.2761 -1.9819
  543TMC3    H2 8064   1.083   1.135  17.381  1.7734 -1.2455 -0.6514
  543TMC3    C7 8065   0.880   1.292  17.328  0.0550 -0.6287 -0.9082
  543TMC3    C8 8066   1.266   1.021  17.211 -0.4986  0.5900  0.1575
  543TMC3    O1 8067   0.766   1.297  17.292 -0.1397 -0.4119 -0.1487
  543TMC3    O2 8068   1.372   1.034  17.149 -0.0431  0.4676  0.0007
  544MPD2     C 8069   1.391   0.539  17.337  0.1244  0.5184  0.8263
  544MPD2    C1 8070   1.454   0.625  17.256  0.7106 -0.0380 -0.1505
  544MPD2    C2 8071   1.409   0.762  17.251 -0.2230  1.0494 -0.1132
  544MPD2    C3 8072   1.301   0.802  17.329 -0.2055  0.2015 -0.4592
  544MPD2    C4 8073   1.249   0.714  17.420  0.1268 -0.3848 -0.3378
  544MPD2    C5 8074   1.297   0.590  17.429  0.1074  0.1207 -0.5687
  544MPD2     H 8075   1.460   0.837  17.191  0.1833 -0.4456 -1.6187
  544MPD2    H1 8076   1.171   0.746  17.488  0.2397  2.1045 -1.3732
  544MPD2    H2 8077   1.409   0.432  17.336 -0.7901  0.3646  0.4115
  544MPD2    H3 8078   1.250   0.534  17.508 -0.0099 -1.1835 -1.5551
  544MPD2     N 8079   1.235   0.923  17.303  0.1525  0.3359  0.7311
  544MPD2    H5 8080   1.148   0.936  17.353  0.4664  1.8402  0.8704
  544MPD2    N1 8081   1.549   0.569  17.165 -0.0533 -0.5003 -0.7105
  544MPD2    H7 8082   1.567   0.470  17.180  1.4641 -0.0003  0.7737
  545TMC3    C1 8083   1.724   0.551  17.009  0.2126  0.2098  0.1670
  545TMC3    C2 8084   1.825   0.617  16.937 -0.1861 -0.6489  0.8236
  545TMC3    C3 8085   1.902   0.541  16.852 -0.1250 -0.1142 -0.0689
  545TMC3    C4 8086   1.713   0.414  17.000  0.4345 -0.3790 -0.8979
  545TMC3    C5 8087   1.789   0.344  16.914 -0.2471 -0.2679  0.1019
  545TMC3    C6 8088   1.885   0.404  16.842  0.0256 -0.9677  0.4472
  545TMC3     C 8089   1.634   0.637  17.084  0.3692 -0.3791  0.2362
  545TMC3     O 8090   1.628   0.756  17.070  0.2624 -0.6222  0.0917
  545TMC3     H 8091   1.818   0.725  16.943 -2.9245 -0.7958  0.3486
  545TMC3    H1 8092   1.636   0.364  17.057 -0.3295 -0.4395 -1.9858
  545TMC3    H2 8093   1.943   0.344  16.773 -1.2300  0.6791 -2.0524
  545TMC3    C7 8094   1.779   0.201  16.907  0.1006  0.6145  0.3578
  545TMC3    C8 8095   1.955   0.613  16.742  0.0646  0.7186  0.2860
  545TMC3    O1 8096   1.817   0.140  16.808  0.4623 -0.2897  0.1166
  545TMC3    O2 8097   1.882   0.705  16.708  0.7081 -0.0350 -0.2609
  546MPD2     C 8098   2.906   1.019  16.614 -0.4721 -0.4183 -0.0240
  546MPD2    C1 8099   2.806   1.113  16.628 -0.5826 -0.1504 -0.4888
  546MPD2    C2 8100   2.831   1.250  16.636 -0.7514 -0.4065 -0.1576
  546MPD2    C3 8101   2.963   1.283  16.628 -0.0666  0.5701  1.0104
  546MPD2    C4 8102   3.059   1.191  16.606  0.3381  0.0387 -0.1776
  546MPD2    C5 8103   3.038   1.055  16.610 -0.7136  0.2885  0.2571
  546MPD2     H 8104   2.756   1.325  16.656 -1.8138 -1.4962 -0.0904
  546MPD2    H1 8105   3.159   1.232  16.613  0.7902 -0.8645 -1.3182
  546MPD2    H2 8106   2.881   0.914  16.616 -0.7964 -0.3526 -1.0568
  546MPD2    H3 8107   3.121   0.987  16.626 -0.0008  0.3514 -3.1005
  546MPD2     N 8108   3.006   1.421  16.639 -0.5519  0.3367 -0.1019
  546MPD2    H5 8109   3.105   1.445  16.632 -0.6217  0.3784 -0.9527
  546MPD2    N1 8110   2.675   1.066  16.645 -0.1821  0.1780  0.2517
  546MPD2    H7 8111   2.665   0.966  16.658 -1.2662  0.2220 -0.3012
  547TMC3    C1 8112   2.445   1.067  16.646  0.1901  0.5202 -0.1622
  547TMC3    C2 8113   2.331   1.125  16.599 -0.3193  0.6010 -0.0797
  547TMC3    C3 8114   2.214   1.060  16.635  0.7613  0.2907 -0.8399
  547TMC3    C4 8115   2.448   0.953  16.726 -1.0093 -0.0626 -0.1472
  547TMC3    C5 8116   2.323   0.899  16.757 -0.0983 -0.3971 -0.3498
  547TMC3    C6 8117   2.207   0.950  16.715 -0.3647  0.7235  0.0829
  547TMC3     C 8118   2.568   1.139  16.630  0.4934 -0.4239  0.9991
  547TMC3     O 8119   2.554   1.248  16.572 -0.2643 -0.1483  0.0884
  547TMC3     H 8120   2.326   1.214  16.537 -0.5217  0.1055 -0.7730
  547TMC3    H1 8121   2.533   0.913  16.780 -1.0400  3.4699  2.5141
  547TMC3    H2 8122   2.111   0.901  16.724  1.0471 -2.1303 -0.5629
  547TMC3    C7 8123   2.316   0.812  16.871  0.1279  0.1761  0.3609
  547TMC3    C8 8124   2.078   1.105  16.589  0.3917  0.6129 -0.1617
  547TMC3    O1 8125   2.227   0.821  16.947  0.7700  0.2506 -0.3002
  547TMC3    O2 8126   2.012   1.020  16.531  0.2452  0.9109 -0.0007
  548MPD2     C 8127   2.398   1.728  12.187  0.0466 -0.5025  0.5271
  548MPD2    C1 8128   2.312   1.648  12.116  0.0838 -0.0845 -0.3173
  548MPD2    C2 8129   2.356   1.526  12.065 -0.6786  0.2919  0.3609
  548MPD2    C3 8130   2.491   1.489  12.082  0.0363 -0.3516 -0.2866
  548MPD2    C4 8131   2.576   1.573  12.146  0.1152 -0.1032 -0.4733
  548MPD2    C5 8132   2.530   1.690  12.202 -0.3235  0.1774  0.0794
  548MPD2     H 8133   2.291   1.463  12.006 -0.8185  0.8172 -0.0351
  548MPD2    H1 8134   2.680   1.548  12.164  0.1062  0.1008 -0.1350
  548MPD2    H2 8135   2.367   1.824  12.227  1.7305 -0.6130  2.0677
  548MPD2    H3 8136   2.602   1.754  12.252 -1.4715  0.9319  0.7672
  548MPD2     N 8137   2.539   1.370  12.034 -0.2802  0.2209 -0.3765
  548MPD2    H5 8138   2.640   1.370  12.043 -0.1271 -0.1418 -2.2225
  548MPD2    N1 8139   2.175   1.688  12.102  0.0690  0.3117  0.1592
  548MPD2    H7 8140   2.150   1.785  12.120 -2.3640 -0.0243 -1.3471
  549TMC3    C1 8141   1.937   1.668  12.096  0.0564 -0.5240  0.7455
  549TMC3    C2 8142   1.911   1.803  12.062  0.0818 -0.0065 -0.0522
  549TMC3    C3 8143   1.778   1.830  12.027  0.5539  1.3513  0.3052
  549TMC3    C4 8144   1.834   1.582  12.099 -0.3270  0.2582 -0.1426
  549TMC3    C5 8145   1.706   1.616  12.075 -0.3466  0.1514 -0.0407
  549TMC3    C6 8146   1.675   1.746  12.024  0.0185 -0.2429 -0.4966
  549TMC3     C 8147   2.065   1.602  12.080 -0.2891  0.4549  0.5573
  549TMC3     O 8148   2.059   1.480  12.062 -0.6131 -0.0502  0.0346
  549TMC3     H 8149   1.997   1.869  12.059  0.1488 -0.1306 -0.9662
  549TMC3    H1 8150   1.866   1.487  12.139  1.6752  1.3005  0.6960
  549TMC3    H2 8151   1.576   1.776  11.991  0.0021 -0.8203 -0.9760
  549TMC3    C7 8152   1.602   1.516  12.089 -0.1682 -0.0216 -0.2842
  549TMC3    C8 8153   1.740   1.970  12.011 -0.2932 -0.2178  0.1178
  549TMC3    O1 8154   1.491   1.551  12.058  0.1752  0.2042  0.2328
  549TMC3    O2 8155   1.646   1.996  11.938  0.4711  1.0188  0.2002
  550TMC3    C1 8156   0.524   0.035  11.781  0.5630  0.2091 -0.2020
  550TMC3    C2 8157   0.548   0.117  11.891  0.6713 -0.3280  0.5586
  550TMC3    C3 8158   0.450   0.215  11.922 -0.5610 -0.2544  0.1426
  550TMC3    C4 8159   0.410   0.044  11.706 -0.4750  0.5378 -0.3705
  550TMC3    C5 8160   0.315   0.140  11.741 -0.2769 -0.1000  0.1591
  550TMC3    C6 8161   0.337   0.226  11.844  0.8069 -0.3360 -0.2788
  550TMC3     C 8162   0.616   4.651  11.755 -0.1808 -0.3670  0.6264
  550TMC3     O 8163   0.702   4.618  11.840  0.5578 -0.0063  0.4746
  550TMC3     H 8164   0.638   0.101  11.950  1.9154  0.4850 -1.1082
  550TMC3    H1 8165   0.395   4.701  11.620 -0.9421 -1.5765  1.2763
  550TMC3    H2 8166   0.269   0.308  11.863 -0.1784 -1.2706  0.2281
  550TMC3    C7 8167   0.220   0.168  11.641 -0.0987  0.5028  0.2807
  550TMC3    C8 8168   0.490   0.318  12.017 -0.0897 -0.0284  0.8119
  550TMC3    O1 8169   0.186   0.068  11.582  0.5457 -0.0591 -0.3098
  550TMC3    O2 8170   0.412   0.413  12.026 -0.4893  0.4056  0.0461
  551TMC3    C1 8171   3.709   2.314  12.939 -0.1614 -0.3989  0.2068
  551TMC3    C2 8172   3.835   2.371  12.931  0.7055 -0.1522  0.3269
  551TMC3    C3 8173   3.855   2.487  12.999 -0.1143  0.6665 -0.0447
  551TMC3    C4 8174   3.603   2.380  12.999  0.1965  1.0853 -0.0370
  551TMC3    C5 8175   3.635   2.496  13.058  0.3783  0.1599 -0.3035
  551TMC3    C6 8176   3.753   2.559  13.051  0.5071  0.1862 -0.7153
  551TMC3     C 8177   3.686   2.200  12.849 -0.4852 -0.8482  0.7253
  551TMC3     O 8178   3.769   2.178  12.761  0.0585 -0.0840 -0.3675
  551TMC3     H 8179   3.916   2.337  12.868 -0.0840  0.7709 -1.1872
  551TMC3    H1 8180   3.500   2.347  12.995  0.5101 -0.2432  2.4372
  551TMC3    H2 8181   3.781   2.642  13.114  1.1994 -0.5385 -0.0563
  551TMC3    C7 8182   3.540   2.545  13.155 -0.1706  0.7571  0.3738
  551TMC3    C8 8183   3.974   2.553  12.955 -0.0404 -0.4081 -1.0252
  551TMC3    O1 8184   3.461   2.463  13.201 -0.2833 -0.0535  0.3320
  551TMC3    O2 8185   4.070   2.484  12.925  0.3210 -0.0023  0.3002
  552MPD2     C 8186   0.267   4.506  13.236 -0.4287  0.1036 -0.2262
  552MPD2    C1 8187   0.268   4.377  13.289 -0.1396  0.3282 -0.2364
  552MPD2    C2 8188   0.261   4.365  13.423  0.1716 -0.2874 -0.7397
  552MPD2    C3 8189   0.267   4.476  13.505 -0.0930 -0.1135 -0.0348
  552MPD2    C4 8190   0.260   4.600  13.454 -0.6106 -0.1924 -0.5727
  552MPD2    C5 8191   0.262   4.620  13.318 -0.2365 -0.0937  0.9234
  552MPD2     H 8192   0.283   4.267  13.463  1.7499  0.0515 -0.7606
  552MPD2    H1 8193   0.272   4.689  13.515 -0.0046 -0.7361  0.1030
  552MPD2    H2 8194   0.273   4.522  13.129 -0.0288  2.8293  0.1867
  552MPD2    H3 8195   0.255   4.720  13.278 -2.1739 -0.4933  0.2747
  552MPD2     N 8196   0.297   4.462  13.643  0.3984  0.2085  0.6423
  552MPD2    H5 8197   0.304   4.544  13.702 -1.4667  0.2250  0.8555
  552MPD2    N1 8198   0.288   4.260  13.213  0.9711 -0.2207  0.8352
  552MPD2    H7 8199   0.298   4.175  13.268  3.6631 -0.5383 -0.1451
  553TMC3    C1 8200   0.464   4.151  13.094 -0.2130 -0.3709  0.2442
  553TMC3    C2 8201   0.551   4.144  12.986  0.1144  0.3221 -0.0743
  553TMC3    C3 8202   0.680   4.098  13.010  0.9361 -0.8456 -0.2970
  553TMC3    C4 8203   0.516   4.122  13.220  0.4522 -0.4501  0.5010
  553TMC3    C5 8204   0.645   4.080  13.246 -0.9905  0.2690 -0.5028
  553TMC3    C6 8205   0.731   4.065  13.141  0.4619  0.2394  0.0337
  553TMC3     C 8206   0.352   4.254  13.088 -0.2905  0.2720 -0.1611
  553TMC3     O 8207   0.361   4.345  13.008  0.7195 -0.1306 -0.2721
  553TMC3     H 8208   0.519   4.184  12.890  0.2708 -1.2402 -0.7643
  553TMC3    H1 8209   0.452   4.136  13.307  1.7412  0.4379  1.3077
  553TMC3    H2 8210   0.834   4.032  13.148 -0.2011 -1.7985  0.0135
  553TMC3    C7 8211   0.680   4.054  13.383  0.3717  0.0640  0.5662
  553TMC3    C8 8212   0.749   4.048  12.900 -0.2690  0.0202 -0.5651
  553TMC3    O1 8213   0.595   4.026  13.468  0.4395  0.3968 -0.2487
  553TMC3    O2 8214   0.842   3.972  12.932 -0.1798  0.6507  0.5224
  554TMC3    C1 8215   2.438   3.093  11.143 -0.3880  0.1770  0.0177
  554TMC3    C2 8216   2.394   3.086  11.009 -0.7080  0.4189  0.1822
  554TMC3    C3 8217   2.434   3.182  10.922 -0.6391  0.3185 -0.3334
  554TMC3    C4 8218   2.519   3.194  11.183  0.4945 -0.0109  0.8176
  554TMC3    C5 8219   2.559   3.288  11.093 -0.1497 -0.2179 -0.3394
  554TMC3    C6 8220   2.517   3.282  10.966 -0.6218  0.6956  0.4371
  554TMC3     C 8221   2.446   2.968  11.215  0.0744 -0.8883 -0.2885
  554TMC3     O 8222   2.389   2.873  11.167  0.0322  0.0403 -0.1589
  554TMC3     H 8223   2.343   3.002  10.964 -0.2141 -0.6618  1.6255
  554TMC3    H1 8224   2.553   3.207  11.285  1.1043 -1.1194  0.7495
  554TMC3    H2 8225   2.562   3.356  10.900 -0.7728 -2.4263 -3.1761
  554TMC3    C7 8226   2.654   3.387  11.138  0.2402  0.0459  0.2784
  554TMC3    C8 8227   2.414   3.161  10.781 -0.1223 -0.0978 -0.6024
  554TMC3    O1 8228   2.690   3.378  11.254 -0.3319 -0.2288 -0.3098
  554TMC3    O2 8229   2.503   3.211  10.708 -0.0978  0.8096 -0.0588
  555TMC3    C1 8230   1.614   2.989  14.682  0.1102  0.2285  0.3316
  555TMC3    C2 8231   1.734   2.980  14.745 -0.7838  0.4110 -0.0958
  555TMC3    C3 8232   1.765   2.865  14.812  0.2862 -0.0022  0.0797
  555TMC3    C4 8233   1.522   2.888  14.694  0.4169 -0.5884  0.1556
  555TMC3    C5 8234   1.560   2.775  14.764 -0.9373  0.1057 -0.2380
  555TMC3    C6 8235   1.677   2.759  14.822 -0.8447 -0.3214 -0.1546
  555TMC3     C 8236   1.588   3.094  14.585  0.2103 -0.1782 -0.4873
  555TMC3     O 8237   1.648   3.200  14.596  0.3252  0.3165 -0.4574
  555TMC3     H 8238   1.803   3.063  14.738 -1.1908  0.9279  2.2228
  555TMC3    H1 8239   1.428   2.884  14.640  1.1033  1.9316 -1.2287
  555TMC3    H2 8240   1.705   2.655  14.834 -0.4090 -0.0317  1.2788
  555TMC3    C7 8241   1.493   2.645  14.726 -0.0450 -0.0339 -0.2337
  555TMC3    C8 8242   1.908   2.848  14.818  0.1639  0.0076  0.2179
  555TMC3    O1 8243   1.374   2.627  14.756 -0.8227  0.1871 -0.1031
  555TMC3    O2 8244   1.976   2.915  14.741 -0.2745 -0.0510 -0.8502
  556MPD2     C 8245   3.324   0.077   9.936  0.6809 -0.2874 -0.8596
  556MPD2    C1 8246   3.449   0.035   9.976 -0.2788 -0.2785 -0.7028
  556MPD2    C2 8247   3.548   0.005   9.882  0.5742 -0.4809 -0.0166
  556MPD2    C3 8248   3.513   0.019   9.739 -0.4018  0.1588  0.1917
  556MPD2    C4 8249   3.392   0.067   9.705 -0.1798 -0.3682 -0.9321
  556MPD2    C5 8250   3.303   0.099   9.801  0.2306 -0.4249 -0.1720
  556MPD2     H 8251   3.647   4.694   9.913  1.6124  1.1552 -1.5678
  556MPD2    H1 8252   3.350   0.073   9.605 -3.5487 -2.3167  0.3761
  556MPD2    H2 8253   3.248   0.105  10.007  1.9896  2.3465 -0.5028
  556MPD2    H3 8254   3.200   0.123   9.777 -0.1793 -0.4487  1.5820
  556MPD2     N 8255   3.598   4.685   9.638 -0.8373 -0.3301  0.4902
  556MPD2    H5 8256   3.679   4.633   9.669 -0.5329  0.2455  0.6572
  556MPD2    N1 8257   3.470   0.027  10.120  0.5514 -0.9270  0.0356
  556MPD2    H7 8258   3.385   0.046  10.172  0.2474  3.0234 -1.8995
  557TMC3    C1 8259   3.674   4.600   9.441 -0.1534  0.2676  0.7632
  557TMC3    C2 8260   3.669   4.593   9.300  0.3907 -0.4878  0.1134
  557TMC3    C3 8261   3.744   4.494   9.238  0.3509  0.2634 -0.0442
  557TMC3    C4 8262   3.737   4.504   9.518  0.6316 -0.1613 -0.1057
  557TMC3    C5 8263   3.803   4.403   9.448 -0.3940  0.1745 -1.1322
  557TMC3    C6 8264   3.811   4.400   9.312  0.4702 -0.3727 -0.9182
  557TMC3     C 8265   3.582   4.694   9.507  0.5419  0.6714  0.2666
  557TMC3     O 8266   3.501   0.034   9.440 -0.2572 -0.7986 -0.7721
  557TMC3     H 8267   3.614   4.667   9.243 -1.0370 -1.2944  0.4192
  557TMC3    H1 8268   3.725   4.488   9.624 -1.4448  0.3420 -0.2560
  557TMC3    H2 8269   3.885   4.341   9.259  1.3529  1.1824 -1.3997
  557TMC3    C7 8270   3.870   4.296   9.524  0.0540 -0.3111  0.3059
  557TMC3    C8 8271   3.722   4.480   9.094  0.7161 -0.2631 -0.0515
  557TMC3    O1 8272   3.889   4.321   9.641  0.0605  0.9136 -0.4349
  557TMC3    O2 8273   3.652   4.566   9.042  0.0732 -0.0336  0.7392
  558TMC3    C1 8274   2.138   1.917   9.296  0.3417 -0.2887  0.3828
  558TMC3    C2 8275   2.091   2.045   9.320  0.0862 -0.1632  0.3940
  558TMC3    C3 8276   1.968   2.082   9.299 -0.0329  0.8964 -0.4390
  558TMC3    C4 8277   2.048   1.825   9.250 -0.5743 -0.1358 -0.0894
  558TMC3    C5 8278   1.921   1.874   9.209 -0.5387  0.5234 -0.1486
  558TMC3    C6 8279   1.882   2.001   9.235  0.3532  0.9114 -0.2837
  558TMC3     C 8280   2.247   1.850   9.360  0.0770  0.3064  0.2662
  558TMC3     O 8281   2.221   1.746   9.424 -0.2931 -0.0846 -0.5608
  558TMC3     H 8282   2.151   2.116   9.376 -1.0567  1.0801  0.0489
  558TMC3    H1 8283   2.081   1.726   9.218 -0.8995  0.1617 -1.3523
  558TMC3    H2 8284   1.780   2.038   9.228  0.6541  1.6463 -0.7323
  558TMC3    C7 8285   1.820   1.779   9.184  0.0816  0.4389  0.6328
  558TMC3    C8 8286   1.912   2.174   9.397 -0.8072 -0.5892  0.1219
  558TMC3    O1 8287   1.854   1.661   9.211 -0.1388  0.6262  0.3894
  558TMC3    O2 8288   1.818   2.247   9.372  0.4112  0.6226  0.5691
  559MPD2     C 8289   2.321   2.319  10.185  0.0245 -0.3093 -0.3043
  559MPD2    C1 8290   2.266   2.414  10.279  0.4833 -0.2778 -0.2079
  559MPD2    C2 8291   2.353   2.466  10.368  0.1897 -0.0709 -0.1177
  559MPD2    C3 8292   2.490   2.430  10.368 -0.1097  0.4000 -0.5761
  559MPD2    C4 8293   2.539   2.341  10.277 -0.7270  0.2709 -0.0188
  559MPD2    C5 8294   2.451   2.279  10.190 -0.3909  0.3308  0.6101
  559MPD2     H 8295   2.323   2.532  10.448  1.5385 -0.4199  0.6732
  559MPD2    H1 8296   2.644   2.319  10.286 -0.6082  0.3352 -1.2868
  559MPD2    H2 8297   2.269   2.279  10.099  0.0161 -1.7804  0.3851
  559MPD2    H3 8298   2.486   2.202  10.122 -1.0659  1.3590 -0.8991
  559MPD2     N 8299   2.574   2.496  10.463  0.6623  0.2596 -0.3287
  559MPD2    H5 8300   2.521   2.552  10.528 -1.6297 -2.4079  0.1257
  559MPD2    N1 8301   2.130   2.451  10.266  0.5310 -0.0778  0.2998
  559MPD2    H7 8302   2.075   2.388  10.208 -1.5184  1.7940  0.2146
  560TMC3    C1 8303   2.735   2.480  10.629  0.1480 -0.8705  0.1345
  560TMC3    C2 8304   2.645   2.392  10.692  0.7033 -0.0833  0.5190
  560TMC3    C3 8305   2.672   2.366  10.823  0.4719 -0.0336 -0.2377
  560TMC3    C4 8306   2.834   2.544  10.690 -0.5522  0.0093  0.2786
  560TMC3    C5 8307   2.849   2.510  10.823  0.3483  0.7332 -0.4057
  560TMC3    C6 8308   2.773   2.417  10.896  0.4157 -0.4590  0.3593
  560TMC3     C 8309   2.714   2.484  10.484  0.3137  0.0274 -0.0644
  560TMC3     O 8310   2.803   2.439  10.415 -0.1369 -0.3550 -0.3395
  560TMC3     H 8311   2.591   2.321  10.630  0.3507  0.6392 -0.0052
  560TMC3    H1 8312   2.901   2.608  10.634  0.1482 -0.3979  0.6469
  560TMC3    H2 8313   2.780   2.388  11.000  2.6777  1.0731  0.6597
  560TMC3    C7 8314   2.940   2.578  10.911  0.5672  1.5954  0.9964
  560TMC3    C8 8315   2.625   2.234  10.859  0.2567  0.0491 -0.0322
  560TMC3    O1 8316   2.969   2.521  11.015 -0.1813 -0.2989 -0.1365
  560TMC3    O2 8317   2.711   2.165  10.909  0.4127  0.5245  0.6280
  561TMC3    C1 8318   0.502   1.770  10.881  0.3433 -0.5378 -0.6859
  561TMC3    C2 8319   0.416   1.678  10.931  0.1016  0.1326 -0.0947
  561TMC3    C3 8320   0.297   1.731  10.980 -0.1119  0.6074  1.0615
  561TMC3    C4 8321   0.467   1.901  10.869  0.2792  0.8850  0.0626
  561TMC3    C5 8322   0.346   1.938  10.903  0.3107 -0.2374  0.3579
  561TMC3    C6 8323   0.250   1.857  10.960 -0.5392 -0.6698  0.0901
  561TMC3     C 8324   0.639   1.733  10.857 -0.1476 -0.1104  0.4564
  561TMC3     O 8325   0.661   1.619  10.820  1.0066 -0.4834  0.0086
  561TMC3     H 8326   0.443   1.573  10.941  0.4811  0.4767  2.3520
  561TMC3    H1 8327   0.533   1.980  10.834  0.1592  0.4730 -1.1091
  561TMC3    H2 8328   0.147   1.886  10.977 -0.2849  1.4480 -1.9249
  561TMC3    C7 8329   0.307   2.076  10.871 -0.3846  0.0221  0.3594
  561TMC3    C8 8330   0.204   1.648  11.052 -0.4611 -0.1124  0.3034
  561TMC3    O1 8331   0.235   2.131  10.951  0.4017  0.2615  0.1226
  561TMC3    O2 8332   0.218   1.528  11.050 -0.1412  0.4168  0.2784
  562TMC3    C1 8333   1.165   3.290  15.570 -0.1263  0.2500  0.6103
  562TMC3    C2 8334   1.057   3.371  15.542 -0.3187 -0.1083 -0.1050
  562TMC3    C3 8335   0.995   3.366  15.417  1.0397 -0.6349  0.1258
  562TMC3    C4 8336   1.210   3.198  15.472 -0.7153  0.2780  0.3176
  562TMC3    C5 8337   1.151   3.203  15.346 -0.1859  0.5599 -0.0178
  562TMC3    C6 8338   1.043   3.287  15.318  0.2499  0.0033  0.4511
  562TMC3     C 8339   1.262   3.325  15.668  0.1171  0.5949  0.1641
  562TMC3     O 8340   1.377   3.292  15.648  0.6337 -0.1362  0.1407
  562TMC3     H 8341   1.018   3.437  15.618 -0.9112 -1.2371  0.5743
  562TMC3    H1 8342   1.306   3.148  15.478 -0.2742  1.2269  1.2424
  562TMC3    H2 8343   1.003   3.294  15.217  2.3838  0.8143 -0.3179
  562TMC3    C7 8344   1.194   3.103  15.247 -0.4554  0.6460 -0.5478
  562TMC3    C8 8345   0.853   3.399  15.422  0.0286 -0.2133 -0.8932
  562TMC3    O1 8346   1.157   3.129  15.134  0.3766 -0.0206  0.3925
  562TMC3    O2 8347   0.814   3.410  15.534 -0.4290 -0.4452 -0.6718
  563MPD2     C 8348   3.552   4.497  15.589 -0.4234  1.0355  0.1701
  563MPD2    C1 8349   3.590   4.502  15.726 -0.0145 -0.3007 -0.7456
  563MPD2    C2 8350   3.699   4.428  15.763  0.5713  1.5021 -0.1006
  563MPD2    C3 8351   3.772   4.362  15.672 -0.0675 -0.3846  0.9118
  563MPD2    C4 8352   3.741   4.352  15.536 -0.2834  0.4314 -0.4439
  563MPD2    C5 8353   3.629   4.422  15.500  0.8006  0.2353 -0.2874
  563MPD2     H 8354   3.724   4.417  15.868  0.2219 -1.7981 -0.3693
  563MPD2    H1 8355   3.806   4.305  15.463  0.0939 -0.1879  0.2894
  563MPD2    H2 8356   3.468   4.557  15.555  0.3047  1.9450 -0.0249
  563MPD2    H3 8357   3.592   4.421  15.398 -2.2969  0.2518  0.8554
  563MPD2     N 8358   3.882   4.294  15.730  0.5202  0.1774 -0.7410
  563MPD2    H5 8359   3.891   4.300  15.831  1.1757 -1.7143 -0.6733
  563MPD2    N1 8360   3.527   4.575  15.829 -0.5474 -0.4612  0.2560
  563MPD2    H7 8361   3.581   4.577  15.915 -0.3583 -1.9827  0.1647
  564TMC3    C1 8362   3.357   4.682  15.943  0.1694  0.0381  0.0262
  564TMC3    C2 8363   3.215   4.664  15.951  0.5645  0.0112  0.0870
  564TMC3    C3 8364   3.165   4.596  16.061  0.2974 -0.2854 -0.0011
  564TMC3    C4 8365   3.433   4.658  16.056  0.5780 -1.1273 -0.0840
  564TMC3    C5 8366   3.378   4.587  16.161 -0.3161 -0.7843 -0.4816
  564TMC3    C6 8367   3.247   4.559  16.164  0.3829  0.0589 -0.1209
  564TMC3     C 8368   3.406   4.632  15.816 -0.1219 -0.1522 -0.5727
  564TMC3     O 8369   3.317   4.618  15.736 -0.1205  0.7743  0.0222
  564TMC3     H 8370   3.159   4.709  15.870  0.7500 -2.1722 -1.2598
  564TMC3    H1 8371   3.539   4.682  16.057  0.9322 -2.7394  1.8997
  564TMC3    H2 8372   3.203   4.512  16.251  1.3098  1.9569  1.3892
  564TMC3    C7 8373   3.456   4.468  16.189 -0.3163 -0.8001  1.0235
  564TMC3    C8 8374   3.083   4.484  16.017  0.1612  0.4645  0.3138
  564TMC3    O1 8375   3.578   4.471  16.198  0.1450 -0.0745  0.1133
  564TMC3    O2 8376   3.068   4.399  16.104 -0.3648  0.2996  0.6999
  565TMC3    C1 8377   3.765   1.094   9.769  0.1538  0.5731 -0.8290
  565TMC3    C2 8378   3.788   1.011   9.872  0.0986 -0.5623 -0.8037
  565TMC3    C3 8379   3.705   0.906   9.885  0.4052 -1.1433  0.3252
  565TMC3    C4 8380   3.653   1.082   9.693 -0.1837 -0.1322 -0.1465
  565TMC3    C5 8381   3.576   0.968   9.700  0.1078  0.2656 -0.0429
  565TMC3    C6 8382   3.609   0.866   9.784 -0.4569  0.0725  0.4200
  565TMC3     C 8383   3.869   1.176   9.710  0.4784 -0.7722  0.0488
  565TMC3     O 8384   3.844   1.225   9.598  0.0226  0.2925 -0.0134
  565TMC3     H 8385   3.871   1.024   9.941 -0.5674  0.9335 -0.2981
  565TMC3    H1 8386   3.618   1.154   9.619 -0.1462  3.2370  3.1565
  565TMC3    H2 8387   3.548   0.776   9.788 -1.1517  0.5524  0.5263
  565TMC3    C7 8388   3.494   0.936   9.582 -0.9746  0.4037 -0.3593
  565TMC3    C8 8389   3.744   0.813   9.990 -0.0735  0.0307 -0.3165
  565TMC3    O1 8390   3.529   1.004   9.484  0.4565 -0.4004  0.4716
  565TMC3    O2 8391   3.819   0.867  10.074 -0.4168  0.1995  0.0908
  566MPD2     C 8392   0.373   2.785  13.684  0.4714  0.4300 -0.2879
  566MPD2    C1 8393   0.484   2.708  13.661 -0.4977  0.2737 -0.0534
  566MPD2    C2 8394   0.495   2.646  13.540  0.0459 -0.0558  0.7494
  566MPD2    C3 8395   0.389   2.656  13.443 -0.2394 -0.0237  0.2324
  566MPD2    C4 8396   0.272   2.724  13.476 -0.0568 -0.2244  0.0535
  566MPD2    C5 8397   0.268   2.796  13.597  0.4956 -0.0527  0.8851
  566MPD2     H 8398   0.587   2.596  13.511 -0.4375  0.1005 -1.0320
  566MPD2    H1 8399   0.192   2.734  13.405  1.1153 -1.9270 -1.4976
  566MPD2    H2 8400   0.370   2.834  13.781 -0.4175 -0.2492  0.0342
  566MPD2    H3 8401   0.181   2.852  13.628 -0.0086  0.1650 -0.9043
  566MPD2     N 8402   0.407   2.597  13.317 -0.2102  0.2857  0.6211
  566MPD2    H5 8403   0.498   2.555  13.301 -0.3237  0.2386  0.1124
  566MPD2    N1 8404   0.587   2.704  13.757  0.3407 -0.8246  0.0814
  566MPD2    H7 8405   0.584   2.782  13.822  1.3995 -0.7205  0.0016
  567TMC3    C1 8406   0.787   2.631  13.854 -0.2255  0.5304 -0.8231
  567TMC3    C2 8407   0.846   2.748  13.820 -0.3527 -0.0845  0.9868
  567TMC3    C3 8408   0.985   2.743  13.832  0.9554 -0.5394 -0.1098
  567TMC3    C4 8409   0.846   2.524  13.903  0.6432 -0.3632  1.0154
  567TMC3    C5 8410   0.977   2.541  13.932 -0.1321  0.2123  0.2216
  567TMC3    C6 8411   1.055   2.644  13.890  0.0368  0.2636  0.0178
  567TMC3     C 8412   0.673   2.598  13.770 -0.7748 -0.0670  0.2556
  567TMC3     O 8413   0.660   2.484  13.725 -0.1985 -0.1680  0.2453
  567TMC3     H 8414   0.791   2.835  13.786  1.9310  1.3768  1.0126
  567TMC3    H1 8415   0.784   2.438  13.924 -0.9546  0.2931 -1.0613
  567TMC3    H2 8416   1.163   2.633  13.899  0.3348  2.6005 -0.6942
  567TMC3    C7 8417   1.033   2.465  14.045  0.1341  0.1049  0.5480
  567TMC3    C8 8418   1.053   2.872  13.807  0.5551  0.9139  0.2132
  567TMC3    O1 8419   1.156   2.454  14.050 -0.3310  0.6151 -0.2374
  567TMC3    O2 8420   0.997   2.954  13.733  0.2108 -0.3946  0.4931
  568MPD2     C 8421   2.694   3.064  16.001  0.8930 -0.0747  0.4500
  568MPD2    C1 8422   2.752   3.126  16.108 -0.1054  0.0016  0.2758
  568MPD2    C2 8423   2.728   3.263  16.127 -0.5685 -0.0750  0.0718
  568MPD2    C3 8424   2.661   3.334  16.033 -0.9433  0.0806  0.6042
  568MPD2    C4 8425   2.619   3.272  15.919  0.3786  0.5363  0.2260
  568MPD2    C5 8426   2.632   3.135  15.902 -0.3091  0.2216 -0.0366
  568MPD2     H 8427   2.758   3.314  16.218  3.3542  1.1257 -1.8590
  568MPD2    H1 8428   2.574   3.330  15.840 -0.0384  0.0136  0.0764
  568MPD2    H2 8429   2.704   2.956  15.991 -1.3616 -0.4384  1.9563
  568MPD2    H3 8430   2.584   3.079  15.823  1.3805 -0.7261 -0.4048
  568MPD2     N 8431   2.632   3.472  16.060 -0.5456  0.0126  0.0751
  568MPD2    H5 8432   2.686   3.518  16.132  2.4828 -2.4695 -0.6010
  568MPD2    N1 8433   2.816   3.044  16.195  0.1517  0.0659  0.3047
  568MPD2    H7 8434   2.841   2.946  16.180 -0.3793  0.1641 -1.1947
  569TMC3    C1 8435   2.573   3.697  16.021  0.2790  0.1260  0.1035
  569TMC3    C2 8436   2.616   3.725  16.149  0.8144 -0.7756  0.6834
  569TMC3    C3 8437   2.694   3.838  16.160 -0.0844 -0.1353  0.0327
  569TMC3    C4 8438   2.606   3.782  15.912 -0.5987  0.3519  0.5830
  569TMC3    C5 8439   2.682   3.892  15.936  0.4110 -0.2347  0.1610
  569TMC3    C6 8440   2.733   3.915  16.062  0.6807 -0.1925  0.0608
  569TMC3     C 8441   2.551   3.558  15.980  0.2160 -0.2891 -0.1126
  569TMC3     O 8442   2.502   3.545  15.871 -0.2026 -0.3155  0.3854
  569TMC3     H 8443   2.609   3.662  16.237 -0.9180 -0.8355  0.5051
  569TMC3    H1 8444   2.576   3.762  15.810  0.1108 -0.1683  0.4774
  569TMC3    H2 8445   2.787   4.008  16.082 -0.7768  0.0048  2.9305
  569TMC3    C7 8446   2.753   3.955  15.826 -0.5532 -0.0356 -0.3814
  569TMC3    C8 8447   2.737   3.870  16.294  0.0857 -0.0757  0.3591
  569TMC3    O1 8448   2.740   3.915  15.713  0.0160 -0.3047  0.7520
  569TMC3    O2 8449   2.652   3.867  16.385  0.0247 -0.2426 -0.5150
  570TMC3    C1 8450   2.486   1.987  16.240 -0.1914 -0.6160  0.1133
  570TMC3    C2 8451   2.546   2.002  16.119 -1.3283 -0.5782 -0.4442
  570TMC3    C3 8452   2.574   2.136  16.079 -0.0848  1.2639  0.0191
  570TMC3    C4 8453   2.455   2.092  16.318  0.6634 -0.4515 -0.1799
  570TMC3    C5 8454   2.475   2.222  16.271 -0.0622  0.4494 -0.1414
  570TMC3    C6 8455   2.544   2.238  16.156 -0.4738 -0.3241  0.6808
  570TMC3     C 8456   2.436   1.853  16.258 -0.5733 -0.4365  0.5675
  570TMC3     O 8457   2.421   1.788  16.154 -0.0776  0.6040 -0.6463
  570TMC3     H 8458   2.554   1.918  16.051 -0.5441 -0.2427 -0.7660
  570TMC3    H1 8459   2.396   2.078  16.407  3.5719  0.5139  1.8894
  570TMC3    H2 8460   2.566   2.339  16.121  2.5392 -1.5090 -0.9068
  570TMC3    C7 8461   2.450   2.342  16.352  0.2259 -0.0256 -0.7487
  570TMC3    C8 8462   2.645   2.170  15.960  0.0307 -0.2990 -0.1236
  570TMC3    O1 8463   2.464   2.335  16.472 -0.1361  0.4125  0.4870
  570TMC3    O2 8464   2.641   2.284  15.919  0.2437  0.1813 -0.1274
  571MPD2     C 8465   0.469   3.453  16.747 -0.3183  0.0164  0.2769
  571MPD2    C1 8466   0.567   3.451  16.845  0.3006 -0.0751 -0.5295
  571MPD2    C2 8467   0.528   3.512  16.961  0.0266  0.3545  0.7853
  571MPD2    C3 8468   0.408   3.582  16.978 -0.2490  0.0700 -0.0506
  571MPD2    C4 8469   0.316   3.575  16.878 -0.9175 -0.0806  0.8828
  571MPD2    C5 8470   0.352   3.512  16.764 -0.2796  1.1769 -1.1466
  571MPD2     H 8471   0.592   3.497  17.048  1.8019 -1.1511 -0.7816
  571MPD2    H1 8472   0.214   3.611  16.885  0.4879  4.0073  0.7192
  571MPD2    H2 8473   0.483   3.405  16.651  0.1119 -1.1715  0.9226
  571MPD2    H3 8474   0.274   3.489  16.692 -0.4764  0.5692 -0.7373
  571MPD2     N 8475   0.368   3.638  17.100  0.3613 -0.3979  0.5586
  571MPD2    H5 8476   0.269   3.660  17.101  1.0438  2.5905  1.1702
  571MPD2    N1 8477   0.693   3.388  16.821  0.2659  0.7721  0.7934
  571MPD2    H7 8478   0.710   3.337  16.734  0.0614  1.5488  0.3027
  572TMC3    C1 8479   0.392   3.743  17.304  0.0714 -0.4009 -0.5671
  572TMC3    C2 8480   0.282   3.675  17.352  0.1676 -0.3039  0.0091
  572TMC3    C3 8481   0.232   3.724  17.471 -0.2708 -0.5726  0.3093
  572TMC3    C4 8482   0.449   3.856  17.363  0.6816  0.1359  0.7591
  572TMC3    C5 8483   0.378   3.903  17.471 -0.3705  0.2289 -0.0051
  572TMC3    C6 8484   0.275   3.839  17.536 -0.4844 -0.7105 -0.1583
  572TMC3     C 8485   0.457   3.684  17.188 -0.6436 -0.2228  0.9693
  572TMC3     O 8486   0.580   3.696  17.180 -0.0414 -0.6556 -0.2477
  572TMC3     H 8487   0.255   3.574  17.323 -0.1377 -0.4665  0.8669
  572TMC3    H1 8488   0.542   3.893  17.321  1.8577 -2.4859  1.0479
  572TMC3    H2 8489   0.220   3.884  17.617  2.3546  0.6885  0.9980
  572TMC3    C7 8490   0.427   4.031  17.513 -0.3895 -0.5402  0.4390
  572TMC3    C8 8491   0.105   3.663  17.515  0.1174 -0.1377 -0.1114
  572TMC3    O1 8492   0.501   4.088  17.432  0.5553 -0.2475 -0.1417
  572TMC3    O2 8493   0.037   3.601  17.433  0.0690 -0.0484  0.4963
  573MPD2     C 8494   1.235   4.330   0.453 -0.3802  0.3929  1.2964
  573MPD2    C1 8495   1.365   4.368   0.466  0.2948  0.0184 -0.0017
  573MPD2    C2 8496   1.446   4.376   0.357 -0.6968 -0.3315  0.0879
  573MPD2    C3 8497   1.405   4.332   0.230 -1.4050  0.1482 -0.3538
  573MPD2    C4 8498   1.275   4.293   0.218  0.1459 -0.7050 -0.4646
  573MPD2    C5 8499   1.189   4.292   0.324 -0.5130  0.4729 -0.3316
  573MPD2     H 8500   1.547   4.416   0.358  0.6365 -3.7012 -0.5300
  573MPD2    H1 8501   1.237   4.256   0.123 -1.8062  0.7350 -0.2516
  573MPD2    H2 8502   1.166   4.322   0.536 -1.4682  1.5768  0.5015
  573MPD2    H3 8503   1.087   4.260   0.305  0.1338 -1.7691 -0.1009
  573MPD2     N 8504   1.479   4.326   0.110 -0.5276  0.1849  0.3171
  573MPD2    H5 8505   1.434   4.285   0.029  1.1566 -0.2410 -0.4090
  573MPD2    N1 8506   1.414   4.387   0.598 -0.1169 -0.1465  0.4831
  573MPD2    H7 8507   1.353   4.372   0.678 -1.8095 -0.5085 -0.8829
  574TMC3    C1 8508   1.669   4.323  17.658  0.6776  0.0752 -0.5785
  574TMC3    C2 8509   1.587   4.330  17.543 -1.0033  0.3920  1.0492
  574TMC3    C3 8510   1.653   4.295  17.429  0.2151  0.1610  0.1351
  574TMC3    C4 8511   1.804   4.296  17.659 -0.0213  0.2810 -0.0455
  574TMC3    C5 8512   1.858   4.262  17.540  0.0449 -0.4494  0.5836
  574TMC3    C6 8513   1.788   4.262  17.422 -0.0839  0.7435  0.0719
  574TMC3     C 8514   1.613   4.360   0.094  0.2592  0.1718  0.6327
  574TMC3     O 8515   1.688   4.406   0.175 -0.1696 -0.1428  0.0227
  574TMC3     H 8516   1.498   4.391  17.531 -0.6918  0.4924 -0.7099
  574TMC3    H1 8517   1.858   4.305   0.064  0.0012  1.5522 -0.1730
  574TMC3    H2 8518   1.846   4.236  17.334 -2.0498 -0.2942 -0.8934
  574TMC3    C7 8519   1.998   4.271  17.533  0.7161 -0.2315 -0.1258
  574TMC3    C8 8520   1.593   4.348  17.308  0.2856  0.2535  0.2530
  574TMC3    O1 8521   2.047   4.221  17.432  0.1635 -0.1891 -0.2881
  574TMC3    O2 8522   1.506   4.292  17.240  0.5377 -0.0713  0.0555
  575TMC3    C1 8523   4.029   0.747  10.775  0.3002  0.4705 -0.7190
  575TMC3    C2 8524   3.966   0.671  10.867  0.1658 -0.7034  0.6694
  575TMC3    C3 8525   3.874   0.576  10.833  0.5828  0.5976 -0.8069
  575TMC3    C4 8526   3.996   0.735  10.647 -0.2053  0.1560  0.0568
  575TMC3    C5 8527   3.908   0.639  10.603 -0.2833  0.2168  0.8367
  575TMC3    C6 8528   3.846   0.557  10.701 -0.5874 -0.5221 -0.2060
  575TMC3     C 8529   4.134   0.848  10.813  0.0111 -0.2787 -0.3047
  575TMC3     O 8530   4.201   0.905  10.729 -0.6240 -0.7627 -0.0612
  575TMC3     H 8531   3.984   0.668  10.974 -0.0487  2.4781  0.7885
  575TMC3    H1 8532   4.040   0.800  10.573  0.7114  0.0969  0.5496
  575TMC3    H2 8533   3.795   0.467  10.669 -0.8538 -0.9818  1.5415
  575TMC3    C7 8534   3.892   0.620  10.458  0.1151 -0.6316 -0.5078
  575TMC3    C8 8535   3.807   0.485  10.926 -0.5722 -0.2590  0.4263
  575TMC3    O1 8536   3.965   0.675  10.378 -0.5729 -0.5251  0.4216
  575TMC3    O2 8537   3.875   0.452  11.017  0.6003 -0.4113  0.3459
  576MPD2     C 8538   3.865   2.089  11.975  0.1897 -0.0144  0.0416
  576MPD2    C1 8539   3.950   2.191  11.942  0.3117 -0.1507 -0.3705
  576MPD2    C2 8540   3.933   2.321  11.998  0.0796 -0.2417  0.4644
  576MPD2    C3 8541   3.836   2.345  12.096 -0.1652  0.4945  0.3071
  576MPD2    C4 8542   3.759   2.242  12.129  0.2771  0.2489  0.5722
  576MPD2    C5 8543   3.773   2.121  12.071 -0.4647 -0.3595  0.1976
  576MPD2     H 8544   4.007   2.398  11.976  0.0474 -0.3751 -0.1146
  576MPD2    H1 8545   3.679   2.250  12.202  0.4208  2.7468  0.4387
  576MPD2    H2 8546   3.890   1.988  11.943  1.5011  0.7652 -1.3617
  576MPD2    H3 8547   3.711   2.039  12.106 -1.1581  0.8013  1.6479
  576MPD2     N 8548   3.827   2.472  12.157  0.1813  0.5552 -0.2152
  576MPD2    H5 8549   3.897   2.541  12.132 -0.9799  1.0668 -2.0128
  576MPD2    N1 8550   4.060   2.164  11.855 -0.4021 -0.3420 -0.8235
  576MPD2    H7 8551   4.122   2.240  11.829  2.7456 -2.5339  0.2821
  577TMC3    C1 8552   4.210   2.064  11.704  0.5528 -0.3806 -0.1996
  577TMC3    C2 8553   4.297   1.963  11.705  0.3190  0.9115 -0.1173
  577TMC3    C3 8554   4.395   1.965  11.608 -0.2626  0.4790  0.2340
  577TMC3    C4 8555   4.210   2.169  11.609 -0.3373  0.8755 -0.4315
  577TMC3    C5 8556   4.313   2.170  11.514 -0.4819  0.8860 -0.6178
  577TMC3    C6 8557   4.402   2.066  11.514 -0.1691 -0.2624 -0.1933
  577TMC3     C 8558   4.096   2.048  11.797  0.3685 -0.3217  0.0052
  577TMC3     O 8559   4.049   1.936  11.821 -0.4537 -0.3694 -0.1047
  577TMC3     H 8560   4.290   1.891  11.786  0.8083 -0.0982 -0.9801
  577TMC3    H1 8561   4.151   2.259  11.624  0.3371  0.5744  3.9843
  577TMC3    H2 8562   4.475   2.069  11.434 -0.1555 -2.1084 -0.2633
  577TMC3    C7 8563   4.336   2.278  11.422 -0.1181  0.4310  0.0998
  577TMC3    C8 8564   4.453   1.835  11.575  0.4052 -0.3724 -0.1479
  577TMC3    O1 8565   4.451   2.309  11.383  0.4426 -0.2697  0.3342
  577TMC3    O2 8566   4.390   1.742  11.618  0.6097 -0.7393  0.5223
  578MPD2     C 8567   2.542   2.261   0.389  0.4819  0.7639  0.5521
  578MPD2    C1 8568   2.637   2.194   0.313 -0.5478  0.2615  0.4041
  578MPD2    C2 8569   2.668   2.063   0.331  0.4976  0.1879  0.2423
  578MPD2    C3 8570   2.600   1.993   0.432  1.0002  0.3334  0.4180
  578MPD2    C4 8571   2.495   2.053   0.500  0.2252  0.0730  0.1140
  578MPD2    C5 8572   2.469   2.185   0.479 -0.2177  0.6591  0.1884
  578MPD2     H 8573   2.750   2.016   0.277  0.1399  0.2177 -0.3197
  578MPD2    H1 8574   2.439   1.995   0.573 -2.7682 -0.9363 -2.9881
  578MPD2    H2 8575   2.521   2.367   0.383  1.2957  1.0076  2.0229
  578MPD2    H3 8576   2.388   2.223   0.540  0.2878  1.1681  0.5455
  578MPD2     N 8577   2.641   1.858   0.454  0.1860  0.1607  0.2221
  578MPD2    H5 8578   2.729   1.827   0.412  1.0966  2.8425  0.1799
  578MPD2    N1 8579   2.689   2.273   0.210  0.5100 -0.6859 -0.5631
  578MPD2    H7 8580   2.654   2.368   0.196  2.1005  0.0150  0.2716
  579TMC3    C1 8581   2.628   1.645   0.533  1.0695 -0.1554  0.0023
  579TMC3    C2 8582   2.755   1.636   0.586 -0.1292 -0.5677  0.5086
  579TMC3    C3 8583   2.800   1.518   0.638 -0.2306 -0.4021  0.5524
  579TMC3    C4 8584   2.542   1.543   0.531 -0.2043 -0.4264 -0.9116
  579TMC3    C5 8585   2.590   1.426   0.593  0.3035  0.1208  0.3929
  579TMC3    C6 8586   2.717   1.415   0.651 -0.8264  0.6494 -0.3553
  579TMC3     C 8587   2.571   1.770   0.523 -0.1327  0.2982 -0.1189
  579TMC3     O 8588   2.458   1.776   0.571  0.2263 -0.1308  0.2238
  579TMC3     H 8589   2.819   1.723   0.581  0.5819 -1.0488  1.1726
  579TMC3    H1 8590   2.441   1.547   0.492 -0.1496 -1.0903 -1.1177
  579TMC3    H2 8591   2.755   1.326   0.700 -0.9939 -0.5218 -2.3425
  579TMC3    C7 8592   2.527   1.299   0.571 -0.0537 -0.0235  0.1087
  579TMC3    C8 8593   2.872   1.550   0.755  0.5506 -0.7519  0.3331
  579TMC3    O1 8594   2.582   1.209   0.626  0.6374  0.6923 -0.8242
  579TMC3    O2 8595   2.815   1.523   0.862  0.3307  0.0100 -0.4158
  580TMC3    C1 8596   1.330   1.216  11.396  0.0295  0.3611  0.0470
  580TMC3    C2 8597   1.374   1.219  11.266  0.7086  0.1284  0.6709
  580TMC3    C3 8598   1.427   1.108  11.212 -0.0469  0.1971 -0.4889
  580TMC3    C4 8599   1.323   1.104  11.464 -0.4245 -0.3366 -0.2874
  580TMC3    C5 8600   1.385   0.992  11.408  0.5281 -1.2859 -0.6682
  580TMC3    C6 8601   1.437   0.990  11.279  0.1780 -0.3478  0.1079
  580TMC3     C 8602   1.354   1.324  11.485 -0.5591 -0.3528  0.5717
  580TMC3     O 8603   1.317   1.329  11.602  0.5000 -0.1468 -0.7452
  580TMC3     H 8604   1.388   1.307  11.204 -2.0697  0.3288  0.3562
  580TMC3    H1 8605   1.267   1.080  11.553 -0.7279  1.3865 -0.0149
  580TMC3    H2 8606   1.499   0.910  11.241  0.1786  0.6226 -1.8909
  580TMC3    C7 8607   1.429   0.886  11.504 -0.8381  0.0657 -0.6511
  580TMC3    C8 8608   1.555   1.152  11.148  0.5746 -0.3603 -0.2978
  580TMC3    O1 8609   1.471   0.939  11.606  0.4268  0.1376  0.8494
  580TMC3    O2 8610   1.560   1.166  11.026  0.4527  0.3175  0.3791
  581MPD2     C 8611   4.252   1.153  14.836 -0.4117 -0.9932 -0.1030
  581MPD2    C1 8612   4.298   1.135  14.707 -0.7298  0.3860  0.0012
  581MPD2    C2 8613   4.209   1.132  14.601 -0.0034  0.0269 -0.4797
  581MPD2    C3 8614   4.075   1.136  14.628 -0.4567  0.2439  0.1691
  581MPD2    C4 8615   4.031   1.139  14.756 -0.2366 -0.4907 -1.0278
  581MPD2    C5 8616   4.115   1.156  14.861 -0.3541  0.0601  0.0088
  581MPD2     H 8617   4.246   1.127  14.499  2.2035  1.9556  0.2298
  581MPD2    H1 8618   3.928   1.146  14.788 -0.6955 -0.8135 -2.4709
  581MPD2    H2 8619   4.313   1.160  14.925 -1.0459  0.7972  0.1839
  581MPD2    H3 8620   4.072   1.172  14.959 -1.5288 -0.5567 -0.4090
  581MPD2     N 8621   3.993   1.149  14.523  0.4101 -0.8070 -0.3462
  581MPD2    H5 8622   4.040   1.175  14.437 -0.7863 -1.8803 -1.3394
  581MPD2    N1 8623   4.440   1.122  14.676 -0.0429 -0.3802  0.2014
  581MPD2    H7 8624   4.456   1.118  14.576 -1.3047  0.5594 -0.0434
  582TMC3    C1 8625   4.674   1.103  14.713 -0.1086  0.0406  0.6362
  582TMC3    C2 8626   0.044   1.116  14.816 -0.7541 -0.1166 -0.1046
  582TMC3    C3 8627   0.110   1.001  14.858  0.2324 -0.4298  0.8306
  582TMC3    C4 8628   4.657   0.985  14.645 -1.1108  0.5397  1.0717
  582TMC3    C5 8629   0.000   0.873  14.693  0.5432  0.2279 -0.0652
  582TMC3    C6 8630   0.095   0.880  14.796  0.5448  0.3738  0.1699
  582TMC3     C 8631   4.549   1.151  14.760  0.7180  0.6663  0.7592
  582TMC3     O 8632   4.544   1.199  14.874  0.2796  0.0519  0.5265
  582TMC3     H 8633   0.052   1.202  14.881 -1.8633  1.1086 -1.5843
  582TMC3    H1 8634   4.592   0.969  14.560 -1.0199 -2.8616  1.6457
  582TMC3    H2 8635   0.131   0.787  14.838 -1.9870 -0.6747  0.0063
  582TMC3    C7 8636   4.639   0.757  14.696  0.2442  0.3538  0.2387
  582TMC3    C8 8637   0.161   1.006  14.990 -0.3669  0.0954 -0.3791
  582TMC3    O1 8638   4.688   0.645  14.714  1.2941 -0.1733 -0.5754
  582TMC3    O2 8639   0.099   1.087  15.061  0.2458  0.1067 -0.1107
  583MPD2     C 8640   4.489   2.567  16.509 -0.4222  0.3718  0.8638
  583MPD2    C1 8641   4.479   2.683  16.443  0.4217  0.2482 -0.6997
  583MPD2    C2 8642   4.424   2.793  16.508 -0.1120  0.3134 -0.1340
  583MPD2    C3 8643   4.388   2.785  16.642  0.2190  0.1788  0.7802
  583MPD2    C4 8644   4.411   2.670  16.713 -0.3970 -0.9467 -0.9528
  583MPD2    C5 8645   4.462   2.567  16.644 -0.4353 -0.0549  0.1081
  583MPD2     H 8646   4.431   2.892  16.466  2.9330  0.0485 -0.2238
  583MPD2    H1 8647   4.379   2.650  16.815 -0.4444  0.4578 -0.6865
  583MPD2    H2 8648   4.527   2.473  16.470 -0.9584  0.6357 -0.3026
  583MPD2    H3 8649   4.494   2.481  16.702  1.2365 -0.2714 -1.1361
  583MPD2     N 8650   4.339   2.906  16.712 -0.4037  0.4138  0.2577
  583MPD2    H5 8651   4.294   2.979  16.658  0.5663  0.0603 -1.0290
  583MPD2    N1 8652   4.519   2.694  16.307  0.1961  0.1739  0.1853
  583MPD2    H7 8653   4.510   2.786  16.266 -0.7857 -0.1420 -0.3112
  584TMC3    C1 8654   4.258   3.039  16.896 -0.6582  0.6876 -0.1331
  584TMC3    C2 8655   4.294   3.158  16.832  0.2460  0.0449 -0.4605
  584TMC3    C3 8656   4.280   3.272  16.904  1.0164 -0.1008 -0.4764
  584TMC3    C4 8657   4.202   3.039  17.021  0.0607  0.5348 -0.0277
  584TMC3    C5 8658   4.185   3.162  17.087  0.1473 -0.0293  0.5201
  584TMC3    C6 8659   4.234   3.278  17.033  0.5443  1.0127 -0.4689
  584TMC3     C 8660   4.325   2.920  16.851  0.0387  0.6049  0.0672
  584TMC3     O 8661   4.354   2.847  16.948  0.0422 -0.1860 -0.1246
  584TMC3     H 8662   4.336   3.156  16.733  1.4327  2.7467 -0.0286
  584TMC3    H1 8663   4.180   2.945  17.071 -0.2754  1.1102  0.9200
  584TMC3    H2 8664   4.257   3.362  17.097  2.4925  0.7247 -0.7796
  584TMC3    C7 8665   4.178   3.158  17.230  0.5021  0.9023  0.0450
  584TMC3    C8 8666   4.296   3.401  16.834 -0.4464 -0.0640 -0.5603
  584TMC3    O1 8667   4.211   3.055  17.272 -0.2651  0.2200  0.1541
  584TMC3    O2 8668   4.294   3.386  16.713  0.7514 -0.0251 -0.0137
  585MPD2     C 8669   3.846   1.782  17.262  0.1706  0.5781  0.6568
  585MPD2    C1 8670   3.973   1.750  17.252  0.5281 -0.3994 -0.1187
  585MPD2    C2 8671   4.013   1.650  17.175 -0.2291  0.7895  0.7917
  585MPD2    C3 8672   3.913   1.563  17.123  0.1791 -0.2369 -0.4796
  585MPD2    C4 8673   3.782   1.598  17.128 -0.3785  0.0325 -0.0395
  585MPD2    C5 8674   3.747   1.712  17.197 -0.4656  0.3418 -0.1102
  585MPD2     H 8675   4.116   1.632  17.147 -0.4196  0.7469  0.1231
  585MPD2    H1 8676   3.704   1.554  17.067  0.0170 -0.9815  0.1856
  585MPD2    H2 8677   3.818   1.870  17.320  0.5915  2.3295 -1.8223
  585MPD2    H3 8678   3.645   1.749  17.205  0.1445  1.5399  2.3013
  585MPD2     N 8679   3.948   1.453  17.036  0.1401 -0.4332 -0.5273
  585MPD2    H5 8680   3.873   1.398  16.996 -1.4738  0.1226  1.7444
  585MPD2    N1 8681   4.064   1.830  17.319 -0.2707 -0.3884 -0.2913
  585MPD2    H7 8682   4.027   1.916  17.357 -0.4814 -0.9252  0.7279
  586TMC3    C1 8683   4.092   1.307  16.895  0.2612  0.4862  0.1310
  586TMC3    C2 8684   4.211   1.269  16.850  0.4749 -0.7312 -0.0764
  586TMC3    C3 8685   4.223   1.156  16.771 -0.2485  0.7086 -0.6623
  586TMC3    C4 8686   3.984   1.221  16.877  0.5355  0.0642 -0.0337
  586TMC3    C5 8687   3.994   1.106  16.796  0.0707 -0.2159  0.1668
  586TMC3    C6 8688   4.115   1.078  16.734  0.3107  0.0893 -0.0460
  586TMC3     C 8689   4.078   1.406  17.005  0.1329  0.8023 -0.3766
  586TMC3     O 8690   4.185   1.452  17.031 -0.3529  0.0179  0.1355
  586TMC3     H 8691   4.299   1.332  16.858  1.2258 -1.6063 -1.3468
  586TMC3    H1 8692   3.892   1.227  16.934 -0.2314  0.6135 -1.3377
  586TMC3    H2 8693   4.127   0.984  16.680 -0.7461 -1.1934  1.9549
  586TMC3    C7 8694   3.883   1.011  16.811  0.2826 -0.2593  0.3131
  586TMC3    C8 8695   4.348   1.083  16.778  0.4235 -0.7928  0.4398
  586TMC3    O1 8696   3.766   1.052  16.793  0.3727  0.3251  0.2540
  586TMC3    O2 8697   4.413   1.092  16.881  0.0495  0.1465  0.2822
  587TMC3    C1 8698   1.712   0.429  15.962  0.2484 -0.1711 -0.6840
  587TMC3    C2 8699   1.611   0.529  15.973 -0.1732  0.8971  0.6344
  587TMC3    C3 8700   1.652   0.648  15.923 -0.7971  0.0959  0.5873
  587TMC3    C4 8701   1.830   0.449  15.904 -1.4107 -0.4982 -0.8428
  587TMC3    C5 8702   1.856   0.571  15.857 -0.0604 -0.1283 -0.3090
  587TMC3    C6 8703   1.770   0.674  15.870  0.0056 -0.0615  0.0380
  587TMC3     C 8704   1.677   0.294  15.994  0.1919  0.1346  0.1417
  587TMC3     O 8705   1.707   0.199  15.920  0.2994 -0.1203 -0.4953
  587TMC3     H 8706   1.508   0.509  16.002  0.3283  0.2197  1.9263
  587TMC3    H1 8707   1.895   0.362  15.908 -2.9186 -1.6202 -0.5651
  587TMC3    H2 8708   1.788   0.770  15.823  1.0117 -0.0778  0.3969
  587TMC3    C7 8709   1.966   0.609  15.774  0.4111  0.0765  0.4587
  587TMC3    C8 8710   1.569   0.769  15.942 -0.3735  0.4840  0.2629
  587TMC3    O1 8711   1.986   0.728  15.752 -0.0070 -0.1754 -0.0004
  587TMC3    O2 8712   1.630   0.874  15.942  0.0358  0.2778 -0.4634
  588TMC3    C1 8713   3.584   2.861   9.116 -0.3385  0.1640  0.6302
  588TMC3    C2 8714   3.550   2.731   9.112 -0.0551 -0.0238 -0.2322
  588TMC3    C3 8715   3.586   2.642   9.211  0.4856  0.3941 -0.8802
  588TMC3    C4 8716   3.637   2.899   9.235  0.1521 -0.4947 -0.2080
  588TMC3    C5 8717   3.661   2.810   9.341 -0.2590  0.5080 -0.2982
  588TMC3    C6 8718   3.637   2.676   9.329 -0.0855 -0.6545  0.0577
  588TMC3     C 8719   3.499   2.958   9.036  0.2363  0.3438  0.3028
  588TMC3     O 8720   3.394   2.913   9.000  0.1357 -0.5644  0.2652
  588TMC3     H 8721   3.497   2.697   9.024  0.7410  0.0242 -0.7273
  588TMC3    H1 8722   3.631   3.005   9.255  0.8646 -0.8576  1.8897
  588TMC3    H2 8723   3.654   2.612   9.414  0.7015 -0.9743 -0.3366
  588TMC3    C7 8724   3.693   2.866   9.472 -0.1128 -0.8950 -0.1672
  588TMC3    C8 8725   3.559   2.503   9.175 -0.2427  0.2999 -0.0072
  588TMC3    O1 8726   3.663   2.802   9.574  0.3635 -0.0284 -0.4130
  588TMC3    O2 8727   3.478   2.475   9.085  0.3329 -0.3725  0.7779
  589TMC3    C1 8728   2.925   0.012   0.599 -0.7733 -0.3503  0.5159
  589TMC3    C2 8729   2.964   0.057   0.723  0.2585  0.0246 -0.0919
  589TMC3    C3 8730   3.093   0.026   0.755  0.2463  0.1387 -0.7286
  589TMC3    C4 8731   3.005   4.668   0.512  0.4685 -0.1449  0.6320
  589TMC3    C5 8732   3.126   4.623   0.553 -0.0646 -0.1973  0.4640
  589TMC3    C6 8733   3.170   4.668   0.677 -0.3909  0.3566  0.3230
  589TMC3     C 8734   2.799   0.056   0.542  0.6940 -0.2770  0.4801
  589TMC3     O 8735   2.787   0.037   0.419 -0.0033  0.4319 -0.6040
  589TMC3     H 8736   2.910   0.135   0.777  1.6890  1.3082 -0.5351
  589TMC3    H1 8737   2.970   4.638   0.414  1.2449  0.8478  0.0423
  589TMC3    H2 8738   3.259   4.621   0.717 -1.2622  0.1473  2.0158
  589TMC3    C7 8739   3.194   4.514   0.487 -1.3912  0.0475  0.5332
  589TMC3    C8 8740   3.139   0.100   0.876 -0.1222  0.3664  0.1428
  589TMC3    O1 8741   3.133   4.466   0.394 -0.2071 -0.3478  0.2668
  589TMC3    O2 8742   3.058   0.170   0.939 -0.4163  0.4835  1.2374
  590MPD2     C 8743   2.465   4.090  16.297 -0.9856 -0.7715 -0.6459
  590MPD2    C1 8744   2.429   4.052  16.173  0.7122 -0.1793 -0.0803
  590MPD2    C2 8745   2.471   4.133  16.064 -0.2380 -0.2210  0.1858
  590MPD2    C3 8746   2.546   4.249  16.080  0.2492  0.1013 -0.1647
  590MPD2    C4 8747   2.581   4.285  16.209 -0.0303 -0.1594 -0.2053
  590MPD2    C5 8748   2.533   4.211  16.314  0.3022  0.5136  0.4033
  590MPD2     H 8749   2.435   4.108  15.965  0.2609 -1.4934  0.3296
  590MPD2    H1 8750   2.640   4.372  16.233  0.4782 -0.5212 -0.1467
  590MPD2    H2 8751   2.433   4.033  16.384 -1.6713 -2.5515 -2.0667
  590MPD2    H3 8752   2.555   4.245  16.414 -2.5990 -0.1156  1.2549
  590MPD2     N 8753   2.578   4.318  15.959  0.2918  0.2093  0.0025
  590MPD2    H5 8754   2.527   4.289  15.876 -2.0488  0.6239  1.2793
  590MPD2    N1 8755   2.328   3.956  16.148  0.3349 -0.2838 -0.3377
  590MPD2    H7 8756   2.300   3.945  16.051 -0.9607  1.8756 -0.1871
  591TMC3    C1 8757   2.652   4.495  15.818 -0.3406  0.1426  0.1574
  591TMC3    C2 8758   2.575   4.442  15.715 -0.1077  0.1507  0.5172
  591TMC3    C3 8759   2.601   4.479  15.583  0.5403 -0.0903  0.1300
  591TMC3    C4 8760   2.754   4.582  15.786  0.1601  0.5359 -0.2837
  591TMC3    C5 8761   2.767   4.626  15.654  0.3111 -0.0304 -0.3970
  591TMC3    C6 8762   2.694   4.571  15.548  0.7561  0.2624 -0.6019
  591TMC3     C 8763   2.659   4.430  15.947  0.0029  0.0433  0.6360
  591TMC3     O 8764   2.738   4.474  16.030 -1.5464 -0.2551  0.0198
  591TMC3     H 8765   2.493   4.374  15.730  0.3347 -0.3279  0.7772
  591TMC3    H1 8766   2.805   4.640  15.861 -1.5579  1.5560  0.0956
  591TMC3    H2 8767   2.726   4.587  15.445 -3.8508  2.3948 -1.6632
  591TMC3    C7 8768   2.849   0.018  15.632  0.0796  0.0309  0.0789
  591TMC3    C8 8769   2.574   4.369  15.491  0.1439 -0.7689  0.1064
  591TMC3    O1 8770   2.925   0.048  15.718 -0.0354  0.1074  0.6211
  591TMC3    O2 8771   2.489   4.286  15.522  0.4081  0.1795  0.2124
  592MPD2     C 8772   2.528   0.890  10.825  0.7437 -0.0401  0.5083
  592MPD2    C1 8773   2.509   0.915  10.957  1.1382 -0.8992  0.2239
  592MPD2    C2 8774   2.397   0.859  11.021  0.8328 -0.3735 -0.4312
  592MPD2    C3 8775   2.309   0.781  10.953 -0.0572  0.8058 -0.4216
  592MPD2    C4 8776   2.330   0.759  10.816 -0.7404  0.0846  0.4932
  592MPD2    C5 8777   2.438   0.813  10.759 -0.3389  0.1270  0.3246
  592MPD2     H 8778   2.384   0.867  11.129  0.8005  2.0233 -0.6155
  592MPD2    H1 8779   2.267   0.692  10.759 -0.1765 -0.1260  0.1142
  592MPD2    H2 8780   2.610   0.941  10.775 -2.3000  0.5561 -3.8718
  592MPD2    H3 8781   2.462   0.780  10.659  0.1321  0.0398  0.4670
  592MPD2     N 8782   2.208   0.719  11.028  0.3559  0.7006 -0.4323
  592MPD2    H5 8783   2.223   0.709  11.128 -1.6863  2.2403  0.0342
  592MPD2    N1 8784   2.612   0.994  11.015  0.0705  0.3557  0.8896
  592MPD2    H7 8785   2.675   1.040  10.949 -1.2961 -1.7927 -1.9391
  593TMC3    C1 8786   2.707   1.128  11.186 -0.0282  0.0132  0.3667
  593TMC3    C2 8787   2.696   1.189  11.307 -0.9867 -0.4134 -0.2566
  593TMC3    C3 8788   2.755   1.307  11.332  0.4604 -0.1038 -0.0991
  593TMC3    C4 8789   2.807   1.167  11.096 -0.0684 -0.2944 -0.0071
  593TMC3    C5 8790   2.872   1.288  11.123  0.1041 -0.6324  0.2445
  593TMC3    C6 8791   2.843   1.358  11.237 -0.2512 -0.1916 -0.0736
  593TMC3     C 8792   2.612   1.029  11.151  0.5053 -0.2151  0.2408
  593TMC3     O 8793   2.543   0.991  11.245  0.5922 -0.1488 -0.3314
  593TMC3     H 8794   2.649   1.133  11.387  1.6263  0.4474  1.8341
  593TMC3    H1 8795   2.824   1.104  11.009 -0.4809 -0.7952  0.2752
  593TMC3    H2 8796   2.895   1.452  11.248 -2.6116  1.0332  0.5841
  593TMC3    C7 8797   2.960   1.351  11.030 -0.2493  0.5358  0.0632
  593TMC3    C8 8798   2.745   1.351  11.471 -0.0358  0.0073 -0.2122
  593TMC3    O1 8799   3.042   1.432  11.072 -0.0954  0.0808 -0.0036
  593TMC3    O2 8800   2.642   1.332  11.531 -0.6274 -0.8797 -0.4004
  594MPD2     C 8801   0.856   4.546  13.468  0.2704  1.1547 -0.1482
  594MPD2    C1 8802   0.867   4.583  13.599  0.3264 -0.1431  0.1127
  594MPD2    C2 8803   0.964   4.679  13.647 -0.0150 -0.5813  0.6852
  594MPD2    C3 8804   1.051   0.018  13.558  0.3441 -0.3732 -0.0397
  594MPD2    C4 8805   1.045   4.699  13.423 -0.6776 -0.1811 -0.0818
  594MPD2    C5 8806   0.943   4.613  13.380 -0.9307  0.0881  0.0779
  594MPD2     H 8807   0.962   4.700  13.753 -0.6152 -0.6937  0.6935
  594MPD2    H1 8808   1.115   0.020  13.352 -2.1475  0.3308 -1.2428
  594MPD2    H2 8809   0.775   4.485  13.432  0.8016  0.1041  0.4442
  594MPD2    H3 8810   0.935   4.589  13.275 -0.9980  0.0130  0.1001
  594MPD2     N 8811   1.154   0.099  13.613 -0.3210 -0.3559 -0.5061
  594MPD2    H5 8812   1.139   0.126  13.709 -2.5281 -0.8047 -0.7230
  594MPD2    N1 8813   0.777   4.516  13.683  0.7058 -0.0251  0.1529
  594MPD2    H7 8814   0.712   4.446  13.647 -0.1723 -0.3056  2.3029
  595TMC3    C1 8815   1.554   0.374  13.599 -0.6747  0.5030  0.3702
  595TMC3    C2 8816   1.474   0.276  13.555  0.1251  0.4187 -0.0613
  595TMC3    C3 8817   1.350   0.250  13.614 -0.0863  0.4409 -0.4362
  595TMC3    C4 8818   1.507   0.467  13.686  0.1148 -0.8067  0.4585
  595TMC3    C5 8819   1.384   0.440  13.740  0.6755  0.6633 -0.3208
  595TMC3    C6 8820   1.306   0.335  13.707  0.0675 -0.5904  0.2126
  595TMC3     C 8821   1.698   0.341  13.630 -0.2747 -0.3657 -0.0722
  595TMC3     O 8822   1.753   0.393  13.727 -0.5028  0.7669 -0.0194
  595TMC3     H 8823   1.509   0.223  13.467 -2.3018 -0.4748 -0.4968
  595TMC3    H1 8824   1.579   0.532  13.736 -2.4051  1.3240  1.3403
  595TMC3    H2 8825   1.225   0.310  13.774 -1.2837 -0.0222 -1.2010
  595TMC3    C7 8826   1.379   0.482  13.882  0.4421 -0.4459  0.0026
  595TMC3    C8 8827   1.256   0.161  13.538 -0.3619  0.6373 -0.0056
  595TMC3    O1 8828   1.306   0.576  13.914  0.1606 -0.5172 -0.1493
  595TMC3    O2 8829   1.280   0.143  13.417 -0.1671 -0.5434 -0.0427
  596MPD2     C 8830   0.645   2.460  16.343  0.1686 -0.6697  0.8529
  596MPD2    C1 8831   0.617   2.578  16.278 -0.2800 -0.0551  0.0972
  596MPD2    C2 8832   0.632   2.593  16.141 -0.2689  0.5632  0.7670
  596MPD2    C3 8833   0.655   2.482  16.061 -0.4999 -0.1628 -0.0707
  596MPD2    C4 8834   0.674   2.361  16.123 -0.4258  0.0228 -0.2085
  596MPD2    C5 8835   0.681   2.353  16.265  0.4281 -1.0219  0.1364
  596MPD2     H 8836   0.631   2.691  16.094  0.9666 -0.5096 -1.5204
  596MPD2    H1 8837   0.691   2.267  16.072  0.7914  0.4023 -0.5089
  596MPD2    H2 8838   0.625   2.446  16.448 -1.0362 -1.3666  0.5306
  596MPD2    H3 8839   0.685   2.254  16.308  0.6922 -1.7530 -1.5621
  596MPD2     N 8840   0.659   2.473  15.919  0.5057 -0.0030 -0.2891
  596MPD2    H5 8841   0.655   2.377  15.887 -1.4527  0.0210 -0.1167
  596MPD2    N1 8842   0.596   2.695  16.360  0.1110 -0.1689  0.2105
  596MPD2    H7 8843   0.606   2.785  16.313 -0.0502 -0.7574 -0.9628
  597TMC3    C1 8844   0.548   2.841  16.536 -0.0118 -0.4142 -0.3195
  597TMC3    C2 8845   0.639   2.925  16.492 -0.3954 -0.0365  0.2102
  597TMC3    C3 8846   0.618   3.057  16.501  0.2715  0.3268 -0.5867
  597TMC3    C4 8847   0.427   2.878  16.584 -0.3386 -0.2663 -0.0680
  597TMC3    C5 8848   0.414   3.013  16.609  0.3670 -0.0740 -0.7479
  597TMC3    C6 8849   0.513   3.101  16.568  0.2577  0.3927 -0.5511
  597TMC3     C 8850   0.558   2.699  16.493  0.1646 -0.0440 -0.2644
  597TMC3     O 8851   0.530   2.612  16.575  0.1839  0.8796  0.4763
  597TMC3     H 8852   0.735   2.889  16.456 -0.2544 -1.3763  1.8865
  597TMC3    H1 8853   0.356   2.802  16.616  1.1412 -0.4086  2.8574
  597TMC3    H2 8854   0.499   3.204  16.598 -1.3709  0.6717 -2.1905
  597TMC3    C7 8855   0.315   3.043  16.707 -0.2169  0.6349  0.1763
  597TMC3    C8 8856   0.742   3.137  16.500 -0.4172  0.0425  0.7820
  597TMC3    O1 8857   0.291   2.962  16.797 -0.1456 -0.5235 -0.1705
  597TMC3    O2 8858   0.756   3.227  16.584  0.2000  0.5315 -0.2508
  598TMC3    C1 8859   3.527   4.349  14.931  0.5093  0.3080 -0.2700
  598TMC3    C2 8860   3.420   4.264  14.954  0.0476 -0.3525 -0.0877
  598TMC3    C3 8861   3.388   4.199  14.844  0.2174  0.4190 -0.1545
  598TMC3    C4 8862   3.580   4.378  14.807  0.6702 -0.1595  0.4182
  598TMC3    C5 8863   3.518   4.326  14.691  0.5761 -0.3514  0.5271
  598TMC3    C6 8864   3.432   4.217  14.715  0.7145  0.3139 -0.0366
  598TMC3     C 8865   3.553   4.452  15.029  0.1358  0.1991  0.3075
  598TMC3     O 8866   3.663   4.515  15.026 -0.0905 -0.2090  0.2625
  598TMC3     H 8867   3.383   4.241  15.054  0.2646  2.1119  0.5513
  598TMC3    H1 8868   3.651   4.460  14.799 -1.1289  1.4341  0.8157
  598TMC3    H2 8869   3.375   4.181  14.630 -1.1773  1.2010  0.8442
  598TMC3    C7 8870   3.521   4.380  14.563  0.2523  0.3531 -0.2360
  598TMC3    C8 8871   3.263   4.123  14.862 -0.0725 -0.0265 -0.1594
  598TMC3    O1 8872   3.442   4.333  14.479 -0.2911  0.5472  0.4626
  598TMC3    O2 8873   3.189   4.172  14.944  0.3949  0.0362  0.3079
  599MPD2     C 8874   3.821   1.706  15.749  0.3107  0.6592 -0.2796
  599MPD2    C1 8875   3.784   1.573  15.753 -0.0437  0.0030  0.8496
  599MPD2    C2 8876   3.663   1.534  15.810  0.1895  0.2851  0.2449
  599MPD2    C3 8877   3.577   1.631  15.871 -0.0782  0.1084 -0.7682
  599MPD2    C4 8878   3.612   1.766  15.861  0.4364  0.8065  0.1978
  599MPD2    C5 8879   3.738   1.798  15.814 -0.1091  0.9443  0.0327
  599MPD2     H 8880   3.636   1.429  15.814  2.4908 -0.3159 -0.3235
  599MPD2    H1 8881   3.555   1.849  15.900  0.1377  0.6366  0.1309
  599MPD2    H2 8882   3.905   1.759  15.706 -0.7954  0.1983 -3.0174
  599MPD2    H3 8883   3.777   1.899  15.809  1.0996  0.4402 -0.7700
  599MPD2     N 8884   3.459   1.611  15.942 -0.4278 -0.0661 -0.5276
  599MPD2    H5 8885   3.405   1.691  15.975 -0.0558  0.7556 -1.9297
  599MPD2    N1 8886   3.879   1.490  15.692  0.1268  0.3994 -0.1215
  599MPD2    H7 8887   3.972   1.530  15.679  1.4531 -2.6162  0.1059
  600TMC3    C1 8888   3.301   1.494  16.073 -0.0882 -0.0031  0.3917
  600TMC3    C2 8889   3.254   1.372  16.115 -0.3928 -0.4417  0.6964
  600TMC3    C3 8890   3.166   1.378  16.214  0.6949  0.1466  0.2095
  600TMC3    C4 8891   3.258   1.611  16.122  0.1562 -0.3868  0.2117
  600TMC3    C5 8892   3.174   1.602  16.231  1.0342  0.2097 -0.2909
  600TMC3    C6 8893   3.116   1.490  16.277 -0.2584  0.0271  0.5272
  600TMC3     C 8894   3.403   1.487  15.966  0.2833  0.1829 -0.1693
  600TMC3     O 8895   3.431   1.378  15.921 -0.4147 -0.3854  0.1486
  600TMC3     H 8896   3.305   1.281  16.084 -2.1659 -0.4273 -2.2643
  600TMC3    H1 8897   3.316   1.703  16.113 -1.3529  0.5890  0.5427
  600TMC3    H2 8898   3.064   1.487  16.372 -1.9586  1.8547 -0.3526
  600TMC3    C7 8899   3.094   1.714  16.270 -0.1154 -0.2732  0.4814
  600TMC3    C8 8900   3.092   1.258  16.235 -0.0325  0.6276  0.6813
  600TMC3    O1 8901   3.014   1.704  16.363 -0.1457 -0.4825  0.8447
  600TMC3    O2 8902   3.152   1.154  16.215  0.1610  0.3412  0.5814
  601MPD2     C 8903   0.566   4.344   0.196 -0.1526 -0.4017 -0.2936
  601MPD2    C1 8904   0.559   4.363   0.057 -0.0264 -1.1526  0.4732
  601MPD2    C2 8905   0.518   4.259  17.667 -0.4334  0.1713  0.9891
  601MPD2    C3 8906   0.474   4.141   0.041  0.0689  0.1735  0.3070
  601MPD2    C4 8907   0.470   4.131   0.177 -0.9225  0.2652 -0.8517
  601MPD2    C5 8908   0.522   4.231   0.256 -0.7646 -0.6944 -0.5248
  601MPD2     H 8909   0.519   4.279  17.561  0.5868 -1.8255  0.6194
  601MPD2    H1 8910   0.425   4.044   0.223 -1.3744  0.0627 -1.6723
  601MPD2    H2 8911   0.601   4.428   0.255 -0.7893 -1.2064  1.2184
  601MPD2    H3 8912   0.533   4.203   0.360 -0.6450  0.8474 -0.1194
  601MPD2     N 8913   0.433   4.032  17.653  0.1023 -0.4470  0.1808
  601MPD2    H5 8914   0.408   3.947   0.014 -0.8153 -0.5509 -0.4574
  601MPD2    N1 8915   0.579   4.488  17.681 -0.2496  0.2415  0.6201
  601MPD2    H7 8916   0.553   4.493  17.583  0.0682 -1.9387  0.4228
  602TMC3    C1 8917   0.622   4.719  17.643  0.7773 -0.2752 -0.7828
  602TMC3    C2 8918   0.723   0.083  17.643 -0.1232 -0.3591  0.3037
  602TMC3    C3 8919   0.694   0.201  17.578 -0.3295 -0.2754  0.8170
  602TMC3    C4 8920   0.504   0.010  17.577  0.2628 -0.2010  0.2222
  602TMC3    C5 8921   0.478   0.130  17.512 -0.7673  0.2862  0.1309
  602TMC3    C6 8922   0.578   0.225  17.515  0.0787 -0.5962  1.1962
  602TMC3     C 8923   0.623   4.609   0.047  0.9812 -0.4200  0.6073
  602TMC3     O 8924   0.692   4.636   0.145 -0.1097 -0.1680  0.0205
  602TMC3     H 8925   0.815   0.065   0.010 -0.4831 -4.0572 -0.2758
  602TMC3    H1 8926   0.422   4.660  17.586  0.5396 -0.3909  1.1598
  602TMC3    H2 8927   0.572   0.323  17.468  0.7534 -0.5115  1.2811
  602TMC3    C7 8928   0.386   0.128  17.399  0.4549  0.0639 -0.5972
  602TMC3    C8 8929   0.814   0.252  17.514 -0.3085  0.0533 -0.4883
  602TMC3    O1 8930   0.324   0.023  17.391 -0.2784 -0.3478 -0.3641
  602TMC3    O2 8931   0.916   0.260  17.574  0.5571 -0.0047 -0.1065
  603TMC3    C1 8932   3.030   0.564  10.787  0.7380 -0.3649 -0.6497
  603TMC3    C2 8933   3.087   0.555  10.915 -0.8214  0.6512  0.1905
  603TMC3    C3 8934   3.203   0.626  10.937 -0.0097  0.8254 -0.0620
  603TMC3    C4 8935   3.082   0.637  10.686 -0.0436 -0.3445 -0.0808
  603TMC3    C5 8936   3.196   0.711  10.713  0.1253 -0.1268  0.6977
  603TMC3    C6 8937   3.252   0.709  10.833 -0.2468  0.9949 -0.7425
  603TMC3     C 8938   2.976   0.438  10.742 -0.4432 -0.0342 -0.1995
  603TMC3     O 8939   2.974   0.430  10.624 -0.5904 -0.2205  0.9558
  603TMC3     H 8940   3.034   0.505  10.995 -1.8381  1.1465 -0.1765
  603TMC3    H1 8941   3.045   0.628  10.584 -0.8681  2.2040 -0.0229
  603TMC3    H2 8942   3.339   0.770  10.855 -0.4845  0.3112  2.1048
  603TMC3    C7 8943   3.281   0.760  10.606  0.1974 -0.3642 -0.3424
  603TMC3    C8 8944   3.266   0.623  11.071  0.1899 -0.0311  0.0785
  603TMC3    O1 8945   3.396   0.795  10.628 -0.5295 -0.6113 -0.8851
  603TMC3    O2 8946   3.308   0.726  11.119 -0.0407 -0.3112 -0.2783
  604MPD2     C 8947   4.181   3.300  16.070 -0.0779  0.1645 -0.2235
  604MPD2    C1 8948   4.152   3.419  16.009 -0.2264  0.4722 -0.4378
  604MPD2    C2 8949   4.177   3.429  15.875 -0.0370 -0.4778 -0.1590
  604MPD2    C3 8950   4.231   3.329  15.803 -0.4465  0.2115 -0.7704
  604MPD2    C4 8951   4.268   3.212  15.863  0.5629  0.5232 -0.0359
  604MPD2    C5 8952   4.244   3.201  15.999 -0.8710  0.3906 -0.4173
  604MPD2     H 8953   4.160   3.524  15.825  1.8620  0.7176  1.4744
  604MPD2    H1 8954   4.300   3.126  15.805 -0.3268  0.8030 -0.9377
  604MPD2    H2 8955   4.165   3.285  16.176  3.7052 -0.9782  0.1909
  604MPD2    H3 8956   4.278   3.110  16.046  1.2169  0.4619 -1.8256
  604MPD2     N 8957   4.237   3.339  15.664  0.1127  0.3966 -0.0160
  604MPD2    H5 8958   4.195   3.415  15.612 -1.9841 -0.5814  0.2756
  604MPD2    N1 8959   4.101   3.522  16.090 -0.2810 -0.0886 -0.0705
  604MPD2    H7 8960   4.100   3.502  16.190 -0.4087  0.4064  0.0308
  605TMC3    C1 8961   3.999   3.730  16.152 -0.3979  0.8477  0.2475
  605TMC3    C2 8962   4.095   3.742  16.252 -0.1387  0.2739 -0.1820
  605TMC3    C3 8963   4.107   3.869  16.308 -0.1130 -0.4471 -0.0832
  605TMC3    C4 8964   3.912   3.823  16.114 -0.6834 -0.1479 -0.3947
  605TMC3    C5 8965   3.926   3.944  16.178 -0.1860  0.4893  0.0449
  605TMC3    C6 8966   4.025   3.969  16.270  0.0943  0.4205  0.1511
  605TMC3     C 8967   4.041   3.638  16.047 -0.0021 -0.2298 -0.4683
  605TMC3     O 8968   4.021   3.682  15.932  0.5365 -0.1975  0.1679
  605TMC3     H 8969   4.171   3.668  16.273 -0.2088  0.2619  0.0356
  605TMC3    H1 8970   3.840   3.808  16.035 -1.3916  1.0848  0.0140
  605TMC3    H2 8971   4.023   4.067  16.317 -0.8476  0.7763 -0.6356
  605TMC3    C7 8972   3.821   4.048  16.175  0.6897 -0.1908  0.3475
  605TMC3    C8 8973   4.231   3.909  16.377 -0.2686 -0.6492 -0.2879
  605TMC3    O1 8974   3.843   4.160  16.216  0.2091  0.0287  0.3675
  605TMC3    O2 8975   4.327   3.831  16.366 -0.4439  0.4818  0.1113
  606TMC3    C1 8976   1.373   2.402  16.576  0.0384  0.6266  0.1750
  606TMC3    C2 8977   1.401   2.369  16.699  0.1111 -0.1998  0.2499
  606TMC3    C3 8978   1.316   2.280  16.759  0.1433 -0.2044  0.1620
  606TMC3    C4 8979   1.275   2.343  16.503 -0.2388 -0.2454 -0.1536
  606TMC3    C5 8980   1.183   2.272  16.575 -0.0781 -0.2417 -0.3203
  606TMC3    C6 8981   1.200   2.231  16.702 -0.8507 -0.3640  0.7633
  606TMC3     C 8982   1.463   2.490  16.498 -0.6003 -0.6175 -0.2580
  606TMC3     O 8983   1.420   2.531  16.389 -0.0627  0.1213  0.2880
  606TMC3     H 8984   1.464   2.429  16.763 -0.4273  0.9263 -0.2695
  606TMC3    H1 8985   1.262   2.350  16.396  0.5571 -0.1351 -0.2376
  606TMC3    H2 8986   1.137   2.159  16.753 -1.1901  0.1546  1.0776
  606TMC3    C7 8987   1.092   2.189  16.504 -0.5355  0.8150  0.2066
  606TMC3    C8 8988   1.356   2.239  16.895  0.3093 -0.2348  0.2888
  606TMC3    O1 8989   1.134   2.148  16.397  0.1096  0.4888  0.4297
  606TMC3    O2 8990   1.441   2.310  16.949  0.0968  0.1159  0.3834
  607MPD2     C 8991   2.439   0.427  11.021 -0.0033 -0.2214 -0.3146
  607MPD2    C1 8992   2.489   0.477  11.138 -0.8080  0.6684  0.0668
  607MPD2    C2 8993   2.423   0.443  11.255  0.2668  0.3315  0.3969
  607MPD2    C3 8994   2.316   0.350  11.255 -0.5984  0.1047  0.3434
  607MPD2    C4 8995   2.266   0.308  11.136 -0.2852  0.0319 -0.0810
  607MPD2    C5 8996   2.328   0.348  11.023  0.1006  0.0843 -0.2939
  607MPD2     H 8997   2.477   0.468  11.346 -1.0799  2.3808  0.6085
  607MPD2    H1 8998   2.171   0.257  11.123 -0.1259  0.0508 -1.3317
  607MPD2    H2 8999   2.481   0.451  10.924 -0.4877  0.0224 -0.4648
  607MPD2    H3 9000   2.289   0.323  10.925 -0.4341  0.8786 -0.2853
  607MPD2     N 9001   2.268   0.319  11.383  0.5255 -0.0245 -0.3238
  607MPD2    H5 9002   2.321   0.361  11.459  1.4529 -0.1392 -0.9072
  607MPD2    N1 9003   2.602   0.559  11.149  0.4227 -0.7043 -0.3775
  607MPD2    H7 9004   2.609   0.595  11.244  0.8846  0.9735 -1.0416
  608TMC3    C1 9005   2.799   0.664  11.122  0.0712 -0.1566 -0.0346
  608TMC3    C2 9006   2.830   0.616  11.242  0.1694  0.5303  0.0474
  608TMC3    C3 9007   2.936   0.683  11.307 -0.0207  0.7267 -0.0535
  608TMC3    C4 9008   2.869   0.763  11.053  0.0267 -0.3636  0.1352
  608TMC3    C5 9009   2.964   0.828  11.124  0.2116  0.3293  0.5079
  608TMC3    C6 9010   3.005   0.791  11.251 -0.2018 -0.4034  0.4133
  608TMC3     C 9011   2.690   0.599  11.051  0.4787  0.4805 -0.0581
  608TMC3     O 9012   2.696   0.581  10.928  0.2111  0.1052 -0.0541
  608TMC3     H 9013   2.783   0.529  11.285 -1.5763 -0.1361 -3.2391
  608TMC3    H1 9014   2.826   0.804  10.962  4.0991  0.3138 -1.4637
  608TMC3    H2 9015   3.072   0.853  11.309 -1.1369  0.4040  0.6263
  608TMC3    C7 9016   3.036   0.928  11.054  0.5137 -0.3000  0.0004
  608TMC3    C8 9017   2.935   0.685  11.451 -0.4716  0.3587 -0.7176
  608TMC3    O1 9018   3.012   0.932  10.931 -0.2454 -0.5715  0.0323
  608TMC3    O2 9019   3.037   0.718  11.511  0.3014 -0.4191 -0.4482
  609TMC3    C1 9020   1.708   0.095   8.942  0.8194  0.3413  0.2181
  609TMC3    C2 9021   1.776   0.209   8.928 -0.6681  0.1150  0.2667
  609TMC3    C3 9022   1.913   0.213   8.913  0.4315  0.1651 -0.2115
  609TMC3    C4 9023   1.775   4.695   8.937 -0.0372 -0.2215 -0.3133
  609TMC3    C5 9024   1.908   4.701   8.932 -0.8519 -0.3788 -0.5193
  609TMC3    C6 9025   1.982   0.093   8.911 -0.5392 -0.7379 -0.5546
  609TMC3     C 9026   1.565   0.095   8.957  0.2126 -0.3838 -0.1314
  609TMC3     O 9027   1.502   4.715   8.987 -0.0868 -0.1572 -0.3273
  609TMC3     H 9028   1.726   0.305   8.926  0.0939  0.5010 -0.2854
  609TMC3    H1 9029   1.718   4.604   8.949 -1.0133  0.6816  1.9955
  609TMC3    H2 9030   2.090   0.088   8.914 -0.4314  2.1667  1.5647
  609TMC3    C7 9031   1.971   4.580   8.889  0.5312 -0.9559 -0.7814
  609TMC3    C8 9032   1.971   0.335   8.850 -0.3775  0.1801 -0.2677
  609TMC3    O1 9033   2.084   4.596   8.851  0.2765 -0.2712  0.6959
  609TMC3    O2 9034   1.905   0.433   8.842 -0.2775  0.3410 -0.1383
  610TMC3    C1 9035   3.989   0.813  12.087  0.3380 -0.0584  0.7822
  610TMC3    C2 9036   4.081   0.898  12.025 -0.1732 -0.3119  0.0754
  610TMC3    C3 9037   4.211   0.898  12.073  0.2472  0.0954 -0.3765
  610TMC3    C4 9038   4.027   0.741  12.193 -0.3563  0.0913 -0.5543
  610TMC3    C5 9039   4.152   0.764  12.248 -0.2773 -0.1013 -0.9105
  610TMC3    C6 9040   4.245   0.845  12.192 -0.6413 -0.1657 -0.3045
  610TMC3     C 9041   3.866   0.779  12.006 -0.5197 -0.5185  0.1506
  610TMC3     O 9042   3.844   0.864  11.921 -0.6423 -0.5769  0.3481
  610TMC3     H 9043   4.055   0.962  11.941  0.5921 -0.8602 -0.5853
  610TMC3    H1 9044   3.957   0.669  12.233 -0.7260  1.2222  0.8657
  610TMC3    H2 9045   4.347   0.843  12.229 -1.1131 -0.9475  0.9646
  610TMC3    C7 9046   4.203   0.661  12.344 -0.2543 -0.3221  0.2585
  610TMC3    C8 9047   4.316   0.972  12.002 -0.2715  0.7233  0.5005
  610TMC3    O1 9048   4.137   0.561  12.366 -0.2666 -0.1249 -0.3159
  610TMC3    O2 9049   4.432   0.968  12.053  0.2384 -0.3136 -0.5443
  611MPD2     C 9050   2.321   0.691  10.054  0.2982 -0.3526 -0.7293
  611MPD2    C1 9051   2.322   0.677   9.924  0.2428 -0.0652 -0.6822
  611MPD2    C2 9052   2.436   0.700   9.854 -1.2359 -0.0560  0.0872
  611MPD2    C3 9053   2.551   0.737   9.920 -0.7567  0.0038 -0.0957
  611MPD2    C4 9054   2.547   0.752  10.062 -0.1321 -0.1040  0.1110
  611MPD2    C5 9055   2.430   0.735  10.131 -0.0153  0.4089  0.3450
  611MPD2     H 9056   2.448   0.701   9.746 -1.2234 -0.6678  0.0806
  611MPD2    H1 9057   2.635   0.780  10.118 -0.0227 -0.5226  0.1486
  611MPD2    H2 9058   2.229   0.671  10.108  1.6466 -0.7825  1.4375
  611MPD2    H3 9059   2.419   0.739  10.238 -1.0627 -0.8136  0.2891
  611MPD2     N 9060   2.681   0.745   9.866 -0.1519 -0.3598 -0.7704
  611MPD2    H5 9061   2.750   0.788   9.927 -2.0976  0.5472  0.7949
  611MPD2    N1 9062   2.208   0.611   9.858  1.1172 -0.1061 -0.2412
  611MPD2    H7 9063   2.141   0.576   9.927  3.1076  0.5490  2.0287
  612TMC3    C1 9064   2.852   0.776   9.711  0.1994  0.4126 -0.2125
  612TMC3    C2 9065   2.939   0.782   9.818 -0.6990 -0.3194  0.5450
  612TMC3    C3 9066   3.055   0.864   9.806 -0.7895 -0.5815  0.4865
  612TMC3    C4 9067   2.866   0.854   9.600 -0.3394  0.3562 -0.2700
  612TMC3    C5 9068   2.967   0.942   9.599 -0.3039  0.7761  0.7140
  612TMC3    C6 9069   3.064   0.946   9.693  0.3447 -0.4511  0.2238
  612TMC3     C 9070   2.712   0.737   9.733  0.0819 -0.3444 -0.0272
  612TMC3     O 9071   2.637   0.721   9.637 -0.4646  0.3613 -0.1908
  612TMC3     H 9072   2.936   0.701   9.890 -2.7554 -0.0384  0.7983
  612TMC3    H1 9073   2.794   0.851   9.519  1.1154 -3.4232 -1.4052
  612TMC3    H2 9074   3.156   1.001   9.676  0.0906 -0.1671 -0.2673
  612TMC3    C7 9075   2.979   1.029   9.488 -0.4557  0.3282 -0.3379
  612TMC3    C8 9076   3.169   0.867   9.894  0.6588  0.0426 -0.3132
  612TMC3    O1 9077   2.949   1.000   9.376  1.0230  0.0095 -0.5218
  612TMC3    O2 9078   3.277   0.903   9.853  0.6874 -0.4850 -0.0221
  613MPD2     C 9079   2.044   2.441  15.732 -1.0758  0.0828 -0.1352
  613MPD2    C1 9080   2.032   2.327  15.655  0.6251  0.5990 -0.4190
  613MPD2    C2 9081   1.908   2.270  15.661  0.2839 -0.0260  0.1896
  613MPD2    C3 9082   1.800   2.332  15.719  0.1052 -0.6681  0.0594
  613MPD2    C4 9083   1.810   2.442  15.797  0.2021  0.2080  0.0641
  613MPD2    C5 9084   1.937   2.496  15.809 -0.1757 -0.0509  0.0547
  613MPD2     H 9085   1.877   2.187  15.597  1.9501  0.1929 -0.9087
  613MPD2    H1 9086   1.729   2.488  15.851  0.6839 -1.1081  1.9163
  613MPD2    H2 9087   2.142   2.487  15.739 -1.2266  0.6618 -1.9938
  613MPD2    H3 9088   1.945   2.588  15.866  1.2910 -0.7435  0.9610
  613MPD2     N 9089   1.678   2.266  15.696  0.0497 -0.5115  0.6435
  613MPD2    H5 9090   1.681   2.184  15.636 -2.3809 -0.6042  0.6568
  613MPD2    N1 9091   2.141   2.281  15.572 -0.4143  0.9806 -0.0440
  613MPD2    H7 9092   2.225   2.339  15.571 -0.3419  0.8761 -0.0456
  614TMC3    C1 9093   2.238   2.155  15.405  0.5361  0.7320 -0.2779
  614TMC3    C2 9094   2.259   2.032  15.353  0.4868  0.2840 -0.8254
  614TMC3    C3 9095   2.286   2.031  15.219 -0.2786 -1.1578 -0.1569
  614TMC3    C4 9096   2.257   2.262  15.324 -0.4638  0.6433  0.6645
  614TMC3    C5 9097   2.320   2.252  15.201 -0.1730  0.5043  0.2430
  614TMC3    C6 9098   2.322   2.134  15.136  0.0459  0.3391 -0.1031
  614TMC3     C 9099   2.132   2.165  15.499 -0.1856  0.2490  0.6353
  614TMC3     O 9100   2.066   2.067  15.516  0.5107  0.4301  0.4124
  614TMC3     H 9101   2.243   1.938  15.406 -1.1155  1.9175  1.5681
  614TMC3    H1 9102   2.219   2.355  15.366  0.1218  0.2441  2.0947
  614TMC3    H2 9103   2.362   2.132  15.035 -0.7849 -1.0765 -0.4127
  614TMC3    C7 9104   2.339   2.375  15.125 -0.1357 -0.1446  0.2252
  614TMC3    C8 9105   2.189   1.947  15.154 -0.1887  0.3487 -0.4353
  614TMC3    O1 9106   2.438   2.390  15.059  0.3124  0.2163  0.5051
  614TMC3    O2 9107   2.215   1.908  15.043  0.5770 -0.2352  0.5536
  615MPD2     C 9108   1.266   3.691  15.420  0.7695  0.0505 -0.9002
  615MPD2    C1 9109   1.178   3.719  15.515 -0.2722 -0.0330 -0.7563
  615MPD2    C2 9110   1.044   3.733  15.472 -0.4044 -0.0493  0.0497
  615MPD2    C3 9111   0.997   3.721  15.342 -0.0581 -0.2277 -0.5645
  615MPD2    C4 9112   1.095   3.694  15.255  0.2540 -0.1043 -0.3187
  615MPD2    C5 9113   1.226   3.679  15.296  0.2155 -0.3058  0.8285
  615MPD2     H 9114   0.974   3.778  15.542 -0.9389  0.9353 -1.1159
  615MPD2    H1 9115   1.084   3.691  15.147  1.7724  3.1957 -0.5595
  615MPD2    H2 9116   1.374   3.688  15.434  0.6921  1.6408  0.0340
  615MPD2    H3 9117   1.300   3.656  15.219  0.1542  0.7063  0.4721
  615MPD2     N 9118   0.869   3.766  15.297  0.0280 -0.6323 -0.1465
  615MPD2    H5 9119   0.853   3.773  15.197 -0.8774  1.5317  0.1445
  615MPD2    N1 9120   1.229   3.736  15.643  1.0246  1.0845  0.1211
  615MPD2    H7 9121   1.329   3.723  15.654  0.8221 -1.3753 -0.9478
  616TMC3    C1 9122   1.242   3.810  15.864 -0.2753 -0.9969 -0.5787
  616TMC3    C2 9123   1.371   3.844  15.841  0.4935  0.1496  0.5345
  616TMC3    C3 9124   1.429   3.904  15.949  0.7244  0.1084  0.0446
  616TMC3    C4 9125   1.175   3.823  15.984 -1.3313  0.3720  0.1639
  616TMC3    C5 9126   1.241   3.864  16.091 -0.3892  0.5733  0.5372
  616TMC3    C6 9127   1.369   3.916  16.076  0.4427 -1.0243 -0.4092
  616TMC3     C 9128   1.160   3.765  15.758  0.3779 -0.0041 -0.0729
  616TMC3     O 9129   1.041   3.753  15.766 -0.2577 -0.0541 -0.2134
  616TMC3     H 9130   1.410   3.862  15.742  1.0037  0.2111  0.7487
  616TMC3    H1 9131   1.076   3.780  15.990 -0.3925 -1.8421 -0.4498
  616TMC3    H2 9132   1.426   3.961  16.156 -1.4351  1.6362 -0.5594
  616TMC3    C7 9133   1.157   3.888  16.206  0.0348 -0.3291  0.1216
  616TMC3    C8 9134   1.566   3.952  15.942 -0.1834 -0.0157 -0.1214
  616TMC3    O1 9135   1.034   3.872  16.203 -0.0201 -0.7873  0.4549
  616TMC3    O2 9136   1.622   3.974  16.047 -0.1802  0.2558  0.1613
  617MPD2     C 9137   3.914   2.667  13.324  1.1366  0.3603  0.8834
  617MPD2    C1 9138   3.929   2.530  13.332  0.2629 -0.6495  0.7621
  617MPD2    C2 9139   3.837   2.453  13.395 -0.7236  0.0388  0.1538
  617MPD2    C3 9140   3.732   2.510  13.461 -0.8195 -0.0473 -0.1898
  617MPD2    C4 9141   3.723   2.646  13.472 -0.3706 -0.7011 -0.1194
  617MPD2    C5 9142   3.811   2.719  13.403 -0.1914 -0.5608  0.4784
  617MPD2     H 9143   3.842   2.344  13.400 -0.7657  0.0231 -0.1282
  617MPD2    H1 9144   3.639   2.694  13.520 -0.5620 -1.0879 -0.0764
  617MPD2    H2 9145   3.978   2.725  13.258  0.6885  0.8340  0.8739
  617MPD2    H3 9146   3.802   2.827  13.410 -3.0579 -0.5405 -2.8793
  617MPD2     N 9147   3.638   2.430  13.527 -0.2884 -0.0203 -0.5768
  617MPD2    H5 9148   3.585   2.471  13.603  1.1577  0.0971  0.3654
  617MPD2    N1 9149   4.040   2.471  13.267 -0.3538 -0.3030 -0.3836
  617MPD2    H7 9150   4.110   2.535  13.231 -1.5757  1.7719  0.9766
  618TMC3    C1 9151   4.212   2.330  13.225 -0.6528 -0.3026 -0.3441
  618TMC3    C2 9152   4.273   2.210  13.250  0.1507 -0.0321 -0.6021
  618TMC3    C3 9153   4.398   2.181  13.189 -0.4956  0.3960  0.4360
  618TMC3    C4 9154   4.274   2.426  13.144  0.2739 -1.1423 -1.0472
  618TMC3    C5 9155   4.405   2.416  13.125  0.2554  0.4372  0.2649
  618TMC3    C6 9156   4.468   2.298  13.149  0.1089  0.3345 -0.4051
  618TMC3     C 9157   4.076   2.336  13.269 -0.2157  0.0080  0.0817
  618TMC3     O 9158   4.024   2.240  13.328 -0.3767 -0.1971  0.1122
  618TMC3     H 9159   4.209   2.133  13.293 -0.9630  1.3249  0.1495
  618TMC3    H1 9160   4.232   2.521  13.112 -0.7116 -0.4476  2.2952
  618TMC3    H2 9161   4.568   2.296  13.108 -0.5257 -2.9511 -1.7830
  618TMC3    C7 9162   4.465   2.505  13.030  0.0039 -0.4015  0.0807
  618TMC3    C8 9163   4.372   2.088  13.072 -0.7975 -0.2408  1.0843
  618TMC3    O1 9164   4.578   2.544  13.052 -0.1758 -0.1347 -0.4066
  618TMC3    O2 9165   4.259   2.051  13.059 -0.4943  0.6555  0.3705
  619MPD2     C 9166   1.041   3.684  13.291  0.9047 -0.4974  0.2312
  619MPD2    C1 9167   0.983   3.756  13.186 -0.2627 -0.0574  0.2318
  619MPD2    C2 9168   0.844   3.755  13.170 -0.1194  0.3158 -0.5928
  619MPD2    C3 9169   0.768   3.682  13.267 -0.4800  0.5973  0.3424
  619MPD2    C4 9170   0.833   3.618  13.368 -1.0040 -0.3476  0.0025
  619MPD2    C5 9171   0.965   3.621  13.387  0.2166 -1.3049  0.4792
  619MPD2     H 9172   0.806   3.782  13.072 -1.9426  0.8134  0.2684
  619MPD2    H1 9173   0.774   3.550  13.430  0.5894 -0.9036  0.9053
  619MPD2    H2 9174   1.147   3.671  13.306  1.5380  3.6135 -0.8391
  619MPD2    H3 9175   1.008   3.562  13.467  0.0070  0.5582  1.9830
  619MPD2     N 9176   0.627   3.673  13.245  0.7581 -0.1284 -0.3231
  619MPD2    H5 9177   0.585   3.731  13.174  1.0640 -0.4252 -0.7425
  619MPD2    N1 9178   1.074   3.815  13.089  0.3112 -0.0882 -0.6917
  619MPD2    H7 9179   1.031   3.861  13.008 -0.6322  0.7679  0.2897
  620TMC3    C1 9180   1.283   3.869  12.975 -0.4404  0.5338  0.4098
  620TMC3    C2 9181   1.283   3.811  12.853  0.3867  0.7625 -1.1487
  620TMC3    C3 9182   1.307   3.888  12.737 -0.3203 -0.4367 -0.3426
  620TMC3    C4 9183   1.305   4.001  12.991 -0.7432 -0.0084 -0.2822
  620TMC3    C5 9184   1.331   4.078  12.884  0.3754  0.1771 -0.3436
  620TMC3    C6 9185   1.338   4.017  12.759 -0.6854  0.7822  0.1211
  620TMC3     C 9186   1.216   3.807  13.090 -0.2674 -0.0509 -0.4720
  620TMC3     O 9187   1.297   3.760  13.175 -0.3207 -0.6182 -0.1230
  620TMC3     H 9188   1.268   3.704  12.841 -0.5498  0.8923 -1.1288
  620TMC3    H1 9189   1.292   4.047  13.089  0.5912 -0.5197  0.1440
  620TMC3    H2 9190   1.359   4.075  12.670 -0.6315 -0.6568 -0.8063
  620TMC3    C7 9191   1.263   4.205  12.877  0.6058 -0.4930  0.1042
  620TMC3    C8 9192   1.184   3.877  12.654  0.2965  0.6202  0.2308
  620TMC3    O1 9193   1.288   4.280  12.786 -0.1765 -0.2256 -0.0085
  620TMC3    O2 9194   1.107   3.789  12.686  0.1293 -0.2694 -0.4174
  621MPD2     C 9195   1.402   3.208   9.120  0.6350  0.1621  0.7199
  621MPD2    C1 9196   1.417   3.178   9.251  0.1890 -0.3776  0.1080
  621MPD2    C2 9197   1.484   3.266   9.334 -0.0802 -0.2275  0.1233
  621MPD2    C3 9198   1.548   3.381   9.289 -0.1925  0.4986 -0.4057
  621MPD2    C4 9199   1.528   3.407   9.158 -0.0034  0.2608  0.5253
  621MPD2    C5 9200   1.455   3.326   9.075  0.6437  0.5966  0.2178
  621MPD2     H 9201   1.489   3.237   9.439 -0.0230 -1.2532 -0.1608
  621MPD2    H1 9202   1.570   3.487   9.098  2.2561  0.4728  2.3753
  621MPD2    H2 9203   1.340   3.153   9.049  0.4575  0.6042  0.5317
  621MPD2    H3 9204   1.455   3.348   8.969 -0.1530 -0.5338 -0.0189
  621MPD2     N 9205   1.607   3.474   9.375 -0.3032  0.0409 -0.4365
  621MPD2    H5 9206   1.605   3.446   9.473  2.7386  1.4761  0.0426
  621MPD2    N1 9207   1.377   3.058   9.306  0.2569  0.0257 -0.0265
  621MPD2    H7 9208   1.402   3.045   9.403 -2.2617  1.5968  0.8225
  622TMC3    C1 9209   1.313   2.822   9.309  0.1426  0.1645  0.1834
  622TMC3    C2 9210   1.255   2.842   9.432  0.3734 -0.6055  0.2850
  622TMC3    C3 9211   1.212   2.734   9.499  0.1581 -0.1876 -0.4349
  622TMC3    C4 9212   1.305   2.706   9.247 -0.4217 -0.2488 -0.1893
  622TMC3    C5 9213   1.252   2.598   9.305  0.0642 -0.2977  1.1669
  622TMC3    C6 9214   1.203   2.612   9.436 -0.5773 -0.5763 -0.8262
  622TMC3     C 9215   1.336   2.945   9.229 -0.3506 -1.3368 -0.2223
  622TMC3     O 9216   1.328   2.939   9.108 -0.2505 -0.4179  0.6255
  622TMC3     H 9217   1.226   2.940   9.466  0.0755 -1.3665  2.2194
  622TMC3    H1 9218   1.322   2.705   9.140  0.8549 -1.3698  0.0221
  622TMC3    H2 9219   1.172   2.520   9.485  1.9668 -0.5363  0.8518
  622TMC3    C7 9220   1.208   2.488   9.223 -0.0125 -0.0503  0.1264
  622TMC3    C8 9221   1.136   2.740   9.625 -0.4011  0.2091 -0.6190
  622TMC3    O1 9222   1.110   2.427   9.258 -0.2981  0.5063  0.3400
  622TMC3    O2 9223   1.074   2.641   9.671  0.3362  0.0487 -0.3451
  623MPD2     C 9224   4.565   3.840  15.713  0.4373  0.7349 -0.4004
  623MPD2    C1 9225   4.511   3.899  15.821 -0.3083 -0.3622 -0.1796
  623MPD2    C2 9226   4.595   3.964  15.906  0.1447  0.1215  0.2825
  623MPD2    C3 9227   0.013   3.983  15.878  0.0448 -0.4507 -0.4833
  623MPD2    C4 9228   0.066   3.928  15.769  0.8022 -0.1657  0.0759
  623MPD2    C5 9229   4.701   3.859  15.689 -0.4426 -0.2466  0.2546
  623MPD2     H 9230   4.560   4.014  15.996 -0.7621  1.6508 -0.9234
  623MPD2    H1 9231   0.171   3.939  15.743  0.8574 -2.5432 -0.7865
  623MPD2    H2 9232   4.509   3.778  15.645  0.5414 -1.3746  1.4486
  623MPD2    H3 9233   0.019   3.806  15.604  0.7917  0.9686  0.0672
  623MPD2     N 9234   0.090   4.048  15.974 -0.0069  0.2829  0.1658
  623MPD2    H5 9235   0.036   4.063  16.059 -0.0196 -0.1856  0.2405
  623MPD2    N1 9236   4.373   3.896  15.853 -0.3325  0.3163 -0.3720
  623MPD2    H7 9237   4.346   3.929  15.945  2.4305  0.7289  0.2665
  624TMC3    C1 9238   0.348   4.018  16.310  0.6921 -0.4934  0.9648
  624TMC3    C2 9239   0.241   4.058  16.387  0.0563  0.2601  0.1351
  624TMC3    C3 9240   0.147   4.126  16.312  0.2768 -0.7361 -0.1208
  624TMC3    C4 9241   0.357   4.039  16.172  0.6249  0.1351 -0.3866
  624TMC3    C5 9242   0.262   4.117  16.109  0.4091 -0.8565 -0.7269
  624TMC3    C6 9243   0.153   4.164  16.180 -1.1481  0.1120  0.3218
  624TMC3     C 9244   0.461   3.952  16.375 -0.1990 -0.2064  0.0730
  624TMC3     O 9245   0.506   4.011  16.474  0.6764 -0.5541 -0.0104
  624TMC3     H 9246   0.227   4.039  16.492  2.4346  1.5468  0.6833
  624TMC3    H1 9247   0.442   4.007  16.113 -0.2711 -2.5780 -0.2078
  624TMC3    H2 9248   0.076   4.221  16.129  0.0206 -0.0164 -1.5827
  624TMC3    C7 9249   0.222   4.066  15.976  0.0431  0.2004 -0.6380
  624TMC3    C8 9250   0.015   4.099  16.347 -0.3534  0.7356 -0.5137
  624TMC3    O1 9251   0.310   4.042  15.898  0.1084 -0.2978  0.1315
  624TMC3    O2 9252   4.671   4.050  16.258 -0.6055 -0.6578 -0.6028
  625MPD2     C 9253   4.663   0.441   0.210 -0.1714  0.5865  0.3937
  625MPD2    C1 9254   0.063   0.500   0.232  0.6414  0.6832  0.3479
  625MPD2    C2 9255   0.147   0.454   0.336  0.4237 -0.1307 -0.6752
  625MPD2    C3 9256   0.116   0.341   0.400 -0.2010  0.5556 -0.3255
  625MPD2    C4 9257   4.710   0.286   0.379 -0.2959  0.3144  0.1337
  625MPD2    C5 9258   4.622   0.326   0.281 -0.0670 -0.1565  0.3080
  625MPD2     H 9259   0.242   0.501   0.358 -0.3583  0.8703  0.5659
  625MPD2    H1 9260   4.666   0.202   0.432 -0.6535 -0.3355 -1.2146
  625MPD2    H2 9261   4.597   0.489   0.139  0.3363 -1.4546 -1.4540
  625MPD2    H3 9262   4.523   0.283   0.272 -0.2838  0.4742 -0.3260
  625MPD2     N 9263   0.215   0.306   0.489  0.2788 -0.2984  0.1533
  625MPD2    H5 9264   0.302   0.358   0.489 -0.5877  1.1694  0.4026
  625MPD2    N1 9265   0.112   0.611   0.166 -0.5164 -1.1252  0.4967
  625MPD2    H7 9266   0.199   0.653   0.198 -0.7158  0.4861 -1.0808
  626TMC3    C1 9267   0.106   0.791   0.024 -0.9004  0.3282 -0.6059
  626TMC3    C2 9268   0.058   0.844  17.598 -0.2987 -0.9952 -0.0202
  626TMC3    C3 9269   0.113   0.963  17.565  0.0795  0.2744  0.0908
  626TMC3    C4 9270   0.191   0.855   0.113 -0.7637 -0.6255  0.3898
  626TMC3    C5 9271   0.211   0.986   0.085 -0.2419  0.6969 -0.3339
  626TMC3    C6 9272   0.196   1.031  17.643 -0.2381 -0.3620  0.5112
  626TMC3     C 9273   0.053   0.661   0.056 -0.5551 -0.1850  0.4374
  626TMC3     O 9274   4.686   0.612  17.680  0.6087  0.0512  0.3703
  626TMC3     H 9275   4.700   0.803  17.536 -1.3314  0.3363  0.4336
  626TMC3    H1 9276   0.230   0.822   0.208 -1.3405  2.9184  1.8755
  626TMC3    H2 9277   0.229   1.131  17.616 -0.6034  0.0814  1.7487
  626TMC3    C7 9278   0.323   1.058   0.154  0.4743 -0.3707 -0.1781
  626TMC3    C8 9279   0.049   1.043  17.463  0.0850 -0.1226 -0.5131
  626TMC3    O1 9280   0.393   1.139   0.089  0.1256  0.5528  0.2042
  626TMC3    O2 9281   0.060   1.009  17.345  0.7699  0.2902 -0.5532
  627MPD2     C 9282   3.192   1.198  14.245  0.5943 -0.1414  0.2314
  627MPD2    C1 9283   3.281   1.118  14.319  0.4259  0.5020 -0.4542
  627MPD2    C2 9284   3.238   0.995  14.366 -0.0519  0.7261  0.8052
  627MPD2    C3 9285   3.122   0.939  14.315  0.7398 -0.3601  0.3085
  627MPD2    C4 9286   3.043   1.002  14.225  0.1331 -0.1776 -0.3490
  627MPD2    C5 9287   3.078   1.135  14.191  0.1529  0.0761  0.5884
  627MPD2     H 9288   3.308   0.954  14.438  0.4034  1.3338  0.7071
  627MPD2    H1 9289   2.945   0.964  14.197 -0.2477 -0.0964  0.8644
  627MPD2    H2 9290   3.214   1.299  14.212 -1.5979  0.4043  0.4505
  627MPD2    H3 9291   3.005   1.183  14.128  1.7756 -0.8035 -1.9855
  627MPD2     N 9292   3.099   0.809  14.364 -0.5999  0.0011 -0.2543
  627MPD2    H5 9293   3.170   0.778  14.429 -1.7281 -1.3575  0.3217
  627MPD2    N1 9294   3.410   1.159  14.355 -0.0480  0.1775 -0.1975
  627MPD2    H7 9295   3.481   1.090  14.377  1.3577  1.4392 -0.8027
  628TMC3    C1 9296   3.607   1.273  14.334 -0.5788 -0.3704 -0.1271
  628TMC3    C2 9297   3.662   1.181  14.419  0.3576 -0.1548  0.4073
  628TMC3    C3 9298   3.795   1.174  14.411  0.4629 -0.0886  0.6925
  628TMC3    C4 9299   3.672   1.361  14.257 -0.0146  0.0677  0.1817
  628TMC3    C5 9300   3.805   1.345  14.254 -0.0958 -0.5721 -0.0905
  628TMC3    C6 9301   3.873   1.257  14.334 -0.3890  0.6066 -0.2564
  628TMC3     C 9302   3.465   1.283  14.333  0.3090  0.5978 -0.1995
  628TMC3     O 9303   3.415   1.386  14.290  0.3134  0.3136 -0.4718
  628TMC3     H 9304   3.608   1.131  14.499  0.7521 -1.2293  0.0057
  628TMC3    H1 9305   3.616   1.417  14.183  0.5786  0.8040  0.2888
  628TMC3    H2 9306   3.965   1.212  14.298  0.2391  0.4400  1.5526
  628TMC3    C7 9307   3.884   1.443  14.186  0.2379 -0.3943 -0.1892
  628TMC3    C8 9308   3.860   1.113  14.525  0.7980  0.3219 -0.3215
  628TMC3    O1 9309   4.005   1.420  14.181 -0.4710 -0.0321  0.2964
  628TMC3    O2 9310   3.800   1.033  14.595 -0.0835  0.4987  0.7127
  629MPD2     C 9311   1.911   4.230  15.696 -0.6058  0.1422  0.3349
  629MPD2    C1 9312   1.923   4.179  15.819 -0.1460 -0.4400  0.5142
  629MPD2    C2 9313   1.819   4.089  15.857 -1.0656 -0.0196  0.1342
  629MPD2    C3 9314   1.711   4.070  15.778  0.0062  0.1687  0.3266
  629MPD2    C4 9315   1.704   4.140  15.659 -1.0788  0.5587 -0.2102
  629MPD2    C5 9316   1.805   4.213  15.614 -0.1142  0.6142  0.1358
  629MPD2     H 9317   1.827   4.041  15.954 -0.7402  0.2192  0.2261
  629MPD2    H1 9318   1.616   4.140  15.596 -0.1904 -0.1318 -1.4420
  629MPD2    H2 9319   1.991   4.289  15.653  0.9044 -2.3743 -0.3006
  629MPD2    H3 9320   1.804   4.265  15.519 -1.2285  0.7956  0.2570
  629MPD2     N 9321   1.601   3.998  15.817  0.0675 -0.6185 -0.1064
  629MPD2    H5 9322   1.535   3.985  15.741 -1.9012  0.3139  1.4763
  629MPD2    N1 9323   2.028   4.231  15.900  0.3665 -0.1095  0.2350
  629MPD2    H7 9324   2.085   4.305  15.860 -0.8210  1.7434  1.9579
  630TMC3    C1 9325   2.136   4.289  16.095 -0.4237 -0.1302 -0.2734
  630TMC3    C2 9326   2.174   4.400  16.025  0.5006 -0.1095 -0.0312
  630TMC3    C3 9327   2.188   4.512  16.104 -0.6582 -0.7348 -0.0328
  630TMC3    C4 9328   2.131   4.279  16.236  0.6456  0.1301 -0.5310
  630TMC3    C5 9329   2.154   4.397  16.301  0.3461 -0.5993 -0.1137
  630TMC3    C6 9330   2.181   4.516  16.237  0.0380 -0.4402  0.2303
  630TMC3     C 9331   2.048   4.196  16.031 -0.2347  0.1955  0.7668
  630TMC3     O 9332   1.994   4.111  16.100  0.2530  0.1247 -0.2458
  630TMC3     H 9333   2.199   4.409  15.920  1.3128  1.2756  0.2694
  630TMC3    H1 9334   2.149   4.182  16.281  0.7559 -0.0243 -0.9081
  630TMC3    H2 9335   2.183   4.607  16.295  0.6965 -0.5311  0.3487
  630TMC3    C7 9336   2.244   4.384  16.422 -0.4397 -0.0780 -0.0995
  630TMC3    C8 9337   2.284   4.611  16.056 -0.0301  0.5526  0.1797
  630TMC3    O1 9338   2.228   4.292  16.502  0.2228 -0.1050  0.0241
  630TMC3    O2 9339   2.350   4.666  16.144  0.1729  0.3476  0.2890
  631MPD2     C 9340   0.141   4.484  15.506  0.6362  0.5196 -0.3120
  631MPD2    C1 9341   0.197   4.495  15.377  0.7314  0.1835 -0.0585
  631MPD2    C2 9342   0.257   4.384  15.319 -0.1141  0.4330 -0.0596
  631MPD2    C3 9343   0.275   4.267  15.388  0.3494 -0.0532 -0.1655
  631MPD2    C4 9344   0.220   4.250  15.514  0.4996  0.1572 -0.2920
  631MPD2    C5 9345   0.145   4.358  15.560 -0.4226  0.6220  0.1802
  631MPD2     H 9346   0.288   4.390  15.216  1.5486 -0.0099  0.4064
  631MPD2    H1 9347   0.222   4.155  15.566  0.6929 -0.7778 -2.0471
  631MPD2    H2 9348   0.088   4.562  15.560  1.2743  1.5648 -1.2069
  631MPD2    H3 9349   0.099   4.350  15.658 -2.1465 -0.4353 -0.7162
  631MPD2     N 9350   0.344   4.168  15.318 -0.0579 -0.4757  0.2627
  631MPD2    H5 9351   0.387   4.199  15.231 -1.4388 -1.4497 -0.7556
  631MPD2    N1 9352   0.204   4.632  15.328 -0.1770  0.0141  0.8589
  631MPD2    H7 9353   0.158   4.705  15.380 -1.3875  0.6686 -1.1491
  632TMC3    C1 9354   0.224   0.094  15.179  0.5624  0.4284  0.5696
  632TMC3    C2 9355   0.225   0.175  15.289 -0.6111 -1.1715  0.0232
  632TMC3    C3 9356   0.305   0.278  15.291 -1.3751 -0.1048 -0.0198
  632TMC3    C4 9357   0.296   0.129  15.068  0.4680  0.6781  0.0529
  632TMC3    C5 9358   0.366   0.251  15.068  0.3538 -0.1393  0.1788
  632TMC3    C6 9359   0.376   0.324  15.183 -0.0387 -1.1522  0.4969
  632TMC3     C 9360   0.235   4.669  15.200 -0.4631 -0.3936  0.1700
  632TMC3     O 9361   0.294   4.597  15.123 -0.2608 -0.5176 -0.0253
  632TMC3     H 9362   0.187   0.134  15.381 -2.0697 -1.0603 -0.5322
  632TMC3    H1 9363   0.306   0.068  14.979 -1.2980  0.7519 -0.1950
  632TMC3    H2 9364   0.435   0.414  15.195  1.9381 -2.3791  0.0805
  632TMC3    C7 9365   0.417   0.291  14.938  0.2181 -0.2865 -0.0508
  632TMC3    C8 9366   0.348   0.304  15.426 -0.6457 -0.8798  0.3267
  632TMC3    O1 9367   0.405   0.217  14.843  0.2666  0.1111 -0.1124
  632TMC3    O2 9368   0.271   0.269  15.514  0.0758 -0.3136 -0.1569
  633MPD2     C 9369   4.639   2.569  17.017 -0.8746 -0.1951  0.0680
  633MPD2    C1 9370   0.038   2.544  16.954  0.1050 -0.1682 -0.3351
  633MPD2    C2 9371   0.111   2.433  16.977  1.3775  0.1508  1.1663
  633MPD2    C3 9372   0.054   2.335  17.060 -0.2786 -0.1789  0.1856
  633MPD2    C4 9373   4.655   2.357  17.125 -0.5470  0.7554  0.0095
  633MPD2    C5 9374   4.590   2.476  17.111 -0.1493 -0.0958  0.3194
  633MPD2     H 9375   0.197   2.412  16.914 -0.1993 -1.8860 -0.3231
  633MPD2    H1 9376   4.610   2.287  17.195  0.3849 -0.2477 -0.3908
  633MPD2    H2 9377   4.581   2.660  17.005  1.9118  1.8141  1.5925
  633MPD2    H3 9378   4.492   2.491  17.155 -0.2579  1.0615 -0.3098
  633MPD2     N 9379   0.107   2.209  17.065  0.0179 -0.2123  0.4629
  633MPD2    H5 9380   0.045   2.138  17.102  0.3738  0.5779  2.5739
  633MPD2    N1 9381   0.081   2.626  16.851 -0.2400  0.4000 -0.4378
  633MPD2    H7 9382   0.173   2.608  16.811  1.4489  0.6961  3.2396
  634TMC3    C1 9383   0.040   2.768  16.662  0.0843  0.5629 -0.5363
  634TMC3    C2 9384   0.115   2.675  16.593  0.8215  0.2801  0.3508
  634TMC3    C3 9385   0.173   2.715  16.473 -0.3069 -0.5602  0.3877
  634TMC3    C4 9386   4.717   2.891  16.614 -0.3820  0.0570  0.8436
  634TMC3    C5 9387   0.051   2.916  16.489 -0.3967 -0.3311 -0.5509
  634TMC3    C6 9388   0.133   2.831  16.420 -0.5704  0.1288 -0.4546
  634TMC3     C 9389   0.010   2.733  16.801 -0.3561 -0.4180 -0.0520
  634TMC3     O 9390   4.689   2.822  16.873 -0.3331  0.2943  0.0911
  634TMC3     H 9391   0.130   2.573  16.626 -2.9339 -0.4032 -0.0517
  634TMC3    H1 9392   4.663   2.961  16.677 -0.3483 -0.4132  1.4000
  634TMC3    H2 9393   0.172   2.868  16.326  0.6251  0.7763  0.3074
  634TMC3    C7 9394   4.716   3.012  16.399 -0.7528 -0.3088 -0.0186
  634TMC3    C8 9395   0.194   2.604  16.377 -0.0208 -0.0484  1.4386
  634TMC3    O1 9396   4.717   2.996  16.280 -0.2288 -0.4109  0.4803
  634TMC3    O2 9397   0.160   2.493  16.414 -0.0592 -0.3008 -0.4649
  635TMC3    C1 9398   0.913   3.315  16.857 -0.0782 -0.3635  0.2932
  635TMC3    C2 9399   1.040   3.349  16.899 -0.0040  0.0120  0.4314
  635TMC3    C3 9400   1.138   3.263  16.860 -0.6161  0.2470  0.0341
  635TMC3    C4 9401   0.873   3.189  16.833  0.4838  0.5852 -0.2710
  635TMC3    C5 9402   0.979   3.102  16.810  0.3559 -0.3999  0.4416
  635TMC3    C6 9403   1.110   3.138  16.820  0.1555 -0.5357 -0.4913
  635TMC3     C 9404   0.806   3.400  16.900 -0.3470  0.0980  0.5275
  635TMC3     O 9405   0.822   3.461  17.007  0.3123 -0.7616 -0.4933
  635TMC3     H 9406   1.067   3.453  16.916  0.6475 -0.1059  0.1507
  635TMC3    H1 9407   0.771   3.153  16.821  1.0127 -1.6562  1.8719
  635TMC3    H2 9408   1.189   3.064  16.812 -2.1923 -2.8903 -2.2606
  635TMC3    C7 9409   0.940   2.978  16.751  0.2584  0.2667 -0.8805
  635TMC3    C8 9410   1.271   3.293  16.914 -1.2233  0.2665 -0.6010
  635TMC3    O1 9411   0.831   2.925  16.785 -0.1431 -0.2404 -0.3186
  635TMC3    O2 9412   1.274   3.389  16.986 -0.3409 -0.0245  0.0304
  636MPD2     C 9413   1.214   2.836  15.095  0.3720 -0.0213  0.6566
  636MPD2    C1 9414   1.239   2.856  15.227  0.4778 -0.6258  0.1299
  636MPD2    C2 9415   1.278   2.745  15.305  0.1978  0.3620  0.8392
  636MPD2    C3 9416   1.303   2.619  15.244 -0.1051 -0.0371 -0.1075
  636MPD2    C4 9417   1.270   2.604  15.111  0.0627  0.3758 -0.0025
  636MPD2    C5 9418   1.234   2.710  15.037 -0.0139  0.6591  0.6513
  636MPD2     H 9419   1.301   2.765  15.409  1.7279  1.9416  0.1931
  636MPD2    H1 9420   1.272   2.507  15.063 -0.8649  0.5985 -0.4872
  636MPD2    H2 9421   1.189   2.915  15.025 -1.2837 -1.8933 -0.8780
  636MPD2    H3 9422   1.222   2.703  14.930  1.3693 -0.2922  0.5722
  636MPD2     N 9423   1.326   2.511  15.335 -0.9562  0.5305 -0.7795
  636MPD2    H5 9424   1.319   2.529  15.435  0.9071  0.4548 -0.6270
  636MPD2    N1 9425   1.226   2.977  15.299 -0.7675  0.4696  0.1851
  636MPD2    H7 9426   1.235   2.966  15.399 -3.1905 -0.3725  0.3296
  637TMC3    C1 9427   1.386   2.283  15.416 -0.2866  0.5840  0.0964
  637TMC3    C2 9428   1.387   2.326  15.546  0.1438  0.3520 -0.0171
  637TMC3    C3 9429   1.456   2.248  15.634  0.1964  0.9913 -0.3677
  637TMC3    C4 9430   1.442   2.164  15.376 -0.2492  0.2623  0.2388
  637TMC3    C5 9431   1.490   2.085  15.476 -1.0643 -0.0501 -0.4063
  637TMC3    C6 9432   1.506   2.126  15.602 -0.5259  0.5452  0.0485
  637TMC3     C 9433   1.340   2.376  15.313  0.2814 -0.2267  0.0339
  637TMC3     O 9434   1.360   2.337  15.200 -0.4657 -0.1034  0.4186
  637TMC3     H 9435   1.348   2.420  15.583 -1.3815 -0.2635 -0.0509
  637TMC3    H1 9436   1.453   2.147  15.269  1.5278  1.1200  0.2839
  637TMC3    H2 9437   1.546   2.064  15.681  0.3268  1.7789  0.5962
  637TMC3    C7 9438   1.613   2.004  15.444 -0.1710 -0.3161  0.0221
  637TMC3    C8 9439   1.552   2.324  15.721 -0.2666  0.3353 -0.0293
  637TMC3    O1 9440   1.701   2.011  15.532 -0.2289  0.4971 -0.4265
  637TMC3    O2 9441   1.523   2.431  15.774 -0.1769 -0.4803 -0.1573
  638MPD2     C 9442   1.131   1.937  14.264  0.4859 -0.0587 -0.2221
  638MPD2    C1 9443   1.180   1.805  14.241 -0.3303  1.0146  0.3357
  638MPD2    C2 9444   1.142   1.706  14.323 -0.6111  0.5302 -0.0213
  638MPD2    C3 9445   1.062   1.734  14.432  0.0484 -0.1096 -0.5219
  638MPD2    C4 9446   1.018   1.862  14.460 -0.0981 -0.0541 -0.1024
  638MPD2    C5 9447   1.041   1.961  14.369  0.1417  0.0980 -0.6804
  638MPD2     H 9448   1.170   1.605  14.297 -0.1789  0.8833 -0.9313
  638MPD2    H1 9449   0.956   1.877  14.548  2.0089  0.8929  1.2400
  638MPD2    H2 9450   1.138   2.019  14.193  3.5685  0.5959  0.8342
  638MPD2    H3 9451   0.999   2.060  14.384 -2.1408 -1.1647  1.3298
  638MPD2     N 9452   1.027   1.621  14.510 -0.3954  0.1215  0.1585
  638MPD2    H5 9453   1.073   1.534  14.484  0.6518  0.1799  1.8415
  638MPD2    N1 9454   1.263   1.766  14.130  0.0169  0.0440 -0.3044
  638MPD2    H7 9455   1.294   1.669  14.131  2.3682  0.7947 -1.7430
  639TMC3    C1 9456   0.952   1.490  14.692 -0.0236  0.2387 -0.1074
  639TMC3    C2 9457   0.844   1.425  14.736  0.5800 -0.0525  0.0065
  639TMC3    C3 9458   0.868   1.302  14.801  1.1106  0.0372  0.1359
  639TMC3    C4 9459   1.075   1.440  14.716  0.2838  0.0984  0.3303
  639TMC3    C5 9460   1.092   1.324  14.780 -0.1013 -0.5177  0.0930
  639TMC3    C6 9461   0.991   1.258  14.835  0.0383 -0.3534 -0.8433
  639TMC3     C 9462   0.933   1.613  14.608 -0.1398 -0.1495  0.1238
  639TMC3     O 9463   0.853   1.699  14.646  0.2852 -0.0262  0.6541
  639TMC3     H 9464   0.745   1.461  14.711 -0.2675 -1.8219  0.8094
  639TMC3    H1 9465   1.161   1.497  14.683  1.3212 -2.2321 -1.0147
  639TMC3    H2 9466   1.005   1.164  14.887 -1.9656 -1.4944 -2.3565
  639TMC3    C7 9467   1.226   1.272  14.769 -0.5886 -0.3876 -0.0104
  639TMC3    C8 9468   0.797   1.193  14.750 -0.2649 -0.2934 -0.7125
  639TMC3    O1 9469   1.300   1.312  14.675 -0.0523  0.9773 -0.5621
  639TMC3    O2 9470   0.861   1.103  14.698 -0.1097 -0.0892 -0.1026
  640MPD2     C 9471   2.002   0.018   9.278 -0.1310 -0.5245 -0.8423
  640MPD2    C1 9472   2.000   0.153   9.245  0.0928  0.8097  0.5059
  640MPD2    C2 9473   1.879   0.216   9.239 -0.1088 -0.1566 -0.4283
  640MPD2    C3 9474   1.763   0.151   9.276 -0.3647 -0.5365  0.2493
  640MPD2    C4 9475   1.759   0.010   9.292 -0.4820  0.0529 -0.0954
  640MPD2    C5 9476   1.881   4.670   9.287 -0.5627 -0.2871 -0.1356
  640MPD2     H 9477   1.881   0.324   9.235  0.7388 -0.1692 -0.2617
  640MPD2    H1 9478   1.666   4.683   9.317 -0.5985  0.5851  0.5097
  640MPD2    H2 9479   2.092   4.680   9.280  2.3583  3.2897  0.5389
  640MPD2    H3 9480   1.889   4.564   9.308  0.9097  0.2383  1.9819
  640MPD2     N 9481   1.637   0.210   9.274 -0.0881 -0.0403  0.1150
  640MPD2    H5 9482   1.563   0.154   9.315 -0.0361 -0.5193 -0.4411
  640MPD2    N1 9483   2.125   0.211   9.206 -0.3634  0.0332  0.0330
  640MPD2    H7 9484   2.203   0.147   9.217 -1.4329 -1.6800 -2.3334
  641TMC3    C1 9485   2.296   0.356   9.172  0.0036 -0.1419  0.1028
  641TMC3    C2 9486   2.381   0.270   9.240  0.0607 -0.3708  0.2241
  641TMC3    C3 9487   2.515   0.262   9.209  0.5510 -0.4235 -0.1997
  641TMC3    C4 9488   2.345   0.433   9.074  0.3833 -0.4981 -0.7330
  641TMC3    C5 9489   2.475   0.433   9.048  0.1888 -0.1239 -0.2248
  641TMC3    C6 9490   2.559   0.349   9.111 -0.1683 -0.2063  0.2099
  641TMC3     C 9491   2.154   0.340   9.177  0.1034  0.0316 -0.3042
  641TMC3     O 9492   2.086   0.438   9.155  0.1906 -0.8268  0.2725
  641TMC3     H 9493   2.344   0.198   9.312  0.4666 -0.2657  0.5309
  641TMC3    H1 9494   2.282   0.495   9.012  0.8029  1.2651  0.6029
  641TMC3    H2 9495   2.665   0.335   9.088 -0.7001 -3.0562 -0.5580
  641TMC3    C7 9496   2.531   0.538   8.966 -0.2659 -0.2516  0.3769
  641TMC3    C8 9497   2.576   0.128   9.217 -0.3009  0.0013 -0.0412
  641TMC3    O1 9498   2.651   0.527   8.944 -1.0254 -0.2717  0.1501
  641TMC3    O2 9499   2.612   0.094   9.105 -0.4128  0.2766  0.0831
  642TMC3    C1 9500   2.546   1.165  11.914 -0.0631  0.1648 -0.3696
  642TMC3    C2 9501   2.665   1.200  11.860  0.0894  0.8765 -0.2318
  642TMC3    C3 9502   2.720   1.117  11.766  0.7880  0.3065  0.0688
  642TMC3    C4 9503   2.488   1.053  11.886 -1.2039  0.4214 -0.4398
  642TMC3    C5 9504   2.555   0.957  11.802  0.0195  0.0096  0.1694
  642TMC3    C6 9505   2.663   1.001  11.736 -0.2364  0.7786  0.2916
  642TMC3     C 9506   2.469   1.266  11.980  0.0245  0.3811 -0.7751
  642TMC3     O 9507   2.350   1.248  11.979  0.2314  0.3929 -0.2568
  642TMC3     H 9508   2.713   1.294  11.883  1.3972 -0.2539  1.6816
  642TMC3    H1 9509   2.391   1.030  11.928 -1.4864  2.0205 -0.2208
  642TMC3    H2 9510   2.719   0.925  11.681 -1.3956  0.3502 -0.2955
  642TMC3    C7 9511   2.473   0.865  11.735 -0.1654  0.3715  1.0625
  642TMC3    C8 9512   2.857   1.122  11.739 -0.2083 -0.0131 -0.4412
  642TMC3    O1 9513   2.501   0.844  11.618 -0.1704 -0.0439  0.6439
  642TMC3    O2 9514   2.887   1.080  11.631 -0.2981 -0.1049  0.6786
  643TMC3    C1 9515   2.057   0.530  17.638  0.0195  0.0531  0.1313
  643TMC3    C2 9516   1.941   0.597  17.628  0.1855 -0.2612 -0.3522
  643TMC3    C3 9517   1.894   0.626  17.503  0.2962  0.6583 -0.2389
  643TMC3    C4 9518   2.131   0.499  17.527  0.6135 -0.3536  0.6573
  643TMC3    C5 9519   2.066   0.522  17.401  0.2625  1.1617  0.2092
  643TMC3    C6 9520   1.946   0.586  17.386  0.4212  0.4528 -0.2425
  643TMC3     C 9521   2.113   0.542   0.084  0.2326 -0.0467  0.1465
  643TMC3     O 9522   2.068   0.621   0.160 -0.0266 -0.1014  0.1617
  643TMC3     H 9523   1.887   0.617   0.031  1.0133  0.3374  0.0058
  643TMC3    H1 9524   2.237   0.483  17.537  0.6267 -1.0975 -0.7075
  643TMC3    H2 9525   1.904   0.617  17.291 -1.0965 -1.4072 -0.1926
  643TMC3    C7 9526   2.144   0.526  17.273 -0.6751  0.2989 -0.2731
  643TMC3    C8 9527   1.823   0.752  17.484 -0.3384 -0.1860  0.4207
  643TMC3    O1 9528   2.081   0.554  17.174 -0.9792  0.2050 -0.2323
  643TMC3    O2 9529   1.777   0.786  17.376  0.0109 -0.3152  0.7307
  644MPD2     C 9530   2.446   1.028   9.224  0.0460 -0.0029 -0.2144
  644MPD2    C1 9531   2.561   1.074   9.173  0.2830 -0.4440  0.2099
  644MPD2    C2 9532   2.568   1.208   9.141  0.6543  0.1368 -0.7791
  644MPD2    C3 9533   2.458   1.290   9.138 -0.3704  0.8285 -0.4464
  644MPD2    C4 9534   2.344   1.243   9.197  0.5728 -0.4170  0.1272
  644MPD2    C5 9535   2.344   1.114   9.241 -0.0174  0.0047  0.2065
  644MPD2     H 9536   2.664   1.245   9.106  0.8882 -1.7005 -2.0696
  644MPD2    H1 9537   2.253   1.300   9.208  1.6026  0.6440  3.1597
  644MPD2    H2 9538   2.431   0.922   9.239 -0.6927  0.0606 -0.5134
  644MPD2    H3 9539   2.252   1.072   9.279 -0.0943 -0.9436 -1.0629
  644MPD2     N 9540   2.470   1.427   9.099  0.0147 -0.0478  0.1786
  644MPD2    H5 9541   2.561   1.456   9.064 -0.7658  1.2176 -0.7870
  644MPD2    N1 9542   2.656   0.978   9.148  0.1234 -0.2331  0.3349
  644MPD2    H7 9543   2.628   0.884   9.174  0.8243 -0.0216  1.9035
  645TMC3    C1 9544   2.422   1.649   9.055  0.4283  0.9151 -1.1121
  645TMC3    C2 9545   2.547   1.686   9.080 -0.3264  0.8758  0.6626
  645TMC3    C3 9546   2.581   1.817   9.059  0.0623 -0.5747  0.6251
  645TMC3    C4 9547   2.319   1.737   9.030  0.0705  0.3758  0.5569
  645TMC3    C5 9548   2.354   1.868   9.022  0.0160  0.3719 -0.6835
  645TMC3    C6 9549   2.484   1.909   9.028 -0.6602 -0.2388  0.1475
  645TMC3     C 9550   2.369   1.517   9.096 -0.4691 -0.1672 -0.3914
  645TMC3     O 9551   2.254   1.512   9.135 -0.3016  0.4698 -0.1032
  645TMC3     H 9552   2.614   1.617   9.131  1.7396  2.8821  0.6694
  645TMC3    H1 9553   2.220   1.700   9.005  0.6710  0.0619 -1.3678
  645TMC3    H2 9554   2.507   2.011   9.000  0.3267 -1.1717 -2.5036
  645TMC3    C7 9555   2.253   1.953   8.958 -0.4532  0.2701  0.3046
  645TMC3    C8 9556   2.713   1.856   9.093  0.8850 -0.8023 -0.3756
  645TMC3    O1 9557   2.156   1.895   8.912 -0.4774  0.0889 -0.2251
  645TMC3    O2 9558   2.790   1.770   9.139 -0.2222  0.4842  0.0126
  646MPD2     C 9559   1.198   0.340  14.231 -0.9279 -0.1440  0.3005
  646MPD2    C1 9560   1.162   0.410  14.344  0.9247 -0.4082 -0.8758
  646MPD2    C2 9561   1.077   0.523  14.336  0.1767 -0.1615 -0.1039
  646MPD2    C3 9562   1.029   0.549  14.206  0.1051 -0.2204 -0.5763
  646MPD2    C4 9563   1.069   0.481  14.095  0.6053  0.1375 -0.0115
  646MPD2    C5 9564   1.145   0.373  14.113  0.0504 -0.4031 -0.3700
  646MPD2     H 9565   1.051   0.586  14.421  0.8032  0.9655 -0.7584
  646MPD2    H1 9566   1.042   0.505  13.993  1.7158  2.0191  0.1371
  646MPD2    H2 9567   1.266   0.255  14.228 -0.3600  0.2916  0.8842
  646MPD2    H3 9568   1.182   0.330  14.021  1.5268  0.1097 -0.0201
  646MPD2     N 9569   0.956   0.669  14.190 -0.5348  0.0142 -0.2925
  646MPD2    H5 9570   0.938   0.728  14.271 -2.2034  1.1135 -1.4603
  646MPD2    N1 9571   1.239   0.378  14.463  0.9249  1.1961 -0.0669
  646MPD2    H7 9572   1.283   0.287  14.463  1.0622  1.2604 -0.7694
  647TMC3    C1 9573   1.295   0.362  14.678 -0.2040 -0.3801  0.3083
  647TMC3    C2 9574   1.250   0.324  14.809 -0.3918 -0.0410 -0.3858
  647TMC3    C3 9575   1.335   0.252  14.887  0.3197 -0.6461 -1.2430
  647TMC3    C4 9576   1.420   0.353  14.631  0.2342 -0.0588  0.8218
  647TMC3    C5 9577   1.500   0.287  14.716  0.2967 -0.6696 -0.2529
  647TMC3    C6 9578   1.461   0.228  14.832 -0.1200  0.6313 -0.2238
  647TMC3     C 9579   1.200   0.420  14.583 -0.7169  0.6171  0.3016
  647TMC3     O 9580   1.092   0.468  14.616 -0.3938  0.0195  0.1742
  647TMC3     H 9581   1.145   0.331  14.834 -0.1497 -1.2211  0.9296
  647TMC3    H1 9582   1.464   0.381  14.536  0.9821  1.9380  1.7713
  647TMC3    H2 9583   1.536   0.184  14.896 -1.8902  0.3244  1.6446
  647TMC3    C7 9584   1.626   0.236  14.670 -0.5680 -0.2780  0.4960
  647TMC3    C8 9585   1.271   0.139  14.948  0.0859  0.4362 -0.2668
  647TMC3    O1 9586   1.717   0.221  14.749  0.5594 -0.0893 -0.1545
  647TMC3    O2 9587   1.160   0.150  14.987 -0.0604  0.0098 -0.0590
  648TMC3    C1 9588   0.620   2.554  15.694  0.1791  0.0803 -0.1705
  648TMC3    C2 9589   0.642   2.428  15.645 -0.4852  0.3200 -1.0187
  648TMC3    C3 9590   0.600   2.405  15.514 -0.0773  1.5797  0.5935
  648TMC3    C4 9591   0.551   2.652  15.620  0.2957  0.0172 -0.3175
  648TMC3    C5 9592   0.521   2.622  15.489 -0.3862  0.1905  0.3584
  648TMC3    C6 9593   0.551   2.501  15.428 -0.3979  0.4421  0.3004
  648TMC3     C 9594   0.648   2.581  15.834  0.5621 -0.3408  0.8194
  648TMC3     O 9595   0.665   2.702  15.859  0.0576 -0.4503  0.1904
  648TMC3     H 9596   0.694   2.345  15.692 -0.5439 -0.5807 -2.5537
  648TMC3    H1 9597   0.525   2.744  15.671 -0.5414 -0.7334  0.6035
  648TMC3    H2 9598   0.520   2.470  15.329  0.3091 -3.1836  1.1958
  648TMC3    C7 9599   0.391   2.664  15.443 -0.2341 -0.1576  0.0327
  648TMC3    C8 9600   0.604   2.271  15.473 -0.4444 -0.1759 -0.1058
  648TMC3    O1 9601   0.329   2.592  15.366  0.0920 -0.4138 -0.2373
  648TMC3    O2 9602   0.553   2.188  15.549  0.4977  0.0937 -0.0719
  649TMC3    C1 9603   4.064   3.779  12.825 -0.0418  0.3684 -1.1483
  649TMC3    C2 9604   4.192   3.831  12.827  0.8049  0.1901  0.2268
  649TMC3    C3 9605   4.278   3.772  12.910  0.6083 -0.1891  0.2413
  649TMC3    C4 9606   4.025   3.689  12.917  0.0137 -0.2816 -0.2911
  649TMC3    C5 9607   4.110   3.633  13.003 -0.0827 -0.1028  0.0930
  649TMC3    C6 9608   4.244   3.669  13.001  0.4425 -0.3966  0.3485
  649TMC3     C 9609   3.972   3.875  12.764 -0.2150 -0.0631 -0.0557
  649TMC3     O 9610   4.007   3.991  12.751  0.2486  0.4984 -0.7101
  649TMC3     H 9611   4.227   3.922  12.780  0.5498  0.4274  0.4914
  649TMC3    H1 9612   3.919   3.667  12.917  0.6299 -3.2178  0.2520
  649TMC3    H2 9613   4.315   3.611  13.058  1.1377 -0.4814 -0.6027
  649TMC3    C7 9614   4.051   3.576  13.122  0.6390  0.3093  0.1254
  649TMC3    C8 9615   4.419   3.763  12.869  0.1083  0.1556  0.5710
  649TMC3    O1 9616   3.946   3.512  13.107  0.3074  0.1379  0.1556
  649TMC3    O2 9617   4.496   3.701  12.942  0.4246 -0.3874  0.1010
  650TMC3    C1 9618   1.941   0.603  12.172  0.3556  0.2009 -0.7401
  650TMC3    C2 9619   1.880   0.712  12.234 -0.8974  0.3485 -0.4232
  650TMC3    C3 9620   1.753   0.744  12.191 -0.0150  0.5791  0.4681
  650TMC3    C4 9621   1.882   0.519  12.092  0.2552  0.3252  0.8084
  650TMC3    C5 9622   1.748   0.543  12.068 -0.3359  0.5491 -0.1723
  650TMC3    C6 9623   1.685   0.665  12.098  0.3874 -0.0331 -0.0224
  650TMC3     C 9624   2.083   0.577  12.206 -0.5057  0.0620 -0.3393
  650TMC3     O 9625   2.119   0.641  12.305 -0.2251 -0.2830  0.7902
  650TMC3     H 9626   1.935   0.777  12.301 -0.0487 -1.7320  0.9010
  650TMC3    H1 9627   1.935   0.430  12.061  0.8766  1.7453 -2.1785
  650TMC3    H2 9628   1.578   0.676  12.081  0.3028  0.1265  0.6096
  650TMC3    C7 9629   1.698   0.477  11.945 -0.4866 -0.6643 -0.3029
  650TMC3    C8 9630   1.730   0.889  12.186  0.1483 -0.2174  0.3656
  650TMC3    O1 9631   1.750   0.367  11.912  0.1164  0.6189 -0.3805
  650TMC3    O2 9632   1.822   0.969  12.168 -0.1054 -0.2502  0.6142
  651MPD2     C 9633   1.205   2.490   9.944 -0.7658  0.6718  0.0335
  651MPD2    C1 9634   1.186   2.520  10.081 -0.9086  0.5599  0.1655
  651MPD2    C2 9635   1.297   2.543  10.154  0.2176 -0.5520 -0.2843
  651MPD2    C3 9636   1.420   2.543  10.094 -0.1342 -0.4750  0.2631
  651MPD2    C4 9637   1.436   2.494   9.966 -0.0124  0.2765  0.2344
  651MPD2    C5 9638   1.325   2.469   9.885 -0.0285 -0.1537 -0.4545
  651MPD2     H 9639   1.292   2.568  10.259 -0.3751  1.8163 -0.8688
  651MPD2    H1 9640   1.529   2.504   9.913 -0.5920 -0.4833 -0.9154
  651MPD2    H2 9641   1.121   2.469   9.879 -1.6654  1.0021  1.0884
  651MPD2    H3 9642   1.335   2.451   9.778 -0.4057 -2.3141 -0.1188
  651MPD2     N 9643   1.533   2.579  10.176 -0.4913 -0.8610 -0.1133
  651MPD2    H5 9644   1.511   2.582  10.275 -0.4924  0.9950 -0.1610
  651MPD2    N1 9645   1.058   2.522  10.135 -0.5220  0.1573 -0.0975
  651MPD2    H7 9646   1.060   2.553  10.232 -2.1714 -0.8264  0.2510
  652TMC3    C1 9647   1.925   2.534  10.366  0.2826 -0.7265 -0.5666
  652TMC3    C2 9648   1.861   2.554  10.247 -0.1570  0.1133  0.1521
  652TMC3    C3 9649   1.744   2.622  10.250 -0.0397 -0.0756  0.1791
  652TMC3    C4 9650   1.874   2.580  10.481  0.7011  1.1147 -0.1490
  652TMC3    C5 9651   1.759   2.649  10.482 -0.4913  0.1086  0.3129
  652TMC3    C6 9652   1.690   2.671  10.367 -0.3858 -0.2466 -0.0287
  652TMC3     C 9653   2.072   2.550  10.344  0.5627 -0.5838 -0.0896
  652TMC3     O 9654   2.121   2.628  10.425  0.1718 -0.0110  0.4858
  652TMC3     H 9655   1.910   2.534  10.152  1.1746 -0.8554  1.0590
  652TMC3    H1 9656   1.928   2.563  10.574  1.6635 -0.9764 -1.0891
  652TMC3    H2 9657   1.591   2.715  10.371 -1.1010 -1.9126  0.5679
  652TMC3    C7 9658   1.737   2.734  10.594  0.0291  0.5284  0.6003
  652TMC3    C8 9659   1.658   2.604  10.133 -0.9710 -1.2367 -0.2196
  652TMC3    O1 9660   1.758   2.703  10.707  0.3552 -0.0757  0.0057
  652TMC3    O2 9661   1.711   2.585  10.026 -0.8579  0.5856  0.1531
  653MPD2     C 9662   4.257   2.502  17.321  0.2647  0.0407 -0.0356
  653MPD2    C1 9663   4.256   2.602  17.225  0.1005  0.1991 -0.0930
  653MPD2    C2 9664   4.195   2.577  17.105 -0.0574  0.2293 -0.0943
  653MPD2    C3 9665   4.140   2.453  17.068  0.3338 -0.2694  0.3462
  653MPD2    C4 9666   4.136   2.358  17.168 -0.7885  0.0878 -0.3438
  653MPD2    C5 9667   4.185   2.388  17.295  0.2751 -0.1374  0.0442
  653MPD2     H 9668   4.195   2.651  17.025  0.7193  0.1650 -0.1575
  653MPD2    H1 9669   4.077   2.268  17.152  0.2260 -0.6198 -0.0390
  653MPD2    H2 9670   4.293   2.509  17.423  1.2108 -0.1411 -0.3497
  653MPD2    H3 9671   4.170   2.314  17.373 -1.2555 -0.0405 -0.1443
  653MPD2     N 9672   4.082   2.428  16.937 -0.3230 -0.0952 -0.0256
  653MPD2    H5 9673   4.071   2.504  16.870  0.7733  1.1091  1.1620
  653MPD2    N1 9674   4.334   2.726  17.242 -0.3059  0.7046  0.2162
  653MPD2    H7 9675   4.327   2.799  17.171 -1.0731 -0.7204 -1.1498
  654TMC3    C1 9676   4.000   2.296  16.755  0.1256 -0.4204 -0.5194
  654TMC3    C2 9677   3.898   2.375  16.710  0.2043  0.8166  0.1932
  654TMC3    C3 9678   3.827   2.337  16.599  0.5188 -0.7727 -0.0705
  654TMC3    C4 9679   4.037   2.188  16.683  0.4808 -0.6328 -0.0366
  654TMC3    C5 9680   3.981   2.168  16.558 -0.1494  0.3430  0.5944
  654TMC3    C6 9681   3.871   2.236  16.514  0.4905  0.8599 -0.1785
  654TMC3     C 9682   4.052   2.301  16.890  0.1120 -0.3232 -0.9487
  654TMC3     O 9683   4.076   2.196  16.948 -0.3087  0.2347 -0.5546
  654TMC3     H 9684   3.860   2.457  16.770  2.0045  0.6383  1.5878
  654TMC3    H1 9685   4.131   2.143  16.711  0.2877 -2.0621 -1.6833
  654TMC3    H2 9686   3.823   2.197  16.425  1.5008  0.4967 -0.5658
  654TMC3    C7 9687   4.070   2.103  16.466  0.1217 -0.0978 -0.3730
  654TMC3    C8 9688   3.703   2.411  16.565 -0.4035 -0.4836  0.0646
  654TMC3    O1 9689   4.057   2.134  16.343  0.0352 -0.5264  0.1555
  654TMC3    O2 9690   3.662   2.495  16.640 -0.0819 -0.5637  0.2689
  655MPD2     C 9691   0.926   2.623  15.286 -1.0804 -0.2998 -0.4457
  655MPD2    C1 9692   0.803   2.682  15.255  0.1997  0.1585 -0.1032
  655MPD2    C2 9693   0.727   2.618  15.157 -0.5574 -0.1182  0.4429
  655MPD2    C3 9694   0.762   2.497  15.096  0.0698  0.2837 -0.3998
  655MPD2    C4 9695   0.893   2.455  15.114 -0.0819  0.2542 -1.4097
  655MPD2    C5 9696   0.964   2.515  15.216 -0.7657  0.3803  0.2403
  655MPD2     H 9697   0.642   2.670  15.115  1.3589  1.0056 -2.0477
  655MPD2    H1 9698   0.942   2.371  15.066 -1.1666 -1.4763  0.5452
  655MPD2    H2 9699   1.007   2.664  15.344 -1.1937  2.6872 -2.3595
  655MPD2    H3 9700   1.056   2.467  15.249 -0.5456 -0.1882 -1.2151
  655MPD2     N 9701   0.687   2.444  14.986  0.3122 -0.3039 -0.7065
  655MPD2    H5 9702   0.737   2.383  14.923  1.4938 -1.5471  1.4566
  655MPD2    N1 9703   0.754   2.807  15.305  0.4194  0.1157 -0.6571
  655MPD2    H7 9704   0.671   2.838  15.255  0.7259 -2.2123 -2.6092
  656TMC3    C1 9705   0.740   2.997  15.430 -0.2050 -0.0710  0.6344
  656TMC3    C2 9706   0.693   3.021  15.557 -0.1214 -0.4317  0.0924
  656TMC3    C3 9707   0.601   3.126  15.572  0.1661  0.2601 -0.2431
  656TMC3    C4 9708   0.691   3.048  15.314 -0.1721  0.2280  0.0084
  656TMC3    C5 9709   0.590   3.142  15.338  0.4171 -1.0125  0.2160
  656TMC3    C6 9710   0.543   3.182  15.464 -0.0262  0.3280 -0.0828
  656TMC3     C 9711   0.819   2.882  15.406  0.4271 -0.7959  0.1378
  656TMC3     O 9712   0.894   2.853  15.495  0.7054 -0.5773  0.1451
  656TMC3     H 9713   0.727   2.962  15.642  0.2195 -0.6569 -0.1979
  656TMC3    H1 9714   0.737   3.035  15.217  0.1985  1.1235  0.0674
  656TMC3    H2 9715   0.468   3.260  15.468  2.2427  2.5882 -1.3877
  656TMC3    C7 9716   0.506   3.172  15.222  0.3711  0.4932 -0.4890
  656TMC3    C8 9717   0.511   3.087  15.677  0.1313  0.6006  0.3200
  656TMC3    O1 9718   0.551   3.138  15.113  0.0516 -0.3619 -0.0601
  656TMC3    O2 9719   0.490   2.968  15.686  0.1428  0.4978 -0.1714
  657TMC3    C1 9720   4.555   2.294  14.051 -0.3424  0.6164 -0.1129
  657TMC3    C2 9721   4.471   2.264  14.154 -0.5908 -0.3725  0.6636
  657TMC3    C3 9722   4.359   2.340  14.169 -0.3604 -0.1561 -0.1176
  657TMC3    C4 9723   4.540   2.402  13.972  1.2683 -0.0841 -0.7318
  657TMC3    C5 9724   4.427   2.479  13.992  0.2616 -0.6059 -0.2803
  657TMC3    C6 9725   4.336   2.447  14.090 -0.2543 -0.3500 -0.0770
  657TMC3     C 9726   4.676   2.216  14.038  0.1002 -0.4417  0.5283
  657TMC3     O 9727   4.708   2.190  13.923 -0.0215 -0.1639 -0.6586
  657TMC3     H 9728   4.483   2.169  14.206 -2.5327  0.9491  3.4659
  657TMC3    H1 9729   4.600   2.406  13.882  4.0888 -0.7914  1.0992
  657TMC3    H2 9730   4.249   2.508  14.110 -0.4795  0.0272 -2.1591
  657TMC3    C7 9731   4.385   2.581  13.895 -0.4484  0.6194  0.4969
  657TMC3    C8 9732   4.271   2.316  14.278 -0.3396 -0.3780  0.7162
  657TMC3    O1 9733   4.271   2.626  13.904 -0.3196 -0.5762 -0.1025
  657TMC3    O2 9734   4.164   2.376  14.271 -0.3526  0.1738 -0.0631
  658MPD2     C 9735   1.001   2.267  14.530  0.1193 -0.1962  0.9277
  658MPD2    C1 9736   0.873   2.281  14.480  0.3100 -0.4540 -0.5795
  658MPD2    C2 9737   0.860   2.331  14.350  0.2148 -0.2153 -0.3659
  658MPD2    C3 9738   0.962   2.359  14.264  0.1678 -0.3862 -0.0704
  658MPD2    C4 9739   1.086   2.327  14.311 -0.2064  0.6104 -0.4264
  658MPD2    C5 9740   1.106   2.290  14.442  0.4257 -0.1869 -0.1632
  658MPD2     H 9741   0.761   2.364  14.319  0.1395  0.5838  0.7420
  658MPD2    H1 9742   1.171   2.333  14.245  1.4607  3.0887  1.9658
  658MPD2    H2 9743   1.026   2.242  14.632 -2.0075  1.1790  1.7970
  658MPD2    H3 9744   1.207   2.268  14.474  0.7882  2.1793  0.3550
  658MPD2     N 9745   0.940   2.419  14.141  0.4158  0.1896 -0.2565
  658MPD2    H5 9746   0.842   2.445  14.130  0.0168 -0.9610  0.5925
  658MPD2    N1 9747   0.757   2.248  14.556 -0.4518 -0.1794 -0.3357
  658MPD2    H7 9748   0.770   2.225  14.653  0.3695  0.5993 -0.2568
  659TMC3    C1 9749   0.536   2.301  14.624 -0.3817 -0.7660  0.5257
  659TMC3    C2 9750   0.589   2.353  14.741 -0.4067 -0.2414  0.3198
  659TMC3    C3 9751   0.508   2.418  14.832  0.4504 -0.7415  0.5243
  659TMC3    C4 9752   0.405   2.334  14.592  1.0849  0.0447  0.2128
  659TMC3    C5 9753   0.324   2.400  14.687  0.4667  0.5484 -0.1315
  659TMC3    C6 9754   0.375   2.428  14.807 -0.8142 -0.8230  0.3174
  659TMC3     C 9755   0.624   2.270  14.517 -0.0625 -0.0090  0.1077
  659TMC3     O 9756   0.574   2.277  14.407 -0.7211 -0.1812  0.0109
  659TMC3     H 9757   0.693   2.333  14.765  0.4849  2.5376 -1.3145
  659TMC3    H1 9758   0.360   2.308  14.497 -1.2662  0.6639  1.1412
  659TMC3    H2 9759   0.311   2.462  14.888  3.2639  0.7311  2.9240
  659TMC3    C7 9760   0.188   2.370  14.680 -0.2664 -0.1085 -0.4382
  659TMC3    C8 9761   0.552   2.474  14.958  0.5581  0.2944 -0.4938
  659TMC3    O1 9762   0.140   2.305  14.771 -0.3889 -0.2680  0.4866
  659TMC3    O2 9763   0.479   2.546  15.020  0.0031  0.0907  0.3580
  660MPD2     C 9764   3.799   1.384  12.482  0.5339  0.4517  0.1053
  660MPD2    C1 9765   3.669   1.368  12.445 -0.6771  0.9562 -0.1436
  660MPD2    C2 9766   3.574   1.317  12.530 -0.0846  0.2067  0.3269
  660MPD2    C3 9767   3.611   1.271  12.656  0.1965 -0.0226  0.0916
  660MPD2    C4 9768   3.740   1.290  12.693 -0.3845 -0.1833  0.3536
  660MPD2    C5 9769   3.833   1.342  12.608 -0.5945 -0.4361  0.0093
  660MPD2     H 9770   3.482   1.282  12.485  0.0728  1.0056 -0.6277
  660MPD2    H1 9771   3.777   1.250  12.787  2.9232 -0.0612 -0.8692
  660MPD2    H2 9772   3.876   1.424  12.417  0.3938  0.9490  0.2461
  660MPD2    H3 9773   3.934   1.357  12.644 -1.0190 -1.6633  1.7110
  660MPD2     N 9774   3.521   1.200  12.742 -0.3403 -0.3071 -0.3230
  660MPD2    H5 9775   3.571   1.168  12.824 -0.6017  2.3758  0.8831
  660MPD2    N1 9776   3.636   1.417  12.313 -0.4549  0.1244  0.1241
  660MPD2    H7 9777   3.708   1.461  12.255 -0.4311 -0.0634  0.0123
  661TMC3    C1 9778   3.495   1.478  12.121 -0.2169  0.2768  0.2821
  661TMC3    C2 9779   3.588   1.435  12.030  0.0044  0.2013 -0.3880
  661TMC3    C3 9780   3.555   1.482  11.901  0.3957  1.0066  0.5238
  661TMC3    C4 9781   3.388   1.552  12.096  0.3853 -0.6981 -0.3792
  661TMC3    C5 9782   3.358   1.592  11.968 -0.1286 -0.4088 -0.1666
  661TMC3    C6 9783   3.444   1.557  11.874 -0.0912 -0.2137 -0.8090
  661TMC3     C 9784   3.507   1.432  12.262 -0.2621 -0.2419  0.3431
  661TMC3     O 9785   3.397   1.406  12.310 -0.4038  0.0913  0.2029
  661TMC3     H 9786   3.673   1.368  12.042  3.0749  3.7098 -2.5254
  661TMC3    H1 9787   3.320   1.586  12.173  0.0728 -0.8251 -0.5985
  661TMC3    H2 9788   3.427   1.599  11.775 -1.4928  1.5453  0.1786
  661TMC3    C7 9789   3.216   1.634  11.959  0.0801  0.1288 -0.4665
  661TMC3    C8 9790   3.634   1.440  11.788  0.3048 -0.2874 -0.3691
  661TMC3    O1 9791   3.158   1.681  12.053 -0.4094 -0.1382  0.1383
  661TMC3    O2 9792   3.641   1.510  11.689  0.1737 -0.7701  0.1938
  662MPD2     C 9793   4.628   0.707  16.580  0.3793 -0.3702 -0.1320
  662MPD2    C1 9794   4.621   0.751  16.713  0.2882  0.2094 -0.1854
  662MPD2    C2 9795   4.541   0.864  16.743 -0.8186 -0.8188  0.5502
  662MPD2    C3 9796   4.473   0.924  16.639  0.0294  0.1780  0.2828
  662MPD2    C4 9797   4.493   0.890  16.510 -0.5209  0.1199  0.5937
  662MPD2    C5 9798   4.570   0.781  16.478 -0.4482 -0.4403 -0.5890
  662MPD2     H 9799   4.524   0.892  16.846 -1.8238 -0.0538  0.1775
  662MPD2    H1 9800   4.452   0.945  16.425 -0.4392 -0.3943  0.2226
  662MPD2    H2 9801   4.693   0.624  16.556 -1.4881 -2.1317  0.9305
  662MPD2    H3 9802   4.581   0.751  16.374 -2.0712 -0.8089 -0.6548
  662MPD2     N 9803   4.374   1.026  16.656 -0.0197  0.1442 -0.2719
  662MPD2    H5 9804   4.336   1.072  16.574 -0.8613  0.6525  0.4109
  662MPD2    N1 9805   4.667   0.671  16.824  0.4843 -0.3401 -0.1471
  662MPD2    H7 9806   4.640   0.721  16.908  1.4543 -0.3436  0.1673
  663TMC3    C1 9807   4.688   0.484  16.943 -0.0169  0.1397 -0.5830
  663TMC3    C2 9808   0.006   0.579  17.034  0.4896 -0.3729  0.0688
  663TMC3    C3 9809   4.658   0.599  17.147 -0.2175  0.4890 -0.1665
  663TMC3    C4 9810   4.577   0.405  16.967 -0.3611 -0.0801  0.6472
  663TMC3    C5 9811   4.510   0.422  17.079  0.5955  0.1247 -0.1523
  663TMC3    C6 9812   4.550   0.515  17.173 -0.0271  0.3886  0.8080
  663TMC3     C 9813   4.705   0.540  16.819 -0.5904 -0.0953 -0.0189
  663TMC3     O 9814   0.016   0.472  16.723  0.0822 -0.4755  0.2917
  663TMC3     H 9815   0.104   0.626  17.029 -0.6033  1.8952  0.1507
  663TMC3    H1 9816   4.541   0.345  16.884  0.8032  0.6336 -0.3643
  663TMC3    H2 9817   4.473   0.542  17.244  0.2278  0.9824  0.8538
  663TMC3    C7 9818   4.372   0.386  17.070 -0.0478 -0.1921 -0.0671
  663TMC3    C8 9819   4.622   0.740  17.159  0.5703  0.2562  0.9544
  663TMC3    O1 9820   4.304   0.479  17.101  0.2635 -0.8652  0.0520
  663TMC3    O2 9821   4.641   0.797  17.052  0.3596  0.8586 -0.3074
  664MPD2     C 9822   1.705   4.157  16.861  0.7373  0.0896  0.2968
  664MPD2    C1 9823   1.811   4.191  16.947  0.1242  0.4095 -0.4894
  664MPD2    C2 9824   1.813   4.130  17.074  0.0451 -0.1168 -0.2524
  664MPD2    C3 9825   1.714   4.044  17.112 -0.7615 -0.5883  0.5324
  664MPD2    C4 9826   1.611   4.015  17.027  0.1212 -0.5836  0.4895
  664MPD2    C5 9827   1.608   4.068  16.899  0.0502 -0.5045  0.1904
  664MPD2     H 9828   1.893   4.162  17.140  0.4427 -0.4284 -0.5903
  664MPD2    H1 9829   1.534   3.946  17.059 -1.0911 -0.5479 -2.2827
  664MPD2    H2 9830   1.689   4.212  16.769  0.6188 -2.8062 -1.4368
  664MPD2    H3 9831   1.543   4.030  16.821  1.6020 -4.3654  0.7640
  664MPD2     N 9832   1.714   3.994  17.247  0.9673 -0.7977 -0.2156
  664MPD2    H5 9833   1.797   4.015  17.301  0.8270 -0.6268 -0.0634
  664MPD2    N1 9834   1.904   4.294  16.919 -0.4112  0.1011  0.1744
  664MPD2    H7 9835   1.974   4.318  16.989  0.0472 -2.4833  0.6247
  665TMC3    C1 9836   1.639   3.896  17.452 -0.3610  0.5069  0.1508
  665TMC3    C2 9837   1.543   3.932  17.538  0.2894 -0.1792  0.1434
  665TMC3    C3 9838   1.573   3.945  17.668 -0.0921 -0.5340 -0.2378
  665TMC3    C4 9839   1.770   3.888  17.492 -0.5405  0.2278 -0.3195
  665TMC3    C5 9840   1.801   3.924  17.618 -0.2989  0.4462  0.5872
  665TMC3    C6 9841   1.701   3.951   0.021 -0.5379 -0.5233  0.4721
  665TMC3     C 9842   1.612   3.933  17.315  0.2418  0.4616  0.3804
  665TMC3     O 9843   1.501   3.907  17.275 -0.4662 -0.1376 -0.0894
  665TMC3     H 9844   1.439   3.936  17.506  0.0255 -3.5883  0.5758
  665TMC3    H1 9845   1.841   3.859  17.416 -1.1186 -2.3615  0.1001
  665TMC3    H2 9846   1.731   3.947   0.125 -0.4082 -1.8624  0.3814
  665TMC3    C7 9847   1.945   3.933  17.651 -0.1118  0.0571 -0.6683
  665TMC3    C8 9848   1.462   3.942   0.072 -0.6248  0.2846  0.2866
  665TMC3    O1 9849   2.022   3.870  17.579  0.1368 -0.3573 -0.7717
  665TMC3    O2 9850   1.355   3.919   0.021  0.3282  0.1176 -0.2217
  666TMC3    C1 9851   1.736   3.668   9.441  0.5447  0.4050 -0.0198
  666TMC3    C2 9852   1.793   3.617   9.555 -0.0510 -0.2443 -0.4532
  666TMC3    C3 9853   1.859   3.710   9.630 -0.6397  0.0375  0.1744
  666TMC3    C4 9854   1.753   3.798   9.405  0.1426 -0.5855 -0.5039
  666TMC3    C5 9855   1.816   3.886   9.483 -0.3800  0.5349  0.0041
  666TMC3    C6 9856   1.885   3.838   9.590  0.0852  0.0757  0.5418
  666TMC3     C 9857   1.657   3.595   9.337  0.3300 -0.4496 -0.0828
  666TMC3     O 9858   1.654   3.653   9.229  0.4811 -0.3384 -0.0724
  666TMC3     H 9859   1.783   3.514   9.589  2.1155 -0.8730 -1.7140
  666TMC3    H1 9860   1.690   3.834   9.324 -0.9226 -1.4817 -0.0716
  666TMC3    H2 9861   1.910   3.911   9.666  0.2069 -0.1191  0.6867
  666TMC3    C7 9862   1.770   4.025   9.487 -0.2285 -0.1731  0.5849
  666TMC3    C8 9863   1.948   3.656   9.735  0.0760  0.2071 -0.4935
  666TMC3    O1 9864   1.665   4.055   9.432 -0.4542  0.3667  0.3714
  666TMC3    O2 9865   1.924   3.547   9.779  0.0569  0.3732 -0.1735
  667MPD2     C 9866   2.872   4.011  14.288 -0.1364 -0.1223 -0.2485
  667MPD2    C1 9867   2.789   4.100  14.352  0.4177  0.0081  0.4006
  667MPD2    C2 9868   2.658   4.109  14.310 -0.0653 -0.0541 -0.1693
  667MPD2    C3 9869   2.612   4.039  14.201  0.7724  0.4709 -0.1508
  667MPD2    C4 9870   2.697   3.952  14.140 -0.7773  0.1444  0.2317
  667MPD2    C5 9871   2.827   3.941  14.179  0.6782  0.5728  0.7146
  667MPD2     H 9872   2.593   4.167  14.373 -0.9622  1.4123 -2.4233
  667MPD2    H1 9873   2.670   3.891  14.055  0.5086 -1.4698  0.9767
  667MPD2    H2 9874   2.971   3.984  14.320  0.5050  1.6425 -0.7224
  667MPD2    H3 9875   2.889   3.877  14.117 -0.2008 -0.3151  0.7623
  667MPD2     N 9876   2.484   4.027  14.151 -0.1405  0.1510  0.3887
  667MPD2    H5 9877   2.468   3.979  14.064  0.1716  1.2286 -0.2595
  667MPD2    N1 9878   2.838   4.175  14.464  0.1537  0.6571 -0.3677
  667MPD2    H7 9879   2.770   4.223  14.522  0.5460  0.2646  0.3994
  668TMC3    C1 9880   2.981   4.264  14.634 -0.0744  0.0948 -0.9290
  668TMC3    C2 9881   3.090   4.347  14.649  0.5107 -0.7713  0.6720
  668TMC3    C3 9882   3.085   4.416  14.757 -0.1995 -0.1461  0.2887
  668TMC3    C4 9883   2.873   4.256  14.719 -0.0273 -0.0763 -0.3544
  668TMC3    C5 9884   2.879   4.327  14.835  0.1230 -0.6343  0.1191
  668TMC3    C6 9885   2.988   4.400  14.854 -0.7415  0.5073  0.4327
  668TMC3     C 9886   2.971   4.194  14.507  0.2118 -0.0678 -0.5403
  668TMC3     O 9887   3.071   4.165  14.449 -0.3133 -0.6486  0.0545
  668TMC3     H 9888   3.170   4.358  14.577  0.4266  0.8906  0.8293
  668TMC3    H1 9889   2.796   4.181  14.705  0.1680 -0.6861  1.7739
  668TMC3    H2 9890   2.997   4.476  14.932 -0.4848 -0.1335  1.0309
  668TMC3    C7 9891   2.748   4.350  14.903  0.0280  0.7581  0.2193
  668TMC3    C8 9892   3.199   4.498  14.789  0.2185 -0.4779 -0.2109
  668TMC3    O1 9893   2.730   4.447  14.976  0.5227 -0.0024  0.6141
  668TMC3    O2 9894   3.233   4.492  14.905  0.1040  0.8654  0.1437
  669TMC3    C1 9895   0.563   4.252  13.956  0.7020 -0.7361 -0.1080
  669TMC3    C2 9896   0.449   4.250  13.885 -0.3084  0.2504 -0.1268
  669TMC3    C3 9897   0.420   4.363  13.816 -0.0306  0.5967 -0.2124
  669TMC3    C4 9898   0.660   4.353  13.947 -0.5387 -0.2584  0.0255
  669TMC3    C5 9899   0.636   4.461  13.867  0.5989  0.1132  0.1620
  669TMC3    C6 9900   0.518   4.468  13.805  0.1545 -0.4018  0.0626
  669TMC3     C 9901   0.577   4.153  14.058 -0.4915 -0.3005  0.3711
  669TMC3     O 9902   0.639   4.185  14.160 -0.3137  1.0377 -0.0374
  669TMC3     H 9903   0.383   4.164  13.891  0.0514 -0.0655 -0.6954
  669TMC3    H1 9904   0.753   4.338  14.001 -1.1435 -1.4250  0.7222
  669TMC3    H2 9905   0.501   4.541  13.726  0.7193  0.9917  1.2289
  669TMC3    C7 9906   0.755   4.534  13.815 -0.2049 -0.5993  0.3464
  669TMC3    C8 9907   0.334   4.342  13.702  0.3030  0.3857 -0.0405
  669TMC3    O1 9908   0.819   4.599  13.897  0.0064 -0.2263 -0.0600
  669TMC3    O2 9909   0.332   4.225  13.666 -0.6430  0.3168  0.1523
  670MPD2     C 9910   3.935   1.811  12.431  0.1282  0.3692  0.3401
  670MPD2    C1 9911   3.976   1.932  12.478  0.2094  0.0162  0.4973
  670MPD2    C2 9912   3.966   1.960  12.616 -1.4240 -0.8588  0.5602
  670MPD2    C3 9913   3.910   1.877  12.706 -0.1753  0.2983 -0.0538
  670MPD2    C4 9914   3.872   1.749  12.654 -0.4641  0.3959 -0.2178
  670MPD2    C5 9915   3.875   1.722  12.521 -0.4820 -0.7236 -0.1309
  670MPD2     H 9916   4.007   2.053  12.652  1.8294 -2.3824  0.7514
  670MPD2    H1 9917   3.853   1.677  12.733 -2.3239  1.8856  0.6893
  670MPD2    H2 9918   3.951   1.775  12.330 -0.5564  0.3120  0.2492
  670MPD2    H3 9919   3.834   1.632  12.477 -0.2225 -1.6155  1.4625
  670MPD2     N 9920   3.903   1.912  12.839  0.2355  0.4449  0.4077
  670MPD2    H5 9921   3.951   1.998  12.864  3.0624 -1.1207  0.4318
  670MPD2    N1 9922   4.046   2.025  12.396  1.1959 -0.0408  0.0777
  670MPD2    H7 9923   4.082   2.102  12.451  3.3137  0.5207 -2.0810
  671TMC3    C1 9924   3.834   1.902  13.058 -0.0899 -0.2368  0.1311
  671TMC3    C2 9925   3.948   1.961  13.106  0.3949  0.6590 -0.0249
  671TMC3    C3 9926   3.944   1.982  13.237  0.3019 -0.2712 -0.1278
  671TMC3    C4 9927   3.714   1.909  13.120  0.4631  0.1133 -0.8398
  671TMC3    C5 9928   3.707   1.954  13.246 -0.2503 -0.3591 -0.0516
  671TMC3    C6 9929   3.826   1.991  13.303 -0.0263 -0.8539 -0.1066
  671TMC3     C 9930   3.846   1.836  12.935  0.0597 -0.2802 -0.2674
  671TMC3     O 9931   3.795   1.724  12.938  0.1493  0.5925  0.0434
  671TMC3     H 9932   4.039   1.947  13.049 -0.3961  0.1486 -1.1732
  671TMC3    H1 9933   3.629   1.882  13.059  0.1555  1.3264 -0.9363
  671TMC3    H2 9934   3.822   2.034  13.403  1.8750 -0.7135 -0.0856
  671TMC3    C7 9935   3.639   1.854  13.318 -0.0339  0.1606  0.6795
  671TMC3    C8 9936   4.042   1.889  13.301  0.5809  0.8640 -0.1646
  671TMC3    O1 9937   3.575   1.777  13.253 -0.3854  0.2459  0.7434
  671TMC3    O2 9938   4.091   1.795  13.237  0.5517 -0.6173 -0.5040
  672MPD2     C 9939   4.145   2.231   1.066 -0.2164 -0.2122  0.3803
  672MPD2    C1 9940   4.258   2.169   1.026  0.3906 -0.1221  0.7896
  672MPD2    C2 9941   4.376   2.208   1.089  0.5759  0.1762  0.0478
  672MPD2    C3 9942   4.381   2.309   1.184  0.8208 -0.5376 -0.2161
  672MPD2    C4 9943   4.262   2.369   1.216 -0.1932 -0.1057 -0.2488
  672MPD2    C5 9944   4.142   2.334   1.158  0.7505  0.6183  0.0407
  672MPD2     H 9945   4.473   2.167   1.063 -0.5444 -1.2138 -1.8978
  672MPD2    H1 9946   4.256   2.442   1.296 -1.6796 -1.3786  0.7987
  672MPD2    H2 9947   4.048   2.202   1.027  1.0338 -0.3366 -2.5920
  672MPD2    H3 9948   4.052   2.390   1.181 -0.5783 -0.7525 -1.8191
  672MPD2     N 9949   4.496   2.359   1.248 -0.2595 -0.3952  0.2685
  672MPD2    H5 9950   4.486   2.448   1.296  1.2842 -0.7366  1.1990
  672MPD2    N1 9951   4.266   2.079   0.921 -0.4150  0.2380  0.0517
  672MPD2    H7 9952   4.349   2.022   0.908 -0.2383  0.9374 -1.9361
  673TMC3    C1 9953   4.203   1.969   0.729 -0.3909 -0.1984 -0.7666
  673TMC3    C2 9954   4.286   1.866   0.771  0.7414 -0.0436 -0.2218
  673TMC3    C3 9955   4.337   1.789   0.673  0.3702 -0.0226  0.2269
  673TMC3    C4 9956   4.200   2.018   0.604  0.1657 -0.1218  0.2253
  673TMC3    C5 9957   4.267   1.940   0.512  0.4208 -0.2664 -0.1587
  673TMC3    C6 9958   4.338   1.827   0.543  0.0614  0.3190 -0.4020
  673TMC3     C 9959   4.167   2.064   0.826 -0.0572 -0.4263 -0.6044
  673TMC3     O 9960   4.075   2.146   0.803  0.4458  0.2894  0.1796
  673TMC3     H 9961   4.278   1.842   0.876 -1.5622  0.5124 -0.2681
  673TMC3    H1 9962   4.135   2.102   0.581 -1.5476 -1.8027 -1.0928
  673TMC3    H2 9963   4.389   1.770   0.467 -0.6276 -1.3752  0.4016
  673TMC3    C7 9964   4.308   2.005   0.389  0.5533 -0.2905  0.6034
  673TMC3    C8 9965   4.378   1.658   0.695  0.5672  0.1324 -0.2282
  673TMC3    O1 9966   4.336   1.932   0.294 -0.1706 -0.0483  0.1943
  673TMC3    O2 9967   4.366   1.577   0.600  0.1601 -0.0367 -0.2470
  674MPD2     C 9968   0.288   1.973  17.425  0.4037  0.4092 -0.1720
  674MPD2    C1 9969   0.223   1.893  17.514 -0.5869  0.4715  0.3105
  674MPD2    C2 9970   0.086   1.910  17.532 -0.0099  0.0588 -0.4352
  674MPD2    C3 9971   0.029   2.022  17.475 -0.0692 -0.7511  0.2283
  674MPD2    C4 9972   0.095   2.108  17.398  0.4951  0.0139  0.2413
  674MPD2    C5 9973   0.223   2.078  17.372 -0.2407 -0.2793  0.7259
  674MPD2     H 9974   0.014   1.848  17.584  0.8485  0.1025  0.8198
  674MPD2    H1 9975   0.060   2.200  17.352  1.7242  0.3230 -0.0955
  674MPD2    H2 9976   0.385   1.943  17.386  1.3276  1.2052  1.5130
  674MPD2    H3 9977   0.282   2.135  17.301 -0.4604  0.9033  1.4970
  674MPD2     N 9978   4.611   2.023  17.482  0.6985 -0.3074 -0.2317
  674MPD2    H5 9979   4.564   1.947  17.529 -1.0749  0.5035 -0.6796
  674MPD2    N1 9980   0.299   1.798  17.586 -0.1644 -0.2633  0.2062
  674MPD2    H7 9981   0.399   1.796  17.568 -0.2038 -0.0805 -0.0279
  675TMC3    C1 9982   0.345   1.628   0.062  0.2087 -0.1082  1.0990
  675TMC3    C2 9983   0.283   1.514   0.115  0.0467  0.0327  0.0436
  675TMC3    C3 9984   0.299   1.478   0.247 -0.1371  0.0886  0.8212
  675TMC3    C4 9985   0.428   1.696   0.135  0.2996  0.2429  0.4079
  675TMC3    C5 9986   0.457   1.648   0.263 -0.2256 -0.4194 -0.2117
  675TMC3    C6 9987   0.395   1.537   0.323 -0.2206 -0.0174 -0.8920
  675TMC3     C 9988   0.245   1.709  17.670  0.6946 -0.5624 -0.0121
  675TMC3     O 9989   0.127   1.678  17.682  0.1380 -0.2028 -0.5190
  675TMC3     H 9990   0.203   1.470   0.056  1.1297  0.1700 -1.5260
  675TMC3    H1 9991   0.476   1.788   0.102  0.2989  0.5628  1.2696
  675TMC3    H2 9992   0.417   1.506   0.424 -1.1612  0.1629 -0.6344
  675TMC3    C7 9993   0.590   1.680   0.314  0.2266  0.2868 -0.3939
  675TMC3    C8 9994   0.210   1.379   0.303  0.8568  0.4198  0.0387
  675TMC3    O1 9995   0.651   1.596   0.381 -0.1938  0.5649 -0.0982
  675TMC3    O2 9996   0.133   1.320   0.227 -0.0408 -0.0826  0.0915
  676MPD2     C 9997   2.054   0.589  10.439  0.2526 -0.2349 -0.9081
  676MPD2    C1 9998   1.967   0.498  10.490  0.9951  0.4557  0.4097
  676MPD2    C2 9999   2.002   0.371  10.502 -0.0410  0.0415  0.3108
  676MPD2    C310000   2.119   0.321  10.445 -0.2312  0.1080 -0.3534
  676MPD2    C410001   2.196   0.413  10.380 -0.0080  0.3931  0.1842
  676MPD2    C510002   2.169   0.546  10.387  0.6044 -0.2533  0.0638
  676MPD2     H10003   1.923   0.304  10.534  2.4667 -3.6918 -1.3104
  676MPD2    H110004   2.285   0.372  10.332 -0.5751  0.4028 -0.8733
  676MPD2    H210005   2.041   0.696  10.429  1.3722 -0.1202 -1.0713
  676MPD2    H310006   2.238   0.615  10.340  2.2087 -0.9777  1.3624
  676MPD2     N10007   2.150   0.189  10.430  0.1541 -0.3382  0.3626
  676MPD2    H510008   2.215   0.161  10.357  1.3269 -0.6675  1.5424
  676MPD2    N110009   1.843   0.526  10.541  0.4454  0.2052 -0.2501
  676MPD2    H710010   1.793   0.447  10.582 -1.7119  1.5089 -0.3590
  677TMC3    C110011   1.687   0.661  10.650 -0.0800 -0.1776  0.3117
  677TMC3    C210012   1.590   0.568  10.627  0.9872 -0.3501 -0.7857
  677TMC3    C310013   1.489   0.554  10.722 -0.5245  0.0814  0.3700
  677TMC3    C410014   1.696   0.737  10.757  0.2085 -0.3172  0.5190
  677TMC3    C510015   1.599   0.723  10.852 -0.4649 -0.3619 -0.2034
  677TMC3    C610016   1.499   0.628  10.837  1.2150 -0.4192 -0.3614
  677TMC3     C10017   1.803   0.652  10.564  0.1793  0.0277 -0.4037
  677TMC3     O10018   1.856   0.758  10.531 -0.1485  0.1847 -0.0897
  677TMC3     H10019   1.583   0.507  10.538  1.7643 -1.0546 -0.3651
  677TMC3    H110020   1.771   0.814  10.770  0.5683 -0.6245  0.2664
  677TMC3    H210021   1.421   0.630  10.913  0.7941  1.7600 -0.8479
  677TMC3    C710022   1.624   0.750  10.995  0.3728 -0.1549  0.5926
  677TMC3    C810023   1.378   0.467  10.685 -0.6162  0.1814  0.1231
  677TMC3    O110024   1.554   0.703  11.080 -0.3995  0.4106 -0.5069
  677TMC3    O210025   1.344   0.469  10.568  0.0722 -0.1310  0.0444
  678MPD2     C10026   3.494   0.386   1.106  0.0993  0.5244 -0.8513
  678MPD2    C110027   3.562   0.315   1.012  0.0745 -0.2699  0.1187
  678MPD2    C210028   3.493   0.215   0.936  0.8574 -0.0089  0.5356
  678MPD2    C310029   3.358   0.195   0.953  0.2814  0.5092  0.2209
  678MPD2    C410030   3.295   0.264   1.052 -0.8187 -0.1489  0.5388
  678MPD2    C510031   3.359   0.360   1.131 -0.4992 -0.5274  0.9535
  678MPD2     H10032   3.543   0.165   0.854  0.2794 -1.4444  1.0631
  678MPD2    H110033   3.191   0.252   1.082 -1.3654 -0.0009 -1.2901
  678MPD2    H210034   3.544   0.465   1.162 -2.3640  2.5325 -1.4992
  678MPD2    H310035   3.300   0.409   1.208 -0.0662  0.5712  0.5858
  678MPD2     N10036   3.275   0.102   0.876 -0.0950  0.1266 -0.3878
  678MPD2    H510037   3.324   0.046   0.807 -0.1833 -0.1866 -0.1957
  678MPD2    N110038   3.695   0.334   0.977 -0.2297 -0.4354  0.0323
  678MPD2    H710039   3.746   0.262   0.928 -0.7924 -0.6478 -0.2411
  679TMC3    C110040   4.078   0.325   0.862  0.6191 -0.6690 -0.0373
  679TMC3    C210041   3.960   0.329   0.931  0.1296 -0.1021 -0.3734
  679TMC3    C310042   3.899   0.447   0.958 -0.3010  0.0567 -0.3076
  679TMC3    C410043   4.123   0.442   0.806 -0.0528  0.1669  0.8404
  679TMC3    C510044   4.065   0.557   0.836  0.1261 -0.2538 -0.9218
  679TMC3    C610045   3.954   0.564   0.913 -0.3172 -0.4023  0.0221
  679TMC3     C10046   4.156   0.202   0.865  0.3586 -0.1917 -0.0937
  679TMC3     O10047   4.103   0.096   0.895 -0.0518 -0.2282 -0.2538
  679TMC3     H10048   3.929   0.239   0.982  0.0481 -1.2014 -2.3599
  679TMC3    H110049   4.216   0.440   0.750 -0.5080 -1.3267  0.1241
  679TMC3    H210050   3.902   0.660   0.919  2.1494  1.0253 -1.5249
  679TMC3    C710051   4.122   0.674   0.775  1.1415  0.2051  0.2559
  679TMC3    C810052   3.759   0.450   0.997 -0.7599 -0.0936 -0.2880
  679TMC3    O110053   4.195   0.666   0.674  0.3793 -0.5479 -0.1668
  679TMC3    O210054   3.720   0.559   1.041  0.0712  0.9920  0.2816
  680MPD2     C10055   3.450   4.186  13.613 -0.1200 -1.1191  0.0674
  680MPD2    C110056   3.544   4.090  13.650  0.8279 -0.3045  0.5501
  680MPD2    C210057   3.675   4.126  13.664 -0.1618  0.1027  1.4904
  680MPD2    C310058   3.710   4.261  13.665 -0.4853  0.0364  0.0134
  680MPD2    C410059   3.610   4.355  13.633 -0.1079 -0.1884 -0.1301
  680MPD2    C510060   3.486   4.318  13.599 -0.5831 -0.2029 -0.4771
  680MPD2     H10061   3.753   4.058  13.696  1.5608  0.7621 -1.3129
  680MPD2    H110062   3.638   4.459  13.622  0.6524 -0.4650 -0.7729
  680MPD2    H210063   3.349   4.169  13.577 -0.7487 -1.5337  2.0479
  680MPD2    H310064   3.414   4.396  13.575 -1.5930 -0.9610  0.0697
  680MPD2     N10065   3.841   4.316  13.690  0.8160 -0.4553  0.6403
  680MPD2    H510066   3.850   4.417  13.697  2.0393 -0.4062 -1.4020
  680MPD2    N110067   3.510   3.954  13.663  0.1555 -0.4791 -0.2571
  680MPD2    H710068   3.582   3.886  13.688  1.0642  1.0673  1.3178
  681TMC3    C110069   3.415   3.758  13.666 -0.7518 -0.1032 -0.6544
  681TMC3    C210070   3.326   3.692  13.741  0.0206  0.5569 -0.0453
  681TMC3    C310071   3.367   3.582  13.803  0.5860  0.5760  0.3498
  681TMC3    C410072   3.535   3.704  13.636  0.3442  0.3406  0.6319
  681TMC3    C510073   3.568   3.582  13.691 -0.6617 -0.6268 -0.0527
  681TMC3    C610074   3.491   3.531  13.788  0.5098  0.1665  0.1766
  681TMC3     C10075   3.387   3.896  13.650 -0.2889  0.8910 -0.8910
  681TMC3     O10076   3.273   3.938  13.653 -0.2889  0.4923 -0.1497
  681TMC3     H10077   3.224   3.728  13.755 -0.4297 -1.3948  1.7236
  681TMC3    H110078   3.611   3.750  13.573 -0.8572 -1.3791 -2.0999
  681TMC3    H210079   3.526   3.442  13.839 -1.2003  0.9687  2.7910
  681TMC3    C710080   3.701   3.534  13.680 -0.1273 -0.1365 -0.4599
  681TMC3    C810081   3.322   3.587  13.939  0.2439  0.0031 -0.7305
  681TMC3    O110082   3.753   3.487  13.784  0.4482 -0.5135 -0.1829
  681TMC3    O210083   3.208   3.636  13.947 -0.0115  0.0358  0.3504
  682MPD2     C10084   1.192   0.488   9.893  0.0202  0.8964  0.5689
  682MPD2    C110085   1.139   0.369   9.918 -0.3210 -0.4154  0.6272
  682MPD2    C210086   1.015   0.355   9.983 -0.0137  0.3886  0.0371
  682MPD2    C310087   0.955   0.469  10.039 -0.6811  0.4332 -0.1898
  682MPD2    C410088   1.016   0.590  10.018  0.3944  0.1663 -0.1066
  682MPD2    C510089   1.133   0.598   9.946  0.6715 -0.2154 -0.1545
  682MPD2     H10090   0.975   0.259  10.010 -0.2369  0.3052 -0.5880
  682MPD2    H110091   0.987   0.687  10.058 -0.8863  0.0543 -0.7361
  682MPD2    H210092   1.284   0.506   9.839  0.5481  1.1513  1.5462
  682MPD2    H310093   1.173   0.698   9.933 -1.2470  0.9079  2.5425
  682MPD2     N10094   0.845   0.444  10.129 -0.1156  0.3999  0.4763
  682MPD2    H510095   0.812   0.350  10.149 -0.6357  0.8320  1.6055
  682MPD2    N110096   1.187   0.251   9.864  0.2967 -0.6351  0.5762
  682MPD2    H710097   1.126   0.171   9.876 -0.8347 -0.1312 -1.7532
  683TMC3    C110098   0.515   0.540  10.441 -0.1164  0.3947 -0.2653
  683TMC3    C210099   0.449   0.431  10.401 -0.0453  0.0447 -0.1835
  683TMC3    C310100   0.493   0.351  10.306  0.5993 -0.1127 -0.4748
  683TMC3    C410101   0.627   0.575  10.369  0.6544  0.3300  0.2509
  683TMC3    C510102   0.672   0.492  10.269  0.0212  0.3391  0.0072
  683TMC3    C610103   0.605   0.374  10.233  0.4981  0.0974 -0.4792
  683TMC3     C10104   0.503   0.583  10.585 -0.0066 -0.4743 -0.5844
  683TMC3     O10105   0.586   0.658  10.634 -0.6261  0.3550  0.0407
  683TMC3     H10106   0.355   0.418  10.455  0.8663 -2.0445  0.9260
  683TMC3    H110107   0.679   0.668  10.389  0.2566  0.4872  0.5626
  683TMC3    H210108   0.634   0.300  10.159  0.4461  1.7688 -2.2055
  683TMC3    C710109   0.779   0.543  10.189 -0.0461 -0.5637  0.6850
  683TMC3    C810110   0.422   0.227  10.280 -0.2723  0.1675 -0.6717
  683TMC3    O110111   0.783   0.666  10.175 -0.1181 -0.9381 -0.1337
  683TMC3    O210112   0.400   0.197  10.162 -0.1918  0.1130 -0.5934
  684MPD2     C10113   4.429   4.312  16.234 -0.7060 -0.1183  0.2276
  684MPD2    C110114   4.348   4.373  16.137 -0.0239  0.1640 -0.1558
  684MPD2    C210115   4.346   4.514  16.124  0.5809 -0.1122 -0.5697
  684MPD2    C310116   4.432   4.591  16.200  0.1561 -0.2889 -0.1502
  684MPD2    C410117   4.499   4.539  16.304  0.0874 -0.0362  0.3051
  684MPD2    C510118   4.500   4.401  16.321  0.0724 -1.5465 -0.2717
  684MPD2     H10119   4.280   4.558  16.051  0.8903  0.2145 -0.6528
  684MPD2    H110120   4.568   4.599  16.363  0.6378 -0.5020  0.1344
  684MPD2    H210121   4.433   4.206  16.257  0.7475 -0.5748 -2.1092
  684MPD2    H310122   4.561   4.368  16.404  1.3907  0.8097 -0.3000
  684MPD2     N10123   4.455   0.006  16.173 -0.1748 -0.3380  0.0567
  684MPD2    H510124   4.544   0.042  16.207 -1.3573  0.3442  2.4155
  684MPD2    N110125   4.248   4.302  16.070 -0.0332 -0.2589  0.3304
  684MPD2    H710126   4.177   4.345  16.011 -0.0163 -1.2695 -0.4340
  685TMC3    C110127   4.155   4.114  15.963 -0.7025 -0.8887  0.2389
  685TMC3    C210128   4.087   4.196  15.879  0.8205 -0.4466  0.5127
  685TMC3    C310129   4.053   4.136  15.756 -0.7285  0.3909 -0.0144
  685TMC3    C410130   4.176   3.976  15.946 -0.1791 -0.0954  0.2569
  685TMC3    C510131   4.145   3.926  15.819 -0.1123  0.0163  0.1529
  685TMC3    C610132   4.089   4.009  15.720 -0.1772 -0.6239  0.1236
  685TMC3     C10133   4.243   4.163  16.068  0.7935 -0.0303  0.7290
  685TMC3     O10134   4.328   4.089  16.115 -0.1749  0.1846 -0.6942
  685TMC3     H10135   4.083   4.301  15.903  1.4163 -0.5352  0.9873
  685TMC3    H110136   4.213   3.915  16.028  1.7550 -0.9390 -1.2353
  685TMC3    H210137   4.058   3.968  15.625 -2.4702 -1.8265  1.3735
  685TMC3    C710138   4.266   3.876  15.762  0.1480 -0.4140  0.5604
  685TMC3    C810139   3.961   4.197  15.666  0.3589  0.3157 -0.3106
  685TMC3    O110140   4.264   3.837  15.642 -0.6343  0.3383 -0.4558
  685TMC3    O210141   3.945   4.140  15.561 -0.3933 -0.2576  0.1517
  686MPD2     C10142   1.073   4.060  15.098  0.1684  0.2409  0.6630
  686MPD2    C110143   0.963   4.102  15.163 -0.0458  1.0728  0.2595
  686MPD2    C210144   0.845   4.099  15.097 -0.4229 -0.3412  0.3115
  686MPD2    C310145   0.829   4.037  14.976 -0.3673 -1.2072  0.0962
  686MPD2    C410146   0.941   4.010  14.909 -0.0870  0.0687  0.4094
  686MPD2    C510147   1.062   4.027  14.965  0.6492  0.0643  0.4570
  686MPD2     H10148   0.756   4.139  15.145 -1.0503 -1.3959  0.0430
  686MPD2    H110149   0.941   3.975  14.806 -0.6725  0.7841  0.1648
  686MPD2    H210150   1.177   4.060  15.128 -0.6225  0.8153  3.4437
  686MPD2    H310151   1.146   4.008  14.899  0.9039 -0.7667  1.0313
  686MPD2     N10152   0.710   4.026  14.908 -0.1549 -0.4830 -0.1791
  686MPD2    H510153   0.710   3.997  14.810 -0.9419  0.7661 -0.5421
  686MPD2    N110154   0.974   4.117  15.305  0.4112  0.4622  0.7937
  686MPD2    H710155   1.066   4.122  15.346  0.5583 -0.9951  0.6359
  687TMC3    C110156   0.561   3.952  15.090  0.1515 -0.2802 -0.9651
  687TMC3    C210157   0.452   3.998  15.158  0.4620  0.2295 -0.0086
  687TMC3    C310158   0.447   3.975  15.287 -0.3191  0.1508 -0.0434
  687TMC3    C410159   0.659   3.873  15.144 -0.0791 -0.4633  0.3381
  687TMC3    C510160   0.643   3.845  15.277 -0.0918 -0.2999  0.3325
  687TMC3    C610161   0.538   3.897  15.351  0.3784  0.0058 -0.2261
  687TMC3     C10162   0.584   4.015  14.963  0.4844  0.1402  1.0857
  687TMC3     O10163   0.488   4.037  14.887  0.8231 -0.5177  0.2253
  687TMC3     H10164   0.370   4.037  15.099  0.6398  0.7479  0.0940
  687TMC3    H110165   0.745   3.833  15.090  0.7932  0.6503  0.9037
  687TMC3    H210166   0.535   3.871  15.456 -1.4488 -0.5749 -0.4258
  687TMC3    C710167   0.758   3.811  15.365  0.4507  0.0637 -0.2980
  687TMC3    C810168   0.367   4.045  15.378  0.1199 -0.1511  0.5357
  687TMC3    O110169   0.750   3.816  15.486 -0.7181 -0.2579 -0.5311
  687TMC3    O210170   0.354   3.990  15.487  0.3334 -0.1056  0.2735
  688MPD2     C10171   4.641   3.304  16.897 -0.1343 -0.5684 -0.1861
  688MPD2    C110172   4.688   3.186  16.933 -0.2286 -0.3448  0.7697
  688MPD2    C210173   0.072   3.135  16.864  0.1360  0.0585 -0.5320
  688MPD2    C310174   0.127   3.203  16.756  0.4325 -0.0663  0.4791
  688MPD2    C410175   0.069   3.321  16.708  0.4068 -0.4027  0.1919
  688MPD2    C510176   4.683   3.376  16.786  1.0067  0.2495  0.5179
  688MPD2     H10177   0.118   3.048  16.909 -0.9010  0.1737  0.7517
  688MPD2    H110178   0.104   3.369  16.617 -1.4979  3.5335  1.5218
  688MPD2    H210179   4.553   3.337  16.951 -0.5144 -0.5173 -0.8331
  688MPD2    H310180   4.631   3.464  16.753 -0.2286 -1.4160 -1.9773
  688MPD2     N10181   0.243   3.155  16.679  0.4740 -0.4808 -0.1868
  688MPD2    H510182   0.266   3.200  16.591  1.2699  0.9550  0.7570
  688MPD2    N110183   4.648   3.119  17.052  0.6105 -0.5373  0.2902
  688MPD2    H710184   4.674   3.021  17.056  2.2140 -0.0680  1.1114
  689TMC3    C110185   4.548   3.077  17.247 -0.0496  0.1179 -0.3125
  689TMC3    C210186   4.567   3.129  17.367 -0.5441 -0.2133 -0.2637
  689TMC3    C310187   4.557   3.046  17.478 -0.7870 -0.2778  0.0776
  689TMC3    C410188   4.504   2.951  17.222 -0.0700  0.3025  0.5568
  689TMC3    C510189   4.496   2.871  17.334 -0.2245  0.1698  0.9457
  689TMC3    C610190   4.510   2.919  17.461 -0.0314  0.3675  0.0230
  689TMC3     C10191   4.553   3.166  17.139  0.1319  0.2839  0.5837
  689TMC3     O10192   4.502   3.273  17.155 -0.1301  0.2517 -0.1613
  689TMC3     H10193   4.600   3.232  17.376  0.5877 -0.5476 -0.6480
  689TMC3    H110194   4.476   2.914  17.124  1.9031  1.1669 -0.3321
  689TMC3    H210195   4.515   2.846  17.541  0.4130 -1.4417 -1.6646
  689TMC3    C710196   4.434   2.743  17.331  0.2497  0.1466 -0.2857
  689TMC3    C810197   4.602   3.082  17.607 -0.1378  0.1934  0.2469
  689TMC3    O110198   4.470   2.666  17.425  0.4038  0.0294 -0.8825
  689TMC3    O210199   4.565   3.020   0.017 -0.2286  0.0965 -0.0354
  690MPD2     C10200   2.371   0.891  15.334 -0.1087  0.1003 -0.3882
  690MPD2    C110201   2.374   0.803  15.226 -0.3767  0.1743 -0.4161
  690MPD2    C210202   2.484   0.807  15.140  0.0771 -0.8611 -0.2788
  690MPD2    C310203   2.581   0.907  15.149  0.2225 -0.2026  0.5339
  690MPD2    C410204   2.564   0.994  15.256  0.5300 -0.2720  0.1831
  690MPD2    C510205   2.461   0.987  15.346 -0.0985 -0.2432  0.0974
  690MPD2     H10206   2.499   0.719  15.078 -1.6895  1.0959 -3.4824
  690MPD2    H110207   2.628   1.080  15.271 -2.4031  2.2053 -1.7125
  690MPD2    H210208   2.300   0.881  15.415 -2.2345  0.5752 -2.1684
  690MPD2    H310209   2.463   1.059  15.428  1.9333  0.8377 -0.9118
  690MPD2     N10210   2.693   0.911  15.065  0.1786 -0.5324  0.0218
  690MPD2    H510211   2.700   0.829  15.005 -3.3959 -1.7242  1.2528
  690MPD2    N110212   2.283   0.696  15.217  0.0306 -0.0980  0.1622
  690MPD2    H710213   2.286   0.638  15.133 -0.1016 -0.1675  0.2054
  691TMC3    C110214   2.101   0.559  15.293 -0.7087  0.2790  0.3785
  691TMC3    C210215   1.983   0.550  15.357  0.0287  0.2625  0.6192
  691TMC3    C310216   1.922   0.428  15.359  0.2631  1.0162 -0.2050
  691TMC3    C410217   2.151   0.444  15.228  0.3866 -0.4409  0.0178
  691TMC3    C510218   2.083   0.323  15.225  0.0899 -0.5639 -0.1026
  691TMC3    C610219   1.969   0.313  15.292  0.8250  0.1349 -0.0330
  691TMC3     C10220   2.170   0.685  15.299  0.6407  0.4486 -0.2544
  691TMC3     O10221   2.132   0.766  15.384 -0.0533 -0.0651 -0.4821
  691TMC3     H10222   1.950   0.623  15.430 -1.1213 -1.2762  1.6587
  691TMC3    H110223   2.252   0.443  15.188 -0.0176 -1.3843 -1.0012
  691TMC3    H210224   1.920   0.216  15.295  0.1784  0.5149  1.8412
  691TMC3    C710225   2.154   0.201  15.185 -0.0294 -0.5853  0.8253
  691TMC3    C810226   1.818   0.401  15.455  0.5482 -0.0488  0.0655
  691TMC3    O110227   2.273   0.212  15.175 -0.0723  0.4797 -1.2162
  691TMC3    O210228   1.801   0.286  15.490 -0.0074 -0.5670  0.2152
  692TMC3    C110229   3.983   1.284  15.606 -0.4963  0.3792 -0.3450
  692TMC3    C210230   4.113   1.323  15.611  0.1161 -0.3123 -0.0603
  692TMC3    C310231   4.226   1.249  15.600 -0.4942  0.0357  1.0010
  692TMC3    C410232   3.964   1.144  15.611 -0.4498 -0.2890  0.2348
  692TMC3    C510233   4.075   1.068  15.600 -0.5891  0.4388 -0.6737
  692TMC3    C610234   4.202   1.115  15.596 -0.1222 -0.2604 -0.1909
  692TMC3     C10235   3.868   1.363  15.655  0.9800  0.3964  0.9569
  692TMC3     O10236   3.771   1.288  15.664  0.0105  0.4156 -1.0229
  692TMC3     H10237   4.128   1.418  15.562 -1.1236 -0.5212 -0.8409
  692TMC3    H110238   3.869   1.093  15.614 -1.1258  0.9586  0.0781
  692TMC3    H210239   4.276   1.048  15.554 -1.2708 -1.6159 -0.0422
  692TMC3    C710240   4.042   0.933  15.569 -0.8646 -0.9787 -0.3933
  692TMC3    C810241   4.300   1.268  15.725 -0.2983 -0.3978 -0.5742
  692TMC3    O110242   3.949   0.922  15.490  0.3483  0.4936 -0.3941
  692TMC3    O210243   4.354   1.167  15.766  0.3964  0.3088  0.4766
  693MPD2     C10244   3.660   4.121  10.694  0.9050 -0.3184  0.2259
  693MPD2    C110245   3.607   4.066  10.578 -0.2947 -0.6948  0.2687
  693MPD2    C210246   3.693   4.017  10.481 -0.8054  0.3171 -0.0405
  693MPD2    C310247   3.832   4.032  10.497  0.5478  0.5341 -0.3168
  693MPD2    C410248   3.871   4.112  10.599  0.3330  0.1767  0.4483
  693MPD2    C510249   3.790   4.147  10.701 -0.0441 -0.1099  0.1170
  693MPD2     H10250   3.650   3.968  10.394  0.9875  0.4086 -0.9840
  693MPD2    H110251   3.976   4.139  10.610  0.1377  1.2381 -0.2406
  693MPD2    H210252   3.590   4.129  10.777  2.8232 -0.4716  1.8530
  693MPD2    H310253   3.829   4.199  10.787  0.7148  2.2967 -1.6908
  693MPD2     N10254   3.931   3.987  10.412  0.2187 -0.0962  0.4796
  693MPD2    H510255   4.028   4.011  10.429  0.7315 -3.1770  1.8950
  693MPD2    N110256   3.467   4.041  10.572  0.1827 -0.2004 -0.1569
  693MPD2    H710257   3.416   4.066  10.656  0.4094 -0.0296 -0.0704
  694TMC3    C110258   3.257   3.970  10.500 -0.4985 -0.8054  0.2372
  694TMC3    C210259   3.180   3.909  10.397  0.8730 -0.2548  0.3542
  694TMC3    C310260   3.056   3.871  10.434 -0.0075 -0.4240 -0.3544
  694TMC3    C410261   3.226   3.969  10.634  0.7312 -0.2558 -1.3704
  694TMC3    C510262   3.103   3.913  10.663 -0.0334  0.0043 -0.7719
  694TMC3    C610263   3.013   3.873  10.566  0.3846  0.3642 -0.1280
  694TMC3     C10264   3.394   4.004  10.459  0.3128  0.4774 -0.1831
  694TMC3     O10265   3.419   3.992  10.339  0.1416 -0.5962 -0.0536
  694TMC3     H10266   3.222   3.892  10.298  3.4459 -0.0490  1.4137
  694TMC3    H110267   3.290   4.004  10.714 -1.0581 -0.1792  0.0306
  694TMC3    H210268   2.916   3.827  10.585  0.0569  0.7358 -0.9266
  694TMC3    C710269   3.095   3.868  10.808 -0.3737 -0.0430  0.5562
  694TMC3    C810270   2.971   3.813  10.336  0.5020  0.2337 -0.3078
  694TMC3    O110271   3.167   3.922  10.894 -0.0798 -0.3823  0.2094
  694TMC3    O210272   2.879   3.742  10.375  0.2103 -0.1345 -0.0233
  695MPD2     C10273   4.182   1.041  13.100 -0.1397 -0.5535  0.4545
  695MPD2    C110274   4.150   1.109  13.219  0.4315 -0.0093 -0.1360
  695MPD2    C210275   4.023   1.145  13.241  0.5258 -0.3361  0.0968
  695MPD2    C310276   3.923   1.127  13.151  0.0122  0.3209 -0.4083
  695MPD2    C410277   3.947   1.070  13.027 -0.1668 -0.1070 -0.2651
  695MPD2    C510278   4.077   1.021  13.006  0.6464 -0.8489  0.0127
  695MPD2     H10279   4.003   1.201  13.333 -1.4845 -1.4763  0.3625
  695MPD2    H110280   3.870   1.057  12.953  1.0490 -0.1252 -1.5242
  695MPD2    H210281   4.276   0.992  13.078 -0.3007 -0.5341 -0.2698
  695MPD2    H310282   4.099   0.970  12.913  0.4223  2.5627 -1.9331
  695MPD2     N10283   3.791   1.166  13.192 -0.5003  0.9004 -0.3994
  695MPD2    H510284   3.773   1.172  13.292 -0.9544 -0.1047 -0.4148
  695MPD2    N110285   4.243   1.154  13.313 -0.5604 -1.0155 -0.0323
  695MPD2    H710286   4.211   1.226  13.377  0.8643 -0.2911 -0.1257
  696TMC3    C110287   3.577   1.258  13.176 -0.2892 -0.3631  0.3706
  696TMC3    C210288   3.557   1.222  13.307  0.1449  0.2177 -0.1632
  696TMC3    C310289   3.438   1.266  13.361  0.1254 -0.3875  0.6660
  696TMC3    C410290   3.472   1.296  13.098  0.0516 -0.0234  0.2129
  696TMC3    C510291   3.353   1.325  13.153  0.5613  0.0607  0.0685
  696TMC3    C610292   3.330   1.303  13.286 -0.7938 -0.2706  1.1389
  696TMC3     C10293   3.679   1.178  13.113  0.0778  0.1597  0.2630
  696TMC3     O10294   3.671   1.160  12.993  0.5994 -0.8726 -0.0731
  696TMC3     H10295   3.626   1.170  13.373 -0.9497  0.7496  1.4077
  696TMC3    H110296   3.495   1.310  12.993  0.5080  1.8976  0.5805
  696TMC3    H210297   3.235   1.319  13.334  0.2053 -1.4206  3.5372
  696TMC3    C710298   3.282   1.437  13.103 -0.1767  0.7442  0.2388
  696TMC3    C810299   3.457   1.364  13.464 -1.2395 -0.1519  0.4206
  696TMC3    O110300   3.239   1.439  12.987  0.5175  0.3554 -0.3449
  696TMC3    O210301   3.367   1.448  13.466 -0.1184 -0.4536 -0.7058
  697MPD2     C10302   2.799   3.164  15.457 -0.2682 -0.1560 -0.4385
  697MPD2    C110303   2.880   3.122  15.356 -0.2149  0.0858  0.5131
  697MPD2    C210304   2.911   3.208  15.252  0.0073  0.3787  0.2367
  697MPD2    C310305   2.872   3.338  15.259  0.5860 -0.2370  0.4027
  697MPD2    C410306   2.777   3.377  15.351  0.1884 -0.3015 -0.2719
  697MPD2    C510307   2.749   3.294  15.455  0.3804  0.4078  0.6505
  697MPD2     H10308   2.989   3.179  15.181  0.3290 -0.3025  0.8807
  697MPD2    H110309   2.737   3.478  15.357 -0.6049 -0.6153 -0.3101
  697MPD2    H210310   2.758   3.104  15.537 -0.4932  1.6300  0.8019
  697MPD2    H310311   2.666   3.331  15.513  0.8035  3.7277 -0.8873
  697MPD2     N10312   2.921   3.429  15.162 -0.4042 -0.3322  0.4414
  697MPD2    H510313   2.978   3.397  15.085  1.7268  0.6646  1.6173
  697MPD2    N110314   2.935   2.994  15.350 -0.5331 -0.6054  0.3870
  697MPD2    H710315   2.993   2.979  15.268 -0.5875 -2.1069  0.6296
  698TMC3    C110316   3.002   3.636  15.082 -0.1146 -0.1240  0.1587
  698TMC3    C210317   3.055   3.757  15.134  0.0163 -0.3219 -0.1369
  698TMC3    C310318   3.173   3.804  15.081  0.1113  0.5670  0.7727
  698TMC3    C410319   3.053   3.571  14.972  0.2755 -0.4120  0.0394
  698TMC3    C510320   3.173   3.628  14.926 -0.0978 -0.0184 -0.1396
  698TMC3    C610321   3.238   3.737  14.976  0.3377  1.0350 -0.1141
  698TMC3     C10322   2.903   3.570  15.166  0.2794  0.1974 -0.1974
  698TMC3     O10323   2.861   3.630  15.263 -0.9544  0.0994 -0.2544
  698TMC3     H10324   3.018   3.809  15.222  0.4679  2.8691 -1.8501
  698TMC3    H110325   3.016   3.476  14.937 -2.0524  0.9592 -1.2488
  698TMC3    H210326   3.325   3.779  14.926 -0.8298  1.6995 -1.5947
  698TMC3    C710327   3.249   3.551  14.827  0.0550 -0.5472 -0.0392
  698TMC3    C810328   3.250   3.894  15.164  0.0058  0.0579  0.4725
  698TMC3    O110329   3.370   3.572  14.831  0.0863  0.0361 -0.4133
  698TMC3    O210330   3.199   3.935  15.268 -0.1159  0.8057 -0.4262
  699TMC3    C110331   3.327   1.103  12.824 -0.2483  1.0380 -0.2485
  699TMC3    C210332   3.388   1.018  12.911  0.2458 -0.2293  0.6033
  699TMC3    C310333   3.318   0.974  13.016 -0.1244  0.3773 -0.0025
  699TMC3    C410334   3.197   1.142  12.831 -0.5431  0.5043 -0.0724
  699TMC3    C510335   3.125   1.083  12.934 -0.2824  0.2372  0.0686
  699TMC3    C610336   3.183   1.003  13.026  0.5381 -0.0381  0.0559
  699TMC3     C10337   3.393   1.168  12.712 -0.1405  0.4888  0.1710
  699TMC3     O10338   3.324   1.199  12.615  0.0540 -0.4867  0.5338
  699TMC3     H10339   3.495   1.001  12.902 -0.1643 -2.1859 -0.5871
  699TMC3    H110340   3.147   1.202  12.756  1.0960  1.6570 -0.2356
  699TMC3    H210341   3.120   0.958  13.102  0.9332 -1.2098 -0.3041
  699TMC3    C710342   2.980   1.101  12.942 -0.6568 -0.0375  0.3616
  699TMC3    C810343   3.379   0.918  13.129 -0.0298  0.6221 -0.1631
  699TMC3    O110344   2.934   1.036  13.035  0.2333 -0.1475 -0.0638
  699TMC3    O210345   3.313   0.913  13.229  0.0249 -0.1968 -0.3114
  700TMC3    C110346   2.411   3.637  17.085 -0.5936 -0.7034 -0.3794
  700TMC3    C210347   2.458   3.515  17.049 -0.1642  0.5238 -0.4016
  700TMC3    C310348   2.575   3.470  17.106  0.6449  0.0156 -0.0650
  700TMC3    C410349   2.451   3.700  17.202 -0.3207 -0.1946 -0.4051
  700TMC3    C510350   2.568   3.655  17.258 -0.2895 -0.1212  0.6841
  700TMC3    C610351   2.630   3.544  17.212  0.2712 -0.1536  0.2349
  700TMC3     C10352   2.398   3.722  16.974 -0.5842 -0.4372  0.7221
  700TMC3     O10353   2.351   3.685  16.868 -1.1218 -0.1231 -0.1430
  700TMC3     H10354   2.420   3.469  16.958 -1.9270  1.5406 -0.1814
  700TMC3    H110355   2.413   3.794  17.239  0.8593  0.5501 -1.0753
  700TMC3    H210356   2.713   3.510  17.272  0.8980 -1.3271 -1.2949
  700TMC3    C710357   2.658   3.760  17.296 -0.2961 -0.4004 -0.1905
  700TMC3    C810358   2.648   3.362  17.037  0.2592 -0.8941 -0.0371
  700TMC3    O110359   2.758   3.769  17.223 -0.3165 -0.4804  0.8662
  700TMC3    O210360   2.588   3.300  16.948  0.0767  0.2310  0.0289
  701TMC3    C110361   2.570   2.502  15.374 -0.0053 -0.3696  0.4801
  701TMC3    C210362   2.652   2.470  15.265 -0.4003  0.6054 -0.7830
  701TMC3    C310363   2.695   2.582  15.189  0.5196  0.5749  0.5693
  701TMC3    C410364   2.536   2.634  15.408  0.1179 -0.2131 -0.2848
  701TMC3    C510365   2.597   2.731  15.334 -0.5507 -0.1562 -0.2259
  701TMC3    C610366   2.657   2.706  15.222 -0.6611  0.3491 -0.3677
  701TMC3     C10367   2.532   2.402  15.474 -0.2364 -0.2187  0.3734
  701TMC3     O10368   2.434   2.428  15.544  0.5900  0.5795 -0.2369
  701TMC3     H10369   2.672   2.368  15.234 -0.8881 -0.0158  0.9629
  701TMC3    H110370   2.470   2.661  15.490  0.7130 -0.4433  0.2652
  701TMC3    H210371   2.706   2.782  15.163  0.0849  0.1606  0.0012
  701TMC3    C710372   2.546   2.869  15.338  0.4918  0.2497  0.7201
  701TMC3    C810373   2.756   2.568  15.061  1.0396 -0.2870  0.1129
  701TMC3    O110374   2.545   2.925  15.229  0.9507 -0.4651  0.0809
  701TMC3    O210375   2.837   2.653  15.023  0.3125 -0.2451 -0.0983
  702MPD2     C10376   2.311   4.524   9.878  0.4989 -0.0401  1.0012
  702MPD2    C110377   2.204   4.587   9.943  0.0687  0.0462  0.2395
  702MPD2    C210378   2.120   4.674   9.879 -0.0947  0.7277 -0.2730
  702MPD2    C310379   2.152   4.708   9.744 -0.0871 -0.0589 -0.7176
  702MPD2    C410380   2.264   4.653   9.677 -0.3479  0.1392  0.3446
  702MPD2    C510381   2.338   4.562   9.746  0.1923  0.3302  0.3990
  702MPD2     H10382   2.029   4.711   9.925 -0.1057 -2.0177  1.8867
  702MPD2    H110383   2.308   4.681   9.582  1.1425  0.0226  0.9900
  702MPD2    H210384   2.380   4.456   9.928 -0.1238 -2.5547 -1.5167
  702MPD2    H310385   2.433   4.538   9.698 -2.0432 -2.5238 -2.6151
  702MPD2     N10386   2.076   0.099   9.689 -0.0257  0.0104  0.3176
  702MPD2    H510387   2.010   0.142   9.753  1.6795  2.3839  0.4524
  702MPD2    N110388   2.180   4.576  10.087  0.0217 -0.0529  0.6456
  702MPD2    H710389   2.109   4.638  10.125  1.2829  2.4341 -1.0576
  703TMC3    C110390   2.028   0.297   9.591 -0.9468 -0.5666  0.3468
  703TMC3    C210391   1.920   0.276   9.672 -0.3242 -0.2004  0.5428
  703TMC3    C310392   1.888   0.371   9.766 -0.4628 -0.3837  0.5217
  703TMC3    C410393   2.108   0.405   9.597 -0.3044 -0.6720 -0.8077
  703TMC3    C510394   2.075   0.500   9.688  0.0297 -0.4737 -0.3042
  703TMC3    C610395   1.970   0.482   9.778  0.7785  0.1277 -0.0585
  703TMC3     C10396   2.098   0.177   9.579  0.2544  1.0601 -0.0675
  703TMC3     O10397   2.195   0.173   9.506  0.4537  0.1342 -0.1655
  703TMC3     H10398   1.852   0.197   9.642 -3.0134  1.8110  1.3040
  703TMC3    H110399   2.200   0.412   9.540 -0.0942  1.3907 -0.1965
  703TMC3    H210400   1.948   0.545   9.863  0.4067  0.4271 -0.3787
  703TMC3    C710401   2.193   0.585   9.721 -0.1921 -0.0560 -0.1535
  703TMC3    C810402   1.795   0.346   9.869  0.5382  0.6903 -0.2631
  703TMC3    O110403   2.263   0.621   9.626 -0.2885 -0.3557  0.0737
  703TMC3    O210404   1.778   0.437   9.948  0.7096  0.6079 -0.0644
  704TMC3    C110405   4.609   3.126  11.973  0.5105 -0.4152 -0.1083
  704TMC3    C210406   0.014   3.142  11.918  0.1129 -0.2528  0.5747
  704TMC3    C310407   0.120   3.075  11.978 -0.3027  0.1462  0.6307
  704TMC3    C410408   4.587   3.039  12.074 -0.3307  0.1166  0.6453
  704TMC3    C510409   4.693   2.966  12.127 -0.4253  0.5995  0.6984
  704TMC3    C610410   0.097   2.989  12.085 -0.3725  0.4849 -0.0005
  704TMC3     C10411   4.492   3.189  11.912 -0.4870 -0.4645 -0.0737
  704TMC3     O10412   4.385   3.184  11.974 -0.6744  0.0389 -0.0060
  704TMC3     H10413   0.042   3.218  11.846  0.0170  0.3011  1.1275
  704TMC3    H110414   4.485   3.028  12.110 -0.9107  0.7219 -0.8069
  704TMC3    H210415   0.173   2.920  12.117 -0.8128 -0.1749 -0.3773
  704TMC3    C710416   4.663   2.825  12.160  0.3258  0.2086  0.4235
  704TMC3    C810417   0.238   3.055  11.893 -0.2475  0.1928  0.5274
  704TMC3    O110418   0.031   2.742  12.141  0.2481 -0.3545  0.3393
  704TMC3    O210419   0.221   3.092  11.782 -0.0362  0.1442  0.2182
  705MPD2     C10420   4.440   0.726  16.097 -0.3676 -0.2487 -0.0700
  705MPD2    C110421   4.456   0.860  16.110 -0.1928 -1.3367 -0.2988
  705MPD2    C210422   4.362   0.933  16.175 -1.1448  1.0027  0.4086
  705MPD2    C310423   4.251   0.871  16.224 -0.2164  0.4875 -0.8133
  705MPD2    C410424   4.233   0.736  16.214  0.0004 -0.0320 -0.3499
  705MPD2    C510425   4.330   0.666  16.157  0.3696 -0.5996 -1.0151
  705MPD2     H10426   4.371   1.041  16.179 -1.1814  1.1565 -4.1962
  705MPD2    H110427   4.144   0.686  16.248  0.0574  1.3842  1.9098
  705MPD2    H210428   4.499   0.666  16.028 -0.4021  0.2622 -0.5478
  705MPD2    H310429   4.302   0.565  16.128 -0.3395 -1.3776  2.3737
  705MPD2     N10430   4.138   0.935  16.277  0.3210 -0.2346  0.2047
  705MPD2    H510431   4.051   0.882  16.281  0.9492 -1.2559  0.6461
  705MPD2    N110432   4.559   0.931  16.050  0.0860  0.2862  0.1275
  705MPD2    H710433   4.547   1.031  16.060  1.6151  0.4889 -0.1061
  706TMC3    C110434   0.176   0.976  15.732 -0.4056  0.2265  0.3056
  706TMC3    C210435   0.117   1.087  15.683 -0.6943 -0.1896  0.1876
  706TMC3    C310436   0.014   1.138  15.750 -0.1519  0.3001 -0.1028
  706TMC3    C410437   0.135   0.915  15.845 -0.0765  0.2283 -0.3422
  706TMC3    C510438   0.024   0.967  15.909  0.1354 -0.3225 -0.0135
  706TMC3    C610439   4.680   1.078  15.862  0.3958  0.9288  0.3478
  706TMC3     C10440   0.231   0.882  15.638  0.1487  0.1266 -0.4445
  706TMC3     O10441   0.298   0.786  15.679  0.4644  0.5038  0.3342
  706TMC3     H10442   0.162   1.150  15.607  2.8159 -1.7336  0.9742
  706TMC3    H110443   0.176   0.820  15.878  1.7674  1.0304 -0.3560
  706TMC3    H210444   4.591   1.114  15.911  1.2077 -0.2050  2.6565
  706TMC3    C710445   4.672   0.876  15.991 -0.2416  0.0621 -0.1483
  706TMC3    C810446   4.693   1.270  15.728 -0.3487  0.8291  0.1638
  706TMC3    O110447   4.716   0.764  15.993 -0.2476 -0.0812  0.1540
  706TMC3    O210448   4.704   1.317  15.618 -0.1733  0.3572 -0.0195
  707TMC3    C110449   0.906   4.526   1.553 -0.4398  0.5544 -0.0645
  707TMC3    C210450   0.921   4.388   1.568  0.1297  0.5150  0.1438
  707TMC3    C310451   0.803   4.309   1.550 -0.1914  0.2281  0.5971
  707TMC3    C410452   0.783   4.583   1.564 -0.1259 -0.1315  0.1372
  707TMC3    C510453   0.674   4.497   1.586 -0.5086 -0.0743 -0.5858
  707TMC3    C610454   0.684   4.366   1.548 -0.4717  1.0263  0.0262
  707TMC3     C10455   0.977   4.558   1.429 -0.2677 -0.6196 -0.2368
  707TMC3     O10456   1.077   4.485   1.421 -0.0127 -0.2471 -0.1539
  707TMC3     H10457   1.017   4.342   1.585  0.7519  1.4119 -0.9226
  707TMC3    H110458   0.778   4.688   1.588 -0.2893  0.2759 -1.6977
  707TMC3    H210459   0.602   4.304   1.513 -1.6767  0.9431  2.9612
  707TMC3    C710460   0.543   4.558   1.592 -0.0050  0.4990  0.0951
  707TMC3    C810461   0.801   4.196   1.460 -0.3621 -0.2405  0.5592
  707TMC3    O110462   0.544   4.676   1.567 -0.6207 -0.0854 -0.0747
  707TMC3    O210463   0.699   4.136   1.427  0.3447  0.0102 -0.5049
  708MPD2     C10464   3.255   4.241  13.302 -0.5341  0.5161 -0.1572
  708MPD2    C110465   3.185   4.329  13.224 -0.2108 -0.0708  1.4016
  708MPD2    C210466   3.050   4.315  13.230 -0.2663  1.0282 -0.4187
  708MPD2    C310467   2.983   4.211  13.292 -0.1740  0.5559  0.3024
  708MPD2    C410468   3.056   4.112  13.358 -0.7356  0.9114 -0.6314
  708MPD2    C510469   3.195   4.136  13.367 -0.2681 -0.5158  0.4093
  708MPD2     H10470   2.983   4.382  13.176 -0.2535  0.2430 -1.4083
  708MPD2    H110471   3.007   4.041  13.424  1.2161 -1.7725 -2.0968
  708MPD2    H210472   3.363   4.247  13.295 -0.5514  0.4512 -0.4956
  708MPD2    H310473   3.245   4.057  13.421 -1.0923 -1.1971  0.1686
  708MPD2     N10474   2.841   4.208  13.293 -0.1043 -0.4784 -0.7723
  708MPD2    H510475   2.799   4.296  13.264  1.1352 -0.7071 -3.3003
  708MPD2    N110476   3.248   4.421  13.140 -0.5268  0.6005 -0.3482
  708MPD2    H710477   3.350   4.427  13.141 -0.5470  0.8301  0.7502
  709TMC3    C110478   3.270   4.608  12.991  0.1239  0.7196 -0.3824
  709TMC3    C210479   3.229   4.658  12.871 -0.3054  0.5324  0.4759
  709TMC3    C310480   3.200   0.067  12.854 -0.7066  0.0434 -0.0102
  709TMC3    C410481   3.274   4.694  13.098  0.7592  0.8310  0.0562
  709TMC3    C510482   3.245   0.109  13.080  0.0750 -0.4887 -0.4451
  709TMC3    C610483   3.199   0.157  12.958 -0.4388  0.0418  0.2766
  709TMC3     C10484   3.184   4.499  13.043  0.2288 -0.0579  0.1510
  709TMC3     O10485   3.064   4.517  13.024 -0.2501 -0.2130  0.2457
  709TMC3     H10486   3.235   4.592  12.785 -0.8530  0.8462  0.1951
  709TMC3    H110487   3.275   4.664  13.202 -1.7517  0.0153 -0.1612
  709TMC3    H210488   3.178   0.262  12.942  0.8009  0.2006 -0.3501
  709TMC3    C710489   3.148   0.163  13.171  0.0334 -0.3237 -0.6305
  709TMC3    C810490   3.193   0.130  12.725 -0.1667 -0.0528 -0.3748
  709TMC3    O110491   3.157   0.284  13.180  0.0568 -0.0402  0.3281
  709TMC3    O210492   3.207   0.251  12.721 -0.3280  0.1794  0.3592
  710TMC3    C110493   4.144   1.244   0.192 -0.0194 -0.5593  1.0952
  710TMC3    C210494   4.213   1.188   0.087 -0.2595  0.3896 -0.2649
  710TMC3    C310495   4.318   1.104   0.117  0.2229 -0.1661  0.9127
  710TMC3    C410496   4.168   1.219   0.316  0.0575 -0.2394 -0.2505
  710TMC3    C510497   4.270   1.133   0.344 -0.1858  0.1061 -0.1588
  710TMC3    C610498   4.344   1.066   0.248  0.1567 -0.2875  0.2234
  710TMC3     C10499   4.036   1.336   0.148 -0.2775 -0.0415 -0.1536
  710TMC3     O10500   4.049   1.377   0.030  0.4538 -0.0853 -0.3241
  710TMC3     H10501   4.172   1.193  17.675 -2.2270 -0.0023  0.5092
  710TMC3    H110502   4.108   1.254   0.400 -0.4438 -0.6087 -0.4513
  710TMC3    H210503   4.432   1.005   0.267  1.9212  2.0014 -0.5701
  710TMC3    C710504   4.280   1.074   0.474  0.4242 -0.3086  0.4967
  710TMC3    C810505   4.378   1.033   0.004 -1.1225 -0.5391 -0.0852
  710TMC3    O110506   4.341   0.966   0.493  0.1909 -0.3252 -0.6693
  710TMC3    O210507   4.435   0.929   0.021 -0.2179  0.5397 -0.5657
  711TMC3    C110508   3.452   1.886  14.553 -0.6404 -0.2127  0.1242
  711TMC3    C210509   3.526   1.994  14.599  0.4804  0.1362  0.8221
  711TMC3    C310510   3.613   1.962  14.703  0.2324 -0.6949 -0.1215
  711TMC3    C410511   3.462   1.754  14.599  0.0552  0.1349  0.5121
  711TMC3    C510512   3.549   1.734  14.701 -0.0906 -0.2473  0.6916
  711TMC3    C610513   3.626   1.837  14.756 -0.0527 -0.3930 -0.3348
  711TMC3     C10514   3.367   1.892  14.438  0.8283 -0.3731  0.1556
  711TMC3     O10515   3.337   1.784  14.384 -0.2125 -0.2709 -0.1519
  711TMC3     H10516   3.534   2.088  14.547 -1.1896 -0.3955 -0.4054
  711TMC3    H110517   3.408   1.675  14.548 -0.6022  1.3761 -0.7235
  711TMC3    H210518   3.692   1.828  14.842 -0.3814  1.4825  0.0933
  711TMC3    C710519   3.582   1.606  14.742 -0.7188  0.0334  0.2524
  711TMC3    C810520   3.678   2.082  14.750  0.0990 -0.0056  0.4538
  711TMC3    O110521   3.677   1.603  14.822  0.0667  0.0577  0.3023
  711TMC3    O210522   3.620   2.188  14.728 -0.6844  1.1224 -0.3461
  712MPD2     C10523   4.678   2.968  13.144  0.0577  0.4213  0.4520
  712MPD2    C110524   4.601   3.083  13.153 -1.0604 -0.3680  0.9058
  712MPD2    C210525   4.655   3.200  13.185  0.2125  0.0922 -0.9378
  712MPD2    C310526   0.064   3.199  13.228 -0.5915 -0.3072 -0.3535
  712MPD2    C410527   0.137   3.080  13.239 -0.2537 -0.4995 -0.5742
  712MPD2    C510528   0.086   2.964  13.188  0.5434 -0.0808 -0.5346
  712MPD2     H10529   4.596   3.290  13.191 -0.5588 -0.4751 -0.0624
  712MPD2    H110530   0.243   3.079  13.264  0.3517  1.6585 -3.0256
  712MPD2    H210531   4.641   2.873  13.108  1.5076 -0.0286  0.1389
  712MPD2    H310532   0.142   2.871  13.196 -0.8802 -0.9207 -0.3962
  712MPD2     N10533   0.135   3.309  13.276  0.5429  0.0587 -0.4079
  712MPD2    H510534   0.233   3.291  13.293  0.5358 -0.9590 -1.4622
  712MPD2    N110535   4.463   3.083  13.109 -0.2567 -0.3790 -0.3077
  712MPD2    H710536   4.428   3.178  13.096  0.6812  0.0704  0.4497
  713TMC3    C110537   0.179   3.550  13.309 -0.0154  0.0664 -0.0612
  713TMC3    C210538   0.310   3.523  13.286  0.0499  0.0352  0.3542
  713TMC3    C310539   0.402   3.623  13.291 -0.0777 -0.1568  0.7875
  713TMC3    C410540   0.135   3.677  13.335 -0.0148 -0.2436  0.2156
  713TMC3    C510541   0.229   3.779  13.334  0.8759  0.3351 -0.0899
  713TMC3    C610542   0.362   3.750  13.324 -0.9339  0.5913  0.2853
  713TMC3     C10543   0.083   3.441  13.292  0.7699  0.2336 -0.0083
  713TMC3     O10544   4.683   3.481  13.289  0.5299 -0.2068  0.2729
  713TMC3     H10545   0.340   3.423  13.260 -1.6613 -0.0683 -1.2201
  713TMC3    H110546   0.034   3.680  13.375  0.6543  1.6437  1.7135
  713TMC3    H210547   0.432   3.831  13.336 -2.8929  2.7924 -3.0318
  713TMC3    C710548   0.193   3.918  13.376 -0.2029  0.3089 -0.2889
  713TMC3    C810549   0.543   3.583  13.307  0.4827  0.0513  0.2191
  713TMC3    O110550   0.285   3.996  13.401 -0.6640 -0.2022 -0.9008
  713TMC3    O210551   0.559   3.473  13.358 -0.0101 -0.3234  0.1007
  714MPD2     C10552   2.293   0.786   0.921 -0.4752  0.2604  0.4990
  714MPD2    C110553   2.344   0.909   0.948  0.5927 -0.3216 -0.7340
  714MPD2    C210554   2.275   1.028   0.918  0.4448 -0.4455  0.9444
  714MPD2    C310555   2.164   1.018   0.840 -0.3704 -0.4086  0.5555
  714MPD2    C410556   2.121   0.898   0.797 -0.1059  0.0709  0.0379
  714MPD2    C510557   2.182   0.781   0.835 -0.3614 -0.1102  0.7890
  714MPD2     H10558   2.310   1.126   0.948  0.7603 -0.4470  0.5823
  714MPD2    H110559   2.031   0.890   0.737 -0.5922  1.6411  0.5590
  714MPD2    H210560   2.336   0.695   0.961  0.8321  0.6231 -0.0672
  714MPD2    H310561   2.138   0.687   0.805  0.3198 -0.5361  1.1247
  714MPD2     N10562   2.099   1.137   0.800 -0.1046  0.6736  0.1063
  714MPD2    H510563   2.143   1.228   0.816  1.4483 -0.1275  0.3509
  714MPD2    N110564   2.468   0.903   1.021  0.0369 -0.1770 -0.1544
  714MPD2    H710565   2.514   0.814   1.036 -0.7461 -0.2551  1.7644
  715TMC3    C110566   2.664   0.966   1.093 -0.1155 -0.8107  0.1004
  715TMC3    C210567   2.725   0.877   1.002  0.0537  0.2026  0.0465
  715TMC3    C310568   2.836   0.811   1.042  0.1460  0.7359  0.3177
  715TMC3    C410569   2.737   1.005   1.201  0.0387  0.2019  0.6337
  715TMC3    C510570   2.856   0.939   1.238  0.0194  0.0714  0.1249
  715TMC3    C610571   2.902   0.837   1.160 -0.2679 -0.0826  0.2607
  715TMC3     C10572   2.529   1.012   1.073 -0.5238 -0.1278 -0.2160
  715TMC3     O10573   2.503   1.127   1.090  0.6151 -0.7203  0.4772
  715TMC3     H10574   2.676   0.867   0.907  0.0196  0.4132  0.0420
  715TMC3    H110575   2.678   1.072   1.263  1.5135  1.5988  0.5336
  715TMC3    H210576   2.996   0.786   1.175 -0.6527 -0.9191 -0.1322
  715TMC3    C710577   2.915   0.974   1.368 -0.3731  0.0160 -0.0511
  715TMC3    C810578   2.886   0.719   0.943 -0.2468  0.2897 -0.2395
  715TMC3    O110579   2.900   1.080   1.420 -0.4920 -0.2585  0.2047
  715TMC3    O210580   2.808   0.692   0.851  0.0280  0.1019 -0.7436
  716MPD2     C10581   2.657   4.615   9.485 -0.8012  0.2048  0.4017
  716MPD2    C110582   2.625   4.656   9.357  0.8386 -0.2703  0.0398
  716MPD2    C210583   2.641   4.560   9.258  0.0255 -0.3274  0.6076
  716MPD2    C310584   2.675   4.428   9.285  0.2035  0.4602  0.0001
  716MPD2    C410585   2.694   4.393   9.417 -0.4035  0.2091  0.4342
  716MPD2    C510586   2.688   4.488   9.515 -0.0956  0.1961  0.5657
  716MPD2     H10587   2.619   4.591   9.157  1.2251 -1.3163  0.0485
  716MPD2    H110588   2.713   4.290   9.445  2.3126  0.2460 -1.2412
  716MPD2    H210589   2.655   4.677   9.573 -0.8673  0.1661  0.4275
  716MPD2    H310590   2.710   4.464   9.619  2.6054  1.2512  0.2279
  716MPD2     N10591   2.669   4.341   9.170  0.4251  0.4032  0.1191
  716MPD2    H510592   2.646   4.383   9.080  1.6008 -0.8468 -0.7561
  716MPD2    N110593   2.575   0.064   9.334 -0.1872 -0.0088  0.1353
  716MPD2    H710594   2.538   0.115   9.413 -0.2181  0.4919 -0.1977
  717TMC3    C110595   2.641   4.143   9.046 -0.3185  0.4089  0.4133
  717TMC3    C210596   2.547   4.210   8.968 -0.7115  0.0851 -0.2668
  717TMC3    C310597   2.481   4.135   8.874 -0.2256  0.0113  0.3475
  717TMC3    C410598   2.654   4.004   9.037  0.3216  0.0284  0.2369
  717TMC3    C510599   2.575   3.936   8.944  0.5674  1.3126  0.2490
  717TMC3    C610600   2.492   4.001   8.855  0.4172  0.1256  0.3805
  717TMC3     C10601   2.693   4.206   9.170  0.0909 -0.0126 -0.0493
  717TMC3     O10602   2.717   4.136   9.267 -0.5295 -0.0899  0.2416
  717TMC3     H10603   2.504   4.304   8.999  2.5815  2.0536 -1.6334
  717TMC3    H110604   2.709   3.962   9.120 -0.2312  0.9255  1.0616
  717TMC3    H210605   2.433   3.956   8.776  1.6345  3.1252 -2.2047
  717TMC3    C710606   2.612   3.804   8.905  0.2268 -0.4999  0.4885
  717TMC3    C810607   2.363   4.204   8.817 -0.3528 -0.2082  0.2793
  717TMC3    O110608   2.557   3.762   8.803 -0.0345  0.1117  0.1279
  717TMC3    O210609   2.376   4.323   8.813 -0.3994 -0.5181 -0.6204
  718MPD2     C10610   1.705   3.664  12.734  0.0681  0.0824  0.3421
  718MPD2    C110611   1.612   3.687  12.634 -0.3606  0.4642  0.4246
  718MPD2    C210612   1.484   3.629  12.640  0.3389  0.0107 -0.4793
  718MPD2    C310613   1.462   3.527  12.725 -0.4310 -0.3191  0.1708
  718MPD2    C410614   1.549   3.509  12.830 -0.4655 -0.9099  0.0475
  718MPD2    C510615   1.676   3.578  12.828  0.3835  0.1293 -0.2897
  718MPD2     H10616   1.409   3.657  12.566 -1.2310  0.4631  1.2743
  718MPD2    H110617   1.558   3.424  12.896  2.3886  0.8721  1.9232
  718MPD2    H210618   1.806   3.704  12.735 -0.0123  0.2628  1.1887
  718MPD2    H310619   1.755   3.539  12.890 -0.5874 -1.6089 -0.1380
  718MPD2     N10620   1.348   3.442  12.708 -0.3782  0.0773  0.2065
  718MPD2    H510621   1.289   3.474  12.632 -0.1616 -1.4141 -0.5752
  718MPD2    N110622   1.654   3.761  12.523 -0.2296  0.0436  0.1501
  718MPD2    H710623   1.755   3.763  12.511 -0.1499 -5.5127 -0.0854
  719TMC3    C110624   1.652   3.811  12.297 -0.1512  0.2725 -0.1390
  719TMC3    C210625   1.569   3.780  12.197  0.0940 -0.2810 -0.0855
  719TMC3    C310626   1.614   3.695  12.100  0.0414  0.1126  0.1856
  719TMC3    C410627   1.786   3.769  12.296 -0.3078 -0.9758 -0.4028
  719TMC3    C510628   1.830   3.688  12.198 -0.5920  0.0209  0.0422
  719TMC3    C610629   1.741   3.641  12.107 -0.6539  0.0229  0.5215
  719TMC3     C10630   1.580   3.817  12.420 -0.2283 -0.0185 -0.2898
  719TMC3     O10631   1.456   3.831  12.406  0.2329  0.2011 -0.1325
  719TMC3     H10632   1.473   3.829  12.187  1.4526  2.3438 -0.4800
  719TMC3    H110633   1.851   3.831  12.358  1.1437 -1.1125 -1.7875
  719TMC3    H210634   1.786   3.580  12.029  3.6676  1.3564  1.9616
  719TMC3    C710635   1.972   3.703  12.164 -0.3327 -0.2999  1.1989
  719TMC3    C810636   1.521   3.591  12.063  0.6429 -0.2245 -0.4090
  719TMC3    O110637   2.003   3.694  12.046 -0.2332 -0.1320  0.0769
  719TMC3    O210638   1.558   3.474  12.075 -0.2704 -0.1838  0.0492
  720MPD2     C10639   4.517   0.581  13.846 -0.1199 -0.3170  1.0200
  720MPD2    C110640   4.600   0.519  13.757 -0.4252  0.6915  0.5516
  720MPD2    C210641   0.017   0.515  13.788 -0.3050 -0.2080 -0.1639
  720MPD2    C310642   0.061   0.559  13.916 -0.3507 -0.1332 -0.0026
  720MPD2    C410643   4.693   0.612  14.010  0.8872  0.3107 -0.1557
  720MPD2    C510644   4.561   0.618  13.970  0.1162 -0.5298 -0.6321
  720MPD2     H10645   0.097   0.487  13.720 -1.6491  0.7611 -2.1517
  720MPD2    H110646   4.709   0.634  14.115 -0.2752  0.3987  0.0057
  720MPD2    H210647   4.411   0.589  13.826  0.1876  0.6770 -0.1994
  720MPD2    H310648   4.491   0.651  14.046 -0.6265 -1.9109 -0.7156
  720MPD2     N10649   0.194   0.536  13.956  0.1862 -0.2440  0.3371
  720MPD2    H510650   0.257   0.477  13.904 -0.0574 -0.2785  0.0763
  720MPD2    N110651   4.550   0.483  13.628 -0.2497  1.1854 -0.7701
  720MPD2    H710652   4.466   0.532  13.598 -0.0678  2.0743  0.1497
  721TMC3    C110653   0.386   0.538  14.092 -0.0578  0.1066  0.1253
  721TMC3    C210654   0.439   0.546  14.216 -0.5081  0.2265 -0.5687
  721TMC3    C310655   0.570   0.515  14.231  0.0922  0.2350 -0.7286
  721TMC3    C410656   0.461   0.512  13.983  0.0141  0.0764  0.3805
  721TMC3    C510657   0.598   0.501  14.004  0.2678 -0.3218 -0.6022
  721TMC3    C610658   0.656   0.508  14.125 -0.1243  0.1658  0.6457
  721TMC3     C10659   0.249   0.584  14.074 -0.0286 -0.6862 -0.1313
  721TMC3     O10660   0.203   0.645  14.172 -0.2247 -0.5811  0.1371
  721TMC3     H10661   0.369   0.542  14.299 -0.8530 -2.1445 -0.9593
  721TMC3    H110662   0.427   0.510  13.880 -1.4120  0.6163  0.8443
  721TMC3    H210663   0.759   0.477  14.132 -0.3493 -1.5141 -3.0665
  721TMC3    C710664   0.659   0.424  13.904  0.0081  0.1214  0.1548
  721TMC3    C810665   0.630   0.534  14.363 -0.3499 -0.5504 -0.4532
  721TMC3    O110666   0.584   0.343  13.850  0.1017  0.2994 -0.1746
  721TMC3    O210667   0.752   0.567  14.368 -0.0212 -0.5029 -0.8256
  722MPD2     C10668   3.788   3.798  13.140  0.0383 -0.0547  0.1882
  722MPD2    C110669   3.783   3.923  13.084  0.5137  0.8676 -0.2090
  722MPD2    C210670   3.691   3.948  12.982  0.1221 -0.0542 -0.2317
  722MPD2    C310671   3.617   3.846  12.922  0.4107  0.2551  0.8590
  722MPD2    C410672   3.628   3.720  12.980 -0.6965  0.4935  0.0737
  722MPD2    C510673   3.712   3.699  13.087  1.0731  0.3539 -0.4157
  722MPD2     H10674   3.678   4.046  12.939 -0.8913 -0.7821 -1.5973
  722MPD2    H110675   3.569   3.637  12.944  1.0878 -0.0975 -1.5246
  722MPD2    H210676   3.853   3.766  13.221  0.0446 -1.2400 -0.3013
  722MPD2    H310677   3.725   3.598  13.123  1.5411 -0.4053 -2.6900
  722MPD2     N10678   3.522   3.882  12.819 -0.2311  0.3067  0.2819
  722MPD2    H510679   3.520   3.980  12.795 -0.6306  0.1845 -0.1685
  722MPD2    N110680   3.864   4.031  13.132  0.1731 -0.3978  0.2736
  722MPD2    H710681   3.861   4.122  13.087 -0.0790 -1.1365 -1.2104
  723TMC3    C110682   3.312   3.871  12.697 -0.6112 -0.3685  0.7267
  723TMC3    C210683   3.191   3.800  12.685 -0.7198  0.7735 -0.4239
  723TMC3    C310684   3.080   3.859  12.639 -0.2782 -0.4989  0.2054
  723TMC3    C410685   3.325   3.998  12.640  0.1143 -0.1360 -0.6296
  723TMC3    C510686   3.211   4.040  12.567  0.0479 -0.0067  0.3046
  723TMC3    C610687   3.091   3.978  12.568 -0.3050  0.4735 -0.1414
  723TMC3     C10688   3.418   3.804  12.772  0.3887 -0.5298  0.2323
  723TMC3     O10689   3.402   3.683  12.785  0.0203 -0.6279  0.0721
  723TMC3     H10690   3.187   3.697  12.719  4.0299 -0.0739 -2.4302
  723TMC3    H110691   3.426   4.037  12.642  0.7467 -1.7550 -0.9025
  723TMC3    H210692   3.011   4.017  12.507 -1.9640  0.4402  1.9961
  723TMC3    C710693   3.216   4.166  12.498  0.0478  0.3357  0.3039
  723TMC3    C810694   2.966   3.778  12.610 -0.1203 -0.0678 -0.0290
  723TMC3    O110695   3.119   4.204  12.429  0.4721  0.7865 -0.5902
  723TMC3    O210696   2.859   3.806  12.664 -0.6915 -0.3283 -0.6235
  724TMC3    C110697   4.036   1.540   9.926  0.1609 -0.0673  0.0586
  724TMC3    C210698   4.005   1.556   9.795 -0.3834  0.3038  0.3156
  724TMC3    C310699   4.091   1.633   9.725 -0.1230  0.2031 -0.9924
  724TMC3    C410700   4.146   1.602   9.975  0.5737  0.2207 -0.3239
  724TMC3    C510701   4.226   1.685   9.898 -0.3859  0.5865 -0.2047
  724TMC3    C610702   4.198   1.711   9.764  0.4958  0.0193  0.1744
  724TMC3     C10703   3.965   1.441  10.009 -0.1617 -0.3139  0.8543
  724TMC3     O10704   4.030   1.388  10.096  0.2188 -0.0937  0.1748
  724TMC3     H10705   3.938   1.487   9.744 -0.0647  0.9862 -1.0374
  724TMC3    H110706   4.168   1.596  10.081 -0.4475  0.8149 -0.0809
  724TMC3    H210707   4.262   1.786   9.718  1.6495 -0.7042  0.6117
  724TMC3    C710708   4.301   1.789   9.976 -0.3530  0.0152 -0.1728
  724TMC3    C810709   4.051   1.640   9.589 -0.0058  0.2416  0.6065
  724TMC3    O110710   4.266   1.813  10.091 -0.0236 -0.6085  0.3706
  724TMC3    O210711   3.934   1.615   9.567  0.2473 -0.4526 -0.0295
  725TMC3    C110712   0.551   1.062  12.183  1.2766  0.1824  0.2615
  725TMC3    C210713   0.469   1.060  12.071  0.2552  0.0599  0.2955
  725TMC3    C310714   0.380   0.952  12.069  0.3140 -0.9542 -0.1331
  725TMC3    C410715   0.561   0.967  12.277 -0.6326 -0.3349 -0.1340
  725TMC3    C510716   0.476   0.858  12.265  0.0677 -0.2460 -0.2589
  725TMC3    C610717   0.387   0.854  12.165 -0.6634 -0.4738 -0.1665
  725TMC3     C10718   0.621   1.187  12.216  0.4307 -0.8744  0.6056
  725TMC3     O10719   0.726   1.180  12.273 -0.3363 -0.2433 -0.2507
  725TMC3     H10720   0.474   1.139  11.997  1.6961 -1.1475 -0.9014
  725TMC3    H110721   0.637   0.970  12.354  0.0647  2.0848 -0.9124
  725TMC3    H210722   0.327   0.765  12.157  0.3362 -1.1194 -0.5576
  725TMC3    C710723   0.517   0.733  12.323 -0.2880 -0.3005 -0.0798
  725TMC3    C810724   0.319   0.914  11.942  0.0956 -0.6236  0.2377
  725TMC3    O110725   0.424   0.657  12.355 -0.1187  0.7471 -0.7920
  725TMC3    O210726   0.231   0.831  11.939 -0.0668  0.0877 -0.5314
  726MPD2     C10727   3.328   1.680   9.878  0.6675 -0.4066 -0.1024
  726MPD2    C110728   3.313   1.791   9.956 -0.2637  0.5647  0.3695
  726MPD2    C210729   3.213   1.789  10.056  0.2763  0.3293 -0.7139
  726MPD2    C310730   3.133   1.673  10.078  0.5118 -0.1165 -0.0087
  726MPD2    C410731   3.154   1.564  10.000 -0.2930 -0.0374  0.0509
  726MPD2    C510732   3.252   1.569   9.903 -0.1358 -0.4707 -0.3486
  726MPD2     H10733   3.187   1.878  10.113 -1.7211 -0.9280  0.3594
  726MPD2    H110734   3.096   1.474  10.011  0.8561 -0.8074 -0.2022
  726MPD2    H210735   3.401   1.665   9.799  1.5402  1.2052  0.3995
  726MPD2    H310736   3.274   1.473   9.858  1.6200 -0.5138  0.5754
  726MPD2     N10737   3.032   1.652  10.176  0.5239  0.2045 -0.1262
  726MPD2    H510738   2.961   1.584  10.150  1.4357 -0.5407 -0.6597
  726MPD2    N110739   3.371   1.915   9.931 -0.0279  0.0947  0.0137
  726MPD2    H710740   3.345   1.992   9.992  1.9644  2.1649 -1.7576
  727TMC3    C110741   3.466   2.090   9.794  0.0000  0.2359  0.2545
  727TMC3    C210742   3.508   2.173   9.893 -0.0149 -0.3452  0.2593
  727TMC3    C310743   3.519   2.305   9.865  0.5799 -0.0212 -0.3219
  727TMC3    C410744   3.448   2.127   9.670 -0.1643 -0.0908 -0.2470
  727TMC3    C510745   3.469   2.265   9.636  0.9537  0.2904  0.0897
  727TMC3    C610746   3.495   2.351   9.739 -0.0464 -0.0103  0.3071
  727TMC3     C10747   3.444   1.943   9.814 -0.9953 -0.3125 -0.8594
  727TMC3     O10748   3.469   1.874   9.716 -0.6842  0.0966 -0.3464
  727TMC3     H10749   3.543   2.136   9.989  0.6894 -1.3578 -0.3838
  727TMC3    H110750   3.430   2.054   9.591  0.8932 -2.0932  1.3784
  727TMC3    H210751   3.512   2.457   9.723  0.8509  0.1345  2.2334
  727TMC3    C710752   3.386   2.309   9.530  0.5015  0.6611 -0.9695
  727TMC3    C810753   3.577   2.391   9.959  0.2501 -0.2154  0.3798
  727TMC3    O110754   3.318   2.225   9.476  0.0635 -0.5413  0.0631
  727TMC3    O210755   3.615   2.504   9.930  0.6506 -0.0780 -0.2007
  728TMC3    C110756   2.860   0.972  14.919 -0.0325  0.4037  0.8153
  728TMC3    C210757   2.973   1.040  14.891 -0.4783 -0.2573  0.7771
  728TMC3    C310758   3.024   1.035  14.765  0.5481  0.1231  0.3507
  728TMC3    C410759   2.802   0.882  14.826 -0.0962  0.1706  0.2465
  728TMC3    C510760   2.866   0.867  14.709  0.0540  0.2870  0.2565
  728TMC3    C610761   2.977   0.948  14.670  0.2166  0.2074  0.5226
  728TMC3     C10762   2.781   1.014  15.038 -0.3767 -0.6543 -0.0742
  728TMC3     O10763   2.810   1.116  15.099 -0.2847 -0.9188 -0.8686
  728TMC3     H10764   3.015   1.097  14.974  0.7301 -0.0581  0.0266
  728TMC3    H110765   2.709   0.830  14.843  0.4360 -1.2481 -1.2754
  728TMC3    H210766   3.012   0.946  14.567 -1.0432 -2.9467  0.1539
  728TMC3    C710767   2.772   0.853  14.603  0.2737 -0.6820 -0.4653
  728TMC3    C810768   3.046   1.163  14.701 -0.1738 -0.0142 -0.6947
  728TMC3    O110769   2.686   0.762  14.614 -0.3872 -0.1499  0.0983
  728TMC3    O210770   2.998   1.174  14.584  0.0112  0.5663 -0.2070
  729MPD2     C10771   4.542   2.102  16.490  0.1719  0.6034 -0.2103
  729MPD2    C110772   4.642   2.004  16.477  0.8019  0.5485 -0.5028
  729MPD2    C210773   4.692   1.949  16.589 -0.1399  0.2939 -0.2370
  729MPD2    C310774   4.640   1.983  16.714 -0.0638 -0.4578 -0.6436
  729MPD2    C410775   4.540   2.080  16.724 -0.6230 -0.1313  0.0545
  729MPD2    C510776   4.496   2.141  16.610  0.1039 -0.1380  0.1580
  729MPD2     H10777   0.054   1.880  16.578  0.5048  0.7332  1.8578
  729MPD2    H110778   4.498   2.106  16.820 -1.9257 -0.8709 -0.3084
  729MPD2    H210779   4.499   2.153  16.404  0.6920  0.3327 -0.6314
  729MPD2    H310780   4.406   2.201  16.612 -1.6518 -2.6504 -2.7916
  729MPD2     N10781   4.699   1.932  16.832  0.1169 -0.6138 -0.4155
  729MPD2    H510782   4.663   1.961  16.921  1.3326  1.4754 -0.6021
  729MPD2    N110783   4.692   1.981  16.348  0.0727  0.1433  0.5546
  729MPD2    H710784   4.640   2.040  16.285 -0.5237  0.3359  1.2243
  730TMC3    C110785   0.168   1.832  16.918 -0.7798 -0.0963 -0.2738
  730TMC3    C210786   0.289   1.792  16.858  0.1749  0.4323  0.2617
  730TMC3    C310787   0.390   1.879  16.855 -0.4400 -0.2906  0.4569
  730TMC3    C410788   0.163   1.948  16.994 -0.3475 -0.7547  0.4118
  730TMC3    C510789   0.263   2.039  16.985  0.1254  0.4249  0.3099
  730TMC3    C610790   0.382   2.007  16.915  0.5583  0.3937 -0.4781
  730TMC3     C10791   0.055   1.821  16.825 -0.4382 -0.8147 -1.1277
  730TMC3     O10792   0.059   1.720  16.753  1.0709  0.1793 -0.0732
  730TMC3     H10793   0.295   1.696  16.808  2.0288  1.7449 -2.0406
  730TMC3    H110794   0.080   1.972  17.058 -1.3475 -0.4439 -1.0080
  730TMC3    H210795   0.459   2.083  16.914  0.8912  0.0616 -0.3364
  730TMC3    C710796   0.236   2.181  17.018  0.2266 -0.2309 -0.2348
  730TMC3    C810797   0.490   1.854  16.749 -0.6263 -0.3194 -0.4648
  730TMC3    O110798   0.331   2.262  16.998 -0.4461 -0.1478 -0.3008
  730TMC3    O210799   0.478   1.749  16.687 -0.4992 -0.7513 -0.2689
  731MPD2     C10800   0.202   4.309  10.996  0.0383 -0.3962 -0.2020
  731MPD2    C110801   0.167   4.414  11.078  0.0951  1.2033  0.0935
  731MPD2    C210802   0.190   4.409  11.214 -0.3409  0.0132  0.2496
  731MPD2    C310803   0.249   4.295  11.266  0.0798  0.3284  0.2753
  731MPD2    C410804   0.293   4.195  11.184  0.6397  0.1622 -0.6038
  731MPD2    C510805   0.273   4.205  11.050 -0.0227 -0.6563 -0.0887
  731MPD2     H10806   0.150   4.488  11.277 -0.5062 -0.6824  1.0182
  731MPD2    H110807   0.351   4.110  11.218  1.3408  0.6414 -0.5970
  731MPD2    H210808   0.171   4.321  10.893 -0.7366 -2.9559 -0.2821
  731MPD2    H310809   0.314   4.131  10.982  0.0922  0.8184 -1.6535
  731MPD2     N10810   0.273   4.275  11.399  0.0645  0.1701 -0.4527
  731MPD2    H510811   0.328   4.194  11.424 -0.9875 -1.1026 -2.3046
  731MPD2    N110812   0.111   4.518  11.008 -0.0559 -0.5250 -0.2560
  731MPD2    H710813   0.093   4.503  10.909 -1.6544  1.5837 -0.2957
  732TMC3    C110814   4.707   4.711  10.972  0.1928 -0.9624 -0.2303
  732TMC3    C210815   4.600   4.648  10.917  0.2682  0.1465 -0.4660
  732TMC3    C310816   4.475   4.706  10.926  0.3728  0.0858  0.3855
  732TMC3    C410817   4.702   0.118  11.011  0.1482  0.6264  0.4995
  732TMC3    C510818   4.576   0.169  11.028 -0.8908 -0.0794 -0.4172
  732TMC3    C610819   4.461   0.101  10.993 -0.3830  0.1829 -0.2022
  732TMC3     C10820   0.063   4.632  11.064 -0.9962  0.2547  0.4711
  732TMC3     O10821   0.083   4.677  11.175  0.1297  0.5542 -0.3038
  732TMC3     H10822   4.608   4.541  10.903  2.3843  0.3002 -0.3941
  732TMC3    H110823   0.074   0.165  11.040 -0.7163  1.4329  2.0189
  732TMC3    H210824   4.365   0.144  11.017  0.4042  0.0357  3.1776
  732TMC3    C710825   4.562   0.273  11.127 -0.0818  0.6996 -0.0779
  732TMC3    C810826   4.372   4.605  10.933 -0.1988 -0.3516 -0.1615
  732TMC3    O110827   4.479   0.361  11.114  0.6545  0.6602 -0.0624
  732TMC3    O210828   4.386   4.511  10.855 -0.3944 -0.3061 -0.0138
  733TMC3    C110829   0.992   3.169  12.717 -0.1076  0.5914 -0.3446
  733TMC3    C210830   1.096   3.228  12.787 -0.3053 -0.2972 -0.2944
  733TMC3    C310831   1.204   3.265  12.717 -0.0461 -0.8682  0.6282
  733TMC3    C410832   1.007   3.131  12.589 -0.5021 -0.3456  0.4332
  733TMC3    C510833   1.114   3.177  12.517  0.3709  0.2518  0.2470
  733TMC3    C610834   1.206   3.246  12.583 -0.0137  0.4901 -0.4307
  733TMC3     C10835   0.857   3.205  12.751  0.1363 -0.2536 -0.0252
  733TMC3     O10836   0.843   3.326  12.764  0.0939  0.0571 -0.6311
  733TMC3     H10837   1.085   3.238  12.894  0.5867 -1.6531 -0.0758
  733TMC3    H110838   0.917   3.112  12.532 -0.2159 -2.0907  0.5717
  733TMC3    H210839   1.291   3.268  12.520  0.5307  0.0274  0.1493
  733TMC3    C710840   1.079   3.221  12.378  0.6537 -0.0247  0.4346
  733TMC3    C810841   1.316   3.330  12.782  0.2208  0.1506 -0.2402
  733TMC3    O110842   0.967   3.210  12.334  0.5265  0.3548 -0.6736
  733TMC3    O210843   1.361   3.281  12.885 -0.3403 -0.4557 -0.0598
  734MPD2     C10844   2.693   0.547  11.873  0.0432 -0.4657 -0.5942
  734MPD2    C110845   2.610   0.524  11.770  0.4779  1.5166  0.3271
  734MPD2    C210846   2.655   0.563  11.642 -0.1432 -0.3545 -0.5273
  734MPD2    C310847   2.783   0.611  11.630 -0.5253  0.0526  0.9850
  734MPD2    C410848   2.873   0.630  11.734 -0.4335 -0.5162 -0.0594
  734MPD2    C510849   2.819   0.591  11.852 -0.4113 -1.0383  0.2948
  734MPD2     H10850   2.605   0.549  11.547 -0.8034 -0.3058 -0.1847
  734MPD2    H110851   2.975   0.666  11.727 -0.4564 -0.1729  1.4211
  734MPD2    H210852   2.661   0.525  11.975  1.3509  2.2178  0.3895
  734MPD2    H310853   2.885   0.586  11.938 -0.1501 -4.1686 -0.0927
  734MPD2     N10854   2.816   0.643  11.495 -0.0552  0.3619 -0.1148
  734MPD2    H510855   2.742   0.644  11.426  0.2516 -0.5265 -0.4560
  734MPD2    N110856   2.493   0.453  11.789  0.1531 -0.1884  0.1654
  734MPD2    H710857   2.479   0.413  11.881  0.0137 -0.3418  0.0769
  735TMC3    C110858   2.314   0.312  11.715 -0.4291  0.2725 -0.5213
  735TMC3    C210859   2.211   0.300  11.622  0.0531  0.3337 -1.2883
  735TMC3    C310860   2.202   0.190  11.555  0.0978  0.0677  0.3948
  735TMC3    C410861   2.391   0.208  11.755 -0.1385 -0.4773  0.6496
  735TMC3    C510862   2.373   0.095  11.680  0.2359  0.0999  0.0508
  735TMC3    C610863   2.285   0.081  11.578  0.6970 -0.2000 -0.0915
  735TMC3     C10864   2.396   0.429  11.694  0.1286 -0.3421 -0.1426
  735TMC3     O10865   2.399   0.464  11.573  0.6329 -0.6343 -0.4588
  735TMC3     H10866   2.172   0.392  11.580  0.8241  0.9282 -0.6829
  735TMC3    H110867   2.468   0.223  11.830  0.7545  0.4545 -0.4620
  735TMC3    H210868   2.294   4.720  11.508 -1.3281 -0.6267  0.1502
  735TMC3    C710869   2.491   0.004  11.689 -0.6463 -0.3249 -0.2326
  735TMC3    C810870   2.182   0.217  11.411  0.6851  0.5789 -0.0392
  735TMC3    O110871   2.594   0.043  11.747  0.7596 -0.2357  0.0761
  735TMC3    O210872   2.135   0.143  11.327  0.2738  0.0190  0.0279
  736MPD2     C10873   2.489   4.360  11.643  0.1667 -0.0814  0.1779
  736MPD2    C110874   2.541   4.488  11.649  0.2596  0.5164  0.0064
  736MPD2    C210875   2.685   4.505  11.662 -0.4730 -0.0430  0.0837
  736MPD2    C310876   2.771   4.398  11.657  0.7493 -0.5201 -0.0566
  736MPD2    C410877   2.713   4.276  11.655 -0.4370  0.1793 -0.0177
  736MPD2    C510878   2.572   4.249  11.650  0.1203 -0.4309 -0.5303
  736MPD2     H10879   2.728   4.605  11.660 -0.8863  0.1830  1.9814
  736MPD2    H110880   2.773   4.186  11.655 -1.8971 -0.7935 -0.1735
  736MPD2    H210881   2.382   4.344  11.643  0.1826 -0.1887  0.2421
  736MPD2    H310882   2.531   4.150  11.634 -2.5069  0.7525 -1.0974
  736MPD2     N10883   2.911   4.407  11.643 -0.6011  0.4988 -0.0564
  736MPD2    H510884   2.970   4.331  11.611 -2.5637  0.2256 -2.9581
  736MPD2    N110885   2.459   4.598  11.651 -0.3604 -0.1495  0.2022
  736MPD2    H710886   2.360   4.582  11.631 -0.0507  0.1336 -1.5664
  737TMC3    C110887   3.109   4.515  11.594  0.9501 -0.1271 -0.1327
  737TMC3    C210888   3.191   4.614  11.621  0.4651  0.4173  0.0967
  737TMC3    C310889   3.283   4.647  11.522  0.0188 -0.8924  0.3674
  737TMC3    C410890   3.115   4.446  11.475 -0.1412 -0.1941 -0.5588
  737TMC3    C510891   3.207   4.485  11.381 -0.7116  0.4192  0.1359
  737TMC3    C610892   3.281   4.592  11.404  0.0425 -0.0496  0.3767
  737TMC3     C10893   2.977   4.526  11.652  0.0412  0.8899  0.3252
  737TMC3     O10894   2.950   4.627  11.716 -0.0178 -0.1079 -0.3185
  737TMC3     H10895   3.193   4.659  11.720 -1.2982  2.3647 -0.7636
  737TMC3    H110896   3.062   4.354  11.453  0.2573 -0.7257  0.6935
  737TMC3    H210897   3.355   4.610  11.327 -1.3032 -0.8729 -1.1471
  737TMC3    C710898   3.156   4.468  11.249  0.3296 -0.5398 -0.0610
  737TMC3    C810899   3.336   0.061  11.526  0.0574 -0.0385 -0.2108
  737TMC3    O110900   3.041   4.429  11.241  0.2472 -0.0259  0.1291
  737TMC3    O210901   3.398   0.094  11.628  0.1271  0.3279 -0.1466
  738MPD2     C10902   3.473   4.060  15.286  0.1231 -0.4710  0.0895
  738MPD2    C110903   3.482   3.999  15.164  0.0956 -0.3335  0.7378
  738MPD2    C210904   3.591   4.021  15.081 -0.0317  0.9336  0.1500
  738MPD2    C310905   3.698   4.096  15.130 -0.1793 -0.8066  0.3755
  738MPD2    C410906   3.689   4.151  15.255  0.2800  0.4275 -0.1740
  738MPD2    C510907   3.575   4.138  15.329  0.0749 -1.0713  0.2421
  738MPD2     H10908   3.608   3.979  14.983 -0.6353 -0.4189  0.6320
  738MPD2    H110909   3.769   4.210  15.299  1.1951 -0.5641 -0.5269
  738MPD2    H210910   3.387   4.050  15.351 -0.0693  2.5863  0.3070
  738MPD2    H310911   3.575   4.173  15.432  0.6080  0.5687 -0.3027
  738MPD2     N10912   3.814   4.113  15.052  0.2182 -0.9600 -0.1453
  738MPD2    H510913   3.891   4.159  15.100 -1.2309 -1.1842  2.3572
  738MPD2    N110914   3.375   3.920  15.113 -0.2527 -0.2480  0.6697
  738MPD2    H710915   3.393   3.880  15.021 -0.0763  1.1686  0.0827
  739TMC3    C110916   3.994   4.096  14.903 -0.3129 -0.0576 -0.1945
  739TMC3    C210917   4.024   4.116  14.772 -0.1227 -0.9417  0.0483
  739TMC3    C310918   4.159   4.109  14.741 -0.6064  0.2172  0.9134
  739TMC3    C410919   4.090   4.076  14.998  0.1397  0.2033  0.0537
  739TMC3    C510920   4.220   4.064  14.953 -0.5989  0.0784  0.3882
  739TMC3    C610921   4.258   4.071  14.823 -0.8015 -0.9574 -0.0375
  739TMC3     C10922   3.857   4.067  14.930 -0.4138 -0.1737 -0.1822
  739TMC3     O10923   3.799   4.025  14.828 -0.5801 -0.1947 -0.1615
  739TMC3     H10924   3.946   4.153  14.706  0.2077 -0.1953  0.0846
  739TMC3    H110925   4.065   4.044  15.098  5.2399  2.5691  2.1218
  739TMC3    H210926   4.363   4.075  14.797 -0.4273 -2.9197  1.2380
  739TMC3    C710927   4.326   4.058  15.056  0.2320 -0.2226 -0.1635
  739TMC3    C810928   4.190   4.175  14.617 -0.2775  0.0567 -0.8967
  739TMC3    O110929   4.440   4.049  15.013 -0.2499  0.3233  0.1032
  739TMC3    O210930   4.097   4.215  14.550 -0.4335  0.3050  0.0331
  740TMC3    C110931   4.620   0.952  13.942  0.2744  0.5121 -0.5346
  740TMC3    C210932   4.647   1.025  14.051  0.2556  0.7980  0.3055
  740TMC3    C310933   0.054   1.038  14.089  0.1040  0.4923 -0.4044
  740TMC3    C410934   4.719   0.901  13.861 -0.3986  0.1108  0.0675
  740TMC3    C510935   0.130   0.926  13.897 -0.0798 -0.0723  1.1775
  740TMC3    C610936   0.161   0.992  14.016 -0.3445 -0.0981 -0.1043
  740TMC3     C10937   4.486   0.929  13.909  0.8999  0.3565 -0.1950
  740TMC3     O10938   4.464   0.926  13.789 -0.4524  1.1539 -0.3581
  740TMC3     H10939   4.567   1.054  14.117  0.2717  0.1596  0.6099
  740TMC3    H110940   4.686   0.860  13.766 -0.7936  0.5550  0.0135
  740TMC3    H210941   0.261   1.002  14.055 -0.0898 -1.1337 -0.5062
  740TMC3    C710942   0.235   0.860  13.825 -1.2934 -0.1923 -0.0017
  740TMC3    C810943   0.070   1.126  14.208 -0.8706  0.2775 -0.4072
  740TMC3    O110944   0.353   0.881  13.852 -0.9132 -0.2072 -0.2505
  740TMC3    O210945   4.710   1.114  14.296 -0.2765  0.2025 -0.8225
  741TMC3    C110946   4.039   4.622  14.334 -0.0020  0.0474  1.0939
  741TMC3    C210947   3.940   4.572  14.254  0.0126 -0.4886  0.9879
  741TMC3    C310948   3.871   4.468  14.305  0.3926 -0.1041 -0.8807
  741TMC3    C410949   4.075   4.563  14.453 -0.0529 -0.6676  0.7403
  741TMC3    C510950   3.992   4.466  14.498 -0.1546 -0.2080 -0.0106
  741TMC3    C610951   3.888   4.415  14.422  0.5538 -0.5322 -0.4297
  741TMC3     C10952   4.102   0.030  14.296 -0.4671 -0.0604  0.9621
  741TMC3     O10953   4.184   0.056  14.381  0.3534 -0.0907  0.0758
  741TMC3     H10954   3.926   4.612  14.154 -3.6815  0.0476  1.7305
  741TMC3    H110955   4.152   4.602  14.518 -2.7619  2.2902  2.1847
  741TMC3    H210956   3.816   4.347  14.466  0.6285  0.1261  0.7162
  741TMC3    C710957   3.974   4.459  14.641  0.4262 -0.1384  0.1669
  741TMC3    C810958   3.785   4.408  14.207  0.3943 -0.2110 -0.1339
  741TMC3    O110959   3.863   4.427  14.685 -0.6608  0.3041  0.0724
  741TMC3    O210960   3.751   4.482  14.119 -0.5670  0.0985  1.3477
  742TMC3    C110961   3.332   3.137  14.962  0.1760  0.1139 -0.1053
  742TMC3    C210962   3.269   3.096  14.845 -0.5709  0.5034  0.1895
  742TMC3    C310963   3.326   2.996  14.780 -0.5869 -0.3986  0.1196
  742TMC3    C410964   3.463   3.094  15.001  0.9133 -0.6231  0.0589
  742TMC3    C510965   3.509   2.986  14.931 -0.6235 -0.5577 -0.1460
  742TMC3    C610966   3.437   2.930  14.828  0.3266 -0.3118 -0.2372
  742TMC3     C10967   3.283   3.254  15.032 -0.2517  0.2436 -0.1421
  742TMC3     O10968   3.161   3.260  15.047 -0.2810  0.0471 -0.1766
  742TMC3     H10969   3.182   3.156  14.822 -1.5713 -1.4394 -1.0625
  742TMC3    H110970   3.506   3.100  15.101  0.6551 -0.2017  0.1469
  742TMC3    H210971   3.479   2.846  14.775  1.4198 -0.0577  0.2357
  742TMC3    C710972   3.628   2.919  14.978  0.3382  0.1251  0.7191
  742TMC3    C810973   3.293   2.986  14.638 -0.2503 -0.2885 -0.3045
  742TMC3    O110974   3.636   2.804  14.939  0.1923 -0.9613 -0.0425
  742TMC3    O210975   3.369   2.929  14.563  0.2151 -0.1813  0.2070
  743MPD2     C10976   1.956   4.232   1.411 -0.5787 -0.2159  0.4239
  743MPD2    C110977   1.980   4.163   1.297 -0.0783 -0.2674 -0.6681
  743MPD2    C210978   2.104   4.114   1.261 -0.5301  0.0852  0.2964
  743MPD2    C310979   2.209   4.140   1.337 -0.5966 -0.3822  0.0141
  743MPD2    C410980   2.191   4.207   1.456 -0.9069 -0.1787  0.2116
  743MPD2    C510981   2.064   4.247   1.490 -0.0697  0.2917  0.6822
  743MPD2     H10982   2.127   4.077   1.162  0.4720 -2.4875  1.4897
  743MPD2    H110983   2.274   4.230   1.522 -0.0954  0.2089 -0.9629
  743MPD2    H210984   1.859   4.272   1.437 -1.7829 -1.0506 -2.8308
  743MPD2    H310985   2.045   4.279   1.592  0.0627  0.5272  0.6337
  743MPD2     N10986   2.342   4.110   1.286 -0.3785 -0.3784 -0.0703
  743MPD2    H510987   2.340   4.074   1.191  0.6330 -0.9097  0.1176
  743MPD2    N110988   1.868   4.120   1.226  0.1648 -0.2694 -0.7068
  743MPD2    H710989   1.774   4.147   1.252  0.4424  1.7615 -1.8178
  744TMC3    C110990   1.731   4.106   1.042 -0.5071  0.3184  0.2231
  744TMC3    C210991   1.618   4.136   1.120  1.0864  0.5204 -0.2514
  744TMC3    C310992   1.493   4.118   1.060  0.1043 -0.3327  0.6044
  744TMC3    C410993   1.718   4.074   0.906 -0.0317 -0.1464 -0.0295
  744TMC3    C510994   1.585   4.058   0.855  0.2601  0.3814  0.9939
  744TMC3    C610995   1.471   4.083   0.933 -0.4624  0.6915 -0.2725
  744TMC3     C10996   1.864   4.074   1.099 -0.0080 -0.2998 -0.1198
  744TMC3     O10997   1.949   4.024   1.025  0.4508 -0.2191 -0.4204
  744TMC3     H10998   1.623   4.157   1.226 -0.0027 -0.1700 -0.0605
  744TMC3    H110999   1.809   4.049   0.854  0.5459 -0.0370  0.9184
  744TMC3    H211000   1.371   4.080   0.893 -0.1027 -2.9271 -0.8885
  744TMC3    C711001   1.577   4.019   0.718 -0.0748 -0.0442 -0.1522
  744TMC3    C811002   1.393   4.104   1.163 -1.0018  0.1760  0.1980
  744TMC3    O111003   1.681   4.023   0.660  0.4298 -0.1538  0.1515
  744TMC3    O211004   1.397   4.175   1.261  0.1991 -0.1171 -0.0006
  745TMC3    C111005   4.242   3.029  13.051 -0.7515 -0.4803 -0.5215
  745TMC3    C211006   4.133   2.982  13.121 -0.4166  0.6193 -0.5857
  745TMC3    C311007   4.015   3.041  13.107 -1.2179 -0.0242 -0.0566
  745TMC3    C411008   4.233   3.126  12.955 -0.7372  0.4995  0.0091
  745TMC3    C511009   4.111   3.181  12.944  0.0705  0.4299  0.7234
  745TMC3    C611010   3.996   3.140  13.012 -0.5684  0.2736  0.1702
  745TMC3     C11011   4.375   2.974  13.087  0.1990 -0.8991 -0.4470
  745TMC3     O11012   4.384   2.857  13.121  0.0537  0.5377 -0.4934
  745TMC3     H11013   4.151   2.911  13.202  1.7662 -1.0295 -2.5131
  745TMC3    H111014   4.327   3.139  12.902 -1.6677 -1.2572 -2.0935
  745TMC3    H211015   3.915   3.212  13.018  1.2732  2.4197 -0.3007
  745TMC3    C711016   4.098   3.293  12.853 -0.1278  0.2325 -0.8066
  745TMC3    C811017   3.971   3.101  13.229  0.2984 -0.9191 -0.2105
  745TMC3    O111018   3.985   3.334  12.819 -0.6442  0.0950  0.0321
  745TMC3    O211019   3.854   3.099  13.250 -0.6040  0.1199 -0.3209
  746TMC3    C111020   2.126   4.679  10.468 -0.5674  0.3256  0.8082
  746TMC3    C211021   2.193   4.659  10.348 -0.7340 -0.0477  0.0371
  746TMC3    C311022   2.203   4.526  10.309 -0.2133 -0.0411 -0.1320
  746TMC3    C411023   2.072   4.585  10.543  0.5912  0.4062 -0.1549
  746TMC3    C511024   2.079   4.453  10.497 -0.7101 -1.2710  0.3470
  746TMC3    C611025   2.144   4.424  10.385  0.3124  0.8484 -0.1569
  746TMC3     C11026   2.086   0.091  10.506  0.1004 -0.0865 -0.0195
  746TMC3     O11027   2.017   0.107  10.607  0.0672 -0.3395 -0.1320
  746TMC3     H11028   2.225   0.016  10.281  0.0429 -0.4881 -0.1101
  746TMC3    H111029   1.999   4.608  10.620  1.4537  0.8756  0.5141
  746TMC3    H211030   2.153   4.319  10.362 -2.7261  0.9008 -1.6681
  746TMC3    C711031   1.975   4.360  10.547  0.3166  0.5488  0.6680
  746TMC3    C811032   2.243   4.495  10.172 -0.6892 -1.1741 -0.0671
  746TMC3    O111033   1.958   4.262  10.474  0.4354 -0.8088  0.3524
  746TMC3    O211034   2.303   4.393  10.152  0.2091  0.1781  0.2174
  747TMC3    C111035   3.591   0.002  10.325 -1.2819  0.1581 -0.1972
  747TMC3    C211036   3.472   4.719  10.389 -0.0266 -0.8297  0.1288
  747TMC3    C311037   3.477   0.030  10.526  0.3838 -0.2525 -0.0101
  747TMC3    C411038   3.714   0.023  10.384 -0.3671 -0.2638 -0.1742
  747TMC3    C511039   3.712   0.061  10.512  0.1204  0.0489 -0.2170
  747TMC3    C611040   3.596   0.066  10.588 -0.5989 -1.6336 -0.3369
  747TMC3     C11041   3.590   0.008  10.183  0.4973  0.7706  0.1576
  747TMC3     O11042   3.697   4.694  10.129 -0.1703  0.0483 -0.1288
  747TMC3     H11043   3.379   4.692  10.339 -0.3882  0.0348  0.3293
  747TMC3    H111044   3.804   0.036  10.325 -1.7617  0.3443 -2.1826
  747TMC3    H211045   3.605   0.096  10.692 -0.1989  3.2918 -1.8082
  747TMC3    C711046   3.829   0.130  10.566 -0.2892  0.7476  0.0753
  747TMC3    C811047   3.349   0.007  10.589 -0.8703  0.3535 -0.2512
  747TMC3    O111048   3.815   0.226  10.643  0.5370  0.5341  0.3796
  747TMC3    O211049   3.244   0.042  10.534 -0.3924  0.8184 -0.2458
  748MPD2     C11050   0.857   0.292   1.597 -0.3999  0.9862  0.5224
  748MPD2    C111051   0.978   0.225   1.614 -0.4848  0.6624  0.2057
  748MPD2    C211052   1.065   0.229   1.501  0.2245  0.3192  0.4069
  748MPD2    C311053   1.031   0.292   1.385  0.5357 -0.1958 -0.3920
  748MPD2    C411054   0.914   0.346   1.371 -0.4356  0.6196 -0.0295
  748MPD2    C511055   0.826   0.345   1.477  0.1934 -0.0344 -0.1253
  748MPD2     H11056   1.159   0.176   1.498  1.0423  1.8479 -0.7770
  748MPD2    H111057   0.878   0.379   1.274 -2.2679  0.5900  0.6372
  748MPD2    H211058   0.786   0.296   1.679 -0.8084  1.3308  0.1508
  748MPD2    H311059   0.731   0.395   1.465  0.4742  0.7791  1.0056
  748MPD2     N11060   1.129   0.288   1.280  0.3226  0.0159 -0.1498
  748MPD2    H511061   1.220   0.245   1.294  0.4628  0.0806 -0.8590
  748MPD2    N111062   1.003   0.151   1.731 -0.3259 -0.2116  0.8108
  748MPD2    H711063   0.930   0.163   1.801 -0.9565 -1.1553  0.3130
  749TMC3    C111064   1.246   0.330   1.072  0.2201 -0.6636  0.4555
  749TMC3    C211065   1.346   0.261   1.129  0.1660 -0.3320  0.1473
  749TMC3    C311066   1.463   0.267   1.053 -0.1205 -0.1084 -0.2505
  749TMC3    C411067   1.248   0.390   0.954  0.2652  0.0751  0.3324
  749TMC3    C511068   1.372   0.414   0.902  0.0066  0.2612  0.0221
  749TMC3    C611069   1.482   0.350   0.945 -0.0783 -0.1019  0.4930
  749TMC3     C11070   1.115   0.348   1.151  0.1140 -0.1001  0.0980
  749TMC3     O11071   1.031   0.427   1.112 -0.1358  0.2320 -0.3654
  749TMC3     H11072   1.341   0.194   1.214  0.8471 -1.0953 -0.4156
  749TMC3    H111073   1.158   0.440   0.919  1.0290  0.0118 -1.7133
  749TMC3    H211074   1.578   0.367   0.897 -1.1143 -1.2046 -2.0107
  749TMC3    C711075   1.391   0.518   0.798  0.0545  0.5735 -0.2151
  749TMC3    C811076   1.578   0.201   1.119 -0.9826 -0.7100  0.6054
  749TMC3    O111077   1.505   0.558   0.777  1.1097 -0.3052 -0.1838
  749TMC3    O211078   1.560   0.165   1.236 -0.3203  0.9912 -0.0229
  750MPD2     C11079   2.244   1.542  10.867  0.3969 -0.1617 -0.0491
  750MPD2    C111080   2.107   1.582  10.860  0.3474 -0.8837  0.2243
  750MPD2    C211081   2.025   1.527  10.760  0.4505  0.4801 -0.5777
  750MPD2    C311082   2.077   1.433  10.678 -0.2763 -0.1016  0.6335
  750MPD2    C411083   2.207   1.404  10.684 -0.4281 -0.6802  0.0507
  750MPD2    C511084   2.292   1.461  10.774 -0.2451 -0.4565  0.4660
  750MPD2     H11085   1.920   1.548  10.747  1.0961  0.6277 -5.3016
  750MPD2    H111086   2.248   1.331  10.615  1.8010  0.5445  0.0655
  750MPD2    H211087   2.316   1.597  10.927 -0.8354  0.4242  0.8881
  750MPD2    H311088   2.394   1.426  10.767  0.0121  0.2577  0.6683
  750MPD2     N11089   2.005   1.348  10.594 -0.1350 -0.5165  0.4220
  750MPD2    H511090   2.051   1.277  10.538  0.8196 -0.1529  0.7536
  750MPD2    N111091   2.050   1.679  10.946 -0.0757  0.3050 -0.5919
  750MPD2    H711092   1.951   1.696  10.929 -0.1492 -1.8044 -2.2272
  751TMC3    C111093   1.831   1.246  10.475 -0.2606  0.0125 -0.0951
  751TMC3    C211094   1.711   1.175  10.482 -0.4970 -0.2110 -0.0264
  751TMC3    C311095   1.695   1.052  10.423  0.4277 -0.5250  0.5197
  751TMC3    C411096   1.925   1.188  10.391  0.0193  0.8995 -0.0515
  751TMC3    C511097   1.901   1.074  10.329  0.5547 -0.8252 -0.2142
  751TMC3    C611098   1.789   1.000  10.344 -0.2653 -0.2369 -0.6453
  751TMC3     C11099   1.867   1.337  10.585 -0.0953 -0.7578  0.4028
  751TMC3     O11100   1.779   1.408  10.631  0.7081  0.0864 -0.0345
  751TMC3     H11101   1.626   1.216  10.535  0.2441  1.0456  0.1844
  751TMC3    H111102   2.020   1.240  10.379  0.5997 -0.0544  0.4126
  751TMC3    H211103   1.779   0.895  10.320  2.1354 -0.8056  0.8949
  751TMC3    C711104   1.992   1.041  10.217  0.4897 -0.4518  1.1109
  751TMC3    C811105   1.573   0.983  10.445 -0.3854 -0.1455  0.5050
  751TMC3    O111106   2.102   1.095  10.212 -0.5290 -0.3377  0.0926
  751TMC3    O211107   1.533   0.924  10.347  0.3241  0.8243  0.1555
  752TMC3    C111108   0.643   1.172  16.560 -0.2062  0.0046  0.1018
  752TMC3    C211109   0.745   1.098  16.628  1.1860  0.1524  0.2937
  752TMC3    C311110   0.734   1.096  16.766  0.3998 -0.7908  0.2365
  752TMC3    C411111   0.533   1.224  16.624  0.3430 -0.9322 -0.6617
  752TMC3    C511112   0.539   1.233  16.756 -0.1939 -0.3372  0.2772
  752TMC3    C611113   0.643   1.170  16.831  0.3371 -0.5824  0.1724
  752TMC3     C11114   0.697   1.229  16.432 -0.0775  0.5474  0.1359
  752TMC3     O11115   0.766   1.153  16.371  0.3743  0.5563  0.1891
  752TMC3     H11116   0.827   1.045  16.581  1.2293  1.7370 -1.4098
  752TMC3    H111117   0.455   1.272  16.566  1.2649  0.5253 -0.6745
  752TMC3    H211118   0.662   1.200  16.933  0.6039 -1.1938  0.3041
  752TMC3    C711119   0.443   1.314  16.820 -0.1355  0.0917 -0.0732
  752TMC3    C811120   0.821   0.995  16.832 -0.3862 -0.5389  0.3665
  752TMC3    O111121   0.370   1.377  16.746 -0.2424 -0.1095  0.4262
  752TMC3    O211122   0.893   0.927  16.759 -0.0739  0.1027  0.1668
  753TMC3    C111123   3.240   2.916  12.974 -0.2475  0.6228  0.0028
  753TMC3    C211124   3.183   2.889  13.092 -1.1647 -0.3650 -0.0398
  753TMC3    C311125   3.173   2.760  13.131  0.2071 -0.1337 -0.0471
  753TMC3    C411126   3.290   2.815  12.891 -0.0659  0.8071 -0.0844
  753TMC3    C511127   3.283   2.684  12.940  0.1468  0.1147 -0.1486
  753TMC3    C611128   3.227   2.658  13.059  0.4100  0.5074  0.5124
  753TMC3     C11129   3.194   3.033  12.905  0.7696  0.2514  0.0064
  753TMC3     O11130   3.134   3.026  12.800  0.5719  0.1072 -0.0855
  753TMC3     H11131   3.115   2.961  13.137  0.1637  0.4312  0.7001
  753TMC3    H111132   3.320   2.833  12.788  2.8411 -0.6489  0.4898
  753TMC3    H211133   3.208   2.558  13.096 -0.8486 -0.0272 -1.6051
  753TMC3    C711134   3.316   2.573  12.854  0.4177 -0.4163  0.0568
  753TMC3    C811135   3.074   2.721  13.230 -0.8558 -0.0027 -0.0455
  753TMC3    O111136   3.334   2.468  12.913 -0.8318 -0.1684  0.1024
  753TMC3    O211137   3.016   2.615  13.219 -0.8131 -0.4904  0.3421
  754MPD2     C11138   1.898   1.787  12.461 -0.4497  1.0248 -0.0403
  754MPD2    C111139   1.835   1.663  12.457 -0.1453  0.3483  0.0185
  754MPD2    C211140   1.703   1.658  12.415 -0.9103  0.0764 -0.9575
  754MPD2    C311141   1.632   1.781  12.388 -0.0751  0.7015 -1.3507
  754MPD2    C411142   1.701   1.901  12.382 -0.4100 -0.2449  0.3919
  754MPD2    C511143   1.827   1.908  12.433 -0.6416 -0.6923 -0.7812
  754MPD2     H11144   1.661   1.558  12.410  0.6071 -0.4944 -2.0175
  754MPD2    H111145   1.656   1.994  12.347 -2.8274 -2.0140 -1.1622
  754MPD2    H211146   2.006   1.794  12.471 -0.1862 -0.3704 -1.7526
  754MPD2    H311147   1.881   2.001  12.442 -0.8826 -0.4735 -1.6683
  754MPD2     N11148   1.492   1.790  12.353 -0.3081  0.5980  0.1686
  754MPD2    H511149   1.468   1.884  12.324 -2.4691 -0.7992 -2.5453
  754MPD2    N111150   1.910   1.543  12.496 -0.0758 -0.0823 -0.1285
  754MPD2    H711151   1.996   1.568  12.544  1.0650  0.6728 -2.5346
  755MPD2     C11152   0.791   2.291  12.589 -1.1893  0.1378 -0.0680
  755MPD2    C111153   0.738   2.212  12.489 -0.1093  0.3910 -0.2075
  755MPD2    C211154   0.821   2.126  12.416  0.5957  0.2359  0.4760
  755MPD2    C311155   0.965   2.133  12.428 -0.0399  0.1839 -0.2676
  755MPD2    C411156   1.017   2.220  12.524 -0.1871 -0.5154  0.0332
  755MPD2    C511157   0.930   2.293  12.601  0.2188 -0.1005 -0.0205
  755MPD2     H11158   0.778   2.063  12.339  1.2687  0.9612 -0.4962
  755MPD2    H111159   1.124   2.224  12.536  0.1430  0.4202 -3.1848
  755MPD2    H211160   0.729   2.333  12.667 -1.4952 -2.0859  0.8686
  755MPD2    H311161   0.966   2.330  12.696  0.4699 -0.5956  0.0811
  755MPD2     N11162   1.062   2.055  12.349 -0.4517  0.8872  0.4210
  755MPD2    H511163   1.158   2.078  12.375 -1.1432  1.3732  2.4743
  755MPD2    N111164   0.600   2.216  12.457 -0.1316  0.5263 -0.6310
  755MPD2    H711165   0.574   2.145  12.389 -2.4018  1.7939 -1.0686
  756MPD2     C11166   1.563   1.642   9.119 -0.2586  0.2270 -0.2550
  756MPD2    C111167   1.604   1.760   9.056  0.4073 -0.3094 -0.5309
  756MPD2    C211168   1.521   1.827   8.965 -0.2088  0.7958 -0.9864
  756MPD2    C311169   1.401   1.770   8.936 -0.6111  0.0594 -0.5550
  756MPD2    C411170   1.364   1.646   8.992  0.1243 -0.2249  0.9156
  756MPD2    C511171   1.444   1.582   9.081 -0.2488  0.7097 -0.6211
  756MPD2     H11172   1.541   1.920   8.912 -0.4430  0.2287 -2.0679
  756MPD2    H111173   1.282   1.587   8.953 -2.4343  2.9195  1.5834
  756MPD2    H211174   1.622   1.585   9.190  0.6017  1.9093  0.3986
  756MPD2    H311175   1.414   1.491   9.131  0.3091 -0.8651 -3.1716
  756MPD2     N11176   1.316   1.838   8.843  0.1705  0.0307  0.6727
  756MPD2    H511177   1.373   1.908   8.796  1.5343 -1.3292  0.3117
  756MPD2    N111178   1.726   1.825   9.092  0.2718  0.0485 -0.7696
  756MPD2    H711179   1.750   1.916   9.055  1.1092  0.7831  1.5092
  757MPD2     C11180   0.348   1.940   8.649 -0.4382 -0.0677  0.1952
  757MPD2    C111181   0.412   1.914   8.768 -0.1761  1.2076 -0.1313
  757MPD2    C211182   0.551   1.942   8.774 -0.2758  0.3883  0.0594
  757MPD2    C311183   0.615   1.997   8.663 -0.0540 -0.3006  0.8189
  757MPD2    C411184   0.543   2.025   8.548 -0.5076  0.2465  0.4582
  757MPD2    C511185   0.411   1.989   8.539  0.8117  0.2919 -1.3269
  757MPD2     H11186   0.608   1.922   8.865  1.6163  0.0233 -1.2009
  757MPD2    H111187   0.582   2.076   8.461 -0.5266  0.3897  0.5335
  757MPD2    H211188   0.245   1.912   8.629 -1.2210  1.3966  2.1619
  757MPD2    H311189   0.369   2.001   8.440 -0.7138  1.4373 -0.5382
  757MPD2     N11190   0.758   2.007   8.671 -0.4406  0.0751 -0.0937
  757MPD2    H511191   0.785   1.994   8.768  0.3304  0.1626 -0.2972
  757MPD2    N111192   0.346   1.844   8.871 -0.0159 -0.4793  0.7257
  757MPD2    H711193   0.249   1.817   8.856 -0.5729  1.9005 -0.0050
  758MPD2     C11194   1.611   1.574  15.501  0.5958 -0.9528  0.3063
  758MPD2    C111195   1.633   1.441  15.527 -0.1553 -0.4056 -0.2483
  758MPD2    C211196   1.567   1.381  15.631 -0.0253  0.1965 -0.1844
  758MPD2    C311197   1.479   1.457  15.708  0.1345 -0.4242 -0.9050
  758MPD2    C411198   1.450   1.585  15.674  0.0538  0.0440  0.2790
  758MPD2    C511199   1.522   1.647  15.574  0.3230  0.1782 -1.1892
  758MPD2     H11200   1.600   1.281  15.657  0.3963  0.1255 -0.9738
  758MPD2    H111201   1.391   1.656  15.731  1.2129 -1.4233  3.3083
  758MPD2    H211202   1.666   1.623  15.422  1.1938 -1.6500  0.2941
  758MPD2    H311203   1.508   1.751  15.547 -0.1450  0.6382  0.8531
  758MPD2     N11204   1.430   1.410  15.833  0.2115  1.3772 -0.0060
  758MPD2    H511205   1.347   1.458  15.865 -0.2109  0.7253 -0.1104
  758MPD2    N111206   1.736   1.376  15.458 -0.0058 -0.1141 -0.7376
  758MPD2    H711207   1.802   1.430  15.403  2.6061 -0.6594  1.8681
  759MPD2     C11208   1.192   4.048   9.711  0.1736 -0.2689  0.0590
  759MPD2    C111209   1.110   4.012   9.609 -0.0688 -0.1731  0.0103
  759MPD2    C211210   1.046   4.106   9.527 -0.0585 -0.6767  0.3225
  759MPD2    C311211   1.084   4.242   9.534 -0.1887  0.3897 -0.0647
  759MPD2    C411212   1.174   4.279   9.638 -0.0508 -0.8626 -0.0379
  759MPD2    C511213   1.232   4.186   9.720 -0.0713  0.0183 -0.2240
  759MPD2     H11214   0.978   4.079   9.448  0.9204 -1.7511 -0.1565
  759MPD2    H111215   1.213   4.379   9.654 -0.7485 -0.7457  0.9665
  759MPD2    H211216   1.237   3.976   9.777 -0.6704 -1.7690 -1.0164
  759MPD2    H311217   1.297   4.208   9.804 -1.1215  1.3283  0.2421
  759MPD2     N11218   1.012   4.334   9.448 -0.1506  0.4722  0.0325
  759MPD2    H511219   0.940   4.286   9.394  1.7919 -0.0545 -2.1092
  759MPD2    N111220   1.067   3.876   9.589  0.0226 -0.1982  0.2330
  759MPD2    H711221   1.000   3.869   9.513 -0.6084 -2.3205  0.9806
  760MPD2     C11222   0.298   1.845  11.506 -0.0291 -0.1659 -0.1406
  760MPD2    C111223   0.380   1.862  11.394 -0.1421 -0.5823  0.0634
  760MPD2    C211224   0.451   1.757  11.337 -0.1995 -0.0389 -0.5816
  760MPD2    C311225   0.417   1.635  11.375 -0.3023 -0.1319  0.0581
  760MPD2    C411226   0.324   1.612  11.469  0.2881  0.1228  0.0174
  760MPD2    C511227   0.271   1.716  11.544 -0.0090 -0.4929 -0.3585
  760MPD2     H11228   0.541   1.771  11.279  0.3959 -1.6606 -0.0453
  760MPD2    H111229   0.298   1.508  11.485  2.6074 -0.7886 -2.1573
  760MPD2    H211230   0.256   1.930  11.559  1.3040 -0.2847  1.1014
  760MPD2    H311231   0.204   1.691  11.625 -0.1219  0.4606 -0.1541
  760MPD2     N11232   0.479   1.520  11.331  0.0468  0.6814 -0.2999
  760MPD2    H511233   0.447   1.436  11.380 -0.7061  0.3339 -1.3818
  760MPD2    N111234   0.411   1.989  11.340  0.6268  0.3611  0.0481
  760MPD2    H711235   0.485   1.990  11.270 -0.9919 -2.7378 -1.7149
  761MPD2     C11236   1.196   0.797  10.731 -0.2726  0.0756 -0.6408
  761MPD2    C111237   1.221   0.780  10.598  0.4536 -0.4003 -0.4992
  761MPD2    C211238   1.319   0.856  10.537 -0.3028 -0.4769 -0.1196
  761MPD2    C311239   1.400   0.935  10.616 -0.4388  0.4668 -0.2686
  761MPD2    C411240   1.373   0.951  10.748 -0.2587  0.1456  0.1078
  761MPD2    C511241   1.268   0.884  10.804  0.8138  0.8383  0.1976
  761MPD2     H11242   1.357   0.838  10.437 -1.1120  1.2277 -0.7334
  761MPD2    H111243   1.444   0.996  10.816  0.6315 -0.8989 -0.1261
  761MPD2    H211244   1.113   0.748  10.779  0.9414 -0.0759  1.3378
  761MPD2    H311245   1.243   0.889  10.909  3.6691  0.8615  0.8742
  761MPD2     N11246   1.526   0.987  10.570 -0.1686  0.3922 -0.5019
  761MPD2    H511247   1.580   1.030  10.644  1.3069 -1.2251 -0.6494
  761MPD2    N111248   1.143   0.682  10.530 -0.1319 -0.6576  0.0625
  761MPD2    H711249   1.105   0.607  10.587 -1.0541 -0.5287 -0.3951
  762MPD2     C11250   1.483   0.001  10.090  0.2284 -0.3740 -0.4406
  762MPD2    C111251   1.470   0.137  10.096 -0.2890 -0.0711 -0.4025
  762MPD2    C211252   1.559   0.216  10.029  0.0619 -0.6077  0.8247
  762MPD2    C311253   1.659   0.152   9.950 -0.1633  0.5590 -0.1364
  762MPD2    C411254   1.674   0.015   9.953  0.3465 -0.5817 -0.0404
  762MPD2    C511255   1.583   4.663  10.026 -0.2328 -0.0423 -0.1262
  762MPD2     H11256   1.533   0.321  10.023 -0.9681 -1.0435 -1.9118
  762MPD2    H111257   1.746   4.682   9.894 -2.0060  0.2771 -3.7104
  762MPD2    H211258   1.416   4.658  10.146  1.1003 -0.0952  0.9298
  762MPD2    H311259   1.585   4.555  10.029 -0.6533 -0.0729 -1.1058
  762MPD2     N11260   1.753   0.216   9.866 -0.2081 -0.5279  0.4662
  762MPD2    H511261   1.789   0.154   9.795 -2.5487 -0.5901 -0.6721
  762MPD2    N111262   1.363   0.188  10.174  0.1233  0.3765  0.2461
  762MPD2    H711263   1.296   0.120  10.206 -0.0086  0.9467  1.1789
  763MPD2     C11264   3.927   1.019  15.938 -0.2356 -0.0569 -0.1511
  763MPD2    C111265   3.796   1.069  15.928 -0.6891  0.1205  0.2730
  763MPD2    C211266   3.761   1.188  15.999 -0.4737 -0.3299 -0.5422
  763MPD2    C311267   3.866   1.260  16.055 -0.3190  0.4245  0.7409
  763MPD2    C411268   3.990   1.210  16.044 -0.4021 -0.9497 -0.1997
  763MPD2    C511269   4.026   1.085  16.001 -0.1388  0.6735 -0.1166
  763MPD2     H11270   3.661   1.229  15.994  0.0173  1.0261  1.0352
  763MPD2    H111271   4.067   1.267  16.094 -0.3347 -1.4194  0.2343
  763MPD2    H211272   3.963   0.929  15.889 -0.1262  1.9421 -3.7588
  763MPD2    H311273   4.132   1.064  15.991 -0.5105 -1.8580  1.3751
  763MPD2     N11274   3.853   1.395  16.104  0.8567 -0.7016 -0.2013
  763MPD2    H511275   3.936   1.440  16.142  0.6145 -0.8042  0.4327
  763MPD2    N111276   3.693   1.000  15.856 -0.6416  0.0623 -0.5356
  763MPD2    H711277   3.614   1.055  15.825  1.0894  2.9493  0.1500
  764MPD2     C11278   2.378   2.558  17.050 -0.1300  0.0757 -0.5870
  764MPD2    C111279   2.250   2.537  16.995  0.3298  0.2941 -1.0011
  764MPD2    C211280   2.157   2.458  17.070  0.8109  0.1815 -0.2423
  764MPD2    C311281   2.188   2.436  17.209  0.2928 -0.2093 -0.4692
  764MPD2    C411282   2.312   2.461  17.259 -0.0989  0.6673  0.2979
  764MPD2    C511283   2.407   2.522  17.181  0.2617  0.6564  0.1203
  764MPD2     H11284   2.060   2.434  17.027  0.1022  2.6278 -0.0206
  764MPD2    H111285   2.344   2.437  17.359 -2.0267 -1.2572  0.4385
  764MPD2    H211286   2.462   2.600  16.996 -2.3025  2.5321 -2.0479
  764MPD2    H311287   2.501   2.546  17.231  0.9460 -0.6334 -0.5470
  764MPD2     N11288   2.099   2.366  17.290 -0.4672 -0.3759 -0.1837
  764MPD2    H511289   2.009   2.343  17.250  1.0121  0.1616 -3.8714
  764MPD2    N111290   2.219   2.568  16.858 -0.3094 -0.1731  0.1693
  764MPD2    H711291   2.134   2.533  16.816 -0.8428 -0.1894  1.2403
  765MPD2     C11292   1.372   0.516  15.674  0.7242 -0.0783  0.0272
  765MPD2    C111293   1.425   0.631  15.622  0.4043  0.6829 -0.6255
  765MPD2    C211294   1.547   0.627  15.558 -0.4271 -0.3226 -0.2277
  765MPD2    C311295   1.616   0.513  15.554  0.2470  0.9293 -0.0229
  765MPD2    C411296   1.568   0.397  15.613 -0.4219 -0.1226 -0.1824
  765MPD2    C511297   1.444   0.398  15.669 -0.2047  0.2406 -0.0289
  765MPD2     H11298   1.591   0.711  15.505 -0.4137  0.6811  1.3860
  765MPD2    H111299   1.630   0.308  15.615  0.4294  0.4542 -1.0401
  765MPD2    H211300   1.275   0.509  15.723  1.1919  0.4671  1.0131
  765MPD2    H311301   1.409   0.315  15.729 -0.7407  0.4764 -0.0213
  765MPD2     N11302   1.736   0.513  15.479 -0.2206 -0.1523  0.1568
  765MPD2    H511303   1.759   0.594  15.423 -2.9774  0.2843 -0.3672
  765MPD2    N111304   1.347   0.752  15.623  0.1646 -0.4025 -0.2882
  765MPD2    H711305   1.249   0.745  15.647 -0.5436 -0.5108 -3.1430
  766MPD2     C11306   0.810   0.984  15.184 -0.6747  0.1362  0.0680
  766MPD2    C111307   0.943   0.939  15.207  0.6235  0.2420  0.1061
  766MPD2    C211308   1.016   0.893  15.099  0.3581  0.4094  0.8747
  766MPD2    C311309   0.958   0.898  14.980 -0.2929 -0.6711 -0.1159
  766MPD2    C411310   0.831   0.944  14.958 -0.5312 -0.0273 -0.6036
  766MPD2    C511311   0.751   0.981  15.059  0.3340 -0.3781 -0.4015
  766MPD2     H11312   1.116   0.853  15.094 -0.2840 -1.0318 -0.5399
  766MPD2    H111313   0.782   0.942  14.861  0.4659  0.0197 -1.1031
  766MPD2    H211314   0.745   0.997  15.269  1.1647  2.5927  1.0975
  766MPD2    H311315   0.646   1.008  15.053  0.7327  0.7674 -2.2731
  766MPD2     N11316   1.026   0.864  14.858  0.4518  0.2041 -0.3814
  766MPD2    H511317   0.974   0.880  14.773  0.1554  1.1761 -0.0181
  766MPD2    N111318   1.001   0.944  15.334  0.0572 -0.1995 -0.5088
  766MPD2    H711319   1.092   0.901  15.346  0.5380  1.1056  0.4840
  767MPD2     C11320   0.431   1.160  14.708  0.0444  0.7675  0.2715
  767MPD2    C111321   0.565   1.149  14.681  0.1917  0.2052  0.5665
  767MPD2    C211322   0.606   1.069  14.571  0.6965  0.0627 -0.0013
  767MPD2    C311323   0.520   1.013  14.484  0.1493  0.1560  0.7343
  767MPD2    C411324   0.388   1.027  14.513 -0.0750  0.5969 -0.5485
  767MPD2    C511325   0.346   1.104  14.619  0.6166  0.7541 -0.3360
  767MPD2     H11326   0.710   1.064  14.540  0.2382  3.0857 -2.1003
  767MPD2    H111327   0.314   0.986  14.445 -0.0880 -2.3538  1.2259
  767MPD2    H211328   0.395   1.218  14.792  1.4451 -0.7388  1.8940
  767MPD2    H311329   0.240   1.109  14.637  0.7679 -0.6330  0.9696
  767MPD2     N11330   0.569   0.953  14.370 -0.0315  0.1841  0.9898
  767MPD2    H511331   0.670   0.964  14.367  0.1799 -2.3772 -1.0108
  767MPD2    N111332   0.662   1.215  14.763  0.3126  0.0571 -0.3743
  767MPD2    H711333   0.629   1.293  14.818  1.4023 -0.0946  0.4934
  768MPD2     C11334   1.879   3.815  10.194 -0.4942 -0.1439 -0.1281
  768MPD2    C111335   1.858   3.799  10.330 -0.0352 -0.3595  0.3256
  768MPD2    C211336   1.962   3.811  10.413  0.4565 -0.1770  0.1659
  768MPD2    C311337   2.091   3.848  10.377  0.4257  0.1229 -0.1164
  768MPD2    C411338   2.113   3.864  10.245 -0.1868 -0.3827 -0.1443
  768MPD2    C511339   2.008   3.843  10.154 -0.1957 -0.4456 -0.4142
  768MPD2     H11340   1.946   3.790  10.518 -1.4223 -1.8115 -0.4560
  768MPD2    H111341   2.214   3.892  10.220 -0.3840 -0.2840 -0.8392
  768MPD2    H211342   1.806   3.814  10.114  0.8468  1.6744 -1.3707
  768MPD2    H311343   2.025   3.858  10.048 -1.9146 -0.5179 -0.7019
  768MPD2     N11344   2.193   3.883  10.464 -0.1544 -0.0807 -0.3261
  768MPD2    H511345   2.273   3.928  10.421  0.2089  1.0355  1.5293
  768MPD2    N111346   1.729   3.788  10.383 -0.7466 -0.1432  0.4525
  768MPD2    H711347   1.731   3.808  10.482 -1.0434  0.1479  0.4003
  769MPD2     C11348   2.766   2.320  14.606  0.2834  0.1336 -0.6853
  769MPD2    C111349   2.657   2.269  14.680 -0.1877 -0.2456  0.2851
  769MPD2    C211350   2.643   2.319  14.812 -0.1202 -0.0831  0.9941
  769MPD2    C311351   2.727   2.418  14.860 -0.2660  0.7000 -0.1708
  769MPD2    C411352   2.834   2.459  14.787  0.2450 -0.2682  0.1601
  769MPD2    C511353   2.853   2.409  14.661  0.3734 -0.8443  0.3410
  769MPD2     H11354   2.558   2.281  14.867 -0.0253 -0.6767  0.7220
  769MPD2    H111355   2.912   2.528  14.814 -0.0255  0.5524 -1.1239
  769MPD2    H211356   2.775   2.293  14.501  0.9997 -0.9429 -0.3516
  769MPD2    H311357   2.945   2.426  14.607 -2.0913  1.6299 -3.0464
  769MPD2     N11358   2.699   2.463  14.996 -0.4926  0.1013 -0.1513
  769MPD2    H511359   2.629   2.415  15.050  0.1165 -0.3710  0.2157
  769MPD2    N111360   2.568   2.176  14.616  0.0667  0.1403  0.3604
  769MPD2    H711361   2.599   2.151  14.522 -3.5832 -2.4457 -0.1408
  770MPD2     C11362   2.332   1.161  14.453  0.1528  0.2748 -0.0057
  770MPD2    C111363   2.209   1.207  14.447 -0.5021  0.2565  0.5500
  770MPD2    C211364   2.178   1.336  14.479  0.4045 -1.1474  0.2475
  770MPD2    C311365   2.273   1.422  14.525  0.4038 -0.0792  0.2415
  770MPD2    C411366   2.404   1.371  14.532 -0.3496  0.1986 -0.3742
  770MPD2    C511367   2.431   1.236  14.506  0.8251 -0.6129 -0.2308
  770MPD2     H11368   2.078   1.377  14.484  0.9755 -0.1920  3.7622
  770MPD2    H111369   2.484   1.439  14.559  0.7970 -1.2217 -0.1686
  770MPD2    H211370   2.356   1.059  14.425  0.0630  1.0766 -2.9338
  770MPD2    H311371   2.528   1.188  14.513  0.7554 -0.4877  1.6361
  770MPD2     N11372   2.248   1.557  14.541  0.4210  0.3676 -0.1327
  770MPD2    H511373   2.160   1.594  14.507 -0.2426  1.6558  2.9509
  770MPD2    N111374   2.109   1.118  14.405  0.2426 -0.4512  0.2264
  770MPD2    H711375   2.141   1.022  14.402  0.1605 -0.4947  0.6734
  771MPD2     C11376   3.603   0.081  13.548 -0.6036 -0.1087 -0.0545
  771MPD2    C111377   3.561   0.205  13.507  0.1224 -0.6865  0.6235
  771MPD2    C211378   3.561   0.240  13.371 -0.2810 -0.6702  0.3079
  771MPD2    C311379   3.598   0.147  13.275 -0.1662  0.5663 -0.0887
  771MPD2    C411380   3.649   0.024  13.316  0.2155 -0.6265 -0.3544
  771MPD2    C511381   3.647   4.714  13.449  0.7906  0.0848  0.5785
  771MPD2     H11382   3.509   0.333  13.351  0.0513 -0.6242 -0.3445
  771MPD2    H111383   3.698   4.680  13.245 -0.0281 -2.5028  1.1885
  771MPD2    H211384   3.608   0.054  13.652 -0.8685 -0.4317 -0.1273
  771MPD2    H311385   3.700   4.624  13.481  1.9855  0.1455 -1.2346
  771MPD2     N11386   3.603   0.195  13.141 -1.0067 -0.1827  0.4370
  771MPD2    H511387   3.587   0.295  13.135 -2.2863 -0.2742  2.2051
  771MPD2    N111388   3.520   0.308  13.591 -0.0584 -0.0285  0.1300
  771MPD2    H711389   3.464   0.382  13.549 -0.0385  0.4128  0.8851
  772MPD2     C11390   3.061   0.687  13.482 -0.5221  0.3516 -0.2305
  772MPD2    C111391   3.044   0.661  13.620  0.3443  0.4662  0.1864
  772MPD2    C211392   2.913   0.650  13.669  0.1203 -0.1249  0.7721
  772MPD2    C311393   2.806   0.646  13.580 -0.7214  0.5210  0.2901
  772MPD2    C411394   2.825   0.651  13.441 -0.0297 -0.1059 -0.4113
  772MPD2    C511395   2.953   0.668  13.399  0.5978 -0.1687 -0.0230
  772MPD2     H11396   2.896   0.628  13.774 -0.7344 -0.0571  0.6411
  772MPD2    H111397   2.748   0.654  13.365  1.0402 -0.9663 -1.5433
  772MPD2    H211398   3.157   0.698  13.432 -1.7578  3.7275 -1.8833
  772MPD2    H311399   2.971   0.682  13.293 -1.6623  0.0804 -0.3728
  772MPD2     N11400   2.672   0.641  13.622 -0.4888 -0.2251 -0.2155
  772MPD2    H511401   2.595   0.616  13.561 -1.7059 -0.6894  1.5119
  772MPD2    N111402   3.157   0.643  13.706  0.2326 -0.3530 -1.1540
  772MPD2    H711403   3.148   0.600  13.798 -0.7661  1.1277 -0.5734
  773MPD2     C11404   2.590   1.333   0.191  0.2158  0.0061 -0.0056
  773MPD2    C111405   2.471   1.280   0.153 -0.2649  0.3100 -0.0842
  773MPD2    C211406   2.456   1.142   0.143  0.2305 -0.3346  0.4674
  773MPD2    C311407   2.562   1.060   0.174  0.2147  0.2445  0.2030
  773MPD2    C411408   2.686   1.111   0.224  0.2418  0.8550 -0.3927
  773MPD2    C511409   2.690   1.249   0.233 -0.6140 -0.7418  0.2310
  773MPD2     H11410   2.362   1.100   0.107  1.7781 -3.1695 -0.3196
  773MPD2    H111411   2.766   1.053   0.268  0.2779  1.5835  0.4957
  773MPD2    H211412   2.605   1.439   0.210  0.3037 -0.2093  1.1188
  773MPD2    H311413   2.777   1.295   0.278 -0.3991  2.8752 -3.9088
  773MPD2     N11414   2.522   0.929   0.170 -0.0972 -0.8542 -0.3942
  773MPD2    H511415   2.430   0.910   0.131 -1.1692  1.3524  1.0811
  773MPD2    N111416   2.369   1.357   0.095 -0.0699  0.4782  0.4805
  773MPD2    H711417   2.287   1.305   0.063  0.5428 -1.1950  1.6284
  774MPD2     C11418   1.337   0.814  12.763 -0.4767 -0.2608  0.1872
  774MPD2    C111419   1.417   0.850  12.868 -0.0758  0.1728 -0.1147
  774MPD2    C211420   1.544   0.897  12.846  0.8610  0.2410 -0.2520
  774MPD2    C311421   1.596   0.911  12.722  0.5854 -0.9413  0.1808
  774MPD2    C411422   1.519   0.848  12.621 -0.8671 -0.6233  0.5889
  774MPD2    C511423   1.395   0.799  12.642  0.2659 -0.0452 -0.0629
  774MPD2     H11424   1.598   0.936  12.932  0.2067  1.5963 -0.4601
  774MPD2    H111425   1.559   0.840  12.521 -0.1288  0.4040  0.7993
  774MPD2    H211426   1.238   0.778  12.790 -0.0013  0.0521  2.3608
  774MPD2    H311427   1.334   0.760  12.560  0.2259 -1.8981  0.8556
  774MPD2     N11428   1.721   0.977  12.713 -0.4568  0.1163  0.0170
  774MPD2    H511429   1.757   1.009  12.802 -0.5893  1.0046 -0.2454
  774MPD2    N111430   1.347   0.854  12.989  0.2601  0.4854 -0.4196
  774MPD2    H711431   1.246   0.856  12.997  0.1483  0.2498 -1.8679
  775MPD2     C11432   2.877   1.968  15.773 -0.0027 -0.0931 -0.5962
  775MPD2    C111433   2.812   2.082  15.811  0.3918  0.2410 -0.4041
  775MPD2    C211434   2.848   2.196  15.739 -0.0942 -0.0734  0.4411
  775MPD2    C311435   2.935   2.198  15.628 -0.1671  0.1993  1.1188
  775MPD2    C411436   2.989   2.077  15.594  0.1326 -0.1105 -0.3065
  775MPD2    C511437   2.964   1.962  15.669  0.3103  0.2350  0.0579
  775MPD2     H11438   2.799   2.290  15.762  1.1516  1.0152 -1.3351
  775MPD2    H111439   3.055   2.063  15.509 -1.2069  0.4699 -1.4438
  775MPD2    H211440   2.862   1.880  15.835  0.7640 -0.2406 -0.6182
  775MPD2    H311441   3.002   1.866  15.634 -0.3751 -0.3186  0.8451
  775MPD2     N11442   2.961   2.311  15.546 -0.2628  0.5653 -0.7727
  775MPD2    H511443   3.007   2.295  15.457  0.4797 -2.3226  0.1313
  775MPD2    N111444   2.722   2.067  15.918 -0.1416  0.1998 -0.5224
  775MPD2    H711445   2.726   1.978  15.967 -1.4444  0.7340  0.5579
  776MPD2     C11446   2.476   2.204  11.424  0.2452  0.2656 -0.1175
  776MPD2    C111447   2.372   2.244  11.339 -0.1798 -0.6612  0.3259
  776MPD2    C211448   2.402   2.344  11.248 -0.2262  1.0853 -0.4997
  776MPD2    C311449   2.528   2.412  11.249 -0.2974 -0.4824  0.0936
  776MPD2    C411450   2.617   2.377  11.352 -0.1615 -0.0545  0.3649
  776MPD2    C511451   2.596   2.273  11.432 -0.6442 -0.1647 -0.2632
  776MPD2     H11452   2.315   2.393  11.205 -0.0530  0.2021 -1.8443
  776MPD2    H111453   2.710   2.429  11.374 -0.2507  0.1388  0.2817
  776MPD2    H211454   2.454   2.124  11.493  1.5540  0.0492  0.0354
  776MPD2    H311455   2.656   2.232  11.512  1.8021  2.9023 -0.5380
  776MPD2     N11456   2.563   2.527  11.163  0.2037 -0.3173  0.0390
  776MPD2    H511457   2.651   2.575  11.179  2.0392 -3.5064 -0.4913
  776MPD2    N111458   2.263   2.149  11.326  0.2369  0.4293 -0.0737
  776MPD2    H711459   2.264   2.062  11.378 -0.4488  0.0922 -0.6207
  777MPD2     C11460   2.343   4.137   0.204  0.0397  0.2205  0.2921
  777MPD2    C111461   2.233   4.192   0.257  0.2893  0.3316 -0.7343
  777MPD2    C211462   2.109   4.157   0.200 -0.1523  0.2174  0.0193
  777MPD2    C311463   2.097   4.053   0.114  0.3416  0.6079 -0.0423
  777MPD2    C411464   2.213   3.993   0.063 -0.0811 -0.1076 -0.1211
  777MPD2    C511465   2.330   4.034   0.109 -0.1960  0.2714  0.9769
  777MPD2     H11466   2.018   4.205   0.232  0.6595  0.7627  1.5176
  777MPD2    H111467   2.218   3.920  17.672  1.4143  0.0948 -0.2089
  777MPD2    H211468   2.440   4.144   0.251  0.9653 -0.0029 -1.6019
  777MPD2    H311469   2.419   3.974   0.091 -1.0357 -0.6918  0.0583
  777MPD2     N11470   1.969   4.027   0.060 -0.0124  0.2153  0.3711
  777MPD2    H511471   1.889   4.075   0.101 -1.9751 -0.5048 -2.6114
  777MPD2    N111472   2.246   4.281   0.368  0.3676  1.0378  0.0053
  777MPD2    H711473   2.343   4.306   0.389  0.3893  2.4401 -1.6981
  778MPD2     C11474   3.401   4.717  14.817  0.7197 -0.5326  0.1424
  778MPD2    C111475   3.318   4.691  14.709  0.0198 -0.5794  1.0357
  778MPD2    C211476   3.325   0.057  14.603  0.1592  0.2082  0.6936
  778MPD2    C311477   3.404   0.172  14.604 -0.0754  0.6114 -0.5761
  778MPD2    C411478   3.487   0.194  14.717  0.2545  0.5805  0.1712
  778MPD2    C511479   3.485   0.106  14.821 -0.7792  0.4248 -0.0283
  778MPD2     H11480   3.266   0.035  14.515 -0.6264  0.7035  1.0999
  778MPD2    H111481   3.538   0.289  14.728  0.0304  0.9429 -1.9780
  778MPD2    H211482   3.393   4.648  14.901 -1.0528  0.0069  0.4234
  778MPD2    H311483   3.554   0.104  14.905  2.4952 -0.3882 -2.7452
  778MPD2     N11484   3.390   0.264  14.498  0.5666  0.1588  0.2467
  778MPD2    H511485   3.332   0.227  14.423  1.2296 -1.1392  0.3810
  778MPD2    N111486   3.231   4.584  14.692 -0.6087 -0.0417  0.1670
  778MPD2    H711487   3.192   4.573  14.599 -1.6026  2.4812  0.2771
  779MPD2     C11488   2.725   3.712  13.840 -0.2958  0.0304  0.0444
  779MPD2    C111489   2.862   3.703  13.860  0.4822 -0.1134  0.1293
  779MPD2    C211490   2.940   3.810  13.810  0.0541 -0.1921  0.6544
  779MPD2    C311491   2.887   3.929  13.767 -0.8033  0.8264  0.0190
  779MPD2    C411492   2.752   3.936  13.752  0.0802  0.0292 -0.7188
  779MPD2    C511493   2.675   3.829  13.793  0.5293 -0.1548  0.0257
  779MPD2     H11494   3.045   3.806  13.836  0.2236 -1.2897 -0.1977
  779MPD2    H111495   2.696   4.019  13.711 -1.2055 -0.0012  0.9399
  779MPD2    H211496   2.652   3.637  13.868 -0.7630  1.3176  2.2697
  779MPD2    H311497   2.568   3.845  13.784 -0.0300 -1.9977  3.2410
  779MPD2     N11498   2.978   4.027  13.732  0.3001  0.2739  0.7164
  779MPD2    H511499   3.077   4.003  13.736  0.5338  0.9354 -1.3181
  779MPD2    N111500   2.929   3.592  13.922 -0.5294 -0.1187 -0.2611
  779MPD2    H711501   3.029   3.590  13.908 -0.3705  0.0223  0.8237
  780MPD2     C11502   2.078   3.624   0.476  0.0580  0.2818 -0.2533
  780MPD2    C111503   2.111   3.532   0.378 -0.1763 -0.6299  0.2627
  780MPD2    C211504   2.232   3.542   0.312  0.4778 -0.8318 -0.3257
  780MPD2    C311505   2.316   3.652   0.330 -0.1519 -0.0203  0.7613
  780MPD2    C411506   2.281   3.748   0.429 -0.4272 -0.1215 -0.0107
  780MPD2    C511507   2.164   3.731   0.498 -0.1101 -0.0646  0.1853
  780MPD2     H11508   2.265   3.470   0.239 -3.1971 -2.3565 -0.4722
  780MPD2    H111509   2.355   3.819   0.467 -0.1210  0.5968 -1.9356
  780MPD2    H211510   1.985   3.614   0.532  0.2613  0.5045  0.1262
  780MPD2    H311511   2.129   3.797   0.577 -0.2244 -1.8638  1.6476
  780MPD2     N11512   2.429   3.670   0.245 -0.1707  0.2165  0.0854
  780MPD2    H511513   2.431   3.603   0.169 -1.0105  0.9644 -0.5794
  780MPD2    N111514   2.015   3.432   0.349  0.0836 -0.5266  0.4464
  780MPD2    H711515   1.940   3.423   0.417 -0.6494 -0.2037 -0.3210
  781MPD2     C11516   4.612   0.988  11.515 -0.2853  0.4527  0.5821
  781MPD2    C111517   4.536   0.870  11.509  0.2591  0.0582  0.4649
  781MPD2    C211518   4.509   0.822  11.383  0.2437  0.1587  0.1361
  781MPD2    C311519   4.558   0.882  11.268  0.3196 -0.1692  0.5233
  781MPD2    C411520   4.637   0.998  11.273  0.1120 -0.3109  0.3557
  781MPD2    C511521   4.667   1.041  11.406  0.2557  0.5192 -0.2921
  781MPD2     H11522   4.464   0.724  11.372  0.4088 -0.0110  0.9781
  781MPD2    H111523   4.670   1.041  11.179 -1.1762 -0.5896 -0.2250
  781MPD2    H211524   4.630   1.037  11.610  2.7668 -0.1118  0.3086
  781MPD2    H311525   0.015   1.124  11.417  2.3716 -1.0866 -1.6385
  781MPD2     N11526   4.530   0.833  11.133  0.3263  0.0343  0.7173
  781MPD2    H511527   4.562   0.885  11.051 -3.7236  1.3133 -0.0299
  781MPD2    N111528   4.495   0.801  11.625 -0.3780 -0.0654 -0.4245
  781MPD2    H711529   4.430   0.723  11.612  0.6534 -1.0318  0.1916
  782MPD2     C11530   2.313   1.562   9.741 -0.8883  0.8899 -0.0441
  782MPD2    C111531   2.447   1.516   9.738  0.5107  0.4305 -0.1356
  782MPD2    C211532   2.520   1.518   9.855 -0.3242 -0.1840 -0.4076
  782MPD2    C311533   2.466   1.575   9.969 -0.2190 -0.0219 -0.2730
  782MPD2    C411534   2.334   1.617   9.974  0.2053  0.2595  0.3948
  782MPD2    C511535   2.257   1.614   9.858 -0.1773 -0.3173 -0.1875
  782MPD2     H11536   2.624   1.488   9.857  0.0337  1.0304 -0.7360
  782MPD2    H111537   2.286   1.664  10.060  1.4575  1.6711  0.3234
  782MPD2    H211538   2.258   1.559   9.648  0.0458 -2.1357 -0.5050
  782MPD2    H311539   2.151   1.635   9.849 -0.3343 -1.0917 -0.1403
  782MPD2     N11540   2.550   1.595  10.080  0.0595 -0.0381  0.2181
  782MPD2    H511541   2.647   1.565  10.073  0.7780  1.9850  1.5517
  782MPD2    N111542   2.481   1.448   9.619  0.3676 -0.7860 -0.0613
  782MPD2    H711543   2.414   1.433   9.545 -1.0159 -0.5043  1.1304
  783MPD2     C11544   1.927   0.850   9.911 -0.2244  0.5824 -0.2291
  783MPD2    C111545   1.992   0.936   9.994  0.5754  0.7045  0.7398
  783MPD2    C211546   2.113   0.986   9.948 -0.1139 -0.1060  0.7483
  783MPD2    C311547   2.151   0.974   9.820 -0.8326  0.0242  1.0671
  783MPD2    C411548   2.073   0.902   9.732 -0.4419 -0.3729  0.2129
  783MPD2    C511549   1.963   0.832   9.781 -0.1170 -0.5942 -0.1775
  783MPD2     H11550   2.178   1.041  10.015  1.3165  0.5872 -1.2293
  783MPD2    H111551   2.104   0.883   9.630 -0.8510  0.5583 -0.0822
  783MPD2    H211552   1.832   0.802   9.931 -1.4236  4.0728  2.3919
  783MPD2    H311553   1.909   0.768   9.713 -0.6902  0.3528 -0.6116
  783MPD2     N11554   2.270   1.038   9.781  0.3205  0.3975  0.1458
  783MPD2    H511555   2.318   1.077   9.862  0.7265 -2.8133  1.4556
  783MPD2    N111556   1.942   0.955  10.121  0.2050  0.2920 -0.5390
  783MPD2    H711557   1.863   0.902  10.155  0.2598  0.2097 -0.5414
  784MPD2     C11558   4.519   1.284   1.030 -0.5192  0.2552 -0.6242
  784MPD2    C111559   4.571   1.401   1.074 -0.0871  0.1335  0.3622
  784MPD2    C211560   4.546   1.517   0.999  0.5344 -0.3572 -0.0657
  784MPD2    C311561   4.477   1.518   0.880 -0.0044 -0.0566  0.6395
  784MPD2    C411562   4.430   1.394   0.836 -0.6163  0.1563 -0.4288
  784MPD2    C511563   4.455   1.283   0.907 -0.2300  1.0335 -0.0493
  784MPD2     H11564   4.579   1.606   1.050  0.8628  0.0651 -1.0404
  784MPD2    H111565   4.393   1.392   0.734 -0.5353 -2.2100 -0.4048
  784MPD2    H211566   4.518   1.197   1.094  2.1851  1.1148  0.5986
  784MPD2    H311567   4.416   1.188   0.872 -1.0972  1.4059 -0.1002
  784MPD2     N11568   4.439   1.640   0.815 -0.0323  0.0079 -0.3763
  784MPD2    H511569   4.461   1.724   0.868 -0.2097 -0.1429 -0.0624
  784MPD2    N111570   4.650   1.407   1.192  0.5022 -0.1156  0.2462
  784MPD2    H711571   4.675   1.503   1.215 -0.8993 -0.2251  2.1648
  785MPD2     C11572   4.662   4.703  10.039 -0.0168  0.5725 -0.5466
  785MPD2    C111573   4.655   0.105  10.096 -0.4977 -0.2181  0.2135
  785MPD2    C211574   4.532   0.143  10.142 -0.4436 -0.4939  0.0048
  785MPD2    C311575   4.417   0.060  10.134 -0.6594 -0.1337  0.2971
  785MPD2    C411576   4.431   4.656  10.084  0.8095 -0.2289  0.1211
  785MPD2    C511577   4.556   4.615  10.040 -0.2601  0.2863 -0.2255
  785MPD2     H11578   4.526   0.244  10.179 -1.1802 -1.4823  2.5729
  785MPD2    H111579   4.346   4.590  10.073  1.1697 -0.6071 -0.3788
  785MPD2    H211580   0.038   4.659  10.020 -0.4312 -0.5867 -0.0221
  785MPD2    H311581   4.566   4.514  10.001  0.7175  0.2301  0.1717
  785MPD2     N11582   4.301   0.130  10.169 -0.0037 -0.2968 -0.1609
  785MPD2    H511583   4.316   0.229  10.187 -1.7302 -0.3982  1.8183
  785MPD2    N111584   0.047   0.190  10.098 -0.0559  0.1964  0.3856
  785MPD2    H711585   0.129   0.159  10.047 -0.6617 -0.6629 -0.0595
  786MPD2     C11586   2.959   2.984  14.255  0.0791 -0.0472 -0.2156
  786MPD2    C111587   3.088   2.948  14.254 -0.1235 -0.0258 -0.6277
  786MPD2    C211588   3.165   2.971  14.362  0.0112  0.0871  0.1189
  786MPD2    C311589   3.110   3.023  14.474 -0.0487  0.1019  0.2844
  786MPD2    C411590   2.980   3.051  14.479  0.4855 -0.0030 -0.1224
  786MPD2    C511591   2.907   3.036  14.370  0.0255  0.1609 -0.5100
  786MPD2     H11592   3.268   2.937  14.357  0.1188  0.4601 -0.2014
  786MPD2    H111593   2.924   3.084  14.566 -0.4924  0.4758 -0.9452
  786MPD2    H211594   2.896   2.981  14.166 -1.5680 -1.7877  1.0104
  786MPD2    H311595   2.799   3.044  14.377  0.2052  0.9724  1.2009
  786MPD2     N11596   3.167   3.028  14.603  0.1015 -0.2979  0.5713
  786MPD2    H511597   3.103   3.049  14.680 -0.2088  0.8033  0.0004
  786MPD2    N111598   3.140   2.872  14.149  0.3343 -0.2019  0.2463
  786MPD2    H711599   3.239   2.852  14.163  0.9250  0.2336 -3.1565
  787MPD2     C11600   3.317   2.097  14.058 -0.5378 -0.1402 -0.0336
  787MPD2    C111601   3.392   2.208  14.067 -0.2230 -0.5614 -0.1009
  787MPD2    C211602   3.526   2.193  14.117 -0.5319  0.3369  0.3494
  787MPD2    C311603   3.578   2.081  14.178  0.5060 -0.6487 -0.0269
  787MPD2    C411604   3.491   1.972  14.171 -0.8574 -0.2234 -0.1515
  787MPD2    C511605   3.369   1.988  14.114  0.6743 -0.0131 -0.3224
  787MPD2     H11606   3.593   2.277  14.114  0.2857 -0.2824  1.1183
  787MPD2    H111607   3.520   1.881  14.223  0.5149  0.0936 -0.3724
  787MPD2    H211608   3.215   2.100  14.022 -0.0236 -1.2837 -1.5451
  787MPD2    H311609   3.313   1.896  14.115  2.6952 -1.2368  0.7299
  787MPD2     N11610   3.709   2.084  14.226 -0.2373  0.2479  0.3043
  787MPD2    H511611   3.760   2.164  14.190  2.1814 -0.6045  1.8258
  787MPD2    N111612   3.337   2.320  14.007  0.1726 -0.3375  0.2932
  787MPD2    H711613   3.250   2.307  13.956  0.0878 -1.6791  0.7523
  788MPD2     C11614   0.703   0.682   0.778  0.2254  0.3202 -0.7082
  788MPD2    C111615   0.638   0.627   0.672 -0.8137  0.3319 -0.2909
  788MPD2    C211616   0.649   0.691   0.549 -0.7259  0.0825 -0.9448
  788MPD2    C311617   0.724   0.810   0.537  1.0528  0.1704 -0.0153
  788MPD2    C411618   0.780   0.867   0.649  0.0623  0.0620  0.2210
  788MPD2    C511619   0.761   0.808   0.768 -0.2000 -0.8794 -0.5252
  788MPD2     H11620   0.621   0.625   0.467 -2.2002 -2.9161  1.9451
  788MPD2    H111621   0.826   0.965   0.648 -0.3884  0.2766  0.3959
  788MPD2    H211622   0.689   0.644   0.879 -1.0988 -2.0940 -1.8112
  788MPD2    H311623   0.799   0.846   0.862 -0.3151 -0.3241 -0.6999
  788MPD2     N11624   0.742   0.873   0.416 -0.0130  0.0883 -0.4635
  788MPD2    H511625   0.800   0.956   0.425  0.5805 -0.6482  2.3932
  788MPD2    N111626   0.571   0.507   0.688 -0.0489  0.0370 -0.2043
  788MPD2    H711627   0.517   0.477   0.608  0.1599  0.2425 -0.4204
  789MPD2     C11628   1.363   0.986  15.904  0.2752 -0.4036  0.9619
  789MPD2    C111629   1.328   0.857  15.956  0.5490 -0.4759  0.4222
  789MPD2    C211630   1.196   0.846  16.006  0.1179 -0.6580  0.2069
  789MPD2    C311631   1.112   0.953  15.996 -0.3754 -0.2917 -0.5043
  789MPD2    C411632   1.147   1.071  15.945 -0.1763 -0.9536 -0.4066
  789MPD2    C511633   1.271   1.087  15.888  0.4516  0.0326 -0.9586
  789MPD2     H11634   1.159   0.752  16.044  1.4146 -1.0427  0.4884
  789MPD2    H111635   1.076   1.151  15.926 -0.1809 -0.4339  1.8063
  789MPD2    H211636   1.464   0.997  15.867 -0.5038 -0.7703 -1.3271
  789MPD2    H311637   1.288   1.185  15.843  1.3682 -0.0655 -0.8050
  789MPD2     N11638   0.976   0.955  16.032  0.6410  0.8653 -0.3117
  789MPD2    H511639   0.923   1.037  16.002  0.5600  0.5885 -0.9428
  789MPD2    N111640   1.429   0.753  15.971  0.0783  0.6776 -0.0310
  789MPD2    H711641   1.402   0.659  15.997 -0.2614  0.1836 -2.1466
  790MPD2     C11642   2.430   2.928  13.150 -0.8265  0.9448 -0.1568
  790MPD2    C111643   2.318   2.856  13.148 -0.3550 -0.1509  0.3259
  790MPD2    C211644   2.236   2.868  13.040 -0.2422 -0.2022 -0.6037
  790MPD2    C311645   2.287   2.950  12.937 -0.2939 -0.8553  0.2984
  790MPD2    C411646   2.406   3.020  12.941 -0.2046 -0.2163  0.4396
  790MPD2    C511647   2.479   3.008  13.050 -0.2141 -0.0404 -0.6486
  790MPD2     H11648   2.134   2.831  13.033 -0.9442  1.6252  0.2098
  790MPD2    H111649   2.436   3.092  12.866  1.0153  0.4589  1.5826
  790MPD2    H211650   2.462   2.944  13.253  2.4916 -1.1451 -0.8421
  790MPD2    H311651   2.564   3.073  13.068  1.0853 -2.3905  1.5611
  790MPD2     N11652   2.222   2.964  12.810 -0.0532 -0.4072  0.0917
  790MPD2    H511653   2.262   3.030  12.744 -0.8632 -1.5343 -1.5171
  790MPD2    N111654   2.279   2.784  13.260 -0.4686 -0.1270 -0.4332
  790MPD2    H711655   2.331   2.802  13.345  0.4951 -1.4830 -0.7480
  791MPD2     C11656   1.578   2.608  12.689  0.0063  0.8327 -0.3022
  791MPD2    C111657   1.611   2.658  12.565  0.3031  0.6575  0.2611
  791MPD2    C211658   1.539   2.610  12.451  0.4339 -0.0678 -0.1043
  791MPD2    C311659   1.415   2.546  12.465  0.1343  0.0793 -0.2598
  791MPD2    C411660   1.376   2.515  12.597 -0.1941  0.2965 -0.0648
  791MPD2    C511661   1.456   2.544  12.703  1.1627  0.0093 -0.5391
  791MPD2     H11662   1.568   2.630  12.349 -2.4472 -2.9413 -1.4819
  791MPD2    H111663   1.283   2.462  12.616  0.6584 -1.9691 -2.0729
  791MPD2    H211664   1.644   2.637  12.769 -1.7274 -1.2591  1.8677
  791MPD2    H311665   1.432   2.503  12.800 -0.1274  3.6615  0.6775
  791MPD2     N11666   1.339   2.499  12.355  0.0983  0.0155 -0.0241
  791MPD2    H511667   1.387   2.500  12.265 -0.3823  3.3231 -0.2231
  791MPD2    N111668   1.730   2.734  12.553 -0.5613 -0.0393 -0.5294
  791MPD2    H711669   1.781   2.755  12.638  2.0695  0.0856 -2.1462
  792MPD2     C11670   2.498   1.956  10.851 -0.5148  0.3487 -0.2390
  792MPD2    C111671   2.444   2.074  10.809  0.2956  0.3440 -0.0523
  792MPD2    C211672   2.337   2.062  10.720  0.7790 -0.3322  0.7688
  792MPD2    C311673   2.285   1.945  10.668  0.1513 -0.1415  0.5501
  792MPD2    C411674   2.337   1.823  10.721 -0.0209 -0.0773  0.4184
  792MPD2    C511675   2.441   1.830  10.812  0.1510  0.2622 -0.0002
  792MPD2     H11676   2.299   2.155  10.679  1.7867  0.4910  1.7064
  792MPD2    H111677   2.303   1.727  10.684  0.5474  0.1341 -0.6678
  792MPD2    H211678   2.585   1.952  10.915 -1.5991 -1.1037  1.1531
  792MPD2    H311679   2.490   1.741  10.849  0.0759 -0.1784 -0.9580
  792MPD2     N11680   2.192   1.933  10.557 -0.1756  0.7101  0.4239
  792MPD2    H511681   2.182   1.839  10.521 -0.9255  1.1279 -0.4361
  792MPD2    N111682   2.496   2.203  10.817  0.3847 -0.4465  0.0020
  792MPD2    H711683   2.443   2.279  10.777 -0.7547 -1.9201 -1.2602
  793MPD2     C11684   1.825   2.303   9.660 -0.1355 -0.9337  0.2763
  793MPD2    C111685   1.876   2.172   9.646 -0.4508 -0.0067  0.8821
  793MPD2    C211686   1.876   2.089   9.754  0.5839  0.4615  0.2330
  793MPD2    C311687   1.824   2.143   9.875 -0.1530  0.5390  0.0507
  793MPD2    C411688   1.750   2.264   9.883  0.1754  0.8284 -0.5521
  793MPD2    C511689   1.753   2.335   9.767 -0.5558  0.0692  0.8073
  793MPD2     H11690   1.929   1.996   9.739  0.3115  0.0597  1.8011
  793MPD2    H111691   1.695   2.304   9.967 -0.0306 -0.0547 -0.2746
  793MPD2    H211692   1.834   2.378   9.582  1.2403 -1.7823 -0.3665
  793MPD2    H311693   1.710   2.434   9.761 -1.7051 -0.4654  0.3852
  793MPD2     N11694   1.847   2.076   9.996  0.5213 -0.8303 -0.0841
  793MPD2    H511695   1.874   1.979   9.985  1.9542 -0.5084  0.5231
  793MPD2    N111696   1.936   2.118   9.524  0.1207 -0.1345 -0.4700
  793MPD2    H711697   1.975   2.024   9.523  0.3955 -0.0163 -0.8323
  794MPD2     C11698   2.119   1.982  17.206 -0.0887  0.5810  0.2627
  794MPD2    C111699   2.036   1.874  17.234 -0.1846  0.4403  0.1620
  794MPD2    C211700   1.926   1.850  17.149 -0.5854 -0.1821  1.0506
  794MPD2    C311701   1.908   1.939  17.040 -0.2632 -0.7302  0.1285
  794MPD2    C411702   1.998   2.043  17.014  0.7521 -0.1928  0.2304
  794MPD2    C511703   2.099   2.069  17.105  0.4348  1.0151  0.3598
  794MPD2     H11704   1.854   1.776  17.182 -0.4951 -0.1178  1.3951
  794MPD2    H111705   1.986   2.099  16.922 -0.8768 -1.7386 -0.5000
  794MPD2    H211706   2.211   1.995  17.264 -0.5162  0.9803  0.8521
  794MPD2    H311707   2.168   2.151  17.087  0.0407  1.1855 -0.3813
  794MPD2     N11708   1.796   1.927  16.954 -0.3835  0.1059  0.4004
  794MPD2    H511709   1.778   2.004  16.890  0.5604 -3.2094 -3.8429
  794MPD2    N111710   2.068   1.780  17.333  0.5568 -0.1019 -0.1323
  794MPD2    H711711   2.008   1.699  17.338 -0.0520  0.3164 -0.6286
  795MPD2     C11712   4.583   4.245  13.561  0.3196 -0.3561  0.0453
  795MPD2    C111713   4.514   4.164  13.473  1.1104  0.2019  0.3709
  795MPD2    C211714   4.580   4.063  13.407  0.4634 -0.1272  0.1523
  795MPD2    C311715   4.715   4.048  13.430  0.2249  0.1552  0.5179
  795MPD2    C411716   0.062   4.121  13.530 -0.2375 -0.4513  0.1483
  795MPD2    C511717   4.714   4.222  13.590  0.5346 -0.2724 -0.3697
  795MPD2     H11718   4.535   4.015  13.320  0.2233 -0.2929  0.3701
  795MPD2    H111719   0.167   4.114  13.554 -0.7154  1.6054  2.7846
  795MPD2    H211720   4.524   4.319  13.614  1.1162 -0.4872  1.1251
  795MPD2    H311721   0.032   4.294  13.662 -0.7813  0.5371 -0.4602
  795MPD2     N11722   0.057   3.950  13.363 -0.2357 -0.3560 -0.3087
  795MPD2    H511723   0.004   3.895  13.297  0.0298 -1.7672  0.6443
  795MPD2    N111724   4.376   4.173  13.441  0.1513  0.1700 -0.2991
  795MPD2    H711725   4.334   4.104  13.379 -1.5813  3.1649 -2.4629
  796MPD2     C11726   4.143   0.427  15.559 -0.2784 -0.5467  0.7538
  796MPD2    C111727   4.241   0.492  15.639  0.9493 -0.2722 -0.0273
  796MPD2    C211728   4.237   0.631  15.649 -0.0055 -0.1292 -0.3625
  796MPD2    C311729   4.144   0.704  15.581  0.0235  0.5498 -0.0498
  796MPD2    C411730   4.048   0.636  15.513  0.1121 -0.6024  0.0221
  796MPD2    C511731   4.048   0.503  15.498 -0.3719  0.6498 -0.7891
  796MPD2     H11732   4.308   0.684  15.711  1.5369 -1.3878 -1.0632
  796MPD2    H111733   3.966   0.690  15.467  1.5947  1.1305 -0.5768
  796MPD2    H211734   4.137   0.319  15.568 -0.2183 -0.7188 -1.4507
  796MPD2    H311735   3.971   0.450  15.442 -0.0896  1.0100 -1.5161
  796MPD2     N11736   4.149   0.851  15.600  0.3118 -0.0991 -0.7636
  796MPD2    H511737   4.217   0.881  15.669  1.2777  1.3668 -2.3417
  796MPD2    N111738   4.329   0.417  15.715 -0.0663  0.3920  0.0822
  796MPD2    H711739   4.311   0.317  15.719  1.8752  0.0073 -0.7836
  797MPD2     C11740   0.229   0.144  17.140 -0.7368 -0.5332 -0.6568
  797MPD2    C111741   0.319   0.238  17.188  0.0199  0.9586  0.1670
  797MPD2    C211742   0.363   0.337  17.107 -0.4517 -0.3822  0.0332
  797MPD2    C311743   0.323   0.343  16.974 -0.0688  0.6868 -0.0639
  797MPD2    C411744   0.223   0.256  16.931 -0.0176 -0.7408  0.0344
  797MPD2    C511745   0.172   0.163  17.014  0.1130 -0.1212 -0.0241
  797MPD2     H11746   0.430   0.412  17.148  0.8332  0.4145 -3.4555
  797MPD2    H111747   0.175   0.263  16.834  1.9589  0.3602 -0.8531
  797MPD2    H211748   0.187   0.062  17.198 -0.3300  0.8457  1.6018
  797MPD2    H311749   0.096   0.099  16.970  1.3009  0.0321 -2.2426
  797MPD2     N11750   0.371   0.434  16.876 -0.6107  0.5836 -0.3664
  797MPD2    H511751   0.346   0.421  16.779 -0.1284 -0.8530 -0.3029
  797MPD2    N111752   0.388   0.236  17.311 -0.1363  0.5200 -0.4666
  797MPD2    H711753   0.445   0.318  17.325  2.1342 -0.8635 -1.6276
  798MPD2     C11754   1.047   0.393  17.072  0.0164  0.2979  0.4542
  798MPD2    C111755   0.907   0.397  17.064 -0.3327 -0.2119 -0.1854
  798MPD2    C211756   0.836   0.354  17.171 -0.3235 -0.1836  0.3984
  798MPD2    C311757   0.890   0.318  17.289 -0.0054 -0.5409  0.4439
  798MPD2    C411758   1.021   0.315  17.302 -0.2259  0.4776  0.0940
  798MPD2    C511759   1.096   0.356  17.193 -0.6387  0.0456  0.3404
  798MPD2     H11760   0.728   0.363  17.166 -0.2376 -1.2951 -3.2326
  798MPD2    H111761   1.072   0.287  17.394  1.0286 -4.6640 -2.1606
  798MPD2    H211762   1.105   0.429  16.988 -0.3586  1.4970  0.7058
  798MPD2    H311763   1.202   0.372  17.209 -0.7097  0.0836  0.7716
  798MPD2     N11764   0.797   0.282  17.384  0.5461  0.4753  0.4097
  798MPD2    H511765   0.701   0.275  17.350  0.4465  0.1850  0.7574
  798MPD2    N111766   0.840   0.464  16.958 -0.3441 -1.0080  0.5318
  798MPD2    H711767   0.743   0.486  16.977  0.1421  1.0618  0.5719
  799MPD2     C11768   3.973   1.687  14.014  0.0065  0.6423  0.2245
  799MPD2    C111769   3.842   1.658  14.052  0.4408  0.7259  0.9366
  799MPD2    C211770   3.748   1.753  14.017 -0.5578  0.0543  0.5182
  799MPD2    C311771   3.775   1.862  13.933  0.2814  0.2220 -0.8545
  799MPD2    C411772   3.907   1.879  13.896  0.5007 -0.4517  0.3971
  799MPD2    C511773   4.002   1.791  13.943  0.1073 -0.2456  0.4978
  799MPD2     H11774   3.647   1.724  14.044 -0.6061 -0.4172 -0.1516
  799MPD2    H111775   3.935   1.966  13.838  1.2464  0.3230  1.9342
  799MPD2    H211776   4.055   1.620  14.035 -0.4552 -0.5778 -1.8436
  799MPD2    H311777   4.106   1.807  13.915  0.1454  0.5806  1.1026
  799MPD2     N11778   3.666   1.943  13.895  0.0751  0.5139 -0.5993
  799MPD2    H511779   3.575   1.911  13.926  0.3058  1.4646  1.0812
  799MPD2    N111780   3.804   1.549  14.130 -0.3663  0.4470 -0.2946
  799MPD2    H711781   3.714   1.542  14.175  0.1746 -0.6322  0.6312
  800MPD2     C11782   4.098   3.256  13.693 -0.0085  0.3370 -0.0517
  800MPD2    C111783   4.215   3.246  13.615  1.1593 -0.4972 -0.3765
  800MPD2    C211784   4.204   3.198  13.487  0.3174  1.0637 -1.0015
  800MPD2    C311785   4.083   3.170  13.434  1.5029 -0.2973 -0.9088
  800MPD2    C411786   3.969   3.191  13.509  0.5506  0.1632 -0.4071
  800MPD2    C511787   3.974   3.232  13.636  0.8187 -0.5236 -0.3822
  800MPD2     H11788   4.289   3.169  13.427  0.0331  1.2715 -1.5029
  800MPD2    H111789   3.867   3.180  13.475  0.3612 -2.3777  0.9893
  800MPD2    H211790   4.100   3.287  13.797 -1.5496 -0.2821  0.1593
  800MPD2    H311791   3.889   3.268  13.693  0.6888 -0.2496 -0.7461
  800MPD2     N11792   4.079   3.131  13.307  0.2684 -0.4712  0.3360
  800MPD2    H511793   4.170   3.110  13.265 -0.6783  0.3513 -2.1519
  800MPD2    N111794   4.342   3.304  13.660 -0.1376  0.0427  0.7430
  800MPD2    H711795   4.337   3.346  13.752 -0.3032 -1.1170  1.2578
  801MPD2     C11796   4.517   3.882  14.068  0.5201  0.3128 -0.2577
  801MPD2    C111797   4.432   3.772  14.039  0.1889  0.3234 -0.2622
  801MPD2    C211798   4.336   3.749  14.135  0.0039 -0.2321 -0.5902
  801MPD2    C311799   4.316   3.829  14.249 -0.4393  0.1003 -0.2368
  801MPD2    C411800   4.396   3.940  14.264 -0.8139  0.2991  0.2239
  801MPD2    C511801   4.501   3.964  14.179 -0.4726  0.2676  0.6974
  801MPD2     H11802   4.264   3.670  14.117 -0.5405  0.2218 -0.3582
  801MPD2    H111803   4.382   4.009  14.346 -1.6054 -0.6314  0.8643
  801MPD2    H211804   4.611   3.908  14.023  0.9037 -1.5395 -0.5320
  801MPD2    H311805   4.572   4.044  14.194  1.5099 -0.8790 -2.5787
  801MPD2     N11806   4.227   3.805  14.353  0.2337 -0.0422 -0.3605
  801MPD2    H511807   4.220   3.872  14.429 -0.7890  0.3235 -0.7679
  801MPD2    N111808   4.467   3.685  13.941 -0.0994 -0.4668 -0.4394
  801MPD2    H711809   4.408   3.603  13.943  1.1223 -1.3279 -0.0203
  802MPD2     C11810   3.912   3.047  17.670 -0.9199  0.3169  0.6209
  802MPD2    C111811   3.860   3.150  17.600  0.0777  0.1464  0.2548
  802MPD2    C211812   3.828   3.143  17.468 -0.3861 -0.3658  0.1475
  802MPD2    C311813   3.874   3.034  17.387 -0.1795 -0.3147 -0.4128
  802MPD2    C411814   3.958   2.944  17.454  0.4589  0.1825  0.3532
  802MPD2    C511815   3.969   2.950  17.595  0.3195 -0.2881 -1.0425
  802MPD2     H11816   3.781   3.226  17.417 -0.4512 -0.7918 -0.4981
  802MPD2    H111817   4.009   2.861  17.407  2.1712  1.2832  0.2516
  802MPD2    H211818   3.939   3.052   0.087 -0.9438  1.7380  0.5671
  802MPD2    H311819   4.027   2.872  17.643  2.4810 -0.2101 -3.4908
  802MPD2     N11820   3.849   3.030  17.244  0.2633 -0.4398 -0.2148
  802MPD2    H511821   3.797   3.104  17.197 -0.1723 -1.5046 -1.4162
  802MPD2    N111822   3.824   3.266  17.675  0.4317 -0.4219  0.3175
  802MPD2    H711823   3.760   3.322  17.619  0.6965  0.4880  0.9340
  803MPD2     C11824   0.259   2.655  11.084  0.2286 -0.1749  0.3275
  803MPD2    C111825   0.303   2.686  11.208 -0.4045  1.0949 -0.3014
  803MPD2    C211826   0.243   2.629  11.320 -0.5264  0.1276 -0.0272
  803MPD2    C311827   0.159   2.519  11.312 -0.1947  0.2679  0.3679
  803MPD2    C411828   0.112   2.491  11.186  0.0611  0.6172 -0.2404
  803MPD2    C511829   0.156   2.561  11.077  0.0231  0.4850 -0.4734
  803MPD2     H11830   0.276   2.661  11.417 -1.2266 -0.2630  0.3424
  803MPD2    H111831   0.050   2.402  11.174  1.4327 -0.3187 -0.2997
  803MPD2    H211832   0.293   2.702  10.992 -0.3328  0.6608  0.5423
  803MPD2    H311833   0.106   2.554  10.981  1.0221 -2.7125 -0.7586
  803MPD2     N11834   0.110   2.445  11.420  0.0298 -0.1562 -0.5293
  803MPD2    H511835   0.057   2.361  11.398 -2.4281  0.7987  1.6828
  803MPD2    N111836   0.410   2.773  11.228 -0.6412 -0.1131  0.1395
  803MPD2    H711837   0.420   2.809  11.322 -0.1152 -0.6707  0.2985
  804MPD2     C11838   4.380   3.651  16.718  0.7351 -0.7597  0.7468
  804MPD2    C111839   4.399   3.623  16.854 -0.6094 -0.0384  0.4124
  804MPD2    C211840   4.479   3.703  16.933 -0.1397  0.1591  0.2548
  804MPD2    C311841   4.540   3.815  16.882 -0.6416  0.3605 -0.1816
  804MPD2    C411842   4.521   3.847  16.749 -0.5568  0.3334 -0.1745
  804MPD2    C511843   4.444   3.766  16.668 -0.0094  0.6290 -0.3987
  804MPD2     H11844   4.495   3.675  17.037 -0.4461 -0.6758  0.0771
  804MPD2    H111845   4.575   3.928  16.702 -1.1537  1.1641  0.5811
  804MPD2    H211846   4.316   3.589  16.657 -0.3634  1.5198 -0.4092
  804MPD2    H311847   4.423   3.793  16.565  1.3299  1.9516 -0.3206
  804MPD2     N11848   4.637   3.889  16.960  0.0125  0.1232  0.2539
  804MPD2    H511849   4.633   3.870  17.060 -0.9673  1.3907  0.4493
  804MPD2    N111850   4.339   3.504  16.913 -0.5538  0.0197 -0.5911
  804MPD2    H711851   4.353   3.487  17.012 -0.8012  0.8951 -0.3995
  805MPD2     C11852   3.813   2.258  14.947 -0.3358 -0.4087  0.2742
  805MPD2    C111853   3.849   2.130  14.913 -0.6495 -0.1956  0.3093
  805MPD2    C211854   3.948   2.070  14.990 -0.0958 -0.0210 -0.6302
  805MPD2    C311855   4.003   2.141  15.100 -0.1942  0.3847  0.6931
  805MPD2    C411856   3.963   2.267  15.133 -0.3129 -0.0607  0.3415
  805MPD2    C511857   3.862   2.323  15.058 -0.1655  0.2768  0.7466
  805MPD2     H11858   3.985   1.968  14.982 -0.0331 -0.1986  1.7271
  805MPD2    H111859   4.021   2.333  15.196  0.3167  0.9017 -1.2627
  805MPD2    H211860   3.740   2.313  14.889 -2.4696 -1.9770  1.4939
  805MPD2    H311861   3.830   2.423  15.082 -1.7146  0.0976 -0.5594
  805MPD2     N11862   4.111   2.072  15.164  0.1056 -0.0547 -0.2173
  805MPD2    H511863   4.153   1.987  15.127 -0.2766 -0.3290 -0.0178
  805MPD2    N111864   3.796   2.052  14.811  0.1551  0.7394 -0.1171
  805MPD2    H711865   3.829   1.957  14.799 -0.9420  0.4581 -0.9958
  806MPD2     C11866   4.721   1.118   0.704  0.2587 -0.0679  0.0483
  806MPD2    C111867   0.102   1.191   0.751 -0.2192  0.2610  0.2140
  806MPD2    C211868   0.175   1.283   0.663 -0.2252 -0.3660  0.1806
  806MPD2    C311869   0.145   1.294   0.527 -0.1326 -0.0498  0.0133
  806MPD2    C411870   0.041   1.214   0.483  0.3224 -0.1801 -0.2895
  806MPD2    C511871   4.685   1.138   0.572 -0.1183  0.6750 -0.6538
  806MPD2     H11872   0.255   1.347   0.697  0.8212 -0.0898 -2.8276
  806MPD2    H111873   0.015   1.198   0.379 -3.7448 -0.7008  0.7805
  806MPD2    H211874   4.663   1.046   0.761  0.8964 -0.8357 -0.2791
  806MPD2    H311875   4.612   1.067   0.536 -0.3070  0.9138 -0.7424
  806MPD2     N11876   0.224   1.369   0.440 -0.2700  0.3983  0.0665
  806MPD2    H511877   0.294   1.430   0.480  1.5914 -0.1072 -2.4086
  806MPD2    N111878   0.150   1.178   0.880  0.3892  0.3469 -0.3222
  806MPD2    H711879   0.226   1.237   0.913 -0.0235  0.4144  0.5048
  807MPD2     C11880   0.281   0.392   1.070  0.7107 -0.5819 -0.5416
  807MPD2    C111881   0.188   0.493   1.085  0.5871  0.2077  0.2370
  807MPD2    C211882   0.055   0.453   1.081  0.4380  0.1791  0.5463
  807MPD2    C311883   0.017   0.320   1.086 -0.3896 -0.0992  0.2776
  807MPD2    C411884   0.117   0.219   1.078  0.3157 -0.4306  0.2946
  807MPD2    C511885   0.243   0.262   1.059 -0.1264 -0.4244 -0.5251
  807MPD2     H11886   4.700   0.528   1.093 -1.4910 -1.4489 -1.6437
  807MPD2    H111887   0.080   0.118   1.065 -0.8274 -0.0136  0.3006
  807MPD2    H211888   0.387   0.413   1.063  0.6137 -0.1109 -0.6378
  807MPD2    H311889   0.316   0.183   1.057  2.0383  1.6382 -2.6242
  807MPD2     N11890   4.601   0.299   1.111  0.1834  0.7788 -0.4248
  807MPD2    H511891   4.542   0.381   1.115  1.1796  1.4210  1.1046
  807MPD2    N111892   0.221   0.634   1.092  0.6931  0.2446 -0.1878
  807MPD2    H711893   0.148   0.702   1.109 -0.6192 -1.3259  0.4206
  808MPD2     C11894   0.155   2.569   9.334  0.2976  0.5233  0.3476
  808MPD2    C111895   0.146   2.563   9.195  0.3738 -0.1484  0.4359
  808MPD2    C211896   0.248   2.616   9.116  0.6336 -0.5883 -0.5919
  808MPD2    C311897   0.358   2.680   9.172 -0.4199  0.5291 -0.3369
  808MPD2    C411898   0.368   2.693   9.308 -0.0597 -0.0497 -0.6458
  808MPD2    C511899   0.267   2.638   9.378 -0.3745 -0.0918 -0.1107
  808MPD2     H11900   0.235   2.609   9.009  3.4251  0.1180 -0.9626
  808MPD2    H111901   0.440   2.750   9.365 -2.4057  1.2207  1.0586
  808MPD2    H211902   0.097   2.526   9.414  1.2284 -0.6749  0.3691
  808MPD2    H311903   0.271   2.645   9.486 -2.1816  1.4839 -0.1394
  808MPD2     N11904   0.462   2.745   9.103 -0.3903 -0.2685  0.0144
  808MPD2    H511905   0.532   2.793   9.160 -0.2899  0.1004 -0.4213
  808MPD2    N111906   0.038   2.498   9.129  0.3482 -0.0729  0.2991
  808MPD2    H711907   0.039   2.489   9.027 -1.7018  0.3258  0.2495
  809MPD2     C11908   1.132   3.056   8.286 -0.6481  0.3153  0.0864
  809MPD2    C111909   1.119   2.932   8.350  0.3297 -0.0027 -0.5624
  809MPD2    C211910   1.009   2.918   8.437  0.4948  0.1985 -0.0562
  809MPD2    C311911   0.923   3.022   8.461  0.1789  0.8568  0.3685
  809MPD2    C411912   0.946   3.147   8.405  0.5276 -0.0258 -0.3156
  809MPD2    C511913   1.050   3.167   8.323 -0.0147 -0.4016  0.3104
  809MPD2     H11914   0.995   2.824   8.490  2.4794  0.1630  0.4138
  809MPD2    H111915   0.881   3.231   8.423  0.6202 -0.5088  2.3354
  809MPD2    H211916   1.217   3.085   8.225 -1.9908 -0.5675 -2.1846
  809MPD2    H311917   1.057   3.264   8.276  0.2603 -0.5688  0.0059
  809MPD2     N11918   0.828   3.018   8.565  0.2274 -0.0836  0.6819
  809MPD2    H511919   0.790   3.106   8.597  1.0529  1.1195 -1.6474
  809MPD2    N111920   1.201   2.823   8.345 -0.3476  0.2272 -0.3865
  809MPD2    H711921   1.168   2.745   8.402 -1.1822  0.2908 -0.7821
  810MPD2     C11922   4.415   2.364   9.761  0.0058 -0.4924  0.1345
  810MPD2    C111923   4.304   2.329   9.836  0.3959  0.3286 -0.0232
  810MPD2    C211924   4.269   2.407   9.941 -0.5997  0.0706 -0.2658
  810MPD2    C311925   4.335   2.528   9.966 -0.5860 -0.2210  0.9190
  810MPD2    C411926   4.437   2.565   9.889 -0.1169  0.8345  0.6572
  810MPD2    C511927   4.480   2.480   9.795  0.2375  0.4804  0.4723
  810MPD2     H11928   4.189   2.380  10.009 -0.2700  0.5576  0.3097
  810MPD2    H111929   4.485   2.662   9.897 -1.6847  1.6973 -0.5386
  810MPD2    H211930   4.457   2.306   9.680 -3.7613 -0.5578 -1.7388
  810MPD2    H311931   4.579   2.496   9.753  1.0268 -0.4060  1.9883
  810MPD2     N11932   4.312   2.608  10.079  0.0543  0.4095  0.1306
  810MPD2    H511933   4.383   2.679  10.095 -0.4358  1.1565 -0.9744
  810MPD2    N111934   4.245   2.207   9.801 -0.1953  0.3083  0.0946
  810MPD2    H711935   4.283   2.161   9.719 -0.4986  0.8529 -0.3584
  811MPD2     C11936   3.572   2.017   9.332  0.2380  0.2933  0.9040
  811MPD2    C111937   3.677   2.086   9.393  0.3556 -0.2449 -0.3324
  811MPD2    C211938   3.690   2.226   9.370 -0.2606 -0.2335 -0.1912
  811MPD2    C311939   3.608   2.285   9.279 -0.4335  0.2528  0.2169
  811MPD2    C411940   3.512   2.216   9.211  0.1465  0.0293  0.3185
  811MPD2    C511941   3.493   2.083   9.234 -0.1090  0.2676  0.1289
  811MPD2     H11942   3.761   2.289   9.421  0.4667 -0.4919 -0.8788
  811MPD2    H111943   3.442   2.267   9.146  0.0178  1.1718  1.3424
  811MPD2    H211944   3.554   1.912   9.349 -0.5756  0.5611  1.6578
  811MPD2    H311945   3.419   2.032   9.172  0.3679  1.1301 -1.1448
  811MPD2     N11946   3.628   2.422   9.256 -0.4413 -0.5440 -0.8852
  811MPD2    H511947   3.709   2.468   9.298 -0.5690 -1.3167  0.2169
  811MPD2    N111948   3.767   2.011   9.478 -0.3275 -0.0414  0.4220
  811MPD2    H711949   3.766   1.910   9.486  2.3867 -0.0566  0.7778
  812MPD2     C11950   3.284   2.254  11.567  0.3439  0.4770 -0.1775
  812MPD2    C111951   3.288   2.306  11.700 -0.0622  0.0196 -0.2913
  812MPD2    C211952   3.317   2.232  11.810 -0.4899  0.2636  0.6355
  812MPD2    C311953   3.362   2.101  11.789 -0.4050  0.3061  0.3645
  812MPD2    C411954   3.364   2.048  11.656 -0.6960  0.1733  0.5940
  812MPD2    C511955   3.322   2.123  11.552 -0.4979 -0.4087  0.3932
  812MPD2     H11956   3.333   2.283  11.904 -1.1178  1.1118  0.2884
  812MPD2    H111957   3.396   1.946  11.639 -0.2651  0.9122 -3.0372
  812MPD2    H211958   3.251   2.312  11.481 -0.3529 -0.8089 -0.7750
  812MPD2    H311959   3.344   2.081  11.455 -1.3608 -0.7492  0.3536
  812MPD2     N11960   3.399   2.027  11.900  0.0808  0.1175  0.2212
  812MPD2    H511961   3.385   2.063  11.994  2.5046 -0.2168  0.7181
  812MPD2    N111962   3.237   2.440  11.722  0.3658  0.0846  0.1119
  812MPD2    H711963   3.246   2.503  11.643  1.8820 -0.7638 -0.3928
  813MPD2     C11964   2.382   4.173  12.243  1.0613  1.1948  0.0549
  813MPD2    C111965   2.360   4.308  12.217  0.3618  0.0794  0.2979
  813MPD2    C211966   2.256   4.369  12.279 -0.6583 -0.7786  0.6029
  813MPD2    C311967   2.177   4.301  12.369  0.1667  0.2177 -0.2163
  813MPD2    C411968   2.200   4.168  12.393 -0.1749 -0.2454  0.1500
  813MPD2    C511969   2.299   4.106  12.323  0.3561 -0.1884  0.0325
  813MPD2     H11970   2.242   4.476  12.269  3.9372 -0.1402  1.0336
  813MPD2    H111971   2.138   4.103  12.453  0.5921 -1.2465 -0.1553
  813MPD2    H211972   2.449   4.115  12.182 -1.1512 -1.0515 -0.2556
  813MPD2    H311973   2.317   4.000  12.341 -2.0213 -0.2771  1.8160
  813MPD2     N11974   2.084   4.375  12.438  0.1101  0.0806  0.3134
  813MPD2    H511975   2.081   4.471  12.405  2.4530 -0.2190 -0.7937
  813MPD2    N111976   2.442   4.382  12.136  0.3939  0.0257 -0.2721
  813MPD2    H711977   2.401   4.470  12.106  0.5615  0.5064  0.9373
  814MPD2     C11978   1.987   0.658  11.698 -0.3632 -0.0369 -0.5760
  814MPD2    C111979   2.089   0.663  11.605 -0.3730 -0.5728 -0.4383
  814MPD2    C211980   2.214   0.716  11.641 -0.0821 -0.0744  0.7432
  814MPD2    C311981   2.239   0.761  11.764  0.0212  0.8217 -0.0026
  814MPD2    C411982   2.139   0.749  11.863  0.1804 -0.4453 -0.3616
  814MPD2    C511983   2.012   0.698  11.828  0.4986 -0.1388 -0.2508
  814MPD2     H11984   2.299   0.722  11.573 -0.4247 -0.3424  0.2936
  814MPD2    H111985   2.156   0.805  11.954 -0.7515 -1.4067  0.4113
  814MPD2    H211986   1.885   0.638  11.670 -0.2700  1.9190 -2.2746
  814MPD2    H311987   1.936   0.701  11.904  2.5541 -0.7978  1.8335
  814MPD2     N11988   2.359   0.827  11.805 -0.1410  0.1744 -0.9097
  814MPD2    H511989   2.356   0.861  11.900 -0.3447 -1.4035 -0.3521
  814MPD2    N111990   2.076   0.620  11.467  0.5436  0.2824 -0.0049
  814MPD2    H711991   2.150   0.639  11.400 -0.5797 -1.3942 -1.7271
  815MPD2     C11992   3.418   3.987  11.553 -0.3611 -0.1132 -0.4450
  815MPD2    C111993   3.348   3.896  11.469  0.0049  0.2183  0.9471
  815MPD2    C211994   3.220   3.853  11.503  0.3447  0.2932  0.2377
  815MPD2    C311995   3.154   3.918  11.606  0.6248  0.7556 -0.1914
  815MPD2    C411996   3.220   4.018  11.677  0.0047 -0.4831  0.7823
  815MPD2    C511997   3.356   4.036  11.662 -1.0342 -0.4539 -0.7993
  815MPD2     H11998   3.161   3.773  11.460 -0.2205  1.7343 -1.6433
  815MPD2    H111999   3.177   4.063  11.766  1.4166  3.0499 -0.3570
  815MPD2    H212000   3.519   4.021  11.529 -0.0369 -0.2111  0.7735
  815MPD2    H312001   3.412   4.111  11.718  0.1975 -1.8321 -0.1653
  815MPD2     N12002   3.021   3.876  11.622  0.5752 -0.6176  0.9134
  815MPD2    H512003   2.993   3.790  11.576 -1.5327  0.1649  0.7218
  815MPD2    N112004   3.420   3.829  11.373 -0.3518 -0.2167  0.0048
  815MPD2    H712005   3.521   3.832  11.381 -0.3329 -0.9405 -0.0068
  816MPD2     C12006   2.973   3.220  17.142  0.4184  0.1927 -0.0251
  816MPD2    C112007   2.862   3.245  17.061 -0.6371  0.4127  0.5837
  816MPD2    C212008   2.853   3.172  16.945 -0.1346  0.1088 -0.6103
  816MPD2    C312009   2.959   3.090  16.910  0.4356 -0.1985 -0.3398
  816MPD2    C412010   3.067   3.067  16.993  0.2656  0.0897  0.0670
  816MPD2    C512011   3.069   3.127  17.114  0.3190  0.2970  0.1406
  816MPD2     H12012   2.769   3.192  16.879  0.3169  1.5542 -0.7570
  816MPD2    H112013   3.153   3.007  16.967  0.7431 -0.0491  2.0025
  816MPD2    H212014   2.976   3.278  17.234 -2.0593 -0.7284  0.6341
  816MPD2    H312015   3.159   3.119  17.173  0.4539 -2.3073 -0.4168
  816MPD2     N12016   2.947   3.026  16.782  0.3817  0.3660 -0.2432
  816MPD2    H512017   2.874   3.049  16.715 -1.3133  0.8242  1.7678
  816MPD2    N112018   2.766   3.337  17.103 -0.0318  0.3340 -0.5741
  816MPD2    H712019   2.786   3.390  17.188 -3.2412  0.9003 -0.1682
  817MPD2     C12020   2.882   0.120   9.511 -0.6879 -0.1355 -0.4362
  817MPD2    C112021   2.917   0.097   9.380  0.2831 -0.1967  0.1791
  817MPD2    C212022   2.930   0.211   9.302  0.1491 -0.2127 -1.0965
  817MPD2    C312023   2.889   0.334   9.341  0.2192  0.2788  0.2957
  817MPD2    C412024   2.842   0.350   9.468  0.2567 -1.0929 -0.3179
  817MPD2    C512025   2.845   0.248   9.553  1.0650  0.7401 -0.1458
  817MPD2     H12026   2.985   0.205   9.209  1.8284  0.5533 -0.1504
  817MPD2    H112027   2.813   0.448   9.502 -0.1060 -1.2415 -0.2036
  817MPD2    H212028   2.872   0.040   9.584 -1.8616  0.5680  0.1815
  817MPD2    H312029   2.801   0.259   9.652 -0.3773 -0.0995 -0.7010
  817MPD2     N12030   2.886   0.431   9.243 -0.5163 -0.6572  0.6327
  817MPD2    H512031   2.932   0.403   9.156 -0.3402  1.2465  0.1225
  817MPD2    N112032   2.969   4.696   9.338  0.2333 -0.0210 -0.0216
  817MPD2    H712033   2.985   4.690   9.239 -0.8022 -1.0866 -0.1208
  818MPD2     C12034   1.879   4.510   9.570 -0.3605 -0.3905  0.0336
  818MPD2    C112035   1.758   4.443   9.568 -0.7485 -0.3435 -0.7634
  818MPD2    C212036   1.762   4.306   9.546 -0.1851 -0.0105  0.5487
  818MPD2    C312037   1.880   4.241   9.514 -0.9636 -0.7739  0.0664
  818MPD2    C412038   1.997   4.309   9.516  0.0440  0.9433  0.1810
  818MPD2    C512039   1.996   4.436   9.556  0.5014 -0.4264 -0.4887
  818MPD2     H12040   1.665   4.257   9.537  0.0249  0.0232 -1.7910
  818MPD2    H112041   2.087   4.250   9.501 -0.2042  0.3146  1.1931
  818MPD2    H212042   1.892   4.616   9.590 -0.5992 -0.2307 -0.6768
  818MPD2    H312043   2.090   4.488   9.569  1.1835 -1.6302 -0.6047
  818MPD2     N12044   1.885   4.102   9.500 -0.3091  0.4967  0.0159
  818MPD2    H512045   1.978   4.061   9.502 -1.5334 -2.3437 -1.4015
  818MPD2    N112046   1.639   4.515   9.576  0.0192 -0.5262 -0.2820
  818MPD2    H712047   1.550   4.472   9.553  1.1825 -2.8354 -0.3951
  819MPD2     C12048   4.164   1.528  15.243 -0.2261  0.1187  0.0287
  819MPD2    C112049   4.206   1.390  15.239 -1.1656  0.2710  0.6481
  819MPD2    C212050   4.338   1.364  15.234  0.1108 -0.1651 -0.5852
  819MPD2    C312051   4.429   1.465  15.254  0.3485 -0.8392 -0.0095
  819MPD2    C412052   4.384   1.595  15.256  0.6727  0.0161  0.1508
  819MPD2    C512053   4.255   1.627  15.255 -0.0770  0.1862  0.6544
  819MPD2     H12054   4.378   1.263  15.229 -0.1235 -0.1596 -2.4726
  819MPD2    H112055   4.458   1.674  15.258  0.9186 -0.1869 -1.0067
  819MPD2    H212056   4.059   1.555  15.238 -0.3753 -0.4553 -0.0258
  819MPD2    H312057   4.223   1.731  15.255  1.0223  0.5334 -3.1704
  819MPD2     N12058   4.574   1.438  15.258 -0.1000  0.6086  0.4513
  819MPD2    H512059   4.614   1.346  15.242 -1.5055 -0.0631  0.8361
  819MPD2    N112060   4.107   1.286  15.238  0.3472  0.0594 -0.1621
  819MPD2    H712061   4.011   1.317  15.226  1.3043  2.7988 -0.8312
  820MPD2     C12062   3.393   1.298  14.662  0.6346  0.2856 -0.3384
  820MPD2    C112063   3.488   1.374  14.726 -0.0738 -0.2282  0.3774
  820MPD2    C212064   3.579   1.311  14.803 -0.0174  0.7277 -0.4971
  820MPD2    C312065   3.565   1.178  14.831 -0.0067  0.5882 -0.4862
  820MPD2    C412066   3.464   1.098  14.782  0.1322 -0.6861 -0.5227
  820MPD2    C512067   3.385   1.159  14.693  0.0718  0.4657 -0.2939
  820MPD2     H12068   3.657   1.374  14.845  1.0121 -0.5915 -0.4332
  820MPD2    H112069   3.455   0.992  14.800 -1.4193 -0.2819  1.0571
  820MPD2    H212070   3.324   1.342  14.592  1.7927  1.2086 -0.9033
  820MPD2    H312071   3.319   1.097  14.632  1.1210 -2.0855  1.1533
  820MPD2     N12072   3.654   1.111  14.919 -0.5147 -0.4890 -0.2883
  820MPD2    H512073   3.631   1.014  14.936 -1.2536  0.2161  2.7553
  820MPD2    N112074   3.490   1.513  14.705 -0.4043  0.3379 -0.0122
  820MPD2    H712075   3.422   1.539  14.634 -0.4597  0.0347 -0.0734
  821MPD2     C12076   4.154   3.504  12.636  0.0794 -0.1261  0.5196
  821MPD2    C112077   4.251   3.433  12.709 -0.5682 -0.5114 -0.3299
  821MPD2    C212078   4.383   3.454  12.671  0.4059 -0.0015 -0.4293
  821MPD2    C312079   4.418   3.536  12.569  0.2466  0.3425 -0.0326
  821MPD2    C412080   4.317   3.606  12.498  0.6948  0.3714 -0.1067
  821MPD2    C512081   4.187   3.587  12.535  0.1155  0.3874  0.7048
  821MPD2     H12082   4.457   3.398  12.727  0.7722  2.2399  1.3265
  821MPD2    H112083   4.344   3.678  12.422  1.2896 -1.7428 -1.8847
  821MPD2    H212084   4.047   3.490  12.651 -0.2045 -0.8917 -2.3079
  821MPD2    H312085   4.109   3.648  12.491 -1.4730 -1.3483  1.0778
  821MPD2     N12086   4.549   3.556  12.518 -0.0871  0.3849 -0.0730
  821MPD2    H512087   4.569   3.636  12.460 -0.7633 -0.5011 -1.5282
  821MPD2    N112088   4.224   3.342  12.812 -0.0364 -0.6862 -0.1923
  821MPD2    H712089   4.308   3.316  12.862 -1.2025 -1.1016  1.5621
  822MPD2     C12090   0.123   2.777  15.404  0.1163 -0.0548 -0.0660
  822MPD2    C112091   0.223   2.842  15.476  0.7315  0.3519  0.0217
  822MPD2    C212092   0.199   2.973  15.518 -0.1287 -0.0469  0.1960
  822MPD2    C312093   0.070   3.028  15.509 -0.4074 -0.4291  0.2223
  822MPD2    C412094   4.687   2.952  15.453 -0.0386  0.9112 -0.1370
  822MPD2    C512095   4.714   2.832  15.404 -0.0949  0.1169 -0.1743
  822MPD2     H12096   0.275   3.039  15.560  2.7691 -2.0921 -1.8124
  822MPD2    H112097   4.586   2.987  15.441 -0.5886 -0.9912 -1.0878
  822MPD2    H212098   0.131   2.675  15.369 -0.0243  0.3041 -1.1276
  822MPD2    H312099   4.633   2.775  15.361 -1.2497  1.7220 -0.1545
  822MPD2     N12100   0.035   3.142  15.580  0.2308  0.0099 -0.0091
  822MPD2    H512101   4.657   3.162  15.580 -0.1463 -1.8604 -2.5587
  822MPD2    N112102   0.351   2.787  15.493  0.2390  0.1234  0.6682
  822MPD2    H712103   0.416   2.853  15.534  1.9574 -0.8841 -0.4637
  823MPD2     C12104   4.453   3.430  16.311 -0.2584 -0.8290  0.1260
  823MPD2    C112105   4.514   3.346  16.221 -0.3132  0.0805 -0.0197
  823MPD2    C212106   4.586   3.241  16.269  0.4456  0.3226  0.4226
  823MPD2    C312107   4.583   3.218  16.410 -0.1972 -0.2950  0.3377
  823MPD2    C412108   4.521   3.304  16.497  0.6784  0.0066  0.1920
  823MPD2    C512109   4.454   3.410  16.445  0.2636  0.5950  0.0427
  823MPD2     H12110   4.639   3.177  16.200 -0.1711  0.7918 -0.4885
  823MPD2    H112111   4.517   3.291  16.605  1.2280 -0.7674  0.1185
  823MPD2    H212112   4.417   3.526  16.275  0.5212 -0.2339  0.9227
  823MPD2    H312113   4.411   3.488  16.506  1.8536  1.2988  0.2617
  823MPD2     N12114   4.652   3.111  16.472  0.4240 -0.2485  0.5098
  823MPD2    H512115   4.652   3.096  16.572 -0.4150 -0.0653  0.5400
  823MPD2    N112116   4.530   3.387  16.088  0.5094 -0.1216  0.2999
  823MPD2    H712117   4.494   3.476  16.054  0.3002 -0.2784  0.1140
  824MPD2     C12118   0.643   2.004  15.354  0.0485 -0.2862 -0.2517
  824MPD2    C112119   0.718   2.117  15.315  0.0618  0.0197  0.6475
  824MPD2    C212120   0.817   2.103  15.211 -0.5336 -0.3333  0.0670
  824MPD2    C312121   0.837   1.986  15.150 -0.3994  0.1694 -0.6997
  824MPD2    C412122   0.763   1.875  15.205  0.2676  0.6170 -0.2162
  824MPD2    C512123   0.677   1.884  15.306  0.0774 -0.6380 -0.0920
  824MPD2     H12124   0.879   2.187  15.182  0.5075 -1.5429 -1.2185
  824MPD2    H112125   0.779   1.777  15.161  0.5467  0.8501 -0.6274
  824MPD2    H212126   0.562   2.015  15.425 -0.2628 -1.1130 -0.4702
  824MPD2    H312127   0.615   1.802  15.343  0.5379 -0.7221  0.4887
  824MPD2     N12128   0.940   1.980  15.056 -0.0381 -0.9276  0.0827
  824MPD2    H512129   1.013   2.051  15.059  0.1842 -1.1813  0.6267
  824MPD2    N112130   0.699   2.247  15.370  0.6142 -0.6784 -0.5247
  824MPD2    H712131   0.758   2.323  15.339  1.3082 -0.3343  1.6016
  825MPD2     C12132   1.500   2.211  14.460 -0.5280  0.1226 -0.2284
  825MPD2    C112133   1.443   2.234  14.576 -0.5623  0.2677  0.3485
  825MPD2    C212134   1.470   2.362  14.632 -0.5874  0.5854  0.1200
  825MPD2    C312135   1.537   2.463  14.574  0.3339 -0.5608  0.7774
  825MPD2    C412136   1.596   2.439  14.451  0.1898  0.1048  0.2225
  825MPD2    C512137   1.575   2.310  14.401 -0.1687 -0.6040 -0.8204
  825MPD2     H12138   1.449   2.380  14.736  1.6050  0.2517  0.6157
  825MPD2    H112139   1.654   2.516  14.401 -1.0573  1.8497  1.4939
  825MPD2    H212140   1.474   2.118  14.411 -0.2299 -0.2096  0.2469
  825MPD2    H312141   1.619   2.283  14.305 -2.4586 -1.1545 -1.6966
  825MPD2     N12142   1.563   2.585  14.627  0.6899  0.0917 -0.7795
  825MPD2    H512143   1.639   2.638  14.585  0.2237  0.5853 -0.9980
  825MPD2    N112144   1.379   2.126  14.641  0.4505 -0.4742  0.2634
  825MPD2    H712145   1.390   2.034  14.599 -1.8420  0.1590 -1.7082
  826MPD2     C12146   0.888   2.004  12.953  0.5621  0.3141 -0.0386
  826MPD2    C112147   0.966   2.117  12.950  0.1493  0.1575 -0.1256
  826MPD2    C212148   0.905   2.240  12.960 -0.3732 -0.2701  0.2492
  826MPD2    C312149   0.769   2.238  12.986 -0.2519 -0.5930  0.3110
  826MPD2    C412150   0.689   2.126  12.979 -0.5146 -0.1798 -0.0124
  826MPD2    C512151   0.756   2.008  12.965 -0.6706  0.1270  0.2756
  826MPD2     H12152   0.965   2.329  12.947  0.0004 -0.8533 -2.0000
  826MPD2    H112153   0.582   2.122  12.996 -0.4100 -2.0331  0.1861
  826MPD2    H212154   0.927   1.907  12.924  2.5786  0.9144  0.6973
  826MPD2    H312155   0.700   1.915  12.965 -0.5785  0.0724 -1.2004
  826MPD2     N12156   0.693   2.352  12.991  0.4304 -0.5178  0.1034
  826MPD2    H512157   0.596   2.324  12.986  0.2000  0.5292 -1.4449
  826MPD2    N112158   1.107   2.096  12.937 -0.0397 -0.3725  0.0786
  826MPD2    H712159   1.143   2.004  12.915  0.2670  0.0622 -1.2454
  827MPD2     C12160   2.252   3.677   9.497 -0.8356  0.0486  0.0076
  827MPD2    C112161   2.237   3.542   9.518  0.2760  0.5371  1.0428
  827MPD2    C212162   2.157   3.466   9.435 -0.8160 -0.0302  0.1012
  827MPD2    C312163   2.081   3.522   9.338  0.0822  0.3108  0.1515
  827MPD2    C412164   2.085   3.656   9.329  0.2342  0.1188  0.2798
  827MPD2    C512165   2.172   3.733   9.403 -0.7999 -0.3120  0.1989
  827MPD2     H12166   2.130   3.365   9.462 -0.4714 -0.1242  0.0888
  827MPD2    H112167   2.014   3.715   9.273  2.0811 -0.6308 -2.8371
  827MPD2    H212168   2.328   3.727   9.556 -3.8788  3.4197  1.0606
  827MPD2    H312169   2.159   3.840   9.404 -2.2307 -0.5038  2.4796
  827MPD2     N12170   1.994   3.439   9.263  0.1929 -0.0566  0.0939
  827MPD2    H512171   2.008   3.339   9.276 -2.8942 -0.6433 -1.1342
  827MPD2    N112172   2.307   3.494   9.631 -0.4159 -0.1069  1.2426
  827MPD2    H712173   2.360   3.563   9.683 -0.2251 -0.5884  1.6821
  828MPD2     C12174   0.558   3.388  12.065 -0.0477  0.5792 -0.3433
  828MPD2    C112175   0.493   3.379  11.948 -0.1829 -0.0258  0.4333
  828MPD2    C212176   0.572   3.361  11.833  0.7129  0.0179 -0.4569
  828MPD2    C312177   0.711   3.361  11.831  0.3327 -0.1491 -0.1624
  828MPD2    C412178   0.771   3.363  11.954 -0.3825  0.0758  0.4060
  828MPD2    C512179   0.693   3.382  12.071  0.1713 -0.4556  0.1502
  828MPD2     H12180   0.517   3.373  11.740  1.8709 -0.9286 -1.2626
  828MPD2    H112181   0.879   3.350  11.962 -0.3519 -0.3693 -0.8694
  828MPD2    H212182   0.500   3.408  12.154  0.8297 -0.3557  0.4365
  828MPD2    H312183   0.733   3.393  12.171  0.8652  2.1041 -0.4161
  828MPD2     N12184   0.792   3.349  11.716  0.1575 -0.1640 -0.4827
  828MPD2    H512185   0.892   3.333  11.727  0.0612  1.0790  2.0759
  828MPD2    N112186   0.359   3.410  11.923  0.6183  0.0599  0.2937
  828MPD2    H712187   0.332   3.397  11.826  0.6673 -0.4389  0.3461
  829MPD2     C12188   0.290   3.702  11.164 -0.7717  0.1820 -0.2640
  829MPD2    C112189   0.177   3.760  11.231  0.3858 -0.2282  0.6604
  829MPD2    C212190   0.137   3.712  11.352  1.3475  0.2042  0.5426
  829MPD2    C312191   0.192   3.601  11.413 -0.6016  0.2274 -0.4520
  829MPD2    C412192   0.310   3.558  11.356 -0.9024 -1.1952  0.1243
  829MPD2    C512193   0.355   3.606  11.231 -0.2510 -0.4488 -0.7872
  829MPD2     H12194   0.048   3.756  11.397  0.6427  1.7288 -2.3294
  829MPD2    H112195   0.379   3.494  11.410  0.9725  2.1007  1.5812
  829MPD2    H212196   0.333   3.749  11.076 -0.6010  0.0293 -0.2626
  829MPD2    H312197   0.441   3.556  11.189  0.6058  0.5090 -0.1829
  829MPD2     N12198   0.150   3.551  11.537 -0.9725 -0.6521  0.0922
  829MPD2    H512199   0.206   3.479  11.582  1.1955  0.2426 -1.1366
  829MPD2    N112200   0.107   3.867  11.174  0.5365 -0.1882 -0.2040
  829MPD2    H712201   0.123   3.893  11.077  2.6946 -0.0130  0.1902
  830MPD2     C12202   0.680   1.309  15.129  0.2817 -0.4134 -0.2268
  830MPD2    C112203   0.559   1.322  15.061 -0.3599 -0.5645  0.6427
  830MPD2    C212204   0.551   1.435  14.984 -0.4771  0.0824  0.2900
  830MPD2    C312205   0.651   1.528  14.979 -0.2712  0.3456 -0.1512
  830MPD2    C412206   0.762   1.518  15.063  0.1818  0.8638 -0.4501
  830MPD2    C512207   0.773   1.407  15.141  0.2843 -0.4074 -0.1782
  830MPD2     H12208   0.456   1.466  14.942  0.5229 -0.7118 -2.5405
  830MPD2    H112209   0.833   1.600  15.067  0.8563  0.3352 -1.5765
  830MPD2    H212210   0.698   1.219  15.187  0.3782  1.3091  2.4447
  830MPD2    H312211   0.845   1.401  15.222 -2.0308  0.2926  1.9666
  830MPD2     N12212   0.631   1.647  14.905  0.1386 -0.7185 -0.8230
  830MPD2    H512213   0.699   1.717  14.934 -0.1321 -0.6396 -0.3661
  830MPD2    N112214   0.443   1.253  15.109  0.3886 -0.2390 -0.1792
  830MPD2    H712215   0.455   1.197  15.193  1.0461 -2.1503 -1.5532
  831MPD2     C12216   0.337   3.303  15.924 -0.8884 -0.4813 -0.3621
  831MPD2    C112217   0.364   3.186  15.853 -0.4276 -0.2238 -0.4929
  831MPD2    C212218   0.295   3.074  15.876 -0.2045  0.2381 -0.1743
  831MPD2    C312219   0.188   3.070  15.961  0.6357 -0.3739  0.0939
  831MPD2    C412220   0.168   3.179  16.042  0.2498 -0.3162 -0.0348
  831MPD2    C512221   0.247   3.291  16.027  0.5178  0.1589  0.1542
  831MPD2     H12222   0.315   2.986  15.815  1.9328 -0.9492  2.2065
  831MPD2    H112223   0.086   3.187  16.112  0.5526 -0.5830  0.3457
  831MPD2    H212224   0.381   3.401  15.906 -2.0798  0.2712  0.8658
  831MPD2    H312225   0.225   3.379  16.087  1.8056  0.3636  0.3373
  831MPD2     N12226   0.105   2.960  15.979 -0.7339 -0.5674 -0.2285
  831MPD2    H512227   0.040   2.970  16.056 -0.1446 -0.5956  0.2712
  831MPD2    N112228   0.466   3.197  15.751 -0.0511 -0.5206 -0.0642
  831MPD2    H712229   0.507   3.289  15.746  0.0009 -0.6067 -1.2607
  832MPD2     C12230   3.605   3.917  16.906  0.0600 -0.7151  0.5696
  832MPD2    C112231   3.630   4.054  16.904  0.3437 -0.4888  0.3286
  832MPD2    C212232   3.521   4.139  16.892  0.3024 -0.2766 -0.3056
  832MPD2    C312233   3.396   4.090  16.882 -0.4069  0.0899 -0.4651
  832MPD2    C412234   3.373   3.954  16.887 -0.3419 -0.2979 -0.6520
  832MPD2    C512235   3.477   3.876  16.906 -0.7156 -0.0342 -0.7390
  832MPD2     H12236   3.544   4.240  16.926 -2.0691 -0.2946  1.3292
  832MPD2    H112237   3.278   3.904  16.868 -2.3305  2.5857  1.7361
  832MPD2    H212238   3.675   3.835  16.920  0.7905 -0.2412 -0.2793
  832MPD2    H312239   3.453   3.771  16.920 -1.5346 -0.0154 -2.0327
  832MPD2     N12240   3.279   4.171  16.887  1.4611  0.0794  0.0909
  832MPD2    H512241   3.194   4.116  16.888  0.7289  1.2287  1.4382
  832MPD2    N112242   3.768   4.101  16.908  0.5306  0.3006 -0.1733
  832MPD2    H712243   3.839   4.029  16.906  1.7774  1.5518 -0.7394
  833MPD2     C12244   1.175   0.978  11.861  0.3462 -0.3759 -0.4734
  833MPD2    C112245   1.041   0.995  11.831  0.3473  0.3582  0.5773
  833MPD2    C212246   0.971   0.895  11.771 -0.8452 -1.3194 -0.1420
  833MPD2    C312247   1.033   0.785  11.723 -0.5090 -0.0043 -0.1415
  833MPD2    C412248   1.167   0.768  11.749 -0.7239  0.2454 -0.1194
  833MPD2    C512249   1.241   0.862  11.823 -0.1739 -0.3071 -0.8202
  833MPD2     H12250   0.863   0.901  11.763 -0.5897  0.6369 -2.2156
  833MPD2    H112251   1.215   0.673  11.728  1.6709  1.7954 -1.7787
  833MPD2    H212252   1.226   1.065  11.900 -0.6497  0.1409 -0.3078
  833MPD2    H312253   1.346   0.845  11.845 -0.5086 -0.5023  0.5890
  833MPD2     N12254   0.962   0.692  11.639  0.0612  0.0013  0.3485
  833MPD2    H512255   1.019   0.614  11.606  1.1446  0.4039  1.2738
  833MPD2    N112256   0.987   1.123  11.857 -0.5039 -0.5138 -0.2437
  833MPD2    H712257   1.057   1.197  11.867 -1.6162  0.6158 -0.7880
  834MPD2     C12258   0.219   0.515  10.834  0.1598 -0.4443  0.6690
  834MPD2    C112259   0.347   0.542  10.786 -0.0554 -0.2887  0.3240
  834MPD2    C212260   0.443   0.571  10.879 -0.5439  0.9366  0.1437
  834MPD2    C312261   0.417   0.589  11.014 -0.1086 -0.1467  0.3863
  834MPD2    C412262   0.289   0.571  11.062 -0.3911 -0.4151  0.4074
  834MPD2    C512263   0.192   0.542  10.968 -0.1339  0.1006  0.6961
  834MPD2     H12264   0.546   0.591  10.850 -0.3897 -0.9188 -0.5903
  834MPD2    H112265   0.268   0.577  11.168  3.1437 -0.0058  1.1069
  834MPD2    H212266   0.138   0.491  10.766  1.3872 -2.5691 -0.0441
  834MPD2    H312267   0.092   0.535  11.009 -1.4356 -1.0292 -2.6666
  834MPD2     N12268   0.527   0.634  11.097 -0.2232  0.6843 -0.0482
  834MPD2    H512269   0.616   0.664  11.059 -0.2732  0.2664 -0.5002
  834MPD2    N112270   0.389   0.529  10.652 -0.5744 -0.1102 -0.1553
  834MPD2    H712271   0.328   0.472  10.594 -0.7040  0.7564 -0.8851
  835MPD2     C12272   1.280   3.553  10.405  0.1814 -0.6643  0.3697
  835MPD2    C112273   1.220   3.572  10.526 -0.1282  0.9270  0.4084
  835MPD2    C212274   1.291   3.593  10.637 -0.3112 -0.3281  0.5529
  835MPD2    C312275   1.430   3.571  10.629  0.5676  0.1795 -0.5115
  835MPD2    C412276   1.491   3.524  10.514  0.0266  0.0663 -0.2612
  835MPD2    C512277   1.411   3.525  10.397 -0.1206  0.4993  0.3676
  835MPD2     H12278   1.235   3.625  10.724 -1.8642  0.1232 -0.6226
  835MPD2    H112279   1.595   3.493  10.504 -0.4351 -1.0699 -1.5964
  835MPD2    H212280   1.235   3.533  10.308 -1.1737  1.1873  0.6317
  835MPD2    H312281   1.449   3.492  10.301  0.8817  0.0434  0.9192
  835MPD2     N12282   1.515   3.583  10.745  0.4168  0.2465 -0.3718
  835MPD2    H512283   1.600   3.527  10.740 -0.2755 -0.7725 -0.9585
  835MPD2    N112284   1.075   3.602  10.531  0.1062 -0.4967 -0.2812
  835MPD2    H712285   1.039   3.631  10.621 -1.0612  2.8106 -1.8153
  836MPD2     C12286   1.308   3.467  11.626 -0.2455  0.5657 -0.7276
  836MPD2    C112287   1.258   3.497  11.501  0.0553  0.5940 -0.0384
  836MPD2    C212288   1.127   3.550  11.490 -0.0081 -0.2124  0.4193
  836MPD2    C312289   1.059   3.585  11.606 -0.1271  0.3531  0.2186
  836MPD2    C412290   1.116   3.557  11.728 -0.9856 -0.3005  0.0740
  836MPD2    C512291   1.231   3.489  11.737 -0.0183  0.0284 -0.1075
  836MPD2     H12292   1.082   3.565  11.393 -0.9461 -1.9844  0.5691
  836MPD2    H112293   1.061   3.561  11.821  1.4077 -1.6980  1.5429
  836MPD2    H212294   1.403   3.417  11.639  0.3644  2.0641  0.6072
  836MPD2    H312295   1.277   3.458  11.830 -1.0625 -1.7787 -0.1979
  836MPD2     N12296   0.927   3.642  11.605  0.2163  0.7384  0.4652
  836MPD2    H512297   0.899   3.683  11.693  0.5908 -2.3513  2.0210
  836MPD2    N112298   1.338   3.459  11.396 -0.4074  0.3823 -0.0711
  836MPD2    H712299   1.437   3.441  11.410 -0.2921  0.9395 -0.1685
  837MPD2     C12300   3.728   3.063   9.703  0.9988  0.0259  0.1646
  837MPD2    C112301   3.752   3.089   9.574  0.5846 -0.3182  0.2447
  837MPD2    C212302   3.772   3.220   9.543  0.5468  0.1058  0.0922
  837MPD2    C312303   3.780   3.315   9.645  0.0376 -0.1863 -0.5263
  837MPD2    C412304   3.780   3.285   9.777  0.0552  0.5725 -0.5214
  837MPD2    C512305   3.755   3.156   9.804 -0.2173 -0.1787  0.5100
  837MPD2     H12306   3.782   3.263   9.444  1.7209  0.2726  0.2859
  837MPD2    H112307   3.761   3.361   9.852  2.6423  1.4342 -0.7576
  837MPD2    H212308   3.694   2.969   9.746  0.0704  1.1830  1.9777
  837MPD2    H312309   3.741   3.127   9.908  2.4179  0.4195  1.0279
  837MPD2     N12310   3.766   3.449   9.595 -0.2655 -0.1274 -0.2086
  837MPD2    H512311   3.792   3.463   9.498  1.6648 -0.8572  0.2111
  837MPD2    N112312   3.744   2.997   9.467 -0.3953 -0.3347  0.3233
  837MPD2    H712313   3.768   3.033   9.376 -1.7243 -0.9453 -0.2720
  838MPD2     C12314   1.978   1.434  11.157 -0.3656  0.2552  0.0835
  838MPD2    C112315   1.933   1.414  11.287  0.1748  0.1450  0.3576
  838MPD2    C212316   1.810   1.362  11.313  0.2470 -0.2114  0.6780
  838MPD2    C312317   1.742   1.302  11.208 -0.9710 -0.5121  0.6433
  838MPD2    C412318   1.799   1.305  11.083  0.3511  0.4520  0.3065
  838MPD2    C512319   1.913   1.373  11.053 -0.1067 -0.0544  0.3076
  838MPD2     H12320   1.766   1.359  11.412  0.3398  0.9151  0.7624
  838MPD2    H112321   1.767   1.244  10.999  1.1930  0.9419 -0.3729
  838MPD2    H212322   2.074   1.479  11.132 -0.4023  0.4315  0.2669
  838MPD2    H312323   1.943   1.363  10.949 -2.8063  4.6193 -0.9393
  838MPD2     N12324   1.629   1.223  11.241  0.5187  0.6551 -0.2825
  838MPD2    H512325   1.599   1.210  11.337  1.1450  0.8607 -0.0580
  838MPD2    N112326   2.006   1.463  11.402 -0.1641 -0.1207  0.3113
  838MPD2    H712327   1.950   1.490  11.483  0.9590  0.8589  0.7787
  839MPD2     C12328   1.743   0.783  11.265  0.3844 -0.3884  0.8171
  839MPD2    C112329   1.795   0.837  11.150  0.8759  0.0021  0.1075
  839MPD2    C212330   1.900   0.930  11.154 -0.0455 -0.0596 -0.1652
  839MPD2    C312331   1.966   0.950  11.276  0.1169  0.0911  0.6033
  839MPD2    C412332   1.907   0.901  11.386 -0.1734  0.0889  0.5012
  839MPD2    C512333   1.801   0.810  11.386 -0.4687 -0.6561 -0.4096
  839MPD2     H12334   1.947   0.962  11.062 -0.0980  0.4403 -0.0139
  839MPD2    H112335   1.944   0.928  11.485  2.4654 -0.6419 -0.2802
  839MPD2    H212336   1.663   0.710  11.274  0.5429 -0.9684 -2.3057
  839MPD2    H312337   1.756   0.782  11.481 -0.5158 -0.4506 -0.3697
  839MPD2     N12338   2.082   1.035  11.289  0.0291 -0.2717 -0.6179
  839MPD2    H512339   2.131   1.039  11.378 -1.9253  1.3422  0.3878
  839MPD2    N112340   1.743   0.807  11.023 -0.2666  0.4412 -0.5362
  839MPD2    H712341   1.811   0.821  10.949  1.0853 -3.5468 -0.0934
  840MPD2     C12342   2.850   3.760   9.841  0.3606 -0.1634  0.4194
  840MPD2    C112343   2.801   3.684   9.945 -0.4744 -0.0328  0.0090
  840MPD2    C212344   2.847   3.726  10.072 -0.4814 -0.0679  0.1580
  840MPD2    C312345   2.944   3.831  10.089 -0.1198 -0.0883  0.5253
  840MPD2    C412346   2.987   3.905   9.981 -0.2033 -0.2956 -0.3738
  840MPD2    C512347   2.933   3.868   9.862 -0.4072  1.3073  0.3358
  840MPD2     H12348   2.816   3.685  10.168  0.3519 -1.6486 -0.2408
  840MPD2    H112349   3.063   3.981   9.989 -2.1977  1.5798  0.8204
  840MPD2    H212350   2.826   3.731   9.739  2.3872 -2.4693  0.5878
  840MPD2    H312351   2.986   3.910   9.777 -0.8427 -1.2080 -1.1684
  840MPD2     N12352   2.999   3.871  10.210 -0.0366  0.2620  0.2917
  840MPD2    H512353   3.064   3.949  10.210 -1.4790  1.4461 -3.0801
  840MPD2    N112354   2.698   3.582   9.923 -0.0486  0.0626 -0.4095
  840MPD2    H712355   2.661   3.574   9.829 -0.5791  0.7535 -0.2608
  841MPD2     C12356   1.814   3.430  14.394 -0.8109 -0.0111 -0.6889
  841MPD2    C112357   1.856   3.422  14.263 -0.1176 -0.3431  0.1198
  841MPD2    C212358   1.903   3.535  14.200  0.2158  0.2421 -0.6047
  841MPD2    C312359   1.905   3.651  14.272  0.1087  0.1765 -0.6440
  841MPD2    C412360   1.870   3.658  14.407 -0.4993 -0.6309 -0.2539
  841MPD2    C512361   1.836   3.542  14.471  0.0737  0.0169 -0.3798
  841MPD2     H12362   1.931   3.536  14.096  0.4042 -1.5483 -0.5652
  841MPD2    H112363   1.878   3.748  14.466 -2.8475 -0.3052 -0.4215
  841MPD2    H212364   1.765   3.351  14.450 -0.8495 -0.0929 -0.8370
  841MPD2    H312365   1.794   3.539  14.571  1.3584 -2.0719  0.0932
  841MPD2     N12366   1.955   3.760  14.196  0.2226  0.7576  0.1102
  841MPD2    H512367   2.004   3.734  14.110  0.4975  1.3117  0.0996
  841MPD2    N112368   1.847   3.301  14.184  0.3838 -0.2227 -0.0429
  841MPD2    H712369   1.846   3.312  14.083 -3.6338  1.7241  0.2070
  842MPD2     C12370   2.524   4.622  16.493 -0.3256 -0.8322  0.2539
  842MPD2    C112371   2.430   4.528  16.527  0.2412  0.0836 -0.0954
  842MPD2    C212372   2.420   4.485  16.655 -1.3987  0.3666 -0.1266
  842MPD2    C312373   2.492   4.554  16.760  0.6183  0.4634 -0.2579
  842MPD2    C412374   2.583   4.650  16.727 -0.4101 -0.8734  0.2979
  842MPD2    C512375   2.598   4.678  16.591  0.3346  0.3936  0.0647
  842MPD2     H12376   2.345   4.411  16.678  0.8990 -1.9515 -0.0533
  842MPD2    H112377   2.638   4.704  16.803 -0.2804 -1.9276  0.9604
  842MPD2    H212378   2.530   4.659  16.391 -1.0922 -1.8782 -0.1733
  842MPD2    H312379   2.668   0.036  16.568 -2.4223  2.2951 -1.6971
  842MPD2     N12380   2.474   4.524  16.896 -0.5823 -0.6825 -0.1099
  842MPD2    H512381   2.556   4.535  16.955  0.1869 -1.1930 -1.0849
  842MPD2    N112382   2.343   4.475  16.421  0.4829  0.9295  0.0310
  842MPD2    H712383   2.350   4.524  16.333  0.8238 -1.2544 -1.1470
  843MPD2     C12384   4.279   4.498  17.265 -1.0304 -0.1687 -0.3384
  843MPD2    C112385   4.349   4.437  17.366 -0.5362 -0.5351  0.4388
  843MPD2    C212386   4.448   4.517  17.434 -0.4004  0.2213  0.5507
  843MPD2    C312387   4.471   4.645  17.390  0.1434 -0.7691  0.9651
  843MPD2    C412388   4.411   4.701  17.282  0.3837 -0.5588  0.7658
  843MPD2    C512389   4.304   4.633  17.229 -0.3374 -0.0055  0.6547
  843MPD2     H12390   4.511   4.477  17.513  1.5931  2.3920  0.0580
  843MPD2    H112391   4.431   0.077  17.239  1.1584 -0.6817  0.8514
  843MPD2    H212392   4.199   4.445  17.215 -1.0631 -1.7292  1.3648
  843MPD2    H312393   4.248   4.680  17.149 -0.1613  1.6729  1.5154
  843MPD2     N12394   4.567   0.009  17.451  0.2462 -0.0466 -0.2079
  843MPD2    H512395   4.573   0.100  17.405 -1.3201  0.2283  0.1338
  843MPD2    N112396   4.317   4.304  17.403 -0.2040 -0.7639 -0.5806
  843MPD2    H712397   4.241   4.263  17.349 -1.2057  0.5154 -0.1504
  844MPD2     C12398   2.882   4.060  16.480  0.4523  0.4877 -0.6203
  844MPD2    C112399   2.940   3.975  16.386  0.4218  0.8246  0.3380
  844MPD2    C212400   3.073   3.969  16.376 -0.0841  0.1031  0.0721
  844MPD2    C312401   3.165   4.046  16.443  0.1973  0.6774  1.0000
  844MPD2    C412402   3.105   4.143  16.524 -0.7020  0.3970  0.4373
  844MPD2    C512403   2.966   4.151  16.538 -0.2183 -0.0882  0.0110
  844MPD2     H12404   3.112   3.890  16.313  1.3166  0.8055  0.0677
  844MPD2    H112405   3.157   4.207  16.594 -0.5600 -0.0408  0.7320
  844MPD2    H212406   2.775   4.067  16.490  0.6144  1.7138  0.2695
  844MPD2    H312407   2.931   4.228  16.606  0.0948 -0.7327  0.8902
  844MPD2     N12408   3.301   4.012  16.434  0.0977 -0.4304 -0.4214
  844MPD2    H512409   3.320   3.929  16.379  1.7548 -0.1649 -0.2392
  844MPD2    N112410   2.873   3.900  16.290 -0.1769 -0.1867 -0.0108
  844MPD2    H712411   2.923   3.875  16.206  3.0472  0.6731  1.6653
  845MPD2     C12412   4.113   4.584  16.465 -0.1574 -0.1572 -0.9479
  845MPD2    C112413   3.999   4.611  16.531  0.1330 -0.3832 -0.5260
  845MPD2    C212414   3.913   4.506  16.564 -0.5074  0.2882 -0.2735
  845MPD2    C312415   3.938   4.377  16.517  0.6099 -0.1237 -0.0967
  845MPD2    C412416   4.052   4.355  16.450 -0.1331  0.0112  0.2485
  845MPD2    C512417   4.136   4.455  16.423 -1.1345 -0.3628  0.1602
  845MPD2     H12418   3.830   4.538  16.626  0.6710  4.1435 -0.6959
  845MPD2    H112419   4.090   4.261  16.411  0.3332  0.7486 -1.0900
  845MPD2    H212420   4.186   4.661  16.442  1.9613 -2.0908 -0.6874
  845MPD2    H312421   4.227   4.428  16.371  0.3479 -1.6757  3.4017
  845MPD2     N12422   3.842   4.271  16.535 -0.1877  0.2292 -0.3118
  845MPD2    H512423   3.750   4.302  16.564  0.9770  3.0004  0.3733
  845MPD2    N112424   3.984   0.020  16.583  0.3796 -0.2193 -0.0675
  845MPD2    H712425   4.060   0.083  16.561 -0.6123  1.1210  0.3453
  846MPD2     C12426   0.411   0.561  13.427 -0.6312  0.3139 -0.2249
  846MPD2    C112427   0.279   0.610  13.398  0.1626  0.2910  0.3699
  846MPD2    C212428   0.224   0.690  13.492  1.2487 -0.3810 -0.1586
  846MPD2    C312429   0.275   0.721  13.614  0.1996 -0.1393 -0.5162
  846MPD2    C412430   0.404   0.685  13.636 -0.5210 -0.8077 -0.1254
  846MPD2    C512431   0.470   0.602  13.548  0.0485  0.4611 -0.5388
  846MPD2     H12432   0.128   0.736  13.471  2.1184  1.3546 -0.3432
  846MPD2    H112433   0.452   0.699  13.732 -1.5618 -0.1255  0.2932
  846MPD2    H212434   0.462   0.482  13.373 -0.2630 -0.0304  0.6261
  846MPD2    H312435   0.569   0.557  13.557 -0.7055 -1.0491  0.0939
  846MPD2     N12436   0.194   0.797  13.704  0.0603 -0.0187  0.3172
  846MPD2    H512437   0.094   0.804  13.688 -0.0039 -2.1275 -0.2104
  846MPD2    N112438   0.199   0.580  13.287  0.2165  0.4305  0.1354
  846MPD2    H712439   0.115   0.636  13.286 -0.8550 -1.1377  2.3327
  847MPD2     C12440   0.354   1.838  13.619 -0.1214  0.8312  0.6197
  847MPD2    C112441   0.383   1.969  13.645  0.3449  0.5043  0.1650
  847MPD2    C212442   0.501   1.989  13.720 -0.4537  0.3110 -0.9599
  847MPD2    C312443   0.590   1.891  13.761 -0.1490  0.1254  0.3135
  847MPD2    C412444   0.561   1.761  13.736 -0.6359  0.5004 -0.5872
  847MPD2    C512445   0.444   1.739  13.668 -0.0819 -0.0621  0.3969
  847MPD2     H12446   0.530   2.085  13.759 -0.8695  0.3054 -0.6340
  847MPD2    H112447   0.620   1.680  13.778  0.7304  1.4072 -0.7367
  847MPD2    H212448   0.259   1.813  13.576  0.5961 -0.7693 -0.0334
  847MPD2    H312449   0.408   1.636  13.669  1.7226 -0.6582  4.2354
  847MPD2     N12450   0.699   1.935  13.838  0.0813 -0.4185  0.1275
  847MPD2    H512451   0.707   2.034  13.857  2.9294 -0.7684  0.6695
  847MPD2    N112452   0.298   2.073  13.621  0.2891  0.1987  0.3598
  847MPD2    H712453   0.333   2.164  13.648 -0.4979  0.7981 -0.6534
  848MPD2     C12454   2.856   0.202  16.763 -1.0057  0.0500 -0.3031
  848MPD2    C112455   2.922   0.110  16.694 -0.0658  0.1808 -0.5818
  848MPD2    C212456   2.930   0.124  16.559 -0.7763 -0.3931  0.4786
  848MPD2    C312457   2.859   0.229  16.492 -0.8232  0.9819  0.3849
  848MPD2    C412458   2.796   0.322  16.572  0.1960 -0.5222  0.6036
  848MPD2    C512459   2.786   0.307  16.709  0.3001  0.2368 -0.3187
  848MPD2     H12460   2.975   0.054  16.490  1.8428 -1.1256  2.9238
  848MPD2    H112461   2.756   0.414  16.530  0.4147 -0.2793  0.9248
  848MPD2    H212462   2.845   0.190  16.870  2.6525  0.4263  0.1095
  848MPD2    H312463   2.731   0.383  16.762  0.6229  0.5646 -0.4501
  848MPD2     N12464   2.846   0.248  16.354  0.6935 -0.9647  0.3957
  848MPD2    H512465   2.820   0.343  16.328  0.3048 -0.7683  1.5297
  848MPD2    N112466   2.978   4.715  16.749  0.1159  0.9112 -0.5700
  848MPD2    H712467   3.025   4.657  16.680 -0.1251 -1.1248  0.9884
  849MPD2     C12468   2.901   0.207  13.325  0.0214  0.6509 -0.4355
  849MPD2    C112469   2.938   0.086  13.272  0.2946 -0.0432 -0.4466
  849MPD2    C212470   2.855   4.700  13.273  0.7603 -0.2242 -0.3872
  849MPD2    C312471   2.725   4.716  13.316  0.0556 -0.4540 -0.2412
  849MPD2    C412472   2.686   0.120  13.363 -0.8697  0.7393 -0.0360
  849MPD2    C512473   2.771   0.225  13.362  0.2057  0.6294 -0.6372
  849MPD2     H12474   2.893   4.608  13.229 -0.5148 -0.6523 -0.5836
  849MPD2    H112475   2.589   0.126  13.411 -0.1478 -1.5566  1.7198
  849MPD2    H212476   2.970   0.288  13.341 -0.0633  0.0173  3.0826
  849MPD2    H312477   2.744   0.323  13.400  2.7438  0.6514  1.0795
  849MPD2     N12478   2.625   4.613  13.308 -0.7512  0.1477  0.2791
  849MPD2    H512479   2.538   4.633  13.356 -1.0317 -2.2773  0.7657
  849MPD2    N112480   3.063   0.065  13.206  0.1019  0.5286 -0.5622
  849MPD2    H712481   3.084   4.696  13.165 -0.8647  1.3212 -2.8390
  850MPD2     C12482   4.448   2.509  14.526  0.5274 -0.0381 -0.0899
  850MPD2    C112483   4.490   2.432  14.629  0.7008  0.0931  0.2034
  850MPD2    C212484   4.616   2.388  14.636 -0.1274  0.6536  0.5106
  850MPD2    C312485   4.715   2.446  14.554 -0.3266 -1.0975 -0.0226
  850MPD2    C412486   4.674   2.530  14.451  0.3681 -0.0095 -0.5283
  850MPD2    C512487   4.542   2.552  14.434 -0.6335 -1.1063  0.6993
  850MPD2     H12488   4.638   2.305  14.701 -0.0183  1.2586  1.2532
  850MPD2    H112489   0.022   2.561  14.373 -0.4184 -1.0778 -1.6587
  850MPD2    H212490   4.350   2.555  14.521  0.5363  0.0563  0.6516
  850MPD2    H312491   4.512   2.608  14.346 -1.2820  0.2281  1.7671
  850MPD2     N12492   0.131   2.427  14.571  0.6378 -0.7623 -0.4024
  850MPD2    H512493   0.196   2.481  14.515 -1.1204 -0.3446 -2.0608
  850MPD2    N112494   4.406   2.384  14.729  0.3453 -0.0183  0.1652
  850MPD2    H712495   4.457   2.329  14.798  0.0477  0.3585  0.6839
  851MPD2     C12496   0.100   2.362  15.280 -0.0956 -0.0095 -0.1699
  851MPD2    C112497   0.024   2.297  15.183 -0.5434  0.2575 -0.3007
  851MPD2    C212498   0.100   2.223  15.095 -0.0948  0.3610 -0.3799
  851MPD2    C312499   0.229   2.193  15.114  0.2194  0.4991 -0.3795
  851MPD2    C412500   0.301   2.244  15.218 -0.1894 -0.0207  0.0874
  851MPD2    C512501   0.232   2.326  15.299 -0.2846 -0.2317  0.6693
  851MPD2     H12502   0.053   2.177  15.009 -1.0925  1.2985 -0.3434
  851MPD2    H112503   0.407   2.233  15.236 -0.0122 -1.1921 -1.6533
  851MPD2    H212504   0.059   2.419  15.362  1.9455  1.3907 -0.1177
  851MPD2    H312505   0.273   2.371  15.388  0.1495  0.7840 -0.0369
  851MPD2     N12506   0.286   2.118  15.011 -0.3401  0.6599  0.3629
  851MPD2    H512507   0.231   2.101  14.928 -0.1009 -0.3965  0.4267
  851MPD2    N112508   4.606   2.330  15.165 -0.2341 -1.0089  0.8122
  851MPD2    H712509   4.560   2.398  15.224  0.0062  0.6455 -0.9013
  852MPD2     C12510   3.823   0.333   9.637  0.0150 -0.3826  0.1955
  852MPD2    C112511   3.943   0.384   9.684  0.0007 -0.6195 -0.1167
  852MPD2    C212512   4.033   0.440   9.596 -0.2277  0.3347 -0.5745
  852MPD2    C312513   4.015   0.439   9.460  0.3749 -0.3635 -1.0664
  852MPD2    C412514   3.898   0.381   9.418 -0.2890 -0.3506 -0.2471
  852MPD2    C512515   3.799   0.331   9.504 -0.7601 -0.4133  0.2457
  852MPD2     H12516   4.120   0.488   9.640 -0.7798 -1.2015  2.1813
  852MPD2    H112517   3.882   0.367   9.311  2.3857  0.5144 -0.7574
  852MPD2    H212518   3.758   0.282   9.707 -1.2900 -0.2417 -0.8982
  852MPD2    H312519   3.712   0.283   9.461 -2.4964  0.9452  2.2035
  852MPD2     N12520   4.112   0.512   9.386 -0.1844  0.9473  0.2947
  852MPD2    H512521   4.187   0.556   9.439 -1.2956  1.4592  1.4336
  852MPD2    N112522   3.975   0.383   9.826 -0.4050 -0.0138 -0.1724
  852MPD2    H712523   4.061   0.427   9.857 -1.5887  2.0788  0.1111
  853MPD2     C12524   1.744   4.698  11.846  0.2490  0.1743  0.4590
  853MPD2    C112525   1.639   0.019  11.771 -0.1747 -0.0455  0.0766
  853MPD2    C212526   1.644   0.032  11.633 -0.1599  0.2234 -0.7148
  853MPD2    C312527   1.763   4.721  11.571 -0.1962 -0.8682  0.6815
  853MPD2    C412528   1.873   4.678  11.638  0.5558 -1.2419 -0.2197
  853MPD2    C512529   1.865   4.679  11.778 -0.0306  0.6220  0.2388
  853MPD2     H12530   1.558   0.071  11.580 -1.1322  0.7780  1.2719
  853MPD2    H112531   1.965   4.664  11.582  1.3846  0.5233  0.6883
  853MPD2    H212532   1.745   4.685  11.953 -2.8061 -2.2129  0.2070
  853MPD2    H312533   1.961   4.679  11.830 -0.5430  0.5754  1.1954
  853MPD2     N12534   1.782   4.717  11.428  0.3170 -0.3138  0.5606
  853MPD2    H512535   1.868   4.674  11.395  0.5873 -0.4259  1.4199
  853MPD2    N112536   1.528   0.059  11.846  0.1314 -0.6691 -0.6505
  853MPD2    H712537   1.537   0.067  11.947 -0.5967  0.7738 -0.6943
  854MPD2     C12538   4.510   0.695  12.570  0.5844  0.1855  0.5047
  854MPD2    C112539   4.396   0.636  12.514 -0.4282 -0.5907 -0.0827
  854MPD2    C212540   4.351   0.513  12.578 -0.0332  0.2415 -0.8933
  854MPD2    C312541   4.427   0.451  12.677 -0.2154 -0.0177 -0.6894
  854MPD2    C412542   4.545   0.513  12.720  0.1425 -1.0979 -0.4972
  854MPD2    C512543   4.582   0.631  12.674  0.2854 -0.3830  0.1133
  854MPD2     H12544   4.259   0.466  12.546  0.3463 -1.0283 -0.1119
  854MPD2    H112545   4.617   0.476  12.793 -0.1599 -0.7215 -0.0130
  854MPD2    H212546   4.545   0.790  12.532 -2.2348  0.4418 -1.4454
  854MPD2    H312547   4.668   0.676  12.723 -1.3475  1.6578  1.1084
  854MPD2     N12548   4.403   0.323  12.736  0.3899  0.7549  0.2130
  854MPD2    H512549   4.465   0.297  12.812  1.5894  1.5740 -0.4916
  854MPD2    N112550   4.320   0.704  12.411 -0.2215  0.6756 -0.3569
  854MPD2    H712551   4.352   0.798  12.388  0.1670  0.2718 -1.4861
  855MPD2     C12552   4.241   0.152  13.554  0.6947 -0.5954  0.3688
  855MPD2    C112553   4.277   0.024  13.525  0.5055  0.6289  0.2948
  855MPD2    C212554   4.295   4.719  13.390  0.3545  0.2641  0.4340
  855MPD2    C312555   4.286   0.094  13.294 -0.8955  0.0977  0.7031
  855MPD2    C412556   4.257   0.223  13.334 -0.2890  0.0795 -1.1167
  855MPD2    C512557   4.240   0.256  13.465 -0.6116  1.2084  0.1476
  855MPD2     H12558   4.343   4.625  13.368  2.3394  1.9454 -2.4430
  855MPD2    H112559   4.244   0.300  13.259 -1.1168  0.8358 -0.1965
  855MPD2    H212560   4.230   0.182  13.657 -3.2749 -1.1284  0.1022
  855MPD2    H312561   4.204   0.348  13.509 -0.3866  0.9859  0.8028
  855MPD2     N12562   4.307   0.064  13.151 -0.3968  0.1203  0.1259
  855MPD2    H512563   4.305   0.147  13.093  3.4425  0.9594  1.1675
  855MPD2    N112564   4.262   4.637  13.622 -0.2473  0.2403 -0.4759
  855MPD2    H712565   4.271   4.546  13.579  1.1832  0.0693  0.1880
  856MPD2     C12566   0.826   0.846  13.517 -0.1729  0.3443 -0.5715
  856MPD2    C112567   0.889   0.976  13.528 -0.9246 -0.5212  0.1427
  856MPD2    C212568   0.839   1.086  13.464 -0.1713 -0.8376 -0.5540
  856MPD2    C312569   0.722   1.077  13.390 -0.2016 -0.3406  0.0758
  856MPD2    C412570   0.660   0.952  13.379  0.2347  1.0182 -0.3872
  856MPD2    C512571   0.715   0.840  13.437 -0.0459 -0.8248  0.0030
  856MPD2     H12572   0.888   1.183  13.473 -4.2452  1.0411  1.2776
  856MPD2    H112573   0.565   0.948  13.327  0.4652 -0.2790 -0.6999
  856MPD2    H212574   0.866   0.760  13.570 -1.2981 -1.7128 -3.0825
  856MPD2    H312575   0.663   0.745  13.431  1.2205 -1.4818 -0.5446
  856MPD2     N12576   0.665   1.192  13.328  0.1718 -0.3643 -0.0696
  856MPD2    H512577   0.577   1.180  13.279  0.3649 -1.2539 -0.1918
  856MPD2    N112578   1.008   0.995  13.608 -0.0340  0.3197  0.5221
  856MPD2    H712579   1.030   1.089  13.640  1.9733 -0.3320  1.0924
  857MPD2     C12580   2.777   3.401  12.357  0.4577 -0.4690  0.2496
  857MPD2    C112581   2.912   3.386  12.354  0.2332 -0.6403  0.7944
  857MPD2    C212582   2.986   3.481  12.416  0.3700  0.3769 -0.2887
  857MPD2    C312583   2.923   3.594  12.466  0.0756  0.4619  0.3008
  857MPD2    C412584   2.787   3.617  12.443  0.1184 -0.0466  0.0399
  857MPD2    C512585   2.708   3.519  12.390 -0.4332  0.3484 -0.1579
  857MPD2     H12586   3.094   3.487  12.406  0.4805 -0.9844  0.1068
  857MPD2    H112587   2.738   3.709  12.474  2.0190  1.6769 -2.0447
  857MPD2    H212588   2.717   3.319  12.319 -1.2351  0.8101  0.1869
  857MPD2    H312589   2.600   3.531  12.379 -0.5662 -1.0577 -0.4920
  857MPD2     N12590   3.005   3.682  12.527  0.3057 -0.1557 -0.1926
  857MPD2    H512591   3.105   3.668  12.519  0.7406  1.8317  1.5600
  857MPD2    N112592   2.955   3.269  12.291 -0.2450 -0.0624  0.3384
  857MPD2    H712593   2.886   3.206  12.249  1.7415 -1.6411 -0.5646
  858MPD2     C12594   3.417   1.928  16.513 -0.4805 -0.1741 -0.4131
  858MPD2    C112595   3.548   1.904  16.549  0.0831 -0.0809 -0.0320
  858MPD2    C212596   3.601   1.973  16.660 -0.4007 -0.0557 -0.0215
  858MPD2    C312597   3.526   2.072  16.725 -0.1494  0.2242 -0.0361
  858MPD2    C412598   3.397   2.099  16.679  0.0724 -0.0637 -0.1813
  858MPD2    C512599   3.345   2.024  16.574 -0.4539 -0.8506 -0.2828
  858MPD2     H12600   3.705   1.959  16.684  0.1635  0.3192 -2.2798
  858MPD2    H112601   3.329   2.172  16.721  0.9270  2.0457 -2.4724
  858MPD2    H212602   3.375   1.882  16.424 -0.3320  2.0244 -1.6053
  858MPD2    H312603   3.244   2.045  16.538  0.3356  0.2807 -1.8169
  858MPD2     N12604   3.584   2.140  16.841  0.4984 -0.5776  0.1797
  858MPD2    H512605   3.526   2.213  16.880  2.2666 -0.1070  1.9185
  858MPD2    N112606   3.625   1.817  16.464 -0.3669 -0.1547 -0.7216
  858MPD2    H712607   3.579   1.772  16.385  2.4927 -0.9029 -1.9537
  859MPD2     C12608   1.950   3.837  14.857  0.4995  0.5333  1.0645
  859MPD2    C112609   2.050   3.847  14.763 -0.3073 -0.1298  1.1959
  859MPD2    C212610   2.098   3.730  14.698  0.1668  0.0193  0.2538
  859MPD2    C312611   2.045   3.604  14.725  0.0689 -0.1097 -0.6024
  859MPD2    C412612   1.940   3.597  14.816 -0.4914  0.7275  0.5596
  859MPD2    C512613   1.902   3.715  14.887 -0.2050  0.3799 -0.0881
  859MPD2     H12614   2.175   3.748  14.624 -2.2044  1.4986 -1.8377
  859MPD2    H112615   1.900   3.500  14.843 -3.1322  1.8117  0.4887
  859MPD2    H212616   1.927   3.919  14.924 -0.0930  0.1932  1.2780
  859MPD2    H312617   1.852   3.712  14.983 -1.2983  1.2183 -0.6297
  859MPD2     N12618   2.092   3.484  14.668 -0.7077  0.0587 -0.0908
  859MPD2    H512619   2.049   3.397  14.696  2.0857 -1.3546 -0.2395
  859MPD2    N112620   2.086   3.979  14.729  0.8460 -0.7035  0.3827
  859MPD2    H712621   2.036   4.053  14.777 -1.1131 -1.1739 -0.9144
  860MPD2     C12622   4.155   4.416  11.023  0.0743 -0.4180  0.3583
  860MPD2    C112623   4.216   4.514  11.099  0.3260  0.9107 -0.0723
  860MPD2    C212624   4.174   4.527  11.229  0.1656 -0.2744  0.7284
  860MPD2    C312625   4.082   4.449  11.290  0.7469  0.1853  0.1871
  860MPD2    C412626   4.024   4.348  11.215 -0.4728 -0.6368 -0.2089
  860MPD2    C512627   4.064   4.330  11.081  0.6249 -0.2731  0.3988
  860MPD2     H12628   4.220   4.598  11.297  1.5453  1.3294 -1.8855
  860MPD2    H112629   3.950   4.279  11.255  1.4040 -0.1087  4.1947
  860MPD2    H212630   4.178   4.402  10.919  0.2393 -0.6308  0.4227
  860MPD2    H312631   4.014   4.250  11.027  1.2759 -0.8874  0.7182
  860MPD2     N12632   4.042   4.480  11.422 -0.2304 -0.3445 -0.4308
  860MPD2    H512633   4.076   4.566  11.464  1.4170 -1.1827 -0.0429
  860MPD2    N112634   4.308   4.612  11.052 -0.8019 -0.0954 -1.0663
  860MPD2    H712635   4.338   4.672  11.128  2.0971  0.1397 -2.4004
  861MPD2     C12636   3.187   2.420  10.662  0.2892  0.4841  0.2258
  861MPD2    C112637   3.266   2.525  10.693  0.3253 -0.9489  1.0217
  861MPD2    C212638   3.247   2.642  10.617 -0.3117 -0.8607 -0.5106
  861MPD2    C312639   3.165   2.646  10.506 -0.1769 -0.3283  0.2250
  861MPD2    C412640   3.092   2.533  10.470 -0.8064 -0.3743  0.5944
  861MPD2    C512641   3.101   2.425  10.560  0.4235 -0.0200  0.5019
  861MPD2     H12642   3.300   2.726  10.661 -1.0730 -1.9015  2.3674
  861MPD2    H112643   3.021   2.524  10.389 -0.5194  0.2919  0.2636
  861MPD2    H212644   3.186   2.330  10.723  0.1163  1.8555  2.2503
  861MPD2    H312645   3.032   2.342  10.551 -2.1851  2.1649  0.1600
  861MPD2     N12646   3.142   2.763  10.437  0.5127 -0.3025 -0.0440
  861MPD2    H512647   3.066   2.765  10.370 -0.2886 -1.4681  0.8515
  861MPD2    N112648   3.355   2.536  10.797  0.0686 -0.2460 -0.0623
  861MPD2    H712649   3.394   2.628  10.816 -1.7750  0.2311  1.4750
  862MPD2     C12650   3.025   3.007   9.772 -1.2857  0.1919  0.3807
  862MPD2    C112651   3.049   2.925   9.874  0.5339  0.1685 -0.3880
  862MPD2    C212652   3.056   2.786   9.852  0.2599  0.3989  0.6125
  862MPD2    C312653   3.047   2.737   9.725  0.5832 -0.0353 -0.8153
  862MPD2    C412654   3.015   2.822   9.618  0.5855  0.7252  0.4742
  862MPD2    C512655   3.004   2.957   9.644 -0.3337 -0.6723 -0.8540
  862MPD2     H12656   3.073   2.726   9.940 -1.0892 -2.4065 -1.0353
  862MPD2    H112657   2.995   2.785   9.518 -1.2283  0.6353  0.8702
  862MPD2    H212658   3.016   3.114   9.770  0.5473  0.3287 -1.0688
  862MPD2    H312659   2.968   3.018   9.563  0.5247  2.1178  0.8798
  862MPD2     N12660   3.032   2.597   9.705  0.1866 -0.0506  0.0516
  862MPD2    H512661   2.987   2.566   9.620 -1.2199  0.0824  0.7525
  862MPD2    N112662   3.043   2.962  10.008 -0.6238  0.0216  0.1697
  862MPD2    H712663   3.050   2.893  10.082  2.3402 -0.3530 -0.4448
  863MPD2     C12664   1.655   1.362  16.695  0.5403 -0.4590  0.3191
  863MPD2    C112665   1.681   1.279  16.588 -0.6913 -0.2531 -0.0378
  863MPD2    C212666   1.810   1.232  16.573 -0.1932  0.1385 -1.0703
  863MPD2    C312667   1.908   1.258  16.673 -0.3129 -0.1329 -0.2772
  863MPD2    C412668   1.885   1.345  16.774 -0.7354 -0.5561 -0.0795
  863MPD2    C512669   1.758   1.401  16.781 -0.2124 -0.2191  0.1995
  863MPD2     H12670   1.836   1.162  16.494  0.7747 -2.0874  1.2325
  863MPD2    H112671   1.961   1.367  16.848 -1.4981  1.3834  0.1148
  863MPD2    H212672   1.560   1.410  16.715 -0.5024 -1.9340 -1.0974
  863MPD2    H312673   1.729   1.464  16.864 -2.9629 -2.3401  0.8891
  863MPD2     N12674   2.040   1.212  16.665 -0.0686 -0.1601  0.0943
  863MPD2    H512675   2.108   1.239  16.735 -3.3842  1.8099  2.5393
  863MPD2    N112676   1.581   1.270  16.489  0.1474  0.6834 -0.2249
  863MPD2    H712677   1.494   1.321  16.500 -0.1250 -0.0208  0.8645
  864MPD2     C12678   2.547   2.046  17.297  0.3853  0.1826  0.3217
  864MPD2    C112679   2.501   2.005  17.178  0.1207 -0.0663 -0.4036
  864MPD2    C212680   2.527   2.075  17.058 -0.4318 -0.0921  0.1261
  864MPD2    C312681   2.584   2.202  17.064 -0.6473  0.2249  0.1183
  864MPD2    C412682   2.620   2.248  17.190  0.1790  0.0117 -0.7324
  864MPD2    C512683   2.618   2.168  17.304 -0.5548 -0.8327 -0.3509
  864MPD2     H12684   2.490   2.032  16.966 -1.6339  0.9971  0.0886
  864MPD2    H112685   2.673   2.342  17.197  1.6814 -1.0878  2.6892
  864MPD2    H212686   2.546   1.985  17.386  0.9168  0.5906  0.6068
  864MPD2    H312687   2.668   2.196  17.396  1.2603  0.1987 -1.6535
  864MPD2     N12688   2.613   2.290  16.949  0.0302  0.1726 -0.2130
  864MPD2    H512689   2.662   2.374  16.976  1.8583 -1.1568  0.5476
  864MPD2    N112690   2.438   1.882  17.184  0.0505  0.0117 -0.4556
  864MPD2    H712691   2.409   1.849  17.276  0.2988  1.4324  0.1256
  865MPD2     C12692   2.446   2.684  16.218  0.3086  0.5571 -0.4647
  865MPD2    C112693   2.459   2.581  16.305  0.2190  0.1252  0.9855
  865MPD2    C212694   2.519   2.620  16.435 -0.3263 -0.3800  0.5582
  865MPD2    C312695   2.577   2.745  16.453 -0.1704 -0.4915  0.1730
  865MPD2    C412696   2.553   2.837  16.353 -0.3770 -0.3230 -0.2468
  865MPD2    C512697   2.499   2.810  16.235  0.2696  0.2420 -0.6815
  865MPD2     H12698   2.505   2.548  16.514 -1.1017  0.0123  0.7737
  865MPD2    H112699   2.574   2.941  16.373 -2.1882 -0.5007  2.4760
  865MPD2    H212700   2.408   2.665  16.119 -0.8423  0.8242 -0.0711
  865MPD2    H312701   2.473   2.880  16.156 -0.5288 -2.9170 -3.2397
  865MPD2     N12702   2.645   2.788  16.570  0.3983  0.6793  0.8495
  865MPD2    H512703   2.659   2.886  16.591  0.0697  0.9997 -0.4691
  865MPD2    N112704   2.433   2.452  16.272  0.0355  0.0001  0.2110
  865MPD2    H712705   2.410   2.433  16.175 -0.8971  0.5795  0.3188
  866MPD2     C12706   4.253   3.596  10.640 -0.0542  0.0216 -0.2539
  866MPD2    C112707   4.210   3.468  10.647  0.6070  0.5894 -0.2769
  866MPD2    C212708   4.077   3.446  10.674  0.6441 -1.2237 -0.5007
  866MPD2    C312709   3.979   3.546  10.683 -0.5525  0.1901 -0.4875
  866MPD2    C412710   4.017   3.677  10.658 -0.1708 -0.0155  0.4258
  866MPD2    C512711   4.152   3.701  10.633  0.3200  0.1914  0.4204
  866MPD2     H12712   4.040   3.344  10.683 -1.5749 -0.5994 -2.4356
  866MPD2    H112713   3.942   3.755  10.665 -0.2283 -0.1321  1.1360
  866MPD2    H212714   4.356   3.619  10.612 -0.2216  2.0340  0.7695
  866MPD2    H312715   4.183   3.804  10.619  0.9672  0.1340  1.4405
  866MPD2     N12716   3.843   3.519  10.706  0.4366 -0.2958 -0.0958
  866MPD2    H512717   3.775   3.594  10.707 -0.2577 -0.9299  0.2071
  866MPD2    N112718   4.306   3.366  10.647 -0.2598  0.2474  0.2464
  866MPD2    H712719   4.396   3.409  10.628  0.8367 -1.0799  2.5018
  867MPD2     C12720   1.592   2.209  16.242 -0.2873  0.1604  0.5045
  867MPD2    C112721   1.641   2.210  16.371  0.1854 -0.3049  0.2334
  867MPD2    C212722   1.747   2.293  16.402  0.6132  0.0379  0.2104
  867MPD2    C312723   1.817   2.364  16.306 -0.2744  0.0048  0.3211
  867MPD2    C412724   1.769   2.356  16.180 -0.1965  0.1217 -0.3335
  867MPD2    C512725   1.660   2.283  16.144 -0.6565 -0.0162  0.2533
  867MPD2     H12726   1.775   2.290  16.507  0.7096 -0.8188  0.1590
  867MPD2    H112727   1.816   2.407  16.097 -2.7929  2.0196 -0.6451
  867MPD2    H212728   1.510   2.143  16.214  1.2936 -0.5973 -2.3094
  867MPD2    H312729   1.639   2.275  16.038 -0.5767  1.6697  0.1117
  867MPD2     N12730   1.920   2.449  16.342 -0.5255 -0.0693  0.3922
  867MPD2    H512731   1.946   2.517  16.272  1.5544 -1.6862 -0.3909
  867MPD2    N112732   1.577   2.126  16.466  0.3192  0.9851  0.5547
  867MPD2    H712733   1.499   2.070  16.433 -0.0991  2.9314 -1.8119
  868MPD2     C12734   2.744   1.357  12.836  0.3866 -0.0248 -0.0595
  868MPD2    C112735   2.789   1.236  12.879 -0.4941  0.2650 -0.7544
  868MPD2    C212736   2.696   1.153  12.930  0.6119 -0.2917 -0.1331
  868MPD2    C312737   2.566   1.193  12.942  0.0205  0.1271  0.0676
  868MPD2    C412738   2.527   1.326  12.916 -0.4745  0.0141  0.0281
  868MPD2    C512739   2.618   1.409  12.855 -0.1531 -0.0423 -0.0482
  868MPD2     H12740   2.729   1.054  12.959 -1.1706 -1.1714 -1.0793
  868MPD2    H112741   2.427   1.362  12.934 -1.0348 -0.8586 -1.2831
  868MPD2    H212742   2.817   1.428  12.798 -0.3958  0.7530 -0.1119
  868MPD2    H312743   2.597   1.502  12.803  0.5942  1.0082  1.5230
  868MPD2     N12744   2.480   1.096  13.002 -0.2967 -0.9727 -0.2279
  868MPD2    H512745   2.524   1.007  13.024 -0.7456 -0.7877  1.4080
  868MPD2    N112746   2.926   1.214  12.877 -0.6368 -0.1612 -0.8318
  868MPD2    H712747   2.991   1.286  12.846  1.6573 -2.0783 -0.4301
  869MPD2     C12748   0.147   4.100   1.467 -0.2593 -0.3213  0.3997
  869MPD2    C112749   0.094   3.986   1.415  0.4237 -0.6035  0.1455
  869MPD2    C212750   0.011   3.985   1.297  1.2869  0.0670 -0.5463
  869MPD2    C312751   4.703   4.103   1.242 -0.1707 -0.1090 -0.3988
  869MPD2    C412752   0.035   4.218   1.292 -0.3183  0.1357  0.1606
  869MPD2    C512753   0.118   4.220   1.404  0.4308  0.9115  0.0946
  869MPD2     H12754   4.678   3.896   1.269 -0.6090  1.8458 -2.5178
  869MPD2    H112755   0.007   4.313   1.247  1.4841  0.1278 -1.0029
  869MPD2    H212756   0.211   4.100   1.554 -1.8434  0.0068  1.5612
  869MPD2    H312757   0.167   4.312   1.436  0.8381  1.2944 -1.6598
  869MPD2     N12758   4.630   4.116   1.129 -0.2725 -0.3166 -0.7556
  869MPD2    H512759   4.643   4.205   1.083 -0.3435  0.8966  1.5801
  869MPD2    N112760   0.146   3.872   1.487  0.6794  0.0567  0.3109
  869MPD2    H712761   0.201   3.882   1.572  2.0533  0.7013 -0.6610
  870MPD2     C12762   4.103   2.644   1.717  0.4742 -0.0973  0.1196
  870MPD2    C112763   4.068   2.561   1.619 -0.5698  0.9120 -0.8735
  870MPD2    C212764   3.980   2.594   1.520 -0.2789  0.2409 -0.1684
  870MPD2    C312765   3.945   2.728   1.513  0.2371  0.8286 -0.2976
  870MPD2    C412766   3.983   2.816   1.614  0.5449 -0.2105  0.4614
  870MPD2    C512767   4.063   2.770   1.714  0.5572  0.0112  0.1068
  870MPD2     H12768   3.945   2.530   1.440 -2.5025 -0.4595  1.3736
  870MPD2    H112769   3.967   2.924   1.616  0.8643 -0.1351 -0.8710
  870MPD2    H212770   4.174   2.623   1.797 -0.0518  0.4013  0.7171
  870MPD2    H312771   4.097   2.848   1.780  1.8339 -0.1059 -0.4187
  870MPD2     N12772   3.867   2.765   1.406 -0.1629  0.2368  0.7332
  870MPD2    H512773   3.831   2.688   1.351  0.2381  1.3154 -1.0186
  870MPD2    N112774   4.130   2.434   1.623 -0.7978  0.6388  0.4189
  870MPD2    H712775   4.188   2.411   1.703  1.4932  0.3519 -1.3133
  871MPD2     C12776   0.295   2.648  16.026  0.3289 -0.5889  0.4535
  871MPD2    C112777   0.258   2.581  16.143 -0.2123 -0.1503  0.4038
  871MPD2    C212778   0.224   2.447  16.136  0.2750  0.0091 -0.3574
  871MPD2    C312779   0.218   2.377  16.022 -0.2322  0.1618 -0.1264
  871MPD2    C412780   0.250   2.440  15.905  0.1371  0.5116 -0.4603
  871MPD2    C512781   0.286   2.573  15.910 -0.1359  0.1122 -0.1645
  871MPD2     H12782   0.210   2.394  16.230  1.1972 -0.0990 -0.2787
  871MPD2    H112783   0.243   2.389  15.810  1.5509  0.2816 -0.4371
  871MPD2    H212784   0.327   2.751  16.024  1.5046 -0.9315  1.6791
  871MPD2    H312785   0.313   2.614  15.813  1.8345  1.3418  0.8941
  871MPD2     N12786   0.183   2.242  16.029  0.5508  0.1847 -0.1948
  871MPD2    H512787   0.162   2.201  16.120 -0.2469 -0.7420 -0.7969
  871MPD2    N112788   0.239   2.654  16.257 -0.9535 -0.4724  0.3303
  871MPD2    H712789   0.267   2.751  16.261  0.6826 -0.9064 -0.9936
  872MPD2     C12790   0.948   0.359  13.481  0.4535 -0.3090 -0.5537
  872MPD2    C112791   0.988   0.471  13.555  0.9526  0.1426 -0.2684
  872MPD2    C212792   0.944   0.498  13.684  0.3968  0.7531 -0.2099
  872MPD2    C312793   0.843   0.423  13.734  0.1496  0.9725 -0.1128
  872MPD2    C412794   0.804   0.310  13.664  0.3205  0.0439 -0.6382
  872MPD2    C512795   0.854   0.285  13.540  0.2902 -0.0404  0.5928
  872MPD2     H12796   0.985   0.585  13.733  1.6417  0.3220 -0.4952
  872MPD2    H112797   0.737   0.240  13.713  1.1202 -2.2106 -2.7773
  872MPD2    H212798   0.984   0.325  13.385 -1.7260  0.0912 -1.5079
  872MPD2    H312799   0.825   0.190  13.499  1.1156 -0.0692  0.0766
  872MPD2     N12800   0.784   0.467  13.857  0.6397  0.0965  0.1422
  872MPD2    H512801   0.816   0.551  13.903  0.6248 -1.0219  2.2159
  872MPD2    N112802   1.085   0.562  13.491 -0.8271  0.0628  0.7004
  872MPD2    H712803   1.097   0.638  13.557 -2.3297  0.3148  0.6784
  873MPD2     C12804   3.518   4.348   0.528  0.3514 -0.0192  0.2767
  873MPD2    C112805   3.384   4.356   0.502 -0.1498  0.3617  0.2744
  873MPD2    C212806   3.310   4.245   0.467  0.0225 -0.2209 -0.0889
  873MPD2    C312807   3.375   4.118   0.453  0.1836  0.4028  0.5840
  873MPD2    C412808   3.509   4.118   0.477  0.3298  0.1355 -0.3782
  873MPD2    C512809   3.580   4.229   0.504  0.2198  0.3274 -0.2270
  873MPD2     H12810   3.202   4.250   0.457  0.1522 -0.9343 -1.8324
  873MPD2    H112811   3.567   4.031   0.446  0.3542 -1.9359  5.4663
  873MPD2    H212812   3.580   4.430   0.560  0.7347  0.0392 -0.6000
  873MPD2    H312813   3.687   4.224   0.488  0.3495  2.0798  0.1868
  873MPD2     N12814   3.302   3.998   0.422  0.5641  0.4267  0.3346
  873MPD2    H512815   3.346   3.911   0.448  0.9072 -0.1076 -2.0339
  873MPD2    N112816   3.320   4.482   0.533 -0.0858  0.4358  0.1351
  873MPD2    H712817   3.375   4.546   0.591 -0.7344 -0.6141  1.9163
  874MPD2     C12818   2.354   4.717  15.712  0.5395 -0.0816  0.1638
  874MPD2    C112819   2.371   4.705  15.849  0.5003  0.6714  0.7794
  874MPD2    C212820   2.469   0.064  15.907  0.2843  0.4085 -0.9250
  874MPD2    C312821   2.544   0.148  15.830 -0.4115  0.3394  0.3070
  874MPD2    C412822   2.508   0.173  15.697  0.2550  0.3894 -0.3223
  874MPD2    C512823   2.421   0.091  15.637 -0.4106  0.4037 -0.7554
  874MPD2     H12824   2.483   0.055  16.014 -3.4237  0.9975 -0.3615
  874MPD2    H112825   2.558   0.254  15.644  0.3458 -0.2192 -1.1590
  874MPD2    H212826   2.276   4.666  15.656  1.5890 -2.5082  0.8910
  874MPD2    H312827   2.399   0.097  15.531  0.9117  1.5543 -0.9639
  874MPD2     N12828   2.653   0.212  15.895 -0.6952  0.0765 -0.1107
  874MPD2    H512829   2.685   0.179  15.986  0.0492 -0.0901 -0.4347
  874MPD2    N112830   2.279   4.632  15.921 -0.2035 -0.1611 -0.1739
  874MPD2    H712831   2.206   4.591  15.864 -0.9164  0.6223  0.1639
  875MPD2     C12832   3.399   3.274  14.441 -0.4965 -0.3028  0.5908
  875MPD2    C112833   3.273   3.317  14.415 -0.1212 -0.9984  0.2191
  875MPD2    C212834   3.201   3.374  14.516  0.0237  0.0366  0.5430
  875MPD2    C312835   3.258   3.410  14.632 -0.2420  0.6412  0.0014
  875MPD2    C412836   3.388   3.371  14.655  0.4599 -0.0403 -0.0256
  875MPD2    C512837   3.453   3.291  14.562 -0.0663  0.0361  0.1797
  875MPD2     H12838   3.102   3.407  14.488 -0.0193 -0.6397 -0.1137
  875MPD2    H112839   3.434   3.371  14.754  0.9957  0.5510 -0.2704
  875MPD2    H212840   3.456   3.218  14.367  0.4875  0.0276  1.1011
  875MPD2    H312841   3.550   3.247  14.582  1.2930  2.6183 -0.8294
  875MPD2     N12842   3.179   3.480  14.729  0.2963 -0.3735  0.5046
  875MPD2    H512843   3.079   3.476  14.714  0.1538  0.5016  1.2539
  875MPD2    N112844   3.215   3.318  14.288  0.3532 -0.0134 -0.6161
  875MPD2    H712845   3.119   3.353  14.284  0.3079  0.2834  2.7940
  876MPD2     C12846   3.020   0.393  15.315  0.2216  0.6778  0.0590
  876MPD2    C112847   2.908   0.334  15.264  0.2526 -0.4571 -0.1126
  876MPD2    C212848   2.841   0.233  15.338  0.0389 -0.1581 -0.0167
  876MPD2    C312849   2.894   0.189  15.455  0.0210  0.2669 -0.0859
  876MPD2    C412850   3.006   0.251  15.510  1.0103  0.0649 -0.4192
  876MPD2    C512851   3.062   0.353  15.436 -0.2821  0.3938  0.7287
  876MPD2     H12852   2.752   0.186  15.300  0.3260 -1.8522  1.4402
  876MPD2    H112853   3.056   0.224  15.602  0.1851 -0.4993 -0.1370
  876MPD2    H212854   3.067   0.478  15.269  2.0590 -0.1611  0.3832
  876MPD2    H312855   3.148   0.407  15.475  1.1837 -0.9832 -0.5946
  876MPD2     N12856   2.822   0.081  15.509  0.1002 -0.4024  0.5970
  876MPD2    H512857   2.742   0.056  15.453 -0.5576 -0.3922  1.5331
  876MPD2    N112858   2.848   0.396  15.157 -0.3144 -0.1513 -0.3092
  876MPD2    H712859   2.897   0.478  15.123  1.1982 -1.0226 -0.2087
  877MPD2     C12860   2.101   0.439  14.743  1.4290 -0.4787 -0.6712
  877MPD2    C112861   2.211   0.368  14.705 -0.4326  0.4349 -0.1815
  877MPD2    C212862   2.202   0.269  14.608  0.1031 -0.1876 -0.3686
  877MPD2    C312863   2.079   0.250  14.546  0.1106  0.3062  0.5842
  877MPD2    C412864   1.973   0.332  14.578  0.0917  0.2016 -0.6432
  877MPD2    C512865   1.984   0.422  14.677 -0.4393 -0.4590  0.2274
  877MPD2     H12866   2.295   0.220  14.583  0.0381 -0.2080 -0.5738
  877MPD2    H112867   1.875   0.321  14.533  0.8374 -0.8351 -2.0227
  877MPD2    H212868   2.105   0.507  14.828  0.4506  0.8858 -1.7245
  877MPD2    H312869   1.902   0.491  14.692 -0.6056 -0.4153 -0.8574
  877MPD2     N12870   2.062   0.161  14.436  0.0792  0.3000  0.4497
  877MPD2    H512871   1.970   0.154  14.393  1.0681  1.5304 -1.9099
  877MPD2    N112872   2.341   0.412  14.750 -0.6336 -0.1287  0.1909
  877MPD2    H712873   2.414   0.358  14.706 -2.3774 -1.1884 -1.4185
  878MPD2     C12874   3.141   0.172  12.227  0.8980 -0.5063 -0.1192
  878MPD2    C112875   3.072   0.056  12.269  0.1653 -0.9297 -0.2853
  878MPD2    C212876   3.088   0.014  12.397 -0.1868 -0.2465  0.4991
  878MPD2    C312877   3.160   0.086  12.488  0.5548  0.1568  0.2217
  878MPD2    C412878   3.229   0.195  12.446 -0.1784 -1.0264  0.2945
  878MPD2    C512879   3.215   0.245  12.317 -0.6632 -0.1428  0.8449
  878MPD2     H12880   3.037   4.650  12.439 -0.5287 -0.3026 -0.0415
  878MPD2    H112881   3.284   0.264  12.509  0.5285 -2.7469  1.5580
  878MPD2    H212882   3.137   0.212  12.127 -0.9657 -3.6147 -1.2802
  878MPD2    H312883   3.257   0.340  12.283  0.7171 -2.0643 -2.7516
  878MPD2     N12884   3.167   0.044  12.625  0.3850  0.2313  0.1702
  878MPD2    H512885   3.136   4.671  12.643  0.8784  0.1137  0.4054
  878MPD2    N112886   2.978   4.714  12.179 -0.5296 -0.2900 -0.5271
  878MPD2    H712887   2.969   0.035  12.087 -1.5093 -0.6864 -0.6035
  879MPD2     C12888   3.151   0.640  16.238 -0.0248  1.1307 -0.1125
  879MPD2    C112889   3.057   0.639  16.338 -0.4386  0.2452  0.2131
  879MPD2    C212890   2.925   0.635  16.290 -0.5169 -0.5307  0.6345
  879MPD2    C312891   2.892   0.642  16.158  0.6623  0.1781 -0.0830
  879MPD2    C412892   2.987   0.661  16.064 -0.8521  0.3414 -0.3024
  879MPD2    C512893   3.116   0.644  16.105  0.4184 -0.2286  0.0055
  879MPD2     H12894   2.844   0.632  16.363  0.9758 -0.5481  2.3069
  879MPD2    H112895   2.969   0.666  15.957  1.5632  1.4022 -0.6633
  879MPD2    H212896   3.258   0.638  16.252  0.0147 -1.7593 -0.8493
  879MPD2    H312897   3.198   0.642  16.034 -2.0699  3.0772 -2.9556
  879MPD2     N12898   2.755   0.639  16.116  0.2750  0.1705 -0.0104
  879MPD2    H512899   2.731   0.685  16.029 -1.3514  0.3176  0.5014
  879MPD2    N112900   3.094   0.648  16.471  0.2014  0.2141  0.1632
  879MPD2    H712901   3.193   0.653  16.495  0.0330 -0.9535  1.1329
  880MPD2     C12902   4.495   2.418   0.141 -0.6600  0.7448 -1.0959
  880MPD2    C112903   4.414   2.459   0.240  0.3992  0.1637  0.2656
  880MPD2    C212904   4.356   2.370   0.326 -0.0533 -0.7469  0.1871
  880MPD2    C312905   4.381   2.234   0.299  0.3713  0.6969  0.0966
  880MPD2    C412906   4.465   2.183   0.199  0.0007  0.2125  0.9023
  880MPD2    C512907   4.520   2.284   0.123  0.0192 -0.2560  0.5718
  880MPD2     H12908   4.285   2.397   0.403 -0.6622 -1.6871 -0.0379
  880MPD2    H112909   4.491   2.078   0.192 -1.2638  0.1055 -2.0126
  880MPD2    H212910   4.544   2.489   0.075  0.8038  1.8727  1.1975
  880MPD2    H312911   4.576   2.248   0.037  0.2866 -0.3776  0.7971
  880MPD2     N12912   4.319   2.147   0.396  0.1032 -0.1465  0.2441
  880MPD2    H512913   4.275   2.184   0.480 -0.7776  0.6020 -0.5514
  880MPD2    N112914   4.392   2.604   0.245  0.1038  0.2010  0.1166
  880MPD2    H712915   4.416   2.657   0.162 -2.7196 -0.0426 -0.8821
  881MPD2     C12916   4.110   3.433  17.455 -0.1835  0.2479 -0.7058
  881MPD2    C112917   4.137   3.300  17.427  0.4204 -0.0058 -0.2187
  881MPD2    C212918   4.204   3.224  17.516  0.2539 -0.2902  0.3952
  881MPD2    C312919   4.216   3.270  17.644 -0.5841 -0.1253 -0.0300
  881MPD2    C412920   4.154   3.391  17.678 -0.3576  0.3358  0.7897
  881MPD2    C512921   4.111   3.476  17.582  0.4095 -0.1489  0.4943
  881MPD2     H12922   4.248   3.130  17.486  1.6379  1.2142 -2.2579
  881MPD2    H112923   4.148   3.424   0.092 -0.7933 -0.3418  0.9830
  881MPD2    H212924   4.060   3.482  17.373 -0.3833  1.4257  0.1191
  881MPD2    H312925   4.082   3.577  17.612  2.3084  1.0523 -1.7015
  881MPD2     N12926   4.253   3.184   0.062  0.0581 -0.1500 -0.3749
  881MPD2    H512927   4.250   3.226   0.155 -1.0446  0.6045 -0.7507
  881MPD2    N112928   4.130   3.273  17.293 -0.7584 -0.4064  0.0428
  881MPD2    H712929   4.094   3.347  17.234 -0.5473 -0.5384 -0.2511
  882MPD2     C12930   2.053   4.697  13.652 -0.0595 -0.0433  0.4342
  882MPD2    C112931   1.964   0.024  13.741  0.5665  0.0295 -0.0877
  882MPD2    C212932   1.873   0.120  13.707 -0.4112  0.1429  0.0560
  882MPD2    C312933   1.859   0.159  13.573 -0.0682  0.7478  0.0855
  882MPD2    C412934   1.934   0.095  13.479 -1.0371 -0.9629  0.4534
  882MPD2    C512935   2.025   0.002  13.521  0.1659 -0.3644  0.1317
  882MPD2     H12936   1.809   0.157  13.787  0.5014  2.1359 -0.1167
  882MPD2    H112937   1.930   0.122  13.375 -2.3470 -0.4434  0.6348
  882MPD2    H212938   2.125   4.620  13.677  0.4411 -0.1233 -1.2695
  882MPD2    H312939   2.085   4.661  13.455  2.0711 -0.1650  1.6638
  882MPD2     N12940   1.755   0.249  13.538 -0.0480  0.0353 -0.4279
  882MPD2    H512941   1.717   0.249  13.444 -3.3294 -2.2467  0.8943
  882MPD2    N112942   1.977   4.700  13.871  0.1690  0.4310  0.0016
  882MPD2    H712943   2.043   4.624  13.888  0.6783  0.9174  0.2438
  883MPD2     C12944   0.520   0.136  16.748 -0.3401  0.4683 -0.5886
  883MPD2    C112945   0.605   0.136  16.639 -0.1974 -1.0080 -0.5158
  883MPD2    C212946   0.738   0.124  16.655  0.7085 -0.5317  0.0050
  883MPD2    C312947   0.790   0.117  16.785  0.0762  0.4027  0.2089
  883MPD2    C412948   0.704   0.122  16.896  0.2264 -0.3923  0.0867
  883MPD2    C512949   0.569   0.130  16.876 -0.0499 -0.0233  0.0137
  883MPD2     H12950   0.802   0.115  16.568  0.5827 -0.4143 -0.0989
  883MPD2    H112951   0.742   0.129  16.997 -1.8864 -1.0765  0.9313
  883MPD2    H212952   0.414   0.117  16.747 -0.1474 -0.6551 -0.0188
  883MPD2    H312953   0.502   0.126  16.961 -2.6556 -0.6890 -2.0458
  883MPD2     N12954   0.926   0.091  16.795  0.2625 -0.3006 -0.5030
  883MPD2    H512955   0.984   0.108  16.713  1.0023  2.3917  0.5978
  883MPD2    N112956   0.557   0.135  16.504  0.6814  0.6268 -0.0798
  883MPD2    H712957   0.619   0.111  16.428 -0.2494  2.3530 -1.3975
  884MPD2     C12958   1.583   0.924  14.896 -0.5024 -0.3760  0.0044
  884MPD2    C112959   1.549   0.983  14.775  0.1589 -0.0836  0.2741
  884MPD2    C212960   1.444   1.074  14.763 -0.2815 -0.8328 -0.2932
  884MPD2    C312961   1.368   1.104  14.870 -0.9325 -0.2825 -0.1318
  884MPD2    C412962   1.399   1.038  14.990  0.2720 -0.1022 -0.0830
  884MPD2    C512963   1.504   0.952  15.005 -0.6782 -0.0484 -0.3976
  884MPD2     H12964   1.417   1.114  14.666  1.7085 -0.6838 -0.7891
  884MPD2    H112965   1.339   1.053  15.079  1.8510  0.4416  0.8883
  884MPD2    H212966   1.664   0.852  14.900  1.6637  2.0705  0.2222
  884MPD2    H312967   1.508   0.894  15.096  1.1762 -1.5088 -1.4097
  884MPD2     N12968   1.253   1.187  14.869 -0.0347  0.5422 -0.0507
  884MPD2    H512969   1.186   1.189  14.945  3.2204  0.4789  2.8544
  884MPD2    N112970   1.629   0.969  14.656  0.1051  0.2630 -0.3849
  884MPD2    H712971   1.596   1.019  14.573 -1.9147  0.2086  0.3771
  885MPD2     C12972   4.673   1.398  17.517 -0.0279  0.3504 -0.0033
  885MPD2    C112973   4.698   1.280  17.447 -0.3543 -0.4326 -0.2172
  885MPD2    C212974   4.677   1.284  17.309  0.5779  0.1744 -0.3915
  885MPD2    C312975   4.638   1.401  17.242 -0.6859  0.1036 -0.1075
  885MPD2    C412976   4.628   1.516  17.313  0.8516  0.7773  0.3490
  885MPD2    C512977   4.641   1.510  17.447  0.1652  0.0843  0.5485
  885MPD2     H12978   4.683   1.196  17.246  0.7698 -0.9194  1.1645
  885MPD2    H112979   4.605   1.611  17.266 -0.5358  0.2394 -0.0786
  885MPD2    H212980   4.680   1.401  17.625  2.4094  1.8480 -0.1985
  885MPD2    H312981   4.628   1.603  17.500 -1.2788 -0.2006  0.6877
  885MPD2     N12982   4.623   1.383  17.104  0.1031  0.3341 -0.1312
  885MPD2    H512983   4.651   1.292  17.066  0.5466  0.3729  0.1075
  885MPD2    N112984   0.017   1.165  17.518 -0.3664  0.0914  0.0125
  885MPD2    H712985   0.015   1.176  17.619  2.0541  2.3914 -0.1842
  886MPD2     C12986   1.259   4.377  15.113  0.2453 -0.1039 -0.1403
  886MPD2    C112987   1.383   4.407  15.067 -0.1452  0.0084 -0.8258
  886MPD2    C212988   1.399   4.526  15.008 -1.2064  0.1877  0.7463
  886MPD2    C312989   1.306   4.626  14.994 -0.6330  0.1000  0.4971
  886MPD2    C412990   1.175   4.593  15.044 -0.2229  0.4023  0.1640
  886MPD2    C512991   1.159   4.477  15.110  0.5691 -0.3083 -0.2823
  886MPD2     H12992   1.500   4.556  14.981 -1.6823  0.8718 -0.2378
  886MPD2    H112993   1.094   4.663  15.058 -0.9150 -0.1065 -1.3236
  886MPD2    H212994   1.235   4.291  15.175 -1.2365  0.0075 -0.5448
  886MPD2    H312995   1.067   4.452  15.161 -0.0298 -1.5818 -1.9781
  886MPD2     N12996   1.347   0.032  14.950  0.2552 -0.2739  0.0291
  886MPD2    H512997   1.444   0.032  14.920  0.8432  2.0185  1.9014
  886MPD2    N112998   1.490   4.320  15.091 -0.4000  0.6806 -0.8199
  886MPD2    H712999   1.584   4.348  15.064 -0.1430  0.7544  0.1612
  887MPD2     C13000   2.194   4.417  15.258 -0.2535  0.3813 -0.3701
  887MPD2    C113001   2.069   4.442  15.202 -0.8162 -0.3899  0.3741
  887MPD2    C213002   2.038   4.575  15.168 -0.4005  0.5375  0.3331
  887MPD2    C313003   2.127   4.676  15.188  0.1896  0.0552 -0.1274
  887MPD2    C413004   2.254   4.651  15.236 -0.4459  0.9454  0.3125
  887MPD2    C513005   2.287   4.517  15.267 -0.3625 -0.2110 -0.5732
  887MPD2     H13006   1.936   4.591  15.136  0.4206  2.2836 -1.4010
  887MPD2    H113007   2.327   0.007  15.256  1.4411 -0.1694 -2.3319
  887MPD2    H213008   2.227   4.323  15.300 -3.4847  1.2355  4.1239
  887MPD2    H313009   2.388   4.500  15.304 -0.6133  0.6328  0.5044
  887MPD2     N13010   2.072   0.089  15.165  0.5778 -0.1583  0.2005
  887MPD2    H513011   1.972   0.098  15.150  0.7738 -0.7812 -1.4938
  887MPD2    N113012   1.967   4.344  15.182  0.5879  0.2475  0.1324
  887MPD2    H713013   1.883   4.382  15.139  0.8874 -0.8771 -1.4594
  888MPD2     C13014   3.525   4.571  14.325 -0.1474  0.5320 -0.2558
  888MPD2    C113015   3.582   4.590  14.449  0.7350 -0.4618 -0.4770
  888MPD2    C213016   3.654   4.714  14.470  0.4303  0.1088 -0.5522
  888MPD2    C313017   3.680   0.081  14.372  0.1809  0.2545  0.1995
  888MPD2    C413018   3.638   0.052  14.245 -0.5960  0.3563  0.5085
  888MPD2    C513019   3.557   4.659  14.224  0.2341 -1.0711  0.2064
  888MPD2     H13020   3.705   0.009  14.564 -1.4839  0.7521  0.3674
  888MPD2    H113021   3.662   0.111  14.157  1.8929 -1.7815 -0.2494
  888MPD2    H213022   3.478   4.478  14.294  0.4603 -0.1161  0.7398
  888MPD2    H313023   3.527   4.635  14.123  0.6598 -1.3322  0.1415
  888MPD2     N13024   3.740   0.200  14.414 -0.0172  0.1215 -0.0680
  888MPD2    H513025   3.776   0.201  14.509 -0.5954 -1.6092  0.1654
  888MPD2    N113026   3.576   4.506  14.555  0.3384 -0.1879 -0.4316
  888MPD2    H713027   3.638   4.534  14.630  1.1627 -2.4152 -0.2642
  889MPD2     C13028   3.326   4.393  12.365  0.0528  0.0344 -0.2527
  889MPD2    C113029   3.329   4.382  12.502 -0.7373 -0.4693 -0.1240
  889MPD2    C213030   3.409   4.469  12.576  0.1458  0.2329 -0.1240
  889MPD2    C313031   3.451   4.585  12.518  0.1432  1.0129  0.2247
  889MPD2    C413032   3.408   4.614  12.391 -0.0821  0.0632  0.1477
  889MPD2    C513033   3.348   4.516  12.319 -0.2546  0.4092  0.4589
  889MPD2     H13034   3.428   4.451  12.681 -2.4384 -1.3043  0.0747
  889MPD2    H113035   3.423   4.704  12.333 -0.6924  1.9520  2.9097
  889MPD2    H213036   3.280   4.313  12.308 -2.9491  1.4608  0.1491
  889MPD2    H313037   3.312   4.540  12.219  1.1645 -0.6825 -0.3145
  889MPD2     N13038   3.520   4.674  12.604  0.9005 -0.1803  0.8582
  889MPD2    H513039   3.534   4.638  12.698 -1.2710  0.0835  1.2761
  889MPD2    N113040   3.300   4.252  12.554 -0.4448 -0.0605  0.1665
  889MPD2    H713041   3.331   4.237  12.649  1.9030  0.4333 -0.5195
  890MPD2     C13042   2.548   1.058  14.180  0.2288 -0.6919 -0.0163
  890MPD2    C113043   2.649   1.140  14.215  0.4288  0.2115 -0.4022
  890MPD2    C213044   2.725   1.103  14.333  0.7482  0.0580 -0.2006
  890MPD2    C313045   2.716   0.979  14.398  0.0864 -0.2631  0.1125
  890MPD2    C413046   2.615   0.900  14.357  0.0185 -0.5091  0.7043
  890MPD2    C513047   2.530   0.940  14.251  0.4619  0.5576  0.5161
  890MPD2     H13048   2.812   1.159  14.365 -0.5595 -0.0652  3.6696
  890MPD2    H113049   2.568   0.819  14.412  1.1634 -1.1876  0.6660
  890MPD2    H213050   2.472   1.074  14.105  0.8603  0.4342 -0.4079
  890MPD2    H313051   2.433   0.898  14.227 -0.2868  1.5533  1.7765
  890MPD2     N13052   2.788   0.954  14.516 -0.0174  0.0895 -0.6074
  890MPD2    H513053   2.867   1.015  14.538  0.4689 -0.3364 -1.1556
  890MPD2    N113054   2.670   1.257  14.137  0.5170  0.3820 -0.2445
  890MPD2    H713055   2.597   1.284  14.071 -1.1453 -2.6380  0.3315
  891MPD2     C13056   0.553   3.598  16.379 -0.2373 -0.6211  0.0106
  891MPD2    C113057   0.561   3.735  16.405 -0.5656 -0.3006  0.2256
  891MPD2    C213058   0.672   3.782  16.473 -0.6860 -0.1522 -0.2620
  891MPD2    C313059   0.765   3.685  16.524 -0.0472  0.2779  0.2924
  891MPD2    C413060   0.738   3.549  16.515  0.4521  0.2481 -0.3104
  891MPD2    C513061   0.638   3.506  16.430 -0.1118 -0.5823  0.0998
  891MPD2     H13062   0.695   3.888  16.482 -0.6693 -0.2290  0.5509
  891MPD2    H113063   0.806   3.471  16.546 -1.5826 -1.6134 -0.5003
  891MPD2    H213064   0.476   3.556  16.316 -1.5275 -0.5399  1.5486
  891MPD2    H313065   0.626   3.401  16.409 -1.0465 -0.8772  2.1221
  891MPD2     N13066   0.880   3.737  16.586 -0.0349  0.0479 -0.3809
  891MPD2    H513067   0.878   3.834  16.615 -2.1059 -0.0327 -0.2896
  891MPD2    N113068   0.462   3.821  16.346 -0.0715  0.4525 -0.3938
  891MPD2    H713069   0.390   3.786  16.285 -1.2506  1.7353  0.2581
  892MPD2     C13070   1.615   0.481  14.339  0.2735  0.1422  0.3362
  892MPD2    C113071   1.507   0.550  14.292 -0.4355 -0.5988 -0.6473
  892MPD2    C213072   1.457   0.527  14.165  0.4042 -0.0893  0.2414
  892MPD2    C313073   1.523   0.437  14.087 -0.2645 -0.0207 -0.5790
  892MPD2    C413074   1.624   0.362  14.136 -0.2882  0.1908  0.2950
  892MPD2    C513075   1.671   0.387  14.261 -0.0001 -0.0611 -0.1404
  892MPD2     H13076   1.372   0.587  14.134  0.7003 -0.2373 -0.8351
  892MPD2    H113077   1.671   0.294  14.066 -0.8443  1.9214 -1.7841
  892MPD2    H213078   1.656   0.499  14.437 -1.7471 -1.0759  1.4168
  892MPD2    H313079   1.762   0.339  14.294 -0.2557 -1.2861 -1.2104
  892MPD2     N13080   1.481   0.418  13.956  0.2300  0.2293 -1.0033
  892MPD2    H513081   1.526   0.347  13.900  0.5482 -1.3443  1.2891
  892MPD2    N113082   1.443   0.647  14.364  0.1363  0.1034  0.1683
  892MPD2    H713083   1.370   0.702  14.320  0.2175 -0.8361 -1.1142
  893MPD2     C13084   3.431   2.957   1.456  0.3675 -0.5682 -0.4521
  893MPD2    C113085   3.544   2.991   1.526 -0.6792  0.4713  0.2766
  893MPD2    C213086   3.594   2.897   1.624 -0.4802 -0.0217  0.0770
  893MPD2    C313087   3.540   2.768   1.636  0.5523  0.0158  0.9693
  893MPD2    C413088   3.429   2.749   1.566 -0.0819 -0.2009 -0.3788
  893MPD2    C513089   3.367   2.839   1.486  0.5988  0.1902 -0.4622
  893MPD2     H13090   3.682   2.920   1.683  1.9081 -2.0151 -2.6696
  893MPD2    H113091   3.388   2.649   1.573 -0.2017 -0.2622 -1.8958
  893MPD2    H213092   3.389   3.031   1.388  0.0539 -1.2493 -1.0078
  893MPD2    H313093   3.279   2.813   1.428  0.2749 -2.2908  1.1659
  893MPD2     N13094   3.609   2.671   1.714  0.2947  0.6267 -0.4830
  893MPD2    H513095   3.571   2.578   1.703 -1.1612  1.0929  0.6534
  893MPD2    N113096   3.613   3.110   1.493  0.0196 -0.1299 -0.5437
  893MPD2    H713097   3.597   3.147   1.400 -1.0019 -1.9667 -1.0864
  894MPD2     C13098   1.172   1.178   0.644  0.4793  0.5062 -0.3101
  894MPD2    C113099   1.258   1.158   0.748  0.0182 -0.5739  0.6423
  894MPD2    C213100   1.384   1.216   0.742  0.0437  0.0816 -0.2594
  894MPD2    C313101   1.426   1.312   0.648  0.0210  0.4112 -0.4745
  894MPD2    C413102   1.334   1.333   0.547  0.0932 -0.7514 -0.4981
  894MPD2    C513103   1.216   1.263   0.538 -0.1029 -0.4990 -1.2484
  894MPD2     H13104   1.444   1.196   0.830 -0.7267 -0.2286  0.2020
  894MPD2    H113105   1.361   1.401   0.466  1.9109  2.0426  2.4786
  894MPD2    H213106   1.082   1.120   0.623 -0.0275  2.6008 -3.8985
  894MPD2    H313107   1.161   1.283   0.447  1.6553 -0.5527 -2.3257
  894MPD2     N13108   1.557   1.362   0.670  0.8923  0.0043  0.1585
  894MPD2    H513109   1.614   1.310   0.735  1.3815  2.2929  1.5615
  894MPD2    N113110   1.236   1.070   0.857 -0.5325 -0.0594 -0.1305
  894MPD2    H713111   1.314   1.039   0.915 -0.6664  0.3039  0.2484
  895MPD2     C13112   0.815   4.441  12.964 -0.8479 -0.2467 -0.2598
  895MPD2    C113113   0.887   4.432  12.856 -0.2213  0.0752 -0.4977
  895MPD2    C213114   1.010   4.348  12.850 -0.2014  1.0844  0.3256
  895MPD2    C313115   1.057   4.297  12.966  0.5643 -0.3620  0.2418
  895MPD2    C413116   0.985   4.316  13.080  0.8470  0.5459 -0.5262
  895MPD2    C513117   0.873   4.393  13.079  0.1010  0.1565 -0.7716
  895MPD2     H13118   1.066   4.326  12.760 -0.2694 -0.5937  0.6974
  895MPD2    H113119   1.029   4.291  13.176 -0.2241  0.0422 -0.1692
  895MPD2    H213120   0.723   4.498  12.967 -1.8627 -1.8838 -0.0366
  895MPD2    H313121   0.811   4.409  13.166  2.3011 -1.0297  1.0255
  895MPD2     N13122   1.169   4.214  12.976  0.2062 -0.2087  0.0815
  895MPD2    H513123   1.176   4.152  13.056 -2.2305  1.1475  1.3586
  895MPD2    N113124   0.858   4.500  12.732  0.0156  0.0186 -0.0891
  895MPD2    H713125   0.914   4.466  12.655  0.7774  2.2041 -0.4862
  896MPD2     C13126   3.207   1.824   1.023  0.5934  0.2566  0.1575
  896MPD2    C113127   3.227   1.836   0.887 -0.2789  0.7945  0.3805
  896MPD2    C213128   3.147   1.775   0.805  0.1587 -0.4880  0.3842
  896MPD2    C313129   3.044   1.691   0.848 -0.0295  0.2704  0.0521
  896MPD2    C413130   3.030   1.666   0.981  0.0838 -0.3039  0.2817
  896MPD2    C513131   3.110   1.741   1.066 -0.3322  0.4947  0.5536
  896MPD2     H13132   3.166   1.780   0.698 -1.4642 -2.1693  0.0216
  896MPD2    H113133   2.959   1.595   1.021 -1.4026 -0.5594 -2.7513
  896MPD2    H213134   3.273   1.866   1.098  0.3327  1.1344 -0.0957
  896MPD2    H313135   3.093   1.740   1.173 -1.2567  0.9726  0.4161
  896MPD2     N13136   2.975   1.633   0.742  0.0085 -0.8749  0.2270
  896MPD2    H513137   3.010   1.640   0.647 -1.4142  1.1140 -0.1368
  896MPD2    N113138   3.346   1.900   0.850 -0.6679  0.1206 -0.7641
  896MPD2    H713139   3.396   1.934   0.932 -1.3676 -1.2379  0.2319
  897MPD2     C13140   3.947   3.949   9.408  0.9131  1.1772 -0.8495
  897MPD2    C113141   3.937   4.055   9.498  0.5405 -0.1745 -0.0273
  897MPD2    C213142   3.959   4.031   9.629  0.2590  0.2239 -0.5657
  897MPD2    C313143   3.992   3.906   9.679 -0.3308 -0.6615  0.0479
  897MPD2    C413144   4.016   3.812   9.587  0.1806  0.7875  0.2767
  897MPD2    C513145   3.982   3.826   9.455 -0.1477  0.7859 -0.2839
  897MPD2     H13146   3.923   4.108   9.697 -2.7139 -1.5737 -0.1197
  897MPD2    H113147   4.044   3.710   9.613  0.2926 -0.0891 -3.1564
  897MPD2    H213148   3.929   3.956   9.301  0.6397  1.1809 -0.8033
  897MPD2    H313149   3.976   3.738   9.392 -0.0746 -1.7097  3.1862
  897MPD2     N13150   4.023   3.885   9.821 -0.5369 -0.0533  0.1229
  897MPD2    H513151   4.007   3.967   9.878  1.2621  0.4138 -0.0367
  897MPD2    N113152   3.892   4.182   9.451  0.4758 -0.3936 -0.3304
  897MPD2    H713153   3.859   4.179   9.355 -0.0610  1.7128 -0.2109
  898MPD2     C13154   1.604   4.472  17.042 -0.0179  0.0335 -0.6323
  898MPD2    C113155   1.636   4.539  17.156 -0.1502 -0.1159 -0.1608
  898MPD2    C213156   1.670   4.674  17.150 -0.0917 -0.0164  0.5352
  898MPD2    C313157   1.661   0.020  17.030  0.6739 -0.1459  0.0966
  898MPD2    C413158   1.612   4.680  16.914  0.4510  0.4156 -0.3071
  898MPD2    C513159   1.593   4.543  16.923 -0.0427 -0.2188  0.0606
  898MPD2     H13160   1.714   4.714  17.241 -0.0875 -0.3892  0.6951
  898MPD2    H113161   1.599   0.005  16.817 -1.2436 -1.5593 -1.0223
  898MPD2    H213162   1.581   4.366  17.037  0.3192 -0.0686  0.0632
  898MPD2    H313163   1.566   4.487  16.834 -0.6551 -2.8413  1.8811
  898MPD2     N13164   1.713   0.150  17.018 -0.1626  0.3168 -0.4627
  898MPD2    H513165   1.730   0.200  17.104  0.4460 -0.1849 -0.2907
  898MPD2    N113166   1.647   4.474  17.280  0.1012  0.2752  0.0422
  898MPD2    H713167   1.708   4.514  17.349 -0.5345 -0.1377  0.8444
  899MPD2     C13168   2.559   0.549  16.980  0.5243  0.2987 -0.0220
  899MPD2    C113169   2.440   0.624  16.976  0.0251  0.1225  0.2161
  899MPD2    C213170   2.344   0.598  17.075 -0.4634 -0.0011 -1.0062
  899MPD2    C313171   2.365   0.506  17.176 -0.0643  0.2686  0.2116
  899MPD2    C413172   2.487   0.433  17.174 -0.7436 -0.0114 -0.6577
  899MPD2    C513173   2.581   0.452  17.075  0.1360 -0.5681  0.1649
  899MPD2     H13174   2.248   0.649  17.070  0.4826  1.7946 -1.1703
  899MPD2    H113175   2.514   0.356  17.246  1.5010 -0.1817 -1.6823
  899MPD2    H213176   2.639   0.567  16.909  0.7108  3.0715  0.9042
  899MPD2    H313177   2.673   0.395  17.081  1.2343  1.2458  0.6418
  899MPD2     N13178   2.276   0.492  17.284  0.2498 -0.7578  0.7151
  899MPD2    H513179   2.310   0.436  17.362 -1.3977  0.7329  2.5191
  899MPD2    N113180   2.423   0.725  16.881  0.1033  0.4299  0.0688
  899MPD2    H713181   2.505   0.740  16.823  0.0893  0.9067  0.1725
  900MPD2     C13182   1.855   2.250  12.216 -0.8247  0.5449  0.0478
  900MPD2    C113183   1.789   2.188  12.106 -0.1464 -0.3268 -0.6007
  900MPD2    C213184   1.707   2.272  12.026 -0.1153  0.1870  0.2652
  900MPD2    C313185   1.675   2.397  12.068 -0.6276  0.4669 -0.1543
  900MPD2    C413186   1.738   2.455  12.186 -0.1003 -0.1376  0.0055
  900MPD2    C513187   1.823   2.379  12.261 -0.1570  0.2870  0.2097
  900MPD2     H13188   1.681   2.229  11.930  1.3995 -1.3349  0.5273
  900MPD2    H113189   1.709   2.551  12.228 -0.1847 -0.1123 -0.1115
  900MPD2    H213190   1.915   2.193  12.286 -0.0001  1.3719  0.0137
  900MPD2    H313191   1.865   2.419  12.352  1.0084 -0.9477  0.1999
  900MPD2     N13192   1.570   2.456  11.992  0.3715  0.2753 -0.1219
  900MPD2    H513193   1.545   2.406  11.907  2.1521  1.9494 -1.6409
  900MPD2    N113194   1.824   2.053  12.086 -0.6094  0.2731 -0.0720
  900MPD2    H713195   1.894   2.009  12.145 -0.7839 -1.1605 -0.9369
  901MPD2     C13196   1.389   1.047  12.143 -0.5627 -0.1171 -0.1986
  901MPD2    C113197   1.526   1.044  12.172 -1.2524  0.1905 -0.1117
  901MPD2    C213198   1.602   1.159  12.178 -1.5656  0.2064 -0.4870
  901MPD2    C313199   1.551   1.281  12.145 -0.0117  0.0542  0.2489
  901MPD2    C413200   1.416   1.284  12.106 -0.2127  0.6322 -0.1805
  901MPD2    C513201   1.339   1.171  12.107  0.3151 -0.3995  0.4103
  901MPD2     H13202   1.703   1.147  12.216 -1.1961  0.6977 -1.3191
  901MPD2    H113203   1.366   1.376  12.080  0.7938  1.6712  1.5176
  901MPD2    H213204   1.335   0.954  12.128 -0.4009 -0.2027 -0.2571
  901MPD2    H313205   1.233   1.177  12.085  0.2983  0.0222  0.6074
  901MPD2     N13206   1.638   1.388  12.131  0.2198 -0.5415  0.2798
  901MPD2    H513207   1.732   1.361  12.157  0.2259 -3.0584 -2.4491
  901MPD2    N113208   1.593   0.917  12.182  0.2645 -0.5959 -0.8016
  901MPD2    H713209   1.535   0.834  12.179  0.8242 -1.0462  0.7736
  902MPD2     C13210   0.831   0.547  12.320 -0.6648  0.8322  0.1158
  902MPD2    C113211   0.701   0.578  12.294 -0.2667  0.1632  0.7782
  902MPD2    C213212   0.617   0.490  12.231  0.2244  0.5226 -0.1209
  902MPD2    C313213   0.674   0.381  12.180  0.1182  0.9718  0.0548
  902MPD2    C413214   0.805   0.344  12.206 -0.3211 -0.0954  0.0317
  902MPD2    C513215   0.882   0.433  12.275 -0.2412  0.0212 -0.2328
  902MPD2     H13216   0.515   0.516  12.204  0.5336  1.1830 -0.6635
  902MPD2    H113217   0.851   0.257  12.160 -3.0092 -2.6477  2.1215
  902MPD2    H213218   0.888   0.623  12.370  0.3134  0.2695 -0.1545
  902MPD2    H313219   0.987   0.417  12.295 -0.1235  0.1732 -0.7211
  902MPD2     N13220   0.602   0.289  12.091 -0.2609 -0.0249  0.3432
  902MPD2    H513221   0.660   0.208  12.069 -0.8762 -1.2298  3.1769
  902MPD2    N113222   0.652   0.706  12.326 -0.4813  0.1342  0.2500
  902MPD2    H713223   0.714   0.786  12.338 -0.5309  0.1719  0.2529
  903MPD2     C13224   0.087   0.493  11.511 -0.3313 -0.0118 -0.0302
  903MPD2    C113225   0.103   0.355  11.525  0.1647 -0.4084 -0.9141
  903MPD2    C213226   0.058   0.281  11.416  0.4687 -0.0089 -0.3714
  903MPD2    C313227   4.695   0.336  11.321  0.3736  0.4764  0.0604
  903MPD2    C413228   4.665   0.470  11.325 -0.5469 -0.3495 -0.3311
  903MPD2    C513229   0.006   0.550  11.414  0.6349 -0.6972 -0.1828
  903MPD2     H13230   0.083   0.176  11.400 -1.3548 -0.4132 -0.5723
  903MPD2    H113231   4.610   0.525  11.249 -0.8082 -0.3057 -0.1114
  903MPD2    H213232   0.138   0.560  11.579 -0.3268 -0.7321  0.6796
  903MPD2    H313233   4.706   0.656  11.414  1.2395 -0.5714 -0.0827
  903MPD2     N13234   4.655   0.249  11.221  0.4860  0.0910  0.3641
  903MPD2    H513235   4.693   0.155  11.222 -0.2721 -0.2404 -2.5624
  903MPD2    N113236   0.186   0.301  11.624  0.1808 -0.0166  0.0072
  903MPD2    H713237   0.223   0.366  11.693  1.3494  0.6888 -1.2841
  904MPD2     C13238   0.808   4.098  13.642 -0.9251 -0.0685 -0.5783
  904MPD2    C113239   0.858   4.147  13.529  0.3418 -0.3836 -0.1313
  904MPD2    C213240   0.962   4.238  13.531  0.0512  0.5511 -0.1529
  904MPD2    C313241   1.025   4.279  13.650  0.0878 -0.2140 -0.1735
  904MPD2    C413242   0.970   4.226  13.763 -0.2404 -0.3110  0.4200
  904MPD2    C513243   0.868   4.139  13.762 -0.4283  0.2965  0.5230
  904MPD2     H13244   1.015   4.266  13.441 -1.1360  0.3284 -0.9279
  904MPD2    H113245   1.004   4.264  13.859 -1.8525 -1.6007  1.5071
  904MPD2    H213246   0.722   4.033  13.653  0.4889 -1.6223  1.5248
  904MPD2    H313247   0.816   4.122  13.856 -1.2298  1.8779  0.3550
  904MPD2     N13248   1.140   4.367  13.643  0.3120  0.0548 -0.1170
  904MPD2    H513249   1.157   4.407  13.552 -0.0701 -1.0974 -0.6913
  904MPD2    N113250   0.797   4.119  13.405 -0.7317  0.5519  0.3319
  904MPD2    H713251   0.833   4.159  13.318  0.8306  0.8938  1.1404
  905MPD2     C13252   0.773   4.165  12.558  0.0345 -0.4113 -0.3289
  905MPD2    C113253   0.820   4.107  12.673  0.0935  0.6770  0.2619
  905MPD2    C213254   0.941   4.042  12.676  0.6056 -0.4686 -0.1641
  905MPD2    C313255   1.022   4.048  12.564 -0.2186 -0.2243  0.8133
  905MPD2    C413256   0.986   4.124  12.455 -0.1648  0.0706  0.5923
  905MPD2    C513257   0.859   4.180  12.448 -0.4036 -0.1163  0.8389
  905MPD2     H13258   0.981   3.991  12.762  0.7832 -0.5491 -0.2955
  905MPD2    H113259   1.051   4.133  12.369 -1.0480  2.6890  0.1900
  905MPD2    H213260   0.676   4.212  12.551  1.8654  3.5246  0.7661
  905MPD2    H313261   0.826   4.218  12.352  0.7796  0.4415  0.6516
  905MPD2     N13262   1.156   3.990  12.576 -0.0895 -0.4980 -0.7403
  905MPD2    H513263   1.229   4.021  12.512  0.2003 -0.6410 -0.4803
  905MPD2    N113264   0.737   4.119  12.784  0.4469 -0.0702 -0.4597
  905MPD2    H713265   0.660   4.184  12.770 -0.1492 -0.3364  1.5580
  906MPD2     C13266   2.994   3.765  11.072  0.6993  0.3728 -0.4969
  906MPD2    C113267   2.952   3.727  10.952 -0.6159 -0.3722  0.0026
  906MPD2    C213268   2.850   3.635  10.951 -0.7452  0.5405  0.3315
  906MPD2    C313269   2.797   3.566  11.056 -0.5626 -0.4543  0.7076
  906MPD2    C413270   2.851   3.607  11.181 -0.1023  0.0678 -0.4461
  906MPD2    C513271   2.948   3.701  11.184  1.0458 -0.2883 -0.0035
  906MPD2     H13272   2.799   3.592  10.866 -0.0522  1.7522 -0.7057
  906MPD2    H113273   2.812   3.559  11.270  0.1437 -0.7605 -0.7846
  906MPD2    H213274   3.083   3.825  11.088  0.0199  0.6213  2.2996
  906MPD2    H313275   2.991   3.730  11.279 -1.6747  0.6541  0.9616
  906MPD2     N13276   2.698   3.466  11.039 -0.3961 -0.4810 -0.3903
  906MPD2    H513277   2.668   3.448  10.944 -1.0806  0.1901 -0.3094
  906MPD2    N113278   2.997   3.777  10.826  0.2533  0.3832 -0.6516
  906MPD2    H713279   2.954   3.733  10.745 -1.8886  0.7066  0.2911
  907MPD2     C13280   2.191   2.805  14.909 -0.0706  0.1638 -0.0568
  907MPD2    C113281   2.077   2.738  14.957  0.0610  0.1996  0.3659
  907MPD2    C213282   2.098   2.624  15.037 -0.9774 -0.2017  0.7523
  907MPD2    C313283   2.224   2.577  15.072 -0.7531  0.4495  0.0970
  907MPD2    C413284   2.336   2.653  15.023 -0.2607 -0.7480 -0.1654
  907MPD2    C513285   2.316   2.771  14.952  0.6485  0.1637 -0.2873
  907MPD2     H13286   2.014   2.565  15.073 -1.7175 -0.8654 -2.0987
  907MPD2    H113287   2.437   2.622  15.050 -0.0957 -0.7957 -0.8342
  907MPD2    H213288   2.181   2.898  14.856 -0.8914 -0.6263 -1.2825
  907MPD2    H313289   2.408   2.822  14.924  1.9442 -2.4869 -0.8970
  907MPD2     N13290   2.228   2.453  15.126  0.1908  0.6203  0.1357
  907MPD2    H513291   2.141   2.423  15.169  0.3335  0.2360  0.1528
  907MPD2    N113292   1.945   2.769  14.924 -0.7341 -0.0408  0.1419
  907MPD2    H713293   1.871   2.722  14.974  2.1760 -3.1129  1.5371
  908MPD2     C13294   3.682   4.165   8.689  0.3047 -0.1888  0.1562
  908MPD2    C113295   3.796   4.129   8.759 -0.5670  0.3860  0.3041
  908MPD2    C213296   3.832   4.208   8.862  0.7604  0.0306 -0.5309
  908MPD2    C313297   3.754   4.313   8.911 -0.2711 -0.1499 -0.2185
  908MPD2    C413298   3.641   4.343   8.837 -0.6988 -0.1724  0.1189
  908MPD2    C513299   3.603   4.267   8.729  0.2132 -0.2021  1.0689
  908MPD2     H13300   3.920   4.183   8.921  1.0185 -1.0756 -1.3839
  908MPD2    H113301   3.587   4.435   8.857 -0.3449  0.1530 -0.3856
  908MPD2    H213302   3.637   4.092   8.622  0.4293  1.8867 -2.1587
  908MPD2    H313303   3.516   4.285   8.666  0.6463 -0.2150  0.4656
  908MPD2     N13304   3.788   4.374   9.034 -0.2025 -0.4328 -0.4249
  908MPD2    H513305   3.845   4.315   9.093 -2.2829 -0.9360  1.1052
  908MPD2    N113306   3.872   4.016   8.723 -0.0969  0.6553  0.1486
  908MPD2    H713307   3.961   4.011   8.772 -1.7543 -2.4171  2.8260
  909MPD2     C13308   0.027   1.550  11.269 -0.7775  0.0170 -0.3060
  909MPD2    C113309   0.040   1.682  11.241  0.5199 -0.0971 -0.0972
  909MPD2    C213310   4.708   1.778  11.320  0.1294 -0.7930 -0.1585
  909MPD2    C313311   4.621   1.745  11.420 -0.1339 -0.3126  0.6990
  909MPD2    C413312   4.600   1.614  11.446  0.2392  0.3656  0.3547
  909MPD2    C513313   4.673   1.520  11.374  0.2409  0.8399 -0.2652
  909MPD2     H13314   4.719   1.884  11.297 -1.4398 -1.0511 -2.0354
  909MPD2    H113315   4.537   1.596  11.532 -1.4792 -2.3255 -1.5185
  909MPD2    H213316   0.088   1.471  11.225 -0.5579 -0.8428  1.5556
  909MPD2    H313317   4.660   1.414  11.388 -0.3599  1.1421  1.4356
  909MPD2     N13318   4.558   1.853  11.485 -0.0055 -0.9944 -0.4599
  909MPD2    H513319   4.604   1.943  11.479  0.8483 -1.5204 -1.7664
  909MPD2    N113320   0.116   1.722  11.132  0.0632 -0.6138 -0.2829
  909MPD2    H713321   0.118   1.824  11.130 -2.5747 -0.5915 -1.7328
  910MPD2     C13322   0.584   3.507  15.393  0.3621 -0.0357 -0.0290
  910MPD2    C113323   0.668   3.487  15.284 -0.6508 -0.1630 -0.7598
  910MPD2    C213324   0.618   3.510  15.162  0.9822 -0.7204 -0.0860
  910MPD2    C313325   0.482   3.541  15.146 -0.1265 -0.2286  0.7632
  910MPD2    C413326   0.399   3.543  15.260 -0.4831 -0.5875  0.3653
  910MPD2    C513327   0.451   3.524  15.382  0.3746 -0.1172  0.8276
  910MPD2     H13328   0.687   3.507  15.078 -1.4809  2.2915 -2.1928
  910MPD2    H113329   0.298   3.580  15.252 -0.9129 -2.0269 -0.8113
  910MPD2    H213330   0.624   3.532  15.491 -0.6457  1.3023  0.0452
  910MPD2    H313331   0.389   3.535  15.470 -0.5122 -1.8161  0.4012
  910MPD2     N13332   0.411   3.588  15.030  0.8812 -0.4939 -0.2845
  910MPD2    H513333   0.317   3.621  15.049  1.1756  0.5547 -0.6111
  910MPD2    N113334   0.797   3.445  15.299 -0.4837  0.2829  0.5426
  910MPD2    H713335   0.854   3.427  15.217  1.7190  0.0788  2.1305
  911MPD2     C13336   3.475   3.966  16.060  0.2067  0.0930 -0.3203
  911MPD2    C113337   3.572   4.049  16.113  0.0900  0.1317  0.2443
  911MPD2    C213338   3.545   4.182  16.150  0.0435  0.7603  0.5197
  911MPD2    C313339   3.418   4.228  16.140 -0.9616  0.1378 -0.5420
  911MPD2    C413340   3.319   4.134  16.097 -0.1348 -0.0794 -0.6125
  911MPD2    C513341   3.346   4.009  16.063  0.3127 -0.7634 -0.3163
  911MPD2     H13342   3.623   4.246  16.189  0.7451  1.1716 -1.5360
  911MPD2    H113343   3.214   4.153  16.076 -0.1412 -1.0871 -1.5132
  911MPD2    H213344   3.509   3.871  16.020 -2.0201 -0.6885 -0.3332
  911MPD2    H313345   3.266   3.943  16.029 -0.9277  0.6952 -0.2291
  911MPD2     N13346   3.375   4.357  16.160  0.0486 -0.3584  0.0778
  911MPD2    H513347   3.275   4.365  16.153  0.0118 -1.7817 -1.1199
  911MPD2    N113348   3.704   3.990  16.130 -0.5653 -0.0320  0.1139
  911MPD2    H713349   3.697   3.893  16.104  2.0621 -0.1084 -0.2941
  912MPD2     C13350   3.034   4.357  15.677 -0.3806 -0.0640 -0.0210
  912MPD2    C113351   3.012   4.368  15.810  0.3880 -0.2117 -0.0698
  912MPD2    C213352   2.929   4.278  15.875  0.6710 -0.2615 -1.1389
  912MPD2    C313353   2.881   4.170  15.800  0.2290 -0.0965  0.9231
  912MPD2    C413354   2.918   4.152  15.668 -0.2925  0.3516  0.6658
  912MPD2    C513355   2.992   4.245  15.606  0.7176 -0.2962 -0.0626
  912MPD2     H13356   2.903   4.291  15.980 -1.3032 -2.9936 -1.2870
  912MPD2    H113357   2.899   4.061  15.613 -0.6554  1.7902 -1.5727
  912MPD2    H213358   3.106   4.423  15.629  1.0058  0.2952  2.5392
  912MPD2    H313359   3.012   4.231  15.500 -2.4921 -1.5295 -0.5061
  912MPD2     N13360   2.800   4.080  15.868  0.3382 -0.3663 -0.0416
  912MPD2    H513361   2.786   4.100  15.967  1.7013  0.1393  0.0496
  912MPD2    N113362   3.068   4.476  15.879  0.1840 -0.6555 -0.0571
  912MPD2    H713363   3.124   4.544  15.829  1.3475 -0.6690  1.2001
  913MPD2     C13364   3.674   0.392  10.283  0.8090 -0.2230  0.1035
  913MPD2    C113365   3.731   0.516  10.309 -0.5949  0.6990  0.1797
  913MPD2    C213366   3.746   0.607  10.211  0.8553  0.1742 -0.1116
  913MPD2    C313367   3.687   0.590  10.082  0.2506 -0.4062  0.7953
  913MPD2    C413368   3.628   0.462  10.061  0.2440 -0.1406  0.0871
  913MPD2    C513369   3.613   0.374  10.164  0.5422 -0.2685 -0.0847
  913MPD2     H13370   3.808   0.695  10.225  1.6978 -0.5315  0.5831
  913MPD2    H113371   3.586   0.435   9.964  0.8141 -1.3438  0.1739
  913MPD2    H213372   3.677   0.318  10.362  0.5693 -0.4157 -0.0665
  913MPD2    H313373   3.558   0.284  10.141  0.1959  0.3195 -1.5510
  913MPD2     N13374   3.684   0.689   9.981  0.3266 -0.2916 -0.6676
  913MPD2    H513375   3.626   0.668   9.901  0.4392 -2.3725 -0.2220
  913MPD2    N113376   3.783   0.533  10.435 -0.0186  0.4935  0.0753
  913MPD2    H713377   3.745   0.479  10.512  0.2492  2.2299  1.4407
  914MPD2     C13378   1.485   0.520  11.473 -0.3273  0.1730  0.2974
  914MPD2    C113379   1.491   0.650  11.529  0.1967  0.1372 -0.0421
  914MPD2    C213380   1.555   0.661  11.655  0.9497  0.5259  0.2898
  914MPD2    C313381   1.590   0.547  11.732 -0.6436  0.8859 -0.1617
  914MPD2    C413382   1.563   0.423  11.676  0.0933 -0.0556 -0.4290
  914MPD2    C513383   1.511   0.408  11.543 -0.0188 -0.2362 -0.0842
  914MPD2     H13384   1.576   0.759  11.697 -0.9636  0.1514  2.1220
  914MPD2    H113385   1.582   0.329  11.727 -0.0704  0.7864  1.2049
  914MPD2    H213386   1.443   0.504  11.375  1.9346  0.9487 -0.7875
  914MPD2    H313387   1.493   0.312  11.495 -1.0114  0.0209 -0.2224
  914MPD2     N13388   1.639   0.569  11.863  0.2483 -0.3178 -0.5771
  914MPD2    H513389   1.641   0.667  11.888 -0.1661 -0.7500  1.1517
  914MPD2    N113390   1.437   0.758  11.450  0.7765 -0.1920 -0.3895
  914MPD2    H713391   1.394   0.735  11.361  2.1264  0.0818 -1.1068
  915MPD2     C13392   0.387   0.770  15.153 -0.1965 -0.3831  0.8578
  915MPD2    C113393   0.297   0.877  15.144  0.2064  0.1586  0.1940
  915MPD2    C213394   0.245   0.937  15.260 -0.1943  0.0572  0.2793
  915MPD2    C313395   0.283   0.884  15.388  0.4591  0.7540  0.3126
  915MPD2    C413396   0.392   0.800  15.396  0.4289  0.6841 -0.3373
  915MPD2    C513397   0.441   0.740  15.281  0.3111 -0.3955 -0.3053
  915MPD2     H13398   0.177   1.022  15.265  1.6320  1.5180  0.2323
  915MPD2    H113399   0.441   0.770  15.488 -1.4633  0.5498  0.6231
  915MPD2    H213400   0.419   0.715  15.065  0.5006 -0.5659  1.2258
  915MPD2    H313401   0.519   0.665  15.290  1.1230  0.6956  1.6157
  915MPD2     N13402   0.222   0.934  15.508 -0.3053  0.5358  0.4212
  915MPD2    H513403   0.159   1.011  15.490  0.7158  0.9693 -1.3344
  915MPD2    N113404   0.261   0.916  15.013  0.2199 -0.0573 -0.3324
  915MPD2    H713405   0.306   0.871  14.934 -1.6996 -1.6398 -0.5088
  916MPD2     C13406   2.829   4.222  15.262 -0.1419  0.1122 -0.0850
  916MPD2    C113407   2.710   4.228  15.328 -0.0937  0.0570 -0.0140
  916MPD2    C213408   2.613   4.124  15.310  0.3333 -0.6550 -0.5068
  916MPD2    C313409   2.637   4.015  15.226 -0.3881  0.0160 -0.4725
  916MPD2    C413410   2.756   4.007  15.172 -0.4129  0.6803 -0.8882
  916MPD2    C513411   2.849   4.106  15.184  0.2852 -0.2784  0.5233
  916MPD2     H13412   2.513   4.131  15.352  0.7185  1.7311 -0.0229
  916MPD2    H113413   2.782   3.933  15.097  0.4287  1.7783 -1.6823
  916MPD2    H213414   2.903   4.299  15.280  0.1766 -0.1547 -0.2618
  916MPD2    H313415   2.951   4.091  15.153  0.3373 -2.6827  1.8679
  916MPD2     N13416   2.531   3.921  15.217  0.2739  0.6133 -0.3509
  916MPD2    H513417   2.446   3.933  15.270 -0.3176 -1.2482 -0.8576
  916MPD2    N113418   2.681   4.343  15.406 -0.2151  0.2784  0.4790
  916MPD2    H713419   2.742   4.423  15.396 -2.6220  1.9653 -0.5296
  917MPD2     C13420   2.915   1.318  10.665  0.3808  0.2331  0.3700
  917MPD2    C113421   2.970   1.374  10.778 -0.4112 -0.0610 -0.1876
  917MPD2    C213422   3.052   1.482  10.773  0.2155  0.3092  0.3910
  917MPD2    C313423   3.097   1.531  10.653 -0.0448 -0.3758  0.2246
  917MPD2    C413424   3.048   1.468  10.542 -0.0761  0.4740 -0.3894
  917MPD2    C513425   2.958   1.364  10.549 -0.1699  0.0485 -0.6117
  917MPD2     H13426   3.083   1.529  10.865 -0.1194 -0.1654  0.7515
  917MPD2    H113427   3.072   1.504  10.442 -1.0164  0.5345 -0.5910
  917MPD2    H213428   2.839   1.241  10.672  1.0911 -0.2483  2.8644
  917MPD2    H313429   2.917   1.337  10.452  0.8151 -1.1364 -0.6953
  917MPD2     N13430   3.166   1.654  10.637 -0.0471 -0.6538  0.2404
  917MPD2    H513431   3.179   1.691  10.544  1.4538 -0.0273  0.6846
  917MPD2    N113432   2.917   1.329  10.900  0.5762  0.3665 -0.3616
  917MPD2    H713433   2.841   1.263  10.887  2.7872 -1.9907 -1.1608
  918MPD2     C13434   2.911   1.604  11.899  0.0723 -0.1680 -0.1290
  918MPD2    C113435   3.020   1.559  11.821 -0.4953 -0.1009 -0.6936
  918MPD2    C213436   3.003   1.491  11.699 -0.3463  0.4141 -0.2251
  918MPD2    C313437   2.876   1.468  11.649 -0.0732 -0.2002 -0.1742
  918MPD2    C413438   2.768   1.512  11.724 -0.1231 -0.0650 -0.0096
  918MPD2    C513439   2.789   1.577  11.845 -0.1103 -0.4383 -0.1972
  918MPD2     H13440   3.087   1.452  11.642  1.2023  2.5185  0.5794
  918MPD2    H113441   2.664   1.510  11.693 -0.1041 -1.7856  0.0282
  918MPD2    H213442   2.942   1.668  11.981 -0.0975  0.3716 -0.4869
  918MPD2    H313443   2.694   1.610  11.885 -0.1520 -0.0334 -0.6273
  918MPD2     N13444   2.862   1.411  11.514  0.7405  0.6821  0.2611
  918MPD2    H513445   2.942   1.396  11.453  0.2692  0.1783 -0.2317
  918MPD2    N113446   3.159   1.572  11.854 -0.4264 -0.7971 -0.1772
  918MPD2    H713447   3.227   1.531  11.791  0.7603 -1.7779  1.7200
  919MPD2     C13448   3.388   0.345  11.495 -0.3648 -0.8560  0.2372
  919MPD2    C113449   3.325   0.264  11.393 -0.9202 -0.8164 -0.1236
  919MPD2    C213450   3.272   0.320  11.284 -0.1493  0.1911  0.2647
  919MPD2    C313451   3.292   0.455  11.249 -0.1512 -0.4036  0.2672
  919MPD2    C413452   3.359   0.529  11.348  0.2539  0.5615  0.2076
  919MPD2    C513453   3.393   0.479  11.467 -0.3863  0.3822  0.0009
  919MPD2     H13454   3.217   0.252  11.219 -0.6404 -0.3422  1.2483
  919MPD2    H113455   3.389   0.631  11.331 -0.6768  0.9212  0.7105
  919MPD2    H213456   3.433   0.303  11.584  0.1171  1.1552  0.9390
  919MPD2    H313457   3.439   0.538  11.546  1.7573 -3.0838  1.3897
  919MPD2     N13458   3.264   0.495  11.117  0.3044 -0.4324 -0.1973
  919MPD2    H513459   3.228   0.430  11.049 -0.8428 -3.2065  3.0372
  919MPD2    N113460   3.303   0.128  11.405  0.2471  0.0731 -0.6071
  919MPD2    H713461   3.248   0.081  11.335  0.9187 -0.1574 -0.9847
  920MPD2     C13462   3.362   0.871  10.122  0.6708  0.9340  0.0128
  920MPD2    C113463   3.226   0.848  10.136  0.5295  0.4386  0.2254
  920MPD2    C213464   3.181   0.807  10.258  0.3979 -0.6974 -0.7826
  920MPD2    C313465   3.278   0.781  10.361  0.0304 -0.0323  0.1649
  920MPD2    C413466   3.412   0.784  10.338 -0.2568  0.0910  0.4654
  920MPD2    C513467   3.453   0.821  10.215 -0.2205 -0.7545 -1.1279
  920MPD2     H13468   3.075   0.808  10.282  0.6389 -0.8934  0.3124
  920MPD2    H113469   3.480   0.747  10.414 -0.1189 -0.0442  0.2779
  920MPD2    H213470   3.409   0.908  10.033  1.2120 -1.7877 -0.8490
  920MPD2    H313471   3.555   0.847  10.189 -0.8668  0.7387 -2.1843
  920MPD2     N13472   3.220   0.758  10.487  0.6389  0.3753 -0.4957
  920MPD2    H513473   3.122   0.734  10.491  0.5592  0.7366 -0.2846
  920MPD2    N113474   3.138   0.853  10.026  0.4950  0.1228 -0.3265
  920MPD2    H713475   3.044   0.831  10.058  0.8029 -0.3013  0.2863
  921MPD2     C13476   4.544   4.222  16.630 -0.6273 -0.2296 -0.0338
  921MPD2    C113477   4.571   4.139  16.525  0.6394 -0.1411 -0.5706
  921MPD2    C213478   4.468   4.059  16.483 -0.7628  0.1493  0.0758
  921MPD2    C313479   4.339   4.073  16.528  0.8750 -0.4952 -0.2994
  921MPD2    C413480   4.317   4.164  16.630  0.3306  0.2163  0.4290
  921MPD2    C513481   4.420   4.236  16.681  0.9249  0.4148 -0.0508
  921MPD2     H13482   4.481   4.008  16.388 -1.5404 -1.2522  0.7234
  921MPD2    H113483   4.215   4.183  16.660  0.2345  2.4815 -1.3457
  921MPD2    H213484   4.626   4.279  16.672 -0.7155 -0.2891  0.2178
  921MPD2    H313485   4.411   4.308  16.761  1.9151 -0.1551  0.5712
  921MPD2     N13486   4.224   4.014  16.459  0.2281  0.2394  0.0951
  921MPD2    H513487   4.135   4.053  16.487 -0.4870 -0.4297 -1.2272
  921MPD2    N113488   4.705   4.132  16.476 -0.3424 -0.6970  0.2536
  921MPD2    H713489   0.059   4.167  16.533  0.6344 -1.5986 -0.4623
  922MPD2     C13490   0.892   1.975  16.459  0.1157  0.1418  0.1701
  922MPD2    C113491   0.882   2.074  16.553 -0.1440  0.0116  0.2243
  922MPD2    C213492   0.777   2.070  16.639  0.4078 -0.2664  0.7090
  922MPD2    C313493   0.689   1.964  16.636 -0.1592 -0.2308 -0.4793
  922MPD2    C413494   0.692   1.876  16.531 -0.2858 -0.4504 -0.1969
  922MPD2    C513495   0.788   1.881  16.442 -0.2878 -0.1274 -0.3785
  922MPD2     H13496   0.768   2.145  16.716  2.0652 -0.1392  0.7868
  922MPD2    H113497   0.619   1.796  16.518 -1.3969  0.8180 -1.7020
  922MPD2    H213498   0.974   1.979  16.389 -1.1565  0.1433 -1.3174
  922MPD2    H313499   0.785   1.818  16.354  0.3251 -1.8496  0.8449
  922MPD2     N13500   0.582   1.960  16.734  0.6028 -0.0661 -0.1745
  922MPD2    H513501   0.569   2.033  16.803 -3.5598 -0.3334 -0.6655
  922MPD2    N113502   0.971   2.177  16.568 -0.2870  0.4411 -0.2987
  922MPD2    H713503   0.963   2.240  16.648  1.3363  0.1161  0.1311
  923MPD2     C13504   1.843   4.243   8.805 -0.3481 -0.4953 -0.5076
  923MPD2    C113505   1.944   4.338   8.827 -0.2335 -0.5026 -0.1146
  923MPD2    C213506   2.080   4.307   8.817  0.2922  0.1239  0.0385
  923MPD2    C313507   2.121   4.176   8.787 -0.3859  0.1600  0.0572
  923MPD2    C413508   2.021   4.089   8.748 -0.5199 -0.5001 -0.3677
  923MPD2    C513509   1.889   4.125   8.745  0.3665 -0.0204 -0.1027
  923MPD2     H13510   2.158   4.380   8.838 -0.2179  0.1958  1.6571
  923MPD2    H113511   2.052   3.992   8.712  0.1648 -0.1032 -0.8441
  923MPD2    H213512   1.739   4.267   8.818 -0.1879 -1.1022  1.9080
  923MPD2    H313513   1.817   4.046   8.725 -0.2737  0.8119 -1.0768
  923MPD2     N13514   2.254   4.128   8.800 -0.7058 -0.2071  0.5803
  923MPD2    H513515   2.264   4.027   8.794 -0.4161 -0.0963 -0.7744
  923MPD2    N113516   1.892   4.466   8.869 -0.0685  0.7842  0.4509
  923MPD2    H713517   1.797   4.470   8.904  0.2712 -0.3800  1.4961
  924MPD2     C13518   1.686   1.815  15.140 -0.0006 -0.1601  0.3046
  924MPD2    C113519   1.718   1.897  15.249 -0.1060 -0.2773  0.7496
  924MPD2    C213520   1.844   1.930  15.279 -0.2037 -0.2496 -0.3592
  924MPD2    C313521   1.950   1.895  15.194 -0.6700 -0.0229 -0.2941
  924MPD2    C413522   1.923   1.803  15.093  0.3494 -0.0344 -0.4884
  924MPD2    C513523   1.789   1.768  15.060 -0.4509 -1.4712  0.1335
  924MPD2     H13524   1.862   1.998  15.361 -1.0424  0.5295 -0.8210
  924MPD2    H113525   1.992   1.765  15.019  1.2403 -0.0508  0.3570
  924MPD2    H213526   1.580   1.804  15.120  0.5030  0.6205 -2.9423
  924MPD2    H313527   1.768   1.704  14.974  0.6387  1.4487 -2.3179
  924MPD2     N13528   2.073   1.949  15.227  0.1113  0.3505  0.2106
  924MPD2    H513529   2.072   1.991  15.320 -0.5841 -2.0894  1.2839
  924MPD2    N113530   1.611   1.937  15.330 -0.1700 -0.7242  0.0989
  924MPD2    H713531   1.521   1.930  15.283  1.2552 -3.3878 -2.1770
  925MPD2     C13532   0.711   0.608  14.653 -0.1510 -0.0669  0.7677
  925MPD2    C113533   0.604   0.524  14.611 -0.8354 -0.6479  0.3079
  925MPD2    C213534   0.535   0.452  14.706  0.2669  0.5185  0.6926
  925MPD2    C313535   0.550   0.477  14.839 -0.6991  0.4617 -0.2082
  925MPD2    C413536   0.649   0.570  14.879  0.1757 -0.4038  0.2379
  925MPD2    C513537   0.731   0.634  14.787 -0.1482 -0.0510 -0.3061
  925MPD2     H13538   0.446   0.402  14.669  1.5564  0.5515 -2.4420
  925MPD2    H113539   0.678   0.593  14.981  0.8850  0.1656 -0.0865
  925MPD2    H213540   0.763   0.673  14.583 -3.3646  0.6382 -0.9564
  925MPD2    H313541   0.808   0.707  14.809 -0.9895  0.6681  0.2251
  925MPD2     N13542   0.473   0.415  14.938 -0.5095  0.6706  0.1438
  925MPD2    H513543   0.472   0.452  15.033  0.4979 -1.9679  1.1834
  925MPD2    N113544   0.555   0.508  14.474  0.2853 -0.9362 -0.2872
  925MPD2    H713545   0.472   0.449  14.466 -0.9534  0.3606  2.9166
  926MPD2     C13546   3.990   3.580  13.629 -0.0211  0.1770  0.4600
  926MPD2    C113547   3.896   3.567  13.529  0.2838 -0.0057  0.2126
  926MPD2    C213548   3.941   3.560  13.399 -0.3746 -0.6126  0.3721
  926MPD2    C313549   4.073   3.576  13.365 -0.8742 -0.6137 -0.2855
  926MPD2    C413550   4.162   3.598  13.471 -0.2073  0.3616 -0.0423
  926MPD2    C513551   4.116   3.611  13.601 -0.1160  0.4181  0.2857
  926MPD2     H13552   3.866   3.554  13.321  0.2366 -1.3454 -0.1570
  926MPD2    H113553   4.266   3.622  13.449 -0.2775 -3.8784 -5.0463
  926MPD2    H213554   3.960   3.571  13.733 -0.6252  0.9710  0.3478
  926MPD2    H313555   4.184   3.640  13.681 -0.9670 -0.7132  1.4330
  926MPD2     N13556   4.124   3.596  13.232 -0.3914 -0.3944 -0.5799
  926MPD2    H513557   4.223   3.609  13.220 -0.5834  0.1504 -1.5635
  926MPD2    N113558   3.757   3.557  13.555 -0.0316 -0.2119 -0.7433
  926MPD2    H713559   3.699   3.558  13.473 -0.8917  1.3295 -0.1068
  927MPD2     C13560   4.364   1.138  17.346  0.7226 -0.4744  0.0493
  927MPD2    C113561   4.398   1.055  17.446  0.3762  0.2488  0.1031
  927MPD2    C213562   4.468   0.938  17.418 -0.5561 -0.5312  0.2716
  927MPD2    C313563   4.483   0.894  17.286 -0.0022  0.3331  0.3752
  927MPD2    C413564   4.461   0.984  17.182 -0.1132  0.4927  0.1957
  927MPD2    C513565   4.401   1.103  17.217 -0.8171 -0.3030  0.2220
  927MPD2     H13566   4.481   0.860  17.493 -0.1821 -1.4705 -0.7667
  927MPD2    H113567   4.477   0.969  17.076  0.7098  2.6507  0.0273
  927MPD2    H213568   4.316   1.232  17.368  1.2539  0.2311 -1.8205
  927MPD2    H313569   4.386   1.174  17.137  0.6740 -0.3730 -0.1073
  927MPD2     N13570   4.554   0.773  17.267  0.3504 -0.5212  0.0745
  927MPD2    H513571   4.560   0.710  17.347  0.3061 -1.0358 -0.3295
  927MPD2    N113572   4.360   1.102  17.575 -0.4552 -0.0254  0.3535
  927MPD2    H713573   4.322   1.196  17.588  1.9230  1.0871 -0.7163
  928MPD2     C13574   1.256   3.970   0.535 -0.0938 -0.3966  0.2670
  928MPD2    C113575   1.393   3.989   0.546 -0.4676  1.0662  0.4061
  928MPD2    C213576   1.477   3.996   0.433 -0.5375 -0.3318 -0.7960
  928MPD2    C313577   1.413   3.987   0.307 -0.1797  0.4140 -0.3901
  928MPD2    C413578   1.275   3.970   0.296 -1.1178  0.0368 -0.3173
  928MPD2    C513579   1.204   3.966   0.412 -0.8864  0.2447  0.7027
  928MPD2     H13580   1.583   4.014   0.428 -0.5688 -0.1734 -0.8675
  928MPD2    H113581   1.230   3.967   0.198  1.5702 -3.2453 -1.4503
  928MPD2    H213582   1.193   3.948   0.621  0.4186 -1.7833  0.2840
  928MPD2    H313583   1.097   3.951   0.404 -0.7435  0.7992 -2.2322
  928MPD2     N13584   1.500   3.983   0.196 -0.0766 -0.4684 -0.0208
  928MPD2    H513585   1.598   3.992   0.220 -0.1166  0.2813 -0.1480
  928MPD2    N113586   1.453   3.986   0.677  0.7035  0.3390  0.6169
  928MPD2    H713587   1.380   3.963   0.744 -0.9979  0.0532 -1.3234
  929MPD2     C13588   2.349   3.704  10.051  0.0215 -0.2488  0.3678
  929MPD2    C113589   2.238   3.622  10.062 -0.1180  0.9552  0.3910
  929MPD2    C213590   2.146   3.625   9.958 -0.4551  0.4383  0.4885
  929MPD2    C313591   2.159   3.720   9.854 -0.2419  0.6262 -0.2590
  929MPD2    C413592   2.274   3.795   9.839  0.3672 -0.1326 -0.2418
  929MPD2    C513593   2.372   3.777   9.933  0.2579 -0.3849 -0.1496
  929MPD2     H13594   2.049   3.577   9.959 -1.1819  1.8754 -0.6955
  929MPD2    H113595   2.293   3.862   9.756  0.9534 -0.8442 -0.6793
  929MPD2    H213596   2.428   3.703  10.126  0.0410 -0.4712  0.3456
  929MPD2    H313597   2.469   3.821   9.908  0.4571 -0.9353 -0.3393
  929MPD2     N13598   2.057   3.742   9.761 -0.2015 -0.1442  0.0071
  929MPD2    H513599   2.067   3.824   9.701 -1.1967  0.7642  1.0838
  929MPD2    N113600   2.216   3.541  10.183 -0.1450 -0.1706  0.1914
  929MPD2    H713601   2.274   3.559  10.264  2.1377 -0.4574 -1.3723
  930MPD2     C13602   3.785   1.706  13.618 -0.2124 -0.4449 -0.3168
  930MPD2    C113603   3.702   1.716  13.514 -0.2944 -0.6010 -0.1943
  930MPD2    C213604   3.626   1.606  13.484 -0.1688 -1.1121 -1.3438
  930MPD2    C313605   3.645   1.487  13.553 -0.2075  0.0879  0.6185
  930MPD2    C413606   3.737   1.485  13.654  0.7931  0.0523  0.0923
  930MPD2    C513607   3.805   1.592  13.692 -0.2036  0.0232 -0.9926
  930MPD2     H13608   3.549   1.623  13.410 -0.1459 -2.4551 -1.6644
  930MPD2    H113609   3.739   1.400  13.722 -1.1223  0.4775  0.6838
  930MPD2    H213610   3.845   1.789  13.652 -1.6041  0.7599 -0.8112
  930MPD2    H313611   3.878   1.590  13.773 -0.7320 -3.1401 -0.5971
  930MPD2     N13612   3.581   1.367  13.518  0.9341 -0.1122  0.7278
  930MPD2    H513613   3.616   1.275  13.543 -0.2218 -0.6036  0.5290
  930MPD2    N113614   3.690   1.840  13.450  0.6120 -0.5612  0.2726
  930MPD2    H713615   3.763   1.906  13.476  0.8499 -1.2253  1.2599
  931MPD2     C13616   4.112   1.185   0.774  0.3667 -0.1552  0.4537
  931MPD2    C113617   4.172   1.101   0.688 -0.2585 -0.5275  0.0460
  931MPD2    C213618   4.161   0.966   0.713  0.0552 -0.0504  0.2001
  931MPD2    C313619   4.110   0.920   0.831 -0.0730  0.2148  0.2241
  931MPD2    C413620   4.068   1.013   0.930  0.3517  0.9255  0.1963
  931MPD2    C513621   4.057   1.146   0.897  0.0108 -0.6585  0.8747
  931MPD2     H13622   4.193   0.886   0.648  0.6246 -0.6526  1.2109
  931MPD2    H113623   4.038   0.987   1.030  1.4779 -0.5347  0.1549
  931MPD2    H213624   4.096   1.288   0.744 -1.6609 -0.3936  0.7488
  931MPD2    H313625   4.024   1.226   0.963 -0.6312  0.4932 -0.8322
  931MPD2     N13626   4.089   0.782   0.852 -0.8547 -1.0541  0.1950
  931MPD2    H513627   4.031   0.759   0.932 -0.0866  0.2084  1.1077
  931MPD2    N113628   4.214   1.154   0.567  0.6695  0.3419  0.1114
  931MPD2    H713629   4.183   1.248   0.545 -1.1880  0.4337  3.1407
  932MPD2     C13630   0.336   4.659  10.307 -0.5822 -0.2426 -0.1260
  932MPD2    C113631   0.402   0.013  10.400  0.3907 -0.1946  0.3318
  932MPD2    C213632   0.434   4.670  10.518 -0.0840  0.2918  0.6342
  932MPD2    C313633   0.422   4.532  10.544  0.1796  0.7630 -0.2699
  932MPD2    C413634   0.352   4.467  10.447  0.6992 -0.2796 -0.2464
  932MPD2    C513635   0.322   4.524  10.325 -1.2381 -0.2740  0.0816
  932MPD2     H13636   0.478   0.010  10.596 -0.6727 -0.0574  1.2454
  932MPD2    H113637   0.315   4.366  10.459 -0.7674  0.3224  0.3461
  932MPD2    H213638   0.298   4.703  10.215 -0.3525 -0.5131 -0.3497
  932MPD2    H313639   0.279   4.464  10.246 -1.7946  0.3552 -0.0948
  932MPD2     N13640   0.460   4.478  10.668 -0.5302  0.0199  0.8827
  932MPD2    H513641   0.499   4.539  10.739  0.5092  1.0676 -0.5802
  932MPD2    N113642   0.430   0.151  10.392  0.1427 -0.7046  0.7136
  932MPD2    H713643   0.464   0.191  10.478 -3.8899 -0.2108  2.0288
  933MPD2     C13644   1.086   3.887   1.140 -0.2413 -0.7353  0.0030
  933MPD2    C113645   1.164   3.995   1.183 -0.0760  0.0037  0.2634
  933MPD2    C213646   1.107   4.085   1.270 -0.3707  0.2257  0.2951
  933MPD2    C313647   0.977   4.076   1.318 -0.1593  0.6565 -0.1182
  933MPD2    C413648   0.899   3.973   1.261  0.9187  0.4804  0.0262
  933MPD2    C513649   0.953   3.884   1.178  0.5244 -0.5776  0.2314
  933MPD2     H13650   1.168   4.163   1.313 -0.1387  0.8921 -1.2223
  933MPD2    H113651   0.794   3.965   1.286  1.1428  0.0372  0.8066
  933MPD2    H213652   1.130   3.815   1.073  1.0788  0.7150 -0.7003
  933MPD2    H313653   0.896   3.803   1.134  2.4817 -0.9757 -1.5520
  933MPD2     N13654   0.927   4.178   1.412  0.0206 -0.3668 -0.0059
  933MPD2    H513655   0.993   4.255   1.413 -0.3818 -0.0290  0.5899
  933MPD2    N113656   1.297   4.015   1.128 -0.4215  0.4302 -0.3182
  933MPD2    H713657   1.322   3.954   1.051 -0.7057 -1.5759  1.1934
  934MPD2     C13658   3.263   0.839   1.721 -0.1036 -0.5263  0.8146
  934MPD2    C113659   3.212   0.961   1.682 -0.0384  0.3290 -0.4923
  934MPD2    C213660   3.118   0.972   1.585  0.5382  0.5060 -0.2910
  934MPD2    C313661   3.081   0.865   1.508 -0.4766 -0.0202  0.3278
  934MPD2    C413662   3.134   0.745   1.544 -0.3424 -0.1564 -0.3167
  934MPD2    C513663   3.218   0.736   1.651 -0.7797  0.7817  0.0920
  934MPD2     H13664   3.077   1.067   1.553 -0.5826  0.4663  0.9993
  934MPD2    H113665   3.106   0.651   1.496  2.7177 -0.5885 -1.2273
  934MPD2    H213666   3.333   0.832   1.803  1.0022  3.2451  0.1780
  934MPD2    H313667   3.248   0.633   1.667 -0.5205  0.8873  0.2857
  934MPD2     N13668   2.992   0.865   1.403  0.2315 -0.3704 -0.0806
  934MPD2    H513669   2.976   0.776   1.357 -2.0611  0.1995 -0.3762
  934MPD2    N113670   3.244   1.084   1.746  0.0209 -0.1947 -0.3355
  934MPD2    H713671   3.213   1.173   1.707  3.0158  0.1847 -1.8634
  935MPD2     C13672   3.251   0.445   0.705 -0.4439 -0.8026 -0.3403
  935MPD2    C113673   3.112   0.451   0.684  0.0107  0.3420 -0.1203
  935MPD2    C213674   3.032   0.527   0.769 -0.0629  0.2733  0.3829
  935MPD2    C313675   3.090   0.607   0.866  0.1832 -0.0870  0.0840
  935MPD2    C413676   3.229   0.609   0.879  0.8781 -0.5545  0.0668
  935MPD2    C513677   3.303   0.525   0.802 -0.0233  0.6083 -0.4047
  935MPD2     H13678   2.926   0.517   0.754  0.3893  0.3998 -2.8691
  935MPD2    H113679   3.280   0.665   0.957  2.3150 -0.1135 -1.2055
  935MPD2    H213680   3.317   0.385   0.644 -2.1480 -2.0152 -1.0024
  935MPD2    H313681   3.409   0.519   0.823 -0.4327  3.7560  2.4569
  935MPD2     N13682   3.019   0.689   0.958  0.0922  0.4639 -0.1692
  935MPD2    H513683   3.070   0.740   1.029 -1.3706 -0.0197  1.2291
  935MPD2    N113684   3.054   0.391   0.568  0.4994 -0.2549 -0.3728
  935MPD2    H713685   2.958   0.422   0.554  0.3448 -0.4045  0.3644
  936MPD2     C13686   1.053   3.460  12.200  0.0713  0.5333  0.0574
  936MPD2    C113687   1.168   3.399  12.235 -0.7783 -0.1154  0.3286
  936MPD2    C213688   1.286   3.458  12.184  0.0516  0.4903  0.6589
  936MPD2    C313689   1.282   3.571  12.096 -0.2863 -0.5587  0.2545
  936MPD2    C413690   1.163   3.626  12.061  0.1407 -0.7019 -0.1633
  936MPD2    C513691   1.050   3.564  12.110 -0.8221 -0.0767  0.1191
  936MPD2     H13692   1.380   3.419  12.223  1.1562  0.9889 -1.4903
  936MPD2    H113693   1.158   3.711  11.994  2.9396 -1.1032 -0.8708
  936MPD2    H213694   0.964   3.427  12.253  0.2934 -0.5242 -0.2326
  936MPD2    H313695   0.957   3.612  12.081 -0.4972  0.4926  0.0217
  936MPD2     N13696   1.396   3.648  12.058  0.5222  0.3258  0.1406
  936MPD2    H513697   1.388   3.746  12.034 -1.6058 -0.6006 -2.8133
  936MPD2    N113698   1.179   3.297  12.325  0.2525  0.4209  0.1307
  936MPD2    H713699   1.275   3.279  12.353  0.3799  2.1167  0.7433
  937MPD2     C13700   3.076   4.542  10.975 -0.2272  0.4069  1.1665
  937MPD2    C113701   3.208   4.532  11.013  0.2884  0.3909  0.2548
  937MPD2    C213702   3.296   4.588  10.926 -0.1251 -0.2626 -0.3662
  937MPD2    C313703   3.258   4.633  10.801 -1.1477  0.0657 -0.0966
  937MPD2    C413704   3.130   4.622  10.758  0.8783 -0.0361 -0.1565
  937MPD2    C513705   3.042   4.591  10.849 -0.1407 -0.0001  0.2131
  937MPD2     H13706   3.401   4.600  10.951 -0.2788 -1.6582  0.9828
  937MPD2    H113707   3.092   4.653  10.661  1.9282  1.4367 -0.0918
  937MPD2    H213708   2.994   4.508  11.037  0.7985 -0.6149  1.9514
  937MPD2    H313709   2.936   4.596  10.829 -0.1832  0.2822  0.5161
  937MPD2     N13710   3.362   4.671  10.714 -0.0162  0.1878  0.2293
  937MPD2    H513711   3.454   4.668  10.755  0.7296  0.6903 -1.4002
  937MPD2    N113712   3.237   4.512  11.146  0.4072 -0.8471  0.2759
  937MPD2    H713713   3.335   4.526  11.168  0.2826 -2.6999  2.1049
  938MPD2     C13714   1.179   0.839   0.457 -0.1081  0.1530  0.7747
  938MPD2    C113715   1.305   0.839   0.510 -1.3355 -0.0701  0.7163
  938MPD2    C213716   1.343   0.745   0.604 -0.7119  0.3819 -0.2057
  938MPD2    C313717   1.248   0.668   0.654 -0.2433  0.7130 -0.4662
  938MPD2    C413718   1.124   0.672   0.607  0.1578  0.0417  0.3159
  938MPD2    C513719   1.085   0.760   0.504  0.4130 -0.6565  0.3346
  938MPD2     H13720   1.443   0.738   0.645  0.1979 -1.1684 -2.6745
  938MPD2    H113721   1.049   0.614   0.660  2.5049 -3.2554  0.0219
  938MPD2    H213722   1.158   0.920   0.388 -0.0263 -2.5973 -2.4863
  938MPD2    H313723   0.981   0.769   0.474  0.6494  3.6581  0.8701
  938MPD2     N13724   1.271   0.565   0.749  0.3465  0.5256 -0.4207
  938MPD2    H513725   1.192   0.506   0.774 -0.7810  0.7943 -3.3601
  938MPD2    N113726   1.396   0.927   0.452 -0.4534  0.2484 -0.0497
  938MPD2    H713727   1.364   0.983   0.374 -0.6299 -0.2305 -0.3228
  939MPD2     C13728   2.727   2.023   0.926 -0.8537  0.1045  0.4675
  939MPD2    C113729   2.727   2.152   0.880 -0.8353  0.8075  0.5162
  939MPD2    C213730   2.801   2.173   0.762  0.2900 -0.4145  0.1248
  939MPD2    C313731   2.862   2.072   0.689 -0.1408  0.0457  0.3014
  939MPD2    C413732   2.856   1.949   0.737 -0.0936  0.0744  0.2696
  939MPD2    C513733   2.788   1.930   0.851 -0.4325 -0.6139 -0.3692
  939MPD2     H13734   2.803   2.276   0.729 -2.3103 -0.2888  0.3401
  939MPD2    H113735   2.895   1.858   0.691  0.3917  0.3108  0.2225
  939MPD2    H213736   2.664   1.979   1.003 -2.5398  2.7927  0.6537
  939MPD2    H313737   2.772   1.827   0.881  1.8131 -0.6555  0.6644
  939MPD2     N13738   2.929   2.100   0.568 -0.1021  0.2989 -0.4394
  939MPD2    H513739   2.936   2.199   0.547  0.6287 -0.2273 -2.7255
  939MPD2    N113740   2.642   2.247   0.941  0.3075  0.5438 -0.3055
  939MPD2    H713741   2.595   2.202   1.019  3.4252 -0.2398  1.1280
  940MPD2     C13742   1.828   3.359  12.412  0.0385  0.1116  0.0477
  940MPD2    C113743   1.945   3.306  12.466  0.3235  0.0971  0.6064
  940MPD2    C213744   2.051   3.282  12.382 -0.3228  0.7193  0.8810
  940MPD2    C313745   2.050   3.290  12.246  0.0418 -0.1587  0.2384
  940MPD2    C413746   1.922   3.320  12.194  1.0840  0.0223 -0.3907
  940MPD2    C513747   1.817   3.352  12.276 -0.2901 -0.1208 -0.4227
  940MPD2     H13748   2.134   3.229  12.428 -0.4493 -0.6323 -0.4725
  940MPD2    H113749   1.898   3.293  12.092  0.8635 -1.4594  0.0447
  940MPD2    H213750   1.739   3.392  12.464  0.6791  0.7546  0.7305
  940MPD2    H313751   1.724   3.378  12.228  0.0189  1.2833 -0.2574
  940MPD2     N13752   2.153   3.242  12.161 -0.9344  0.2984 -0.6344
  940MPD2    H513753   2.126   3.235  12.063 -1.1892 -1.1527 -0.4525
  940MPD2    N113754   1.955   3.300  12.608  0.4779 -0.0762  0.3178
  940MPD2    H713755   2.047   3.276  12.643  0.1807  1.6672  2.3159
  941MPD2     C13756   1.637   2.291   8.919 -0.6669 -0.0350 -0.4458
  941MPD2    C113757   1.654   2.305   9.057 -0.3712  0.3532 -0.1906
  941MPD2    C213758   1.571   2.251   9.153 -0.1519 -0.4842 -0.5024
  941MPD2    C313759   1.462   2.177   9.104  0.6204  0.4293 -0.2233
  941MPD2    C413760   1.453   2.158   8.973  0.5544  0.2592 -0.9402
  941MPD2    C513761   1.538   2.206   8.875  0.0938  0.0432 -0.1916
  941MPD2     H13762   1.575   2.279   9.258  0.9805  1.0687 -0.9591
  941MPD2    H113763   1.371   2.098   8.936  1.6691 -0.7638 -1.7414
  941MPD2    H213764   1.691   2.344   8.841 -2.0599  2.0673  0.0092
  941MPD2    H313765   1.520   2.183   8.771 -0.0458 -2.1812  0.3374
  941MPD2     N13766   1.356   2.118   9.183 -0.1922  0.8296 -0.3421
  941MPD2    H513767   1.272   2.091   9.133  0.0483 -1.2299  0.3743
  941MPD2    N113768   1.758   2.395   9.108  0.1720  0.2392  0.7854
  941MPD2    H713769   1.783   2.381   9.206  0.7837  0.7935  0.7022
  942MPD2     C13770   1.351   3.605   9.555 -0.6965 -0.1972  0.1372
  942MPD2    C113771   1.297   3.619   9.431  0.1505  0.8024  0.8647
  942MPD2    C213772   1.309   3.738   9.362  1.2086 -0.1795  0.3586
  942MPD2    C313773   1.374   3.848   9.419  0.5693  0.2642 -0.4507
  942MPD2    C413774   1.416   3.840   9.546  0.6375 -0.1574  0.2960
  942MPD2    C513775   1.408   3.714   9.607  0.0260  0.2292 -0.3198
  942MPD2     H13776   1.264   3.742   9.263  1.8962 -1.2800  0.0129
  942MPD2    H113777   1.465   3.926   9.590 -1.5838  1.2359  0.0308
  942MPD2    H213778   1.359   3.510   9.606  0.7422 -0.5076 -0.6690
  942MPD2    H313779   1.463   3.696   9.698 -1.0715 -2.3120 -0.1250
  942MPD2     N13780   1.383   3.973   9.353 -0.4147 -0.3657 -0.3495
  942MPD2    H513781   1.453   4.031   9.398 -0.0298  0.2442 -1.7354
  942MPD2    N113782   1.216   3.522   9.377  0.2707 -0.3377 -0.4210
  942MPD2    H713783   1.183   3.545   9.284 -0.0293  2.9052  0.4747
  943MPD2     C13784   4.687   1.897   8.873 -0.3271  0.4882  0.2749
  943MPD2    C113785   4.637   1.868   9.002 -0.6628 -0.2530  0.4467
  943MPD2    C213786   4.693   1.937   9.111  0.1597 -0.5250 -0.0703
  943MPD2    C313787   0.064   2.040   9.088  0.9115  0.0350 -1.0010
  943MPD2    C413788   0.105   2.069   8.957 -0.0663 -0.0699  0.0917
  943MPD2    C513789   0.061   1.993   8.851  0.5587  0.1537  0.0846
  943MPD2     H13790   4.649   1.923   9.209 -1.5721 -3.5167 -1.2369
  943MPD2    H113791   0.180   2.146   8.941  0.7637 -0.7021  0.9628
  943MPD2    H213792   4.658   1.850   8.780  0.0940 -1.3701  1.0851
  943MPD2    H313793   0.086   2.023   8.749  0.4360  0.6899  0.2108
  943MPD2     N13794   0.120   2.117   9.191 -0.2953  0.5057 -0.0707
  943MPD2    H513795   0.179   2.192   9.156  2.1336 -0.3756  2.1538
  943MPD2    N113796   4.531   1.771   9.012  0.0469 -0.5420 -0.7019
  943MPD2    H713797   4.493   1.728   8.928  0.1550  2.5641 -2.3626
  944MPD2     C13798   3.786   0.920  10.399 -0.4374 -0.2780  0.3239
  944MPD2    C113799   3.906   0.984  10.399  0.1503  0.0218  0.0795
  944MPD2    C213800   3.949   1.047  10.513 -0.6425  0.0188  0.9242
  944MPD2    C313801   3.866   1.060  10.622  0.3986  0.3462 -0.1952
  944MPD2    C413802   3.744   1.001  10.618  0.2813 -0.0075 -0.7502
  944MPD2    C513803   3.701   0.927  10.506 -0.3363 -0.3428  0.2368
  944MPD2     H13804   4.047   1.092  10.518 -0.0294 -1.0590 -1.8629
  944MPD2    H113805   3.672   1.004  10.698 -0.9265 -0.1490 -1.8397
  944MPD2    H213806   3.758   0.862  10.312 -1.6804 -0.8578  1.1131
  944MPD2    H313807   3.605   0.876  10.507 -0.0307 -0.9216  0.3463
  944MPD2     N13808   3.908   1.138  10.730  0.0424  1.1331 -0.1764
  944MPD2    H513809   3.996   1.189  10.720 -0.3192  2.2999  2.7338
  944MPD2    N113810   3.992   0.966  10.286 -0.0538 -0.5948  0.4389
  944MPD2    H713811   3.956   0.895  10.223  0.5936 -1.4434  1.0268
    1TCq1    O113812   1.746   2.381  14.129 -0.6852 -0.0941  0.3417
    1TCq1    C113813   1.872   2.365  14.176  0.3921  0.2589  0.0176
    1TCq1    O213814   1.915   2.271  14.241  0.2979 -0.0761  0.0677
    1TCq1    C213815   1.951   2.489  14.146 -0.0793 -0.4317  0.0216
    1TCq1    C313816   2.037   2.536  14.243 -0.3325  0.6410  0.0002
    1TCq1    C413817   2.128   2.635  14.204  0.3879  0.7320  0.1295
    1TCq1    C513818   2.123   2.696  14.084  0.1102 -0.3130 -0.3797
    1TCq1    C613819   2.035   2.641  13.993  0.2895 -0.3396  0.0702
    1TCq1    C713820   1.957   2.535  14.020  0.4214 -0.0547 -0.5630
    1TCq1    C813821   2.026   2.688  13.849  0.2553  0.0357 -0.6813
    1TCq1    O413822   1.942   2.646  13.775  0.0079  0.5822 -0.1853
    1TCq1    C913823   2.208   2.698  14.304 -0.6458 -0.2831  0.1275
    1TCq1    O513824   2.194   2.665  14.427  0.2044  0.6284  0.0829
    1TCq1    O613825   2.313   2.753  14.261  0.0854 -0.1099 -0.1062
    1TCq1    H113826   1.734   2.467  14.084  1.3499 -0.0027 -0.0149
    1TCq1    H213827   2.025   2.515  14.348 -2.2867  2.2220  0.0955
    1TCq1    H313828   2.177   2.789  14.071 -2.6461  1.1890 -1.2217
    1TCq1    H413829   1.898   2.495  13.939  0.9378 -0.6712 -0.6412
    2MPD2     C13830   2.160   3.037  13.492 -0.2874  0.5249 -0.4835
    2MPD2    C113831   2.229   3.062  13.608  0.0220 -0.7186  0.6760
    2MPD2    C213832   2.214   2.974  13.719  0.3588 -0.0488  0.1746
    2MPD2    C313833   2.132   2.867  13.717  0.0023  0.4362  0.1489
    2MPD2    C413834   2.054   2.856  13.604 -0.2795  0.5069 -0.0398
    2MPD2    C513835   2.069   2.941  13.496  0.0241 -0.6783  0.0877
    2MPD2     H13836   2.262   3.000  13.813  1.2241 -1.0826  0.0257
    2MPD2    H113837   1.982   2.776  13.594 -0.2734  0.6721 -1.3937
    2MPD2    H213838   2.162   3.099  13.403 -0.9197  3.3891  1.4912
    2MPD2    H313839   2.010   2.931  13.405 -2.5022  0.5279  1.5990
    2MPD2     N13840   2.123   2.785  13.828  0.2523  0.2787 -0.3166
    2MPD2    H513841   2.176   2.807  13.911 -1.0850 -0.0228  0.6174
    2MPD2    N113842   2.302   3.182  13.618 -0.1030  0.3074 -0.3418
    2MPD2    H713843   2.289   3.249  13.543 -2.0077  0.8163  0.4430
    3TMC2    C113844   2.479   3.325  13.674 -0.6908 -0.1064 -0.0383
    3TMC2    C213845   2.400   3.438  13.669 -0.0702 -0.7169 -0.1749
    3TMC2    C313846   2.453   3.557  13.626  0.0486 -0.2151  0.3544
    3TMC2    C413847   2.609   3.332  13.639  0.4988  0.3868  0.0772
    3TMC2    C513848   2.655   3.451  13.590 -0.1849 -0.4718  1.0487
    3TMC2    C613849   2.577   3.563  13.578  0.0297 -0.6534  0.0134
    3TMC2     C13850   2.416   3.193  13.695 -0.2643 -0.3575  0.0953
    3TMC2     O13851   2.467   3.108  13.768 -0.0380  0.4710  0.0952
    3TMC2     H13852   2.303   3.438  13.717  0.3316 -0.4664  0.6322
    3TMC2    H113853   2.677   3.249  13.649 -1.0577 -0.6598  2.0077
    3TMC2    H213854   2.611   3.658  13.540  1.0269 -1.1860 -0.4286
    3TMC2    C713855   2.803   3.455  13.565  0.8332  0.0795 -0.5861
    3TMC2    C813856   2.359   3.670  13.615 -0.3063 -0.3545  0.0903
    3TMC2    O113857   2.861   3.355  13.604 -0.2382 -0.1341  0.5920
    3TMC2    O213858   2.387   3.792  13.608  0.1959 -0.3412 -0.7547
    3TMC2    O513859   2.249   3.616  13.558  0.4562  0.3471  0.5853
    3TMC2    H513860   2.261   3.520  13.547  1.8017  0.3341  2.1175
    4MPD2     C13861   2.394   4.275  12.654 -0.1133 -0.6783  1.4319
    4MPD2    C113862   2.384   4.198  12.767  0.0315 -0.0818  0.1284
    4MPD2    C213863   2.503   4.173  12.835  0.9357 -0.0258  0.1882
    4MPD2    C313864   2.628   4.219  12.791 -0.2267 -0.3915  0.5109
    4MPD2    C413865   2.630   4.287  12.676  0.0817 -0.0954  0.1708
    4MPD2    C513866   2.520   4.322  12.618  0.2961 -0.7160 -0.6851
    4MPD2     H13867   2.500   4.137  12.937 -0.9987 -1.1097 -0.2649
    4MPD2    H113868   2.725   4.323  12.638 -1.6006 -0.2041 -4.1417
    4MPD2    H213869   2.313   4.323  12.600  1.4116 -0.5762 -0.7228
    4MPD2    H313870   2.522   4.389  12.533  0.5838  0.4765  0.2620
    4MPD2     N13871   2.748   4.197  12.870 -0.2823  0.2988 -0.1086
    4MPD2    H513872   2.727   4.132  12.946  0.5943  0.8191  0.5764
    4MPD2    N113873   2.257   4.144  12.796  0.4217 -0.4625 -0.0969
    4MPD2    H713874   2.174   4.176  12.747  0.2318 -1.1823 -0.2432
    5TCq2    C113875   2.878   4.231  12.830 -0.3707 -0.1993 -0.0882
    5TCq2    O213876   2.912   4.305  12.738 -0.0245 -0.2245  0.0785
    5TCq2    C213877   2.975   4.152  12.897 -0.1916  0.0647  0.6524
    5TCq2    C313878   3.097   4.195  12.866 -0.4820 -0.3502 -0.1437
    5TCq2    C413879   3.200   4.123  12.922  0.6867 -0.7559  0.7562
    5TCq2    C513880   3.182   4.001  12.984 -0.0105 -0.0103 -0.2785
    5TCq2    C613881   3.054   3.965  13.009 -0.0267 -0.4367  0.2211
    5TCq2    C713882   2.951   4.038  12.967 -0.0563  0.2683  0.5397
    5TCq2    C813883   3.025   3.857  13.108  0.0259 -0.1258  0.1118
    5TCq2    O413884   2.910   3.816  13.108 -0.3682 -0.0008 -0.1042
    5TCq2    C913885   3.336   4.169  12.908 -0.1773  0.8598  0.2652
    5TCq2    O513886   3.425   4.149  12.999 -0.0857  0.3150  0.2223
    5TCq2    O613887   3.351   4.252  12.819 -0.7139  0.7806  0.1859
    5TCq2    H213888   3.124   4.284  12.810 -0.3215 -0.6936 -0.6130
    5TCq2    H313889   3.266   3.941  13.017 -0.9946 -1.3277 -0.1623
    5TCq2    H413890   2.851   4.006  12.993  0.7106 -1.0619  1.8510
    6MPD1     C13891   0.644   0.339  13.073 -0.1265  0.4124 -0.0792
    6MPD1    C113892   0.649   0.261  12.966 -0.1183  0.4095  0.0828
    6MPD1    C213893   0.766   0.193  12.943  0.1937 -0.0928 -0.0316
    6MPD1    C313894   0.884   0.200  13.021 -0.0214 -0.0309 -0.3797
    6MPD1    C413895   0.876   0.285  13.128  0.6650 -0.8538  0.3081
    6MPD1    C513896   0.750   0.344  13.158 -0.1408 -0.4080 -0.4563
    6MPD1     H13897   0.778   0.118  12.865  0.5389 -0.4118  0.3272
    6MPD1    H113898   0.961   0.304  13.193  0.5572  3.3129 -0.7553
    6MPD1    H213899   0.555   0.396  13.095 -0.5200  0.9322 -2.9940
    6MPD1    H313900   0.753   0.416  13.238  0.2075 -0.1068 -0.7413
    6MPD1     N13901   1.006   0.135  12.984  0.4389  0.0350 -0.3635
    6MPD1    H513902   1.078   0.133  13.056 -1.8188  0.6644  1.8695
    6MPD1    N113903   0.532   0.253  12.888  0.0475 -0.3533 -0.0806
    6MPD1    H613904   0.453   0.234  12.949  1.0774 -1.1560  1.0218
    6MPD1    H713905   0.525   0.181  12.817 -2.5693  0.5984 -0.7824
    7MPD2     C13906   1.379   4.274  13.277 -0.0444  0.9096  0.1231
    7MPD2    C113907   1.465   4.327  13.180  0.0530 -0.0707  0.2482
    7MPD2    C213908   1.575   4.258  13.137 -0.0485  0.0725 -0.5317
    7MPD2    C313909   1.605   4.132  13.190 -0.3305 -0.6155 -0.7511
    7MPD2    C413910   1.529   4.082  13.293  0.7388 -0.0044 -0.1405
    7MPD2    C513911   1.420   4.151  13.337 -0.1066 -0.0751  0.8190
    7MPD2     H13912   1.642   4.297  13.061  0.6434  2.1392  1.1434
    7MPD2    H113913   1.563   3.996  13.348 -1.0653 -1.2624 -0.9906
    7MPD2    H213914   1.302   4.335  13.323 -1.1377  1.0943 -1.9639
    7MPD2    H313915   1.378   4.118  13.432  0.4470 -1.7783  0.4701
    7MPD2     N13916   1.716   4.051  13.132 -0.5830 -0.1784  0.0664
    7MPD2    H513917   1.747   3.966  13.178  0.6647  0.9781  1.3872
    7MPD2    N113918   1.432   4.444  13.106 -0.1417  0.3257 -0.2322
    7MPD2    H713919   1.507   4.483  13.050  0.3333  2.2979  1.7328
    8TMC3    C113920   1.881   3.985  12.974 -0.6512 -0.1942  0.3274
    8TMC3    C213921   2.010   4.019  12.996  0.2912  0.2243 -0.4446
    8TMC3    C313922   2.087   4.011  12.885 -0.0283 -0.6627  0.2358
    8TMC3    C413923   1.835   3.945  12.854 -0.1005 -0.6466  0.3386
    8TMC3    C513924   1.911   3.959  12.744  0.5658  0.6178 -0.2242
    8TMC3    C613925   2.043   3.981  12.758  0.0270  0.1689  0.1626
    8TMC3     C13926   1.784   4.081  13.017  0.4641 -0.6194  0.4796
    8TMC3     O13927   1.766   4.168  12.934 -0.3837  0.2442 -0.0530
    8TMC3     H13928   2.046   4.056  13.091  0.5178 -0.0328 -0.4323
    8TMC3    H113929   1.727   3.945  12.840  0.1796  2.0983 -1.8744
    8TMC3    H213930   2.102   4.001  12.669  0.3150 -1.9584 -0.1073
    8TMC3    C713931   1.844   4.022  12.637 -1.4658 -0.4645  0.3553
    8TMC3    C813932   2.222   4.055  12.900 -0.5830  0.4343 -0.4570
    8TMC3    O113933   1.869   3.993  12.525  0.4892  0.0873 -0.2570
    8TMC3    O213934   2.287   4.009  12.992  0.0925  0.3683 -0.0574
    9TMC3    C113935   1.141   0.007  12.868 -0.3435 -0.2361  0.3767
    9TMC3    C213936   1.211   4.709  12.756 -0.0424  0.1040 -0.2091
    9TMC3    C313937   1.332   4.645  12.773  1.0098 -0.0032 -0.1349
    9TMC3    C413938   1.174   4.670  12.989  0.0393 -0.0192 -0.0067
    9TMC3    C513939   1.300   4.612  12.999 -0.4452 -0.0975 -0.0792
    9TMC3    C613940   1.386   4.611  12.892  0.3462  0.4333 -0.5179
    9TMC3     C13941   1.024   0.075  12.865 -0.5518  0.0561 -0.3025
    9TMC3     O13942   0.965   0.075  12.756  0.0811 -0.3843  0.2261
    9TMC3     H13943   1.165   0.024  12.665  0.3924  1.2462  0.0293
    9TMC3    H113944   1.106   4.670  13.073 -1.5802 -1.4377 -1.3309
    9TMC3    H213945   1.488   4.578  12.908  1.0754  2.3937 -1.1105
    9TMC3    C713946   1.312   4.516  13.111  0.1724  0.3433  0.2169
    9TMC3    C813947   1.392   4.587  12.651 -0.6797  0.5786  0.0847
    9TMC3    O113948   1.211   4.507  13.184 -0.2874 -0.3044 -0.0919
    9TMC3    O213949   1.325   4.610  12.555 -0.2021 -0.0728 -0.3083
   10MPD2     C13950   1.651   4.189  12.463 -0.0803 -0.1812 -0.4787
   10MPD2    C113951   1.678   4.203  12.597  0.0284 -0.2966 -0.3791
   10MPD2    C213952   1.630   4.310  12.668 -0.5743  0.2813  0.2083
   10MPD2    C313953   1.549   4.398  12.605 -1.2630  0.5376 -0.3369
   10MPD2    C413954   1.522   4.390  12.472 -0.1293 -0.3090 -0.9481
   10MPD2    C513955   1.569   4.280  12.399  0.1955 -0.1235 -0.2342
   10MPD2     H13956   1.660   4.318  12.772 -2.9748  3.1493  0.6726
   10MPD2    H113957   1.476   4.470  12.416  0.4032  0.6845  0.0303
   10MPD2    H213958   1.695   4.116  12.395  1.5247  1.0709 -0.7778
   10MPD2    H313959   1.560   4.273  12.291  0.6524 -0.2523 -0.2625
   10MPD2     N13960   1.499   4.502  12.681  0.2687  0.5878  0.2400
   10MPD2    H513961   1.520   4.502  12.780 -2.8021 -0.8681  0.8849
   10MPD2    N113962   1.759   4.121  12.676  0.5669  0.3806 -0.4492
   10MPD2    H713963   1.768   4.152  12.773  2.0344  1.2812 -0.8842
   11MPD2     C13964   3.084   3.513  13.467  0.1819  0.1270 -0.1055
   11MPD2    C113965   2.971   3.581  13.429 -0.5349  0.6582  0.0489
   11MPD2    C213966   2.988   3.692  13.344  0.7452 -0.1380  0.1149
   11MPD2    C313967   3.107   3.731  13.287 -0.6146 -0.1747  0.0267
   11MPD2    C413968   3.215   3.671  13.339  0.0944 -0.2212 -0.6844
   11MPD2    C513969   3.206   3.566  13.427  0.4407  0.2820 -0.7740
   11MPD2     H13970   2.896   3.746  13.324  0.7804 -0.3349 -0.6079
   11MPD2    H113971   3.311   3.717  13.319  0.4671 -0.1511  1.3089
   11MPD2    H213972   3.083   3.425  13.530 -1.0767  0.9506  1.0268
   11MPD2    H313973   3.293   3.513  13.466 -0.1711  0.1340  0.4206
   11MPD2     N13974   3.127   3.822  13.191  0.4353  0.0966 -0.9240
   11MPD2    H513975   3.216   3.870  13.189  0.4372  0.0734 -1.5316
   11MPD2    N113976   2.843   3.552  13.471  0.3961 -0.1802 -0.0883
   11MPD2    H713977   2.774   3.611  13.425  1.5077  2.1995  1.2978
    1MPD1     C13978   0.014   4.431  17.199 -0.0089  0.8792  1.2538
    1MPD1    C113979   0.123   4.503  17.229 -0.1563  0.2663  0.0343
    1MPD1    C213980   0.227   4.522  17.136  0.9726  0.0993 -0.1496
    1MPD1    C313981   0.209   4.485  17.006  0.0654  0.4461  0.2996
    1MPD1    C413982   0.087   4.424  16.972  0.5650  0.6854  0.4313
    1MPD1    C513983   4.716   4.389  17.067 -0.3652  0.5184  0.1074
    1MPD1     H13984   0.318   4.574  17.166  0.7998  0.7935 -0.8281
    1MPD1    H113985   0.058   4.385  16.875  0.4994 -0.3917  0.8847
    1MPD1    H213986   4.658   4.400  17.268  0.6456 -0.9000  1.1927
    1MPD1    H313987   4.630   4.329  17.040  0.7570 -0.2757 -1.6438
    1MPD1     N13988   0.305   4.488  16.909 -0.1741  0.0889  0.1820
    1MPD1    H513989   0.270   4.453  16.820  1.4376  0.2509 -0.5133
    1MPD1    N113990   0.152   4.531  17.361 -0.3816 -0.1913 -0.2333
    1MPD1    H613991   0.196   4.622  17.368  2.2729 -1.5424  0.6741
    1MPD1    H713992   0.073   4.528  17.425  1.0471  0.0047  1.5303
    2MPD1     C13993   1.281   4.363  16.965  0.1382 -0.5783 -0.1664
    2MPD1    C113994   1.192   4.407  17.058 -0.4676 -0.3881 -0.1569
    2MPD1    C213995   1.064   4.440  17.009 -0.9110 -0.3017 -0.1207
    2MPD1    C313996   1.035   4.423  16.874  0.3174  0.1552  0.1189
    2MPD1    C413997   1.128   4.374  16.779  0.5172 -0.3232  0.4711
    2MPD1    C513998   1.252   4.353  16.833  0.0145  0.6370  0.1600
    2MPD1     H13999   0.986   4.480  17.073  0.2104  1.3714  0.2252
    2MPD1    H114000   1.115   4.361  16.672 -0.4757  0.9807  0.4359
    2MPD1    H214001   1.379   4.333  17.000  0.0638 -1.4027 -0.6675
    2MPD1    H314002   1.330   4.313  16.769 -1.7645 -2.9644  0.2325
    2MPD1     N14003   0.899   4.449  16.836  0.6409 -0.1500  0.2648
    2MPD1    H514004   0.849   4.482  16.918 -1.2962 -0.5105 -0.7823
    2MPD1    N114005   1.241   4.435  17.189  0.0356 -0.5838 -0.1222
    2MPD1    H614006   1.162   4.424  17.253 -0.5323  0.0059 -0.7329
    2MPD1    H714007   1.319   4.375  17.215 -0.0372  0.8731  3.5241
    3TMC3    C114008   0.718   4.487  16.700  0.0221 -0.2709  0.1369
    3TMC3    C214009   0.661   4.480  16.575  0.3100  0.3784  0.1356
    3TMC3    C314010   0.526   4.487  16.571  0.2568 -0.2891  0.8143
    3TMC3    C414011   0.647   4.503  16.820  0.1758 -0.8453  0.1442
    3TMC3    C514012   0.513   4.500  16.806  0.3856 -0.4966  0.0891
    3TMC3    C614013   0.445   4.490  16.685 -0.5348  0.4600 -0.0309
    3TMC3     C14014   0.860   4.466  16.704 -0.3200 -0.4994  0.0510
    3TMC3     O14015   0.914   4.427  16.604 -0.3534 -0.2387 -0.1800
    3TMC3     H14016   0.729   4.480  16.491 -2.3209 -0.4503 -2.0006
    3TMC3    H114017   0.689   4.503  16.920 -0.0265  1.4986  0.2434
    3TMC3    H214018   0.338   4.498  16.671 -0.2745  0.8282 -1.8383
    3TMC3    C714019   0.438   4.514  16.926  0.2627  0.1268 -0.1909
    3TMC3    C814020   0.453   4.487  16.445 -0.2262 -0.4351  0.3097
    3TMC3    O114021   0.500   4.547  17.027  0.0415  0.6101 -0.4894
    3TMC3    O214022   0.330   4.500  16.445  0.5067 -1.5303 -0.4572
    4MPD1     C14023   0.449   4.400  15.952 -0.1832  0.2316  0.0235
    4MPD1    C114024   0.557   4.325  16.004 -0.3362  0.0284 -0.5963
    4MPD1    C214025   0.591   4.355  16.130 -0.4303 -0.4636  0.5222
    4MPD1    C314026   0.509   4.428  16.209  0.5475 -0.1027  0.0920
    4MPD1    C414027   0.385   4.477  16.163 -0.0084 -0.3211 -0.2792
    4MPD1    C514028   0.362   4.467  16.031  0.3101 -0.5444  0.0978
    4MPD1     H14029   0.676   4.306  16.177  1.5760  3.6294  1.1737
    4MPD1    H114030   0.317   4.536  16.223  0.8615  0.8016 -0.4005
    4MPD1    H214031   0.438   4.406  15.844  0.6915  0.1913 -0.0693
    4MPD1    H314032   0.278   4.519  15.985 -1.9066 -2.1850  2.2899
    4MPD1     N14033   0.535   4.450  16.342  0.0851  0.4240  0.0496
    4MPD1    H514034   0.626   4.411  16.361 -0.9925 -2.1929 -0.0754
    4MPD1    N114035   0.648   4.254  15.924 -0.3210  0.2183 -0.1843
    4MPD1    H614036   0.602   4.205  15.847  1.6045 -1.0653 -0.5152
    4MPD1    H714037   0.685   4.173  15.974  0.1663 -1.2854 -2.9905
    1TCq1    O114038   1.309   4.246  11.866 -0.1345  1.1175 -0.1215
    1TCq1    C114039   1.284   4.374  11.832 -0.2038 -0.7728  0.3604
    1TCq1    O214040   1.272   4.475  11.903 -0.4163  0.2351  0.3741
    1TCq1    C214041   1.217   4.374  11.704 -0.3709 -0.6504 -0.2958
    1TCq1    C314042   1.273   4.292  11.606  0.5781 -0.0622  0.1244
    1TCq1    C414043   1.242   4.319  11.478 -0.4754 -0.2508 -0.0774
    1TCq1    C514044   1.166   4.425  11.446  0.1997 -0.6211  0.8742
    1TCq1    C614045   1.106   4.499  11.544  0.5289 -0.2696  0.2666
    1TCq1    C714046   1.126   4.477  11.677 -0.2587 -0.7341  0.3120
    1TCq1    C814047   1.049   4.631  11.506 -0.4592 -0.6348  0.3339
    1TCq1    O414048   1.053   0.004  11.584 -0.1206 -0.0753 -0.1237
    1TCq1    C914049   1.329   4.261  11.379  0.0120 -0.0472 -0.4901
    1TCq1    O514050   1.298   4.290  11.262  0.7152 -0.2277  0.2830
    1TCq1    O614051   1.445   4.217  11.409  0.3355 -0.5611  0.1571
    1TCq1    H114052   1.276   4.173  11.808  2.1264  1.1415 -1.4342
    1TCq1    H214053   1.358   4.229  11.632 -0.6234 -1.9505 -0.5095
    1TCq1    H314054   1.153   4.452  11.342 -2.0140 -0.9002  1.0751
    1TCq1    H414055   1.095   4.550  11.750  0.6856 -0.4138  0.3985
    2MPD1     C14056   0.823   0.198  11.147  0.2510  0.5942  0.1463
    2MPD1    C114057   0.769   0.074  11.147 -0.3642  0.3195  1.0139
    2MPD1    C214058   0.825   4.702  11.222 -0.3438 -0.6058 -1.0483
    2MPD1    C314059   0.921   0.002  11.315  0.0068  0.1566 -0.7779
    2MPD1    C414060   0.963   0.132  11.324 -0.3106  0.1002 -0.2242
    2MPD1    C514061   0.920   0.233  11.234 -0.5001  0.0590 -0.0295
    2MPD1     H14062   0.788   4.602  11.204 -0.7897 -0.8701  1.3216
    2MPD1    H114063   1.047   0.161  11.385 -0.4774 -0.9313  0.5073
    2MPD1    H214064   0.800   0.271  11.069 -0.6316 -0.6836 -0.7863
    2MPD1    H314065   0.972   0.328  11.233 -0.5985  0.1616  3.9157
    2MPD1     N14066   0.977   4.616  11.386 -0.4405 -0.0449 -0.1002
    2MPD1    H514067   0.949   4.520  11.371 -2.3687  0.7230 -1.3727
    2MPD1    N114068   0.681   0.044  11.043 -0.4837  0.0708 -0.9499
    2MPD1    H614069   0.619   4.690  11.070 -0.7440  1.2956  1.9183
    2MPD1    H714070   0.622   0.121  11.011  1.9621  1.4940 -2.0572
    1TCq1    O114071   1.295   0.230  17.671  0.4576  0.4517  0.1784
    1TCq1    C114072   1.356   0.252  17.555 -0.9388 -0.2555 -0.4031
    1TCq1    O214073   1.298   0.270  17.451  0.3264 -0.1106 -0.1559
    1TCq1    C214074   1.495   0.294  17.577 -0.1194 -0.1420  0.6525
    1TCq1    C314075   1.542   0.344   0.008 -0.0482 -0.4256  0.0305
    1TCq1    C414076   1.678   0.367   0.021  0.0220  0.5225 -1.6972
    1TCq1    C514077   1.759   0.327  17.611 -0.1665 -0.0197 -0.5962
    1TCq1    C614078   1.713   0.291  17.488 -0.1428  1.2740  0.2885
    1TCq1    C714079   1.573   0.278  17.469  0.0738  0.2383 -0.2312
    1TCq1    C814080   1.789   0.274  17.373  0.1072  0.4250  0.4472
    1TCq1    O414081   1.741   0.295  17.263 -0.7747 -0.6236  0.3768
    1TCq1    C914082   1.730   0.402   0.150 -0.7984 -0.0608 -0.8204
    1TCq1    O514083   1.646   0.450   0.232 -0.4076 -0.1260  0.2320
    1TCq1    O614084   1.854   0.389   0.169 -0.3947  0.2349  0.3521
    1TCq1    H114085   1.363   0.205   0.048  0.6528 -1.7945 -0.8969
    1TCq1    H214086   1.478   0.356   0.095 -2.8880  3.0959 -2.5845
    1TCq1    H314087   1.867   0.340  17.619 -0.2206 -0.8479  1.4321
    1TCq1    H414088   1.529   0.260  17.371  0.3971  1.1706 -0.5519
    2MPD1     C14089   2.227   0.095  17.160 -0.5829 -0.7677 -0.4951
    2MPD1    C114090   2.203   0.019  17.273 -0.3018 -0.5358  0.4353
    2MPD1    C214091   2.104   0.068  17.356 -0.3168  0.3540 -0.3837
    2MPD1    C314092   2.011   0.162  17.317 -0.6586  0.2167 -0.2862
    2MPD1    C414093   2.019   0.214  17.188 -0.5770  0.9439 -0.6880
    2MPD1    C514094   2.126   0.177  17.111  0.2145  0.6400  0.0177
    2MPD1     H14095   2.078   0.024  17.452  1.2156 -1.7232 -0.9454
    2MPD1    H114096   1.952   0.293  17.156  1.6532  1.8474 -3.1198
    2MPD1    H214097   2.318   0.097  17.101 -0.8814 -0.5805 -0.9547
    2MPD1    H314098   2.139   0.217  17.011 -0.0326  0.5260 -0.0607
    2MPD1     N14099   1.912   0.214  17.406 -0.1824  0.1581 -0.2931
    2MPD1    H514100   1.920   0.184  17.502 -1.0482  1.5946  0.2220
    2MPD1    N114101   2.290   4.644  17.323 -0.2134 -0.1708  0.3473
    2MPD1    H614102   2.259   4.584  17.400 -0.5750 -0.2392  0.1495
    2MPD1    H714103   2.320   4.583  17.248  1.9869 -1.6223  2.4260
    1MPD1     C14104   2.453   3.391  11.876  0.0862  0.4286 -0.0914
    1MPD1    C114105   2.576   3.375  11.813  0.0082  0.0917  0.3329
    1MPD1    C214106   2.697   3.414  11.868 -0.5552 -0.0369 -0.5309
    1MPD1    C314107   2.686   3.488  11.993  0.5315 -0.6899 -0.1684
    1MPD1    C414108   2.560   3.511  12.054 -0.9328 -0.2271 -0.6317
    1MPD1    C514109   2.444   3.465  11.992  0.0357  0.1405  0.8633
    1MPD1     H14110   2.791   3.403  11.817  0.5304 -0.1947  1.5003
    1MPD1    H114111   2.547   3.578  12.138 -2.1812  0.1801 -1.1459
    1MPD1    H214112   2.366   3.348  11.828  0.1173 -0.9310  1.0580
    1MPD1    H314113   2.348   3.482  12.039 -0.6684  2.4904 -1.4505
    1MPD1     N14114   2.801   3.540  12.060 -0.1230 -0.0767 -0.5099
    1MPD1    H514115   2.789   3.599  12.142 -1.0802  0.9423 -1.3835
    1MPD1    N114116   2.578   3.299  11.695 -0.3035 -0.5906  0.6170
    1MPD1    H614117   2.652   3.317  11.627  0.8057 -1.2690  1.6450
    1MPD1    H714118   2.487   3.310  11.651 -0.5191 -1.8951  0.7460
    2MPD1     C14119   2.238   4.115  11.437 -0.5831 -0.1604  0.2401
    2MPD1    C114120   2.312   4.004  11.436  1.0452 -0.4569 -0.1812
    2MPD1    C214121   2.447   4.019  11.393  0.2932 -0.6943 -0.2293
    2MPD1    C314122   2.492   4.139  11.335 -0.0678  0.0503 -1.1368
    2MPD1    C414123   2.402   4.237  11.310  1.0714 -0.0463 -0.2648
    2MPD1    C514124   2.277   4.222  11.367  0.3546 -0.0683 -0.3273
    2MPD1     H14125   2.519   3.939  11.400  1.2775  0.1014 -1.2624
    2MPD1    H114126   2.436   4.329  11.263  0.1363  1.5916  2.2401
    2MPD1    H214127   2.142   4.107  11.486  0.1232  1.5640  1.8971
    2MPD1    H314128   2.221   4.314  11.362  1.5983  0.7227  0.3044
    2MPD1     N14129   2.626   4.160  11.288  0.0459  0.0690  0.6667
    2MPD1    H514130   2.647   4.238  11.227 -0.4070 -0.7255 -0.4946
    2MPD1    N114131   2.272   3.891  11.505 -0.0547 -0.1337 -0.2181
    2MPD1    H614132   2.173   3.875  11.487  0.0369 -1.8755  0.8349
    2MPD1    H714133   2.326   3.810  11.478 -0.5997 -1.4023  2.4515
    3MPD1     C14134   2.937   4.424  10.400 -0.6596  0.3158 -0.1071
    3MPD1    C114135   3.057   4.403  10.465  0.0613 -0.8040 -0.5149
    3MPD1    C214136   3.052   4.327  10.583 -0.0646  0.6892  0.2572
    3MPD1    C314137   2.937   4.301  10.648 -0.4935 -0.6488 -0.3357
    3MPD1    C414138   2.821   4.341  10.592  0.3572  0.4660  0.2343
    3MPD1    C514139   2.823   4.396  10.467 -0.4891 -0.3657  0.0823
    3MPD1     H14140   3.138   4.316  10.647 -0.8895 -0.5182  1.1798
    3MPD1    H114141   2.724   4.310  10.632 -0.5571  2.5175 -0.4146
    3MPD1    H214142   2.938   4.470  10.302  0.7146 -2.3627 -1.3556
    3MPD1    H314143   2.732   4.404  10.408 -0.7415 -0.3031  0.4857
    3MPD1     N14144   2.952   4.255  10.781 -0.0452 -0.4213 -0.5123
    3MPD1    H514145   3.047   4.229  10.806 -0.9710 -2.9370  0.3144
    3MPD1    N114146   3.185   4.424  10.408 -0.1020 -0.5958  0.2394
    3MPD1    H614147   3.260   4.433  10.477  2.6841 -2.8958 -2.4663
    3MPD1    H714148   3.181   4.508  10.351 -1.2281  0.0865  1.3327
    4MPD2     C14149   3.075   4.220  12.050 -0.5975 -0.6738 -0.1240
    4MPD2    C114150   3.179   4.129  12.079 -0.3753 -0.6350 -0.3374
    4MPD2    C214151   3.307   4.163  12.033 -0.8909 -1.0838  0.4304
    4MPD2    C314152   3.333   4.278  11.958 -0.4428  0.0784  0.9739
    4MPD2    C414153   3.226   4.365  11.926 -0.5369 -0.3234 -0.0478
    4MPD2    C514154   3.099   4.338  11.978  0.2251  0.4866  0.2794
    4MPD2     H14155   3.386   4.095  12.062  3.2422  3.7529  0.4899
    4MPD2    H114156   3.238   4.464  11.883  1.4415 -1.2000 -1.4891
    4MPD2    H214157   2.978   4.206  12.097 -0.2629  0.7617  1.0041
    4MPD2    H314158   3.026   4.419  11.981 -0.2417 -0.0029  2.7178
    4MPD2     N14159   3.463   4.294  11.909 -0.4415  0.2592 -0.0809
    4MPD2    H514160   3.520   4.212  11.931 -0.2025  0.2465 -0.7464
    4MPD2    N114161   3.174   4.008  12.145 -0.3518 -0.0575  0.6241
    4MPD2    H714162   3.264   3.962  12.160  0.3187  1.1919  0.4850
    5TMC3    C114163   3.064   3.810  12.219  0.9895 -0.3551  0.1107
    5TMC3    C214164   2.974   3.730  12.156  0.4034 -0.2486 -0.1436
    5TMC3    C314165   3.027   3.624  12.078 -0.0771 -0.4319 -0.2919
    5TMC3    C414166   3.195   3.771  12.218  0.0344  0.7762  0.1367
    5TMC3    C514167   3.248   3.674  12.136 -0.7571  0.0667  1.0739
    5TMC3    C614168   3.164   3.595  12.057 -0.1016  0.4052  0.2812
    5TMC3     C14169   3.053   3.950  12.175 -0.2321  0.8394  0.2282
    5TMC3     O14170   2.937   3.997  12.167 -0.2266  0.0090 -0.2820
    5TMC3     H14171   2.877   3.767  12.127  0.4380 -2.1369 -2.6893
    5TMC3    H114172   3.259   3.812  12.295  1.6011 -2.3688  0.5302
    5TMC3    H214173   3.201   3.520  11.988 -0.1393  1.6529 -1.0741
    5TMC3    C714174   3.372   3.722  12.072  0.6263  0.1567 -0.1310
    5TMC3    C814175   2.930   3.535  12.020  0.1234 -0.4307  1.0175
    5TMC3    O114176   3.411   3.836  12.092  0.5627 -0.2474  0.1000
    5TMC3    O214177   2.992   3.463  11.940  0.5805  0.4862  0.8175
    6TMC3    C114178   2.836   4.110  11.214  0.2604 -0.1319  0.1112
    6TMC3    C214179   2.801   4.139  11.086  0.3021 -0.2161  0.2810
    6TMC3    C314180   2.895   4.162  10.991 -0.0768 -0.0248 -0.9636
    6TMC3    C414181   2.969   4.078  11.239  0.0402 -0.5123 -0.2532
    6TMC3    C514182   3.063   4.102  11.146  0.5918  0.3006  0.0335
    6TMC3    C614183   3.031   4.153  11.022 -0.0188  0.7194 -0.5968
    6TMC3     C14184   2.731   4.071  11.304  0.2394  0.6677 -0.5081
    6TMC3     O14185   2.749   3.971  11.375 -0.4154  0.3006 -0.4338
    6TMC3     H14186   2.696   4.138  11.060  0.1449  0.3529  0.9151
    6TMC3    H114187   3.000   4.042  11.337  0.4283  0.1621 -0.1342
    6TMC3    H214188   3.113   4.184  10.958  0.3812 -0.6497 -0.7387
    6TMC3    C714189   3.195   4.128  11.198  0.4759  0.3688  0.1850
    6TMC3    C814190   2.848   4.237  10.872 -0.0517  0.1740  0.1410
    6TMC3    O114191   3.207   4.174  11.309  0.1847  0.2902  0.4697
    6TMC3    O214192   2.731   4.275  10.871  0.3268  0.3087  0.4666
    7MPD2     C14193   3.709   3.711  11.685 -0.5417  0.0790  0.0139
    7MPD2    C114194   3.659   3.819  11.765 -0.6137  0.9108 -0.0653
    7MPD2    C214195   3.556   3.790  11.850  0.2092  0.8489 -0.2673
    7MPD2    C314196   3.515   3.660  11.876 -0.9172  0.6124 -0.2065
    7MPD2    C414197   3.555   3.562  11.796  0.0083  0.1178 -0.3182
    7MPD2    C514198   3.650   3.587  11.705 -0.1424  0.1465 -0.8382
    7MPD2     H14199   3.520   3.876  11.906 -0.6494 -0.0575  0.5625
    7MPD2    H114200   3.527   3.459  11.815  0.8967  0.4830  2.9489
    7MPD2    H214201   3.784   3.728  11.608 -0.2077  0.5666  0.4421
    7MPD2    H314202   3.671   3.503  11.641 -0.1056  0.6182 -1.4438
    7MPD2     N14203   3.418   3.632  11.975 -0.0248 -0.1106 -0.6430
    7MPD2    H514204   3.390   3.535  11.980 -0.5667  0.1385  1.3628
    7MPD2    N114205   3.718   3.946  11.753  0.3499  0.4231  0.2058
    7MPD2    H714206   3.798   3.956  11.690  1.1483  0.8636  1.2930
    8TMC3    C114207   3.737   4.177  11.775  0.6263  0.5545 -0.4813
    8TMC3    C214208   3.731   4.183  11.636  0.0817 -0.3967 -0.0676
    8TMC3    C314209   3.678   4.303  11.584  1.8626 -0.4750  0.1802
    8TMC3    C414210   3.691   4.286  11.844 -0.2065 -0.1608 -0.1157
    8TMC3    C514211   3.642   4.391  11.789  0.1974 -0.6296 -0.3258
    8TMC3    C614212   3.644   4.412  11.657  0.1430  0.4874  0.0732
    8TMC3     C14213   3.694   4.052  11.833  0.1149  0.4775 -0.5502
    8TMC3     O14214   3.636   4.067  11.938  0.1637  0.5516 -0.5114
    8TMC3     H14215   3.774   4.107  11.571  2.1462 -0.4650  1.3780
    8TMC3    H114216   3.695   4.287  11.953  0.4804  0.2830 -0.1485
    8TMC3    H214217   3.595   4.493  11.605 -0.2351 -0.1378 -0.5378
    8TMC3    C714218   3.503   4.400  11.821 -0.0761  0.3683 -0.4347
    8TMC3    C814219   3.627   4.293  11.448  0.6573 -0.3859 -0.4089
    8TMC3    O114220   3.448   4.503  11.788  0.1526 -0.0239 -0.4360
    8TMC3    O214221   3.551   4.379  11.411 -0.0350  0.2440  0.7301
    9MPD2     C14222   3.710   4.094  11.150 -0.1282 -0.1051  0.3809
    9MPD2    C114223   3.634   4.150  11.249 -0.5371  0.3584  0.0201
    9MPD2    C214224   3.497   4.158  11.231  0.0617 -0.6831 -0.6407
    9MPD2    C314225   3.433   4.096  11.125  0.1173 -0.0183 -0.0024
    9MPD2    C414226   3.515   4.040  11.031 -0.7291 -0.2580 -0.2718
    9MPD2    C514227   3.650   4.030  11.040  0.2219 -0.7569  0.0027
    9MPD2     H14228   3.438   4.213  11.303  1.7322  0.6201 -0.2785
    9MPD2    H114229   3.455   4.008  10.946 -2.4337  0.9384  0.4698
    9MPD2    H214230   3.818   4.083  11.154 -0.1441 -0.4656 -0.1214
    9MPD2    H314231   3.701   3.964  10.971  3.6761 -0.1904  1.9907
    9MPD2     N14232   3.293   4.089  11.102 -0.5548  0.9855 -1.1095
    9MPD2    H514233   3.250   4.034  11.027 -2.1248 -0.5518  0.9183
    9MPD2    N114234   3.690   4.197  11.371 -0.2127  0.1098  0.5375
    9MPD2    H714235   3.785   4.178  11.403  0.1048 -1.7135 -1.4463
    1MPD1     C14236   2.110   4.027  16.851 -0.0289  0.2238  0.4414
    1MPD1    C114237   2.018   3.921  16.856 -0.0210 -0.2995  0.0346
    1MPD1    C214238   1.999   3.847  16.971 -0.7193  0.5158 -0.6223
    1MPD1    C314239   2.073   3.879  17.087  0.1402 -0.2782 -0.1701
    1MPD1    C414240   2.160   3.983  17.081 -0.2537  0.1624  1.2965
    1MPD1    C514241   2.180   4.058  16.967  0.2122  0.3592  0.4589
    1MPD1     H14242   1.927   3.766  16.966 -1.9659  1.8254 -4.0251
    1MPD1    H114243   2.222   4.009  17.165  2.6282 -1.0785 -0.4560
    1MPD1    H214244   2.113   4.083  16.758  3.1133  1.7742  1.5079
    1MPD1    H314245   2.243   4.146  16.971  0.4540  0.3331 -2.8370
    1MPD1     N14246   2.067   3.804  17.206 -0.5691 -0.4342 -0.4365
    1MPD1    H514247   2.135   3.839  17.273 -1.8677 -1.2573  1.2893
    1MPD1    N114248   1.961   3.881  16.738 -0.3284 -0.0369  0.3530
    1MPD1    H614249   1.862   3.856  16.744 -0.5704  0.4669 -1.3830
    1MPD1    H714250   1.977   3.951  16.665  3.8826  0.1560  1.4572
    2MPD1     C14251   1.605   3.713   0.371 -0.1802  0.2956  0.1872
    2MPD1    C114252   1.557   3.645   0.265 -0.3394  0.1491  0.8984
    2MPD1    C214253   1.647   3.597   0.166 -0.1035  0.1385  0.0515
    2MPD1    C314254   1.783   3.636   0.177  0.1606 -0.3498  0.1662
    2MPD1    C414255   1.821   3.722   0.281  0.2462 -0.5800 -0.0197
    2MPD1    C514256   1.739   3.753   0.379 -0.6757 -0.2244  0.6514
    2MPD1     H14257   1.613   3.524   0.093 -0.5604  0.2169  0.1842
    2MPD1    H114258   1.926   3.749   0.282  0.1046 -0.0774  0.7431
    2MPD1    H214259   1.538   3.738   0.453 -1.3499 -1.9556 -0.0773
    2MPD1    H314260   1.782   3.811   0.459 -0.6303  1.1493 -0.3647
    2MPD1     N14261   1.884   3.599   0.084 -0.0783 -0.8786 -0.0242
    2MPD1    H514262   1.980   3.627   0.100 -0.5743  1.3515 -0.8969
    2MPD1    N114263   1.423   3.607   0.264  0.1326  0.1562 -0.0794
    2MPD1    H614264   1.393   3.559   0.180  0.1699 -1.9586  1.1006
    2MPD1    H714265   1.360   3.683   0.287  3.2554  2.2508  1.5038
    3TCq2    C114266   1.855   3.545  17.654 -0.0049  0.2385  0.3105
    3TCq2    O214267   1.748   3.525  17.603 -0.2897  0.4832 -0.7723
    3TCq2    C214268   1.967   3.549  17.567  0.0309  0.7084  0.0646
    3TCq2    C314269   2.097   3.569  17.612  0.4338  0.2522  1.0648
    3TCq2    C414270   2.187   3.628  17.528  0.3556 -0.8094 -0.3779
    3TCq2    C514271   2.164   3.646  17.400 -0.5727  0.2768  0.7636
    3TCq2    C614272   2.038   3.621  17.354 -0.1866 -0.4857  0.1350
    3TCq2    C714273   1.931   3.573  17.433 -0.4497  0.3959 -0.3173
    3TCq2    C814274   1.994   3.691  17.236  0.3902 -0.0718  0.5312
    3TCq2    O414275   1.895   3.642  17.180 -0.4357  0.0966  0.9576
    3TCq2    C914276   2.319   3.661  17.580  1.0541  0.3369  0.0263
    3TCq2    O514277   2.354   3.584  17.678  0.4115  0.1405  0.3523
    3TCq2    O614278   2.387   3.737  17.511 -0.1323 -0.2581 -0.2702
    3TCq2    H214279   2.131   3.542   0.023  2.6272  1.0676  0.5409
    3TCq2    H314280   2.246   3.684  17.340  0.3578 -3.7306 -0.5386
    3TCq2    H414281   1.832   3.561  17.392 -0.3449  0.1767 -0.4999
    1TCq1    O114282   0.878   2.698  12.220 -0.2989 -0.7042 -0.4090
    1TCq1    C114283   0.883   2.757  12.335  0.2198 -0.1381 -0.0275
    1TCq1    O214284   0.805   2.732  12.422  0.5911  0.2804 -0.3332
    1TCq1    C214285   1.011   2.826  12.351  0.9273  0.1403 -0.3160
    1TCq1    C314286   1.083   2.846  12.235 -0.7784  0.2246  0.3619
    1TCq1    C414287   1.216   2.871  12.262 -0.7625 -0.2937 -0.0994
    1TCq1    C514288   1.277   2.867  12.386 -0.2741  0.0592 -0.0868
    1TCq1    C614289   1.201   2.833  12.496 -0.3385  0.5899  0.2844
    1TCq1    C714290   1.072   2.814  12.477  0.0787  0.3524 -0.1778
    1TCq1    C814291   1.259   2.855  12.629 -0.4992 -0.2323  0.5010
    1TCq1    O414292   1.355   2.929  12.646 -0.6454 -0.7662  0.1157
    1TCq1    C914293   1.285   2.926  12.147 -0.4844  0.1380 -0.5843
    1TCq1    O514294   1.411   2.947  12.157 -0.3598  0.3230 -0.0314
    1TCq1    O614295   1.213   2.969  12.053  0.0099 -0.2914  0.1318
    1TCq1    H114296   0.945   2.719  12.150  0.5744 -0.9229  0.3601
    1TCq1    H214297   1.042   2.859  12.136  1.4329  0.8182 -0.4770
    1TCq1    H314298   1.380   2.893  12.406 -0.4128  0.5624 -0.0174
    1TCq1    H414299   1.017   2.778  12.563  1.3873  0.8286  0.8506
    2MPD2     C14300   1.263   2.870  12.921  0.3479  0.5384 -0.0678
    2MPD2    C114301   1.217   2.759  12.853 -0.3144 -0.8219 -0.4824
    2MPD2    C214302   1.204   2.639  12.919  0.1694  0.7839 -0.5415
    2MPD2    C314303   1.229   2.632  13.056  0.5210 -0.3566  0.0721
    2MPD2    C414304   1.266   2.740  13.129  0.7316  0.7921  0.3864
    2MPD2    C514305   1.291   2.856  13.053 -0.1242  0.2065  0.2845
    2MPD2     H14306   1.183   2.548  12.864 -0.3934 -0.1959  1.3078
    2MPD2    H114307   1.295   2.742  13.234 -0.7312 -2.3535  0.8325
    2MPD2    H214308   1.265   2.971  12.880  0.0800  1.8802  3.2797
    2MPD2    H314309   1.334   2.949  13.090 -0.5272 -0.0419  1.3456
    2MPD2     N14310   1.228   2.513  13.118 -0.1217  0.0271  0.0048
    2MPD2    H514311   1.195   2.443  13.052 -2.7515  1.9430 -0.7151
    2MPD2    N114312   1.203   2.760  12.710  0.0315  0.6210 -0.4126
    2MPD2    H714313   1.182   2.671  12.665 -0.6237  1.1210 -1.0859
    3TCq1    O114314   1.062   1.931  13.288 -0.4145  0.5390 -0.5767
    3TCq1    C114315   1.054   2.066  13.288  0.4264  0.2775 -0.9758
    3TCq1    O214316   0.972   2.131  13.347  0.1115  0.2048 -0.2953
    3TCq1    C214317   1.183   2.129  13.263  0.6735 -0.0446 -0.4970
    3TCq1    C314318   1.307   2.069  13.289 -0.7360  0.4555  0.6977
    3TCq1    C414319   1.421   2.139  13.302 -0.3553  0.3003  0.5289
    3TCq1    C514320   1.411   2.275  13.302 -0.3525  0.4763  0.4478
    3TCq1    C614321   1.299   2.333  13.249  0.2293 -0.1858 -0.0749
    3TCq1    C714322   1.181   2.268  13.241  0.0388  0.1753  1.0272
    3TCq1    C814323   1.302   2.477  13.230  0.2601  0.3912 -0.4504
    3TCq1    O414324   1.373   2.538  13.310 -0.7403  0.9086 -0.0088
    3TCq1    C914325   1.542   2.070  13.339 -0.3561 -0.0097 -1.2049
    3TCq1    O514326   1.641   2.131  13.384 -0.2112  0.3830  0.3114
    3TCq1    O614327   1.551   1.952  13.306  0.2157 -0.2779 -0.3394
    3TCq1    H114328   1.124   1.885  13.227  1.3642  0.7867  1.0587
    3TCq1    H214329   1.311   1.962  13.303 -0.6742  0.6279  1.9837
    3TCq1    H314330   1.501   2.327  13.335  0.0165  1.5655 -2.2444
    3TCq1    H414331   1.087   2.321  13.226  0.7163  0.9286 -0.6201
    1MPD2     C14332   0.058   3.200  13.869 -0.3341  0.0846 -0.3708
    1MPD2    C114333   4.720   3.276  13.968  0.7506 -0.0938  0.3272
    1MPD2    C214334   4.587   3.244  13.996 -0.1260  0.5445  0.1055
    1MPD2    C314335   4.521   3.139  13.945 -0.4510  0.3772 -0.2978
    1MPD2    C414336   4.584   3.060  13.853  0.1936 -0.0583  0.5944
    1MPD2    C514337   4.715   3.094  13.813 -0.1249 -0.6575 -0.1052
    1MPD2     H14338   4.528   3.309  14.060  1.2506  0.5903  1.3192
    1MPD2    H114339   4.527   2.978  13.810 -2.4573  2.4749 -0.7180
    1MPD2    H214340   0.163   3.217  13.849  0.0927 -3.2625 -0.9166
    1MPD2    H314341   0.055   3.030  13.751 -0.3027 -0.3459 -0.6030
    1MPD2     N14342   4.387   3.095  13.977 -0.3512 -0.3069  0.2331
    1MPD2    H514343   4.345   3.012  13.938  2.3750 -1.4578 -0.2743
    1MPD2    N114344   0.059   3.389  14.025  0.0222  0.7067  0.5412
    1MPD2    H714345   0.152   3.413  13.995 -0.9804  1.2634 -2.1148
    2TMC3    C114346   0.105   3.539  14.206  0.6170  0.3017 -0.5117
    2TMC3    C214347   0.063   3.553  14.330 -0.2864 -0.4295 -0.6432
    2TMC3    C314348   0.048   3.672  14.395  0.0040 -0.1756  0.2827
    2TMC3    C414349   0.134   3.653  14.134 -0.1353  0.4724  0.3572
    2TMC3    C514350   0.131   3.771  14.197 -0.0021 -0.2788 -0.0104
    2TMC3    C614351   0.073   3.784  14.325 -0.7954 -0.7120 -0.2952
    2TMC3     C14352   0.017   3.454  14.141 -0.2023  0.2644  0.1277
    2TMC3     O14353   4.638   3.438  14.203  0.6836  0.2468  0.0598
    2TMC3     H14354   0.039   3.462  14.385  0.1406 -0.6214 -0.7720
    2TMC3    H114355   0.167   3.650  14.031  0.4080 -0.0302  0.5421
    2TMC3    H214356   0.054   3.881  14.369 -1.9218 -0.4213 -1.4090
    2TMC3    C714357   0.155   3.893  14.128  0.2571 -0.2972 -0.3742
    2TMC3    C814358   4.651   3.671  14.483 -0.8108  0.3358 -0.1900
    2TMC3    O114359   0.127   3.896  14.008  0.6722  0.1646 -0.0073
    2TMC3    O214360   4.654   3.743  14.583  0.2629  0.6097  0.0372
    3TCq1    O114361   0.808   0.111  14.021  0.1667  0.1092 -0.2648
    3TCq1    C114362   0.845   0.115  14.147 -0.5739  0.8477 -0.2446
    3TCq1    O214363   0.889   0.211  14.208  0.4236 -0.2779 -0.3669
    3TCq1    C214364   0.772   0.012  14.219 -0.1427 -0.2581  0.0554
    3TCq1    C314365   0.810   4.709  14.347 -0.1210 -0.2996  0.9662
    3TCq1    C414366   0.731   4.630  14.428 -0.8724  0.1801 -0.4651
    3TCq1    C514367   0.624   4.564  14.384 -0.7206 -0.4508  0.5118
    3TCq1    C614368   0.581   4.602  14.255 -0.0868 -0.2966 -0.0772
    3TCq1    C714369   0.646   4.691  14.175  0.2203 -0.0564 -0.3169
    3TCq1    C814370   0.471   4.536  14.187  0.4710  0.3347  0.5909
    3TCq1    O414371   0.432   4.589  14.082 -0.6335  0.3653 -0.0800
    3TCq1    C914372   0.765   4.602  14.559 -0.3643 -0.2205  0.5400
    3TCq1    O514373   0.867   4.656  14.615  0.3044 -0.2201 -0.1371
    3TCq1    O614374   0.677   4.551  14.628  0.0708  0.2279 -0.2441
    3TCq1    H114375   0.796   0.021  13.983  2.3170 -0.2813 -0.0097
    3TCq1    H214376   0.898   0.036  14.388  0.6885 -2.1641  1.4615
    3TCq1    H314377   0.564   4.491  14.438 -1.1547 -1.9335 -1.9903
    3TCq1    H414378   0.622   4.709  14.071  0.0032 -2.0834 -0.6155
    4MPD2     C14379   0.221   4.395  14.107 -0.8733  0.2400 -0.6975
    4MPD2    C114380   0.308   4.344  14.199 -0.3892  0.6033 -0.1447
    4MPD2    C214381   0.299   4.213  14.239 -0.0211  0.4909 -0.5847
    4MPD2    C314382   0.213   4.125  14.175  0.1361 -0.0834 -0.2165
    4MPD2    C414383   0.142   4.174  14.066  0.4346 -0.3176 -0.4298
    4MPD2    C514384   0.131   4.311  14.042 -0.1979 -0.5336  0.3080
    4MPD2     H14385   0.345   4.179  14.331 -0.4329 -0.2941 -0.6590
    4MPD2    H114386   0.065   4.110  14.025  0.8629  0.4707 -2.4970
    4MPD2    H214387   0.210   4.501  14.088 -1.4212  0.2673 -0.2134
    4MPD2    H314388   0.052   4.351  13.979 -0.0025 -1.8359 -0.7802
    4MPD2     N14389   0.218   3.987  14.209 -1.0241  0.5199 -0.0746
    4MPD2    H514390   0.273   3.963  14.291 -1.8192  0.9559  0.5912
    4MPD2    N114391   0.419   4.420  14.247 -0.6583  0.4819  0.5269
    4MPD2    H714392   0.475   4.374  14.317  0.1949  1.0298  0.2114
    5TMC2    C114393   4.078   3.093  14.333 -0.2291  0.2021 -0.1090
    5TMC2    C214394   4.102   2.967  14.375  0.0653  0.0079 -0.6663
    5TMC2    C314395   4.173   2.893  14.292 -0.3651 -0.3380 -0.0325
    5TMC2    C414396   4.129   3.138  14.213  0.2269  0.1676  0.1968
    5TMC2    C514397   4.203   3.064  14.131 -0.0414 -0.7918  0.2998
    5TMC2    C614398   4.228   2.933  14.169  0.1234  0.9628  0.0176
    5TMC2     C14399   4.105   3.192  14.443 -0.7243 -0.1295 -0.4582
    5TMC2     O14400   4.062   3.166  14.553  0.1920  0.2540  0.8547
    5TMC2     H14401   4.082   2.940  14.478 -2.2603  0.6426 -0.9413
    5TMC2    H114402   4.095   3.234  14.178  1.1440  0.3879 -0.0707
    5TMC2    H214403   4.285   2.863  14.109 -1.7882 -0.4994 -0.0630
    5TMC2    C714404   4.316   3.145  14.087 -0.0157 -0.0786 -0.4357
    5TMC2    C814405   4.223   2.772  14.360  0.2362  0.6556 -0.1324
    5TMC2    O114406   4.337   3.249  14.146  0.1516  0.6311 -0.2717
    5TMC2    O214407   4.157   2.720  14.445 -0.4836  0.5084 -0.3040
    5TMC2    O514408   4.296   2.702  14.272  0.0643  0.1158  0.4721
    5TMC2    H514409   4.364   2.754  14.224  1.2983 -0.4960  1.5636
    6MPD2     C14410   4.433   3.542  14.641  0.4935  0.3174  0.2854
    6MPD2    C114411   4.452   3.523  14.507 -0.2223  0.3743  0.5935
    6MPD2    C214412   4.367   3.446  14.430 -0.7564  0.4698 -0.0120
    6MPD2    C314413   4.271   3.367  14.493  0.1748  0.4562  0.3233
    6MPD2    C414414   4.248   3.385  14.628 -0.6199 -0.2085 -0.5191
    6MPD2    C514415   4.317   3.486  14.693 -0.1396 -0.6132 -0.1394
    6MPD2     H14416   4.382   3.430  14.324  1.0107  1.1123  0.1349
    6MPD2    H114417   4.179   3.327  14.688 -2.0537  0.0672 -1.9013
    6MPD2    H214418   4.494   3.607  14.703  0.3538 -0.4258  1.2101
    6MPD2    H314419   4.291   3.506  14.796 -0.2507 -1.5211  0.0085
    6MPD2     N14420   4.209   3.272  14.413 -0.1041 -0.2199  0.6815
    6MPD2    H514421   4.240   3.267  14.317  2.1021 -0.8000  1.4146
    6MPD2    N114422   4.562   3.579  14.438 -0.2695  0.2996 -0.4724
    6MPD2    H714423   4.579   3.540  14.345 -1.9596  0.4138 -0.8304
  945NH3     N114424   4.435   4.596   1.559  0.4266  0.5049 -0.4931
  945NH3     H214425   4.363   4.647   1.509 -1.7573  0.0368  2.1736
  945NH3     H314426   4.400   4.570   1.650 -1.0924 -1.8240 -1.7277
  945NH3     H414427   4.463   4.521   1.496 -1.3957 -1.1952  0.7042
  946SOD     NA14428   0.763   4.659  14.817 -0.1760  0.1448  0.5926
  947SOD     NA14429   2.237   2.456  14.505  0.0099 -0.1433 -1.0668
  948SOD     NA14430   3.259   1.234   9.100  0.1215  0.0776  0.0100
  949SOD     NA14431   1.858   1.072   3.291  0.4817 -0.2318  0.0698
  950SOD     NA14432   1.323   0.802  16.753  0.0852 -0.1730 -0.4105
  951SOD     NA14433   1.651   2.376  17.050 -0.0530 -0.8390  0.0625
  952SOD     NA14434   0.669   1.845   9.958 -0.2015  0.3684  0.3060
  953SOD     NA14435   0.014   3.358   9.949  0.3879  0.1815  0.1267
  954SOD     NA14436   1.414   2.470  11.321  0.3534  0.1396 -0.0986
  955SOD     NA14437   0.619   1.648  12.669  0.0033  0.4134 -0.2773
  956SOD     NA14438   2.415   2.764  14.456  0.1084  0.0208  0.0844
  957SOD     NA14439   1.127   2.398  11.410  0.2214 -0.0239  0.5899
  958SOD     NA14440   2.663   1.407   7.179 -0.3787 -0.0308 -0.0934
  959SOD     NA14441   1.800   0.910  17.198  0.0525 -0.2918  0.3423
  960SOD     NA14442   1.599   2.841  12.144 -0.0959 -0.7889  0.0251
  961SOD     NA14443   1.151   2.714  11.368 -0.2848  0.0483  0.3773
  962SOD     NA14444   1.516   2.129  11.786  0.1464  0.2263 -0.1826
  963SOD     NA14445   1.075   3.109   1.543  0.2266  0.2313 -0.2586
  964SOD     NA14446   2.813   2.588   0.736  0.1462  0.0565 -0.2466
  965SOD     NA14447   3.576   4.394   6.041 -0.0807 -0.3208 -0.8065
  966SOD     NA14448   2.954   1.954  12.388 -0.2424  0.0898  0.1737
  967SOD     NA14449   4.003   1.213   6.766  0.3854 -0.3207  0.2616
  968SOD     NA14450   2.493   2.781  14.134  0.0113 -0.1831  0.0120
  969SOD     NA14451   0.470   3.755   8.327 -0.4007 -0.1854  0.1613
  970SOD     NA14452   1.109   1.711   7.853  0.4755  0.4681  0.2722
  971SOD     NA14453   2.120   2.785  14.592  0.0992  0.0876  0.0029
  972SOD     NA14454   1.185   4.170  10.882 -0.1725 -0.2680 -0.2519
  973SOD     NA14455   1.559   0.222   1.467 -0.1218 -0.0403  0.3710
  974SOD     NA14456   1.487   2.440  13.700 -0.1828  0.2699  0.1329
  975SOD     NA14457   0.644   2.111   9.361 -0.2359  0.8446 -0.2519
  976SOD     NA14458   1.393   2.175  11.203 -0.1922 -0.4957  0.3285
  977SOD     NA14459   2.513   1.840  13.590  0.2576  0.1470  0.1527
  978SOD     NA14460   0.728   2.377   9.555  0.4879  0.3404  0.2023
  979SOD     NA14461   3.989   1.728  11.837 -0.1203  0.0197  0.1801
  980SOD     NA14462   1.943   0.606  14.109 -0.0911  0.2181  0.1347
  981SOD     NA14463   0.676   2.810  14.371 -0.4350 -0.5403 -0.0446
  982SOD     NA14464   2.930   1.698   0.107 -0.1542 -0.2329  0.0441
  983SOD     NA14465   2.240   3.125  14.938  0.3106 -0.1296 -0.1501
  984SOD     NA14466   1.298   2.329  13.907  0.2165  0.2421  0.3350
  985SOD     NA14467   1.119   4.363  16.263  0.7673 -0.6710 -0.4607
  986SOD     NA14468   2.719   0.031  17.120  0.4501 -0.4494 -0.2210
  987SOD     NA14469   4.718   0.142  14.154 -0.0944  0.2846 -0.2087
  988SOD     NA14470   3.817   1.796  10.744 -0.2140 -0.0104 -0.0381
  989SOD     NA14471   1.961   0.940  15.685 -0.3152 -0.6315 -0.1668
  990SOD     NA14472   0.547   3.318   1.498  0.0982 -0.3800  0.0878
  991SOD     NA14473   2.747   4.097  12.206  0.4556 -0.5746  0.1137
  992SOD     NA14474   4.301   2.736   9.452  0.0945  0.1009 -0.2071
  993SOD     NA14475   0.531   1.613  10.399 -0.2158  0.1088 -0.5155
  994SOD     NA14476   0.173   3.503   8.006 -0.6528  0.1726  0.0584
  995SOD     NA14477   1.900   2.407  10.839  0.0029 -0.5448  0.7064
  996SOD     NA14478   1.385   0.021   8.323 -0.0867  0.5117  0.7274
  997SOD     NA14479   3.373   1.267   3.307 -0.4987 -0.4322 -0.2090
  998SOD     NA14480   0.482   1.890  10.185  0.1134  0.2818  0.0281
  999SOD     NA14481   1.717   0.628   0.784  0.3159 -0.6705  0.2520
 1000SOD     NA14482   3.881   0.026   2.470  0.3290 -0.0253 -0.0664
 1001SOD     NA14483   1.267   3.075  10.504 -0.4718  0.1358 -0.1103
 1002SOD     NA14484   3.291   3.280  12.511  0.2646 -0.0624  0.2555
 1003SOD     NA14485   2.344   2.527   9.608 -0.4460  0.1484  0.1021
 1004SOD     NA14486   0.704   2.592   0.511  0.2347  0.0860  0.2989
 1005SOD     NA14487   4.294   1.687  14.658 -0.2566 -0.0581 -0.3107
 1006SOD     NA14488   3.723   2.027  10.975 -0.1795 -0.4817  0.3945
 1007SOD     NA14489   1.917   0.504   0.602 -0.2257 -0.3787 -0.4448
 1008SOD     NA14490   2.419   0.213  14.159 -0.1508 -0.0544  0.0747
 1009SOD     NA14491   3.921   0.693  17.329 -0.4068 -0.1792 -0.1902
 1010SOD     NA14492   2.883   2.333   1.973  0.6003  0.0662 -0.7133
 1011SOD     NA14493   2.493   2.063   6.993  0.0455  0.2225 -0.1653
 1012SOL     OW14494   1.114   2.985  10.062 -0.1273 -0.5036 -0.3979
 1012SOL    HW114495   1.205   2.960  10.046 -0.3475 -0.2899 -1.9775
 1012SOL    HW214496   1.066   2.939   9.993 -0.7953  1.2793 -1.1058
 1013SOL     OW14497   3.712   3.046  14.675 -0.3429  0.0699 -0.4531
 1013SOL    HW114498   3.708   3.013  14.764  2.3854  2.3460  0.4952
 1013SOL    HW214499   3.738   3.138  14.686  0.2687 -0.1596 -0.0222
 1014SOL     OW14500   0.855   3.968   6.827  0.4133 -0.0300  0.1031
 1014SOL    HW114501   0.894   4.022   6.758  0.2768 -1.6193 -1.1886
 1014SOL    HW214502   0.827   4.030   6.894 -2.1513 -1.9018  0.7436
 1015SOL     OW14503   0.695   2.599  12.626 -0.2426  0.0589 -0.0397
 1015SOL    HW114504   0.694   2.650  12.545  1.1007  1.2444  0.6920
 1015SOL    HW214505   0.619   2.544  12.605 -0.4554  0.0195  0.8213
 1016SOL     OW14506   3.757   4.605  11.065  0.2537 -0.0147 -0.6561
 1016SOL    HW114507   3.833   4.663  11.067  0.4354 -0.3098  0.5444
 1016SOL    HW214508   3.762   4.580  10.972 -0.5977  0.4471 -0.8325
 1017SOL     OW14509   3.672   2.886   3.596  0.1460 -0.3347 -0.0574
 1017SOL    HW114510   3.755   2.929   3.572 -0.5466  2.6058  2.7803
 1017SOL    HW214511   3.606   2.927   3.541  0.3694 -1.7221 -1.3492
 1018SOL     OW14512   0.868   1.308   3.110  0.1813  0.3201  0.0456
 1018SOL    HW114513   0.830   1.360   3.181 -2.3764  0.1439 -1.1820
 1018SOL    HW214514   0.791   1.299   3.053  1.4489  4.4551 -2.3969
 1019SOL     OW14515   3.973   4.705   9.206 -0.3820  0.0794  0.1735
 1019SOL    HW114516   3.977   0.066   9.158  0.5619 -0.5986 -0.9128
 1019SOL    HW214517   4.008   0.003   9.293 -0.5066  0.5383  0.1240
 1020SOL     OW14518   4.320   4.042  11.133 -0.0152  0.2988  0.5947
 1020SOL    HW114519   4.324   4.004  11.046 -1.5543  0.1368  0.5898
 1020SOL    HW214520   4.261   3.980  11.176 -1.8021  1.8614  0.4387
 1021SOL     OW14521   2.963   1.300   3.036  0.1617  0.1086  0.5809
 1021SOL    HW114522   2.947   1.221   2.984  0.1542 -0.0062  0.7577
 1021SOL    HW214523   2.940   1.364   2.969 -0.8012  1.0800  1.8425
 1022SOL     OW14524   1.136   2.477  17.394 -0.1299  0.1880 -0.5656
 1022SOL    HW114525   1.157   2.525  17.314  0.1085  0.5291 -0.2975
 1022SOL    HW214526   1.144   2.384  17.376  0.1803  0.1341 -0.1269
 1023SOL     OW14527   0.552   2.662   2.809 -0.1949 -0.8720  0.1356
 1023SOL    HW114528   0.543   2.717   2.887  0.8531 -1.5346  0.7230
 1023SOL    HW214529   0.643   2.636   2.797 -0.5816 -2.0279 -0.3050
 1024SOL     OW14530   1.107   1.239   9.928 -0.0530 -0.1626  0.3120
 1024SOL    HW114531   1.028   1.190   9.902 -0.1171 -0.7375  1.5737
 1024SOL    HW214532   1.153   1.259   9.847 -0.9985 -1.3066 -0.5179
 1025SOL     OW14533   1.336   3.543   6.772 -0.2285  0.0135 -0.2843
 1025SOL    HW114534   1.270   3.526   6.839 -0.9020  1.5992 -0.5291
 1025SOL    HW214535   1.298   3.614   6.720 -1.2700 -0.4721 -0.1787
 1026SOL     OW14536   3.802   0.996   4.817  0.0472  0.6685 -0.4356
 1026SOL    HW114537   3.790   1.082   4.776  1.6892  0.9044 -0.4267
 1026SOL    HW214538   3.863   0.959   4.753 -0.7196  0.0335 -0.7990
 1027SOL     OW14539   0.691   4.446   8.725  0.0770  0.8665  0.1448
 1027SOL    HW114540   0.671   4.504   8.798 -2.4033  2.6134 -1.9256
 1027SOL    HW214541   0.673   4.493   8.644  0.3551  0.3982 -0.1891
 1028SOL     OW14542   3.892   1.449   5.337  0.0062 -0.5040  0.2994
 1028SOL    HW114543   3.979   1.424   5.366  1.2838  0.4621 -2.7288
 1028SOL    HW214544   3.853   1.362   5.327  0.3179 -0.3941 -1.9991
 1029SOL     OW14545   4.322   4.697   6.362  0.4392  0.2412  0.2871
 1029SOL    HW114546   4.255   4.629   6.364  1.7573 -1.0413  1.4449
 1029SOL    HW214547   4.277   0.040   6.417 -0.7476 -0.0481 -0.3507
 1030SOL     OW14548   0.646   0.687  13.080  0.0504  0.1386 -0.5203
 1030SOL    HW114549   0.645   0.620  13.012 -0.4028 -1.8443  1.4347
 1030SOL    HW214550   0.574   0.653  13.133  1.6761  0.9920  2.1962
 1031SOL     OW14551   1.749   2.934  15.701 -0.1212 -0.2759  0.3814
 1031SOL    HW114552   1.815   2.997  15.730 -0.5071  0.3368 -0.0920
 1031SOL    HW214553   1.742   2.888  15.785 -0.1065 -0.3335  0.3512
 1032SOL     OW14554   2.039   0.175   4.729  0.3656  0.3870 -0.2953
 1032SOL    HW114555   1.997   0.222   4.658  1.9333  0.8276 -0.9294
 1032SOL    HW214556   1.996   0.213   4.806 -1.0965 -1.4705 -0.1945
 1033SOL     OW14557   2.456   0.252  16.752  0.7650  0.1727  0.0687
 1033SOL    HW114558   2.482   0.296  16.672 -0.1731  0.0256 -0.3157
 1033SOL    HW214559   2.364   0.229  16.737  0.3356  0.6671  1.9161
 1034SOL     OW14560   0.374   4.584   6.297  0.6698  0.3789 -0.4490
 1034SOL    HW114561   0.466   4.590   6.323  0.6059  1.2577 -0.4302
 1034SOL    HW214562   0.379   4.619   6.208  2.3637  1.9560  0.2578
 1035SOL     OW14563   2.434   0.880   5.644  0.1066 -0.2233  0.5359
 1035SOL    HW114564   2.339   0.871   5.645 -0.1832  2.7382  1.6467
 1035SOL    HW214565   2.449   0.928   5.562  1.1378 -2.3900 -0.5454
 1036SOL     OW14566   1.089   4.013  17.525  0.0533  0.4290 -0.0439
 1036SOL    HW114567   1.156   4.019  17.456  1.2450  0.7959  1.1278
 1036SOL    HW214568   1.011   3.989  17.476  0.5427  0.7051 -0.9662
 1037SOL     OW14569   0.721   1.308   1.046  0.0423  0.1523 -0.0324
 1037SOL    HW114570   0.653   1.366   1.012 -1.0448 -0.1258  1.6694
 1037SOL    HW214571   0.713   1.244   0.975 -1.1552 -0.1053  0.3318
 1038SOL     OW14572   2.236   2.048   2.479 -0.4526  0.4510 -0.2318
 1038SOL    HW114573   2.271   2.015   2.561 -0.8635 -0.4863 -0.4404
 1038SOL    HW214574   2.317   2.077   2.437 -0.8633  0.2638 -1.1547
 1039SOL     OW14575   4.434   4.241  13.889  0.1333 -0.4080  0.2514
 1039SOL    HW114576   4.485   4.185  13.830  1.5059  0.5063  0.5465
 1039SOL    HW214577   4.351   4.199  13.910 -1.4074  0.4146 -4.1867
 1040SOL     OW14578   0.331   0.578  11.853 -0.5751 -0.7031  0.1580
 1040SOL    HW114579   0.307   0.661  11.894 -1.1213 -0.1555 -1.3027
 1040SOL    HW214580   0.393   0.545  11.919  0.4962  0.1464 -0.4243
 1041SOL     OW14581   0.082   0.851  12.284 -0.0534 -0.4932 -0.4060
 1041SOL    HW114582   0.066   0.770  12.236  1.7579 -0.9942 -0.1615
 1041SOL    HW214583   0.066   0.924  12.224 -0.7844 -0.3253 -0.0061
 1042SOL     OW14584   1.870   0.432   8.266  0.0367  0.3868 -0.0952
 1042SOL    HW114585   1.898   0.359   8.322  0.6331  0.2824 -0.5321
 1042SOL    HW214586   1.855   0.507   8.324  2.2749  0.3803  0.5054
 1043SOL     OW14587   3.264   2.739   5.310  0.4277 -0.0698 -0.3107
 1043SOL    HW114588   3.189   2.683   5.327  0.1060  0.3331 -0.4133
 1043SOL    HW214589   3.329   2.671   5.325  1.3045  1.1787  1.5339
 1044SOL     OW14590   1.539   1.663   4.019  1.0087  0.3563 -0.0223
 1044SOL    HW114591   1.617   1.716   4.000  0.9141  0.7400  0.6993
 1044SOL    HW214592   1.541   1.604   3.943 -0.7199  0.0457  0.1842
 1045SOL     OW14593   3.366   1.303  16.738  0.1442 -0.7835  0.1481
 1045SOL    HW114594   3.395   1.212  16.739  1.9470 -0.2236 -0.7447
 1045SOL    HW214595   3.343   1.301  16.830  0.6259 -0.8078  0.2679
 1046SOL     OW14596   4.047   2.689   7.429 -0.2799 -0.1207 -0.0688
 1046SOL    HW114597   4.039   2.594   7.438 -0.0969  0.0059  1.4245
 1046SOL    HW214598   3.999   2.695   7.346 -2.1262  0.8625  1.0869
 1047SOL     OW14599   1.050   2.678  10.376 -0.2137  0.1967 -0.3282
 1047SOL    HW114600   1.015   2.766  10.393  0.4471  0.1687  1.2349
 1047SOL    HW214601   1.103   2.671  10.456  0.5227 -0.3245 -0.8598
 1048SOL     OW14602   2.488   1.343  15.333  0.1650 -0.3342 -0.1549
 1048SOL    HW114603   2.465   1.435  15.346 -0.8396 -0.1994 -2.9647
 1048SOL    HW214604   2.576   1.342  15.372  0.8068  1.6602 -1.5526
 1049SOL     OW14605   1.616   3.227   3.535 -0.8260 -0.7580 -0.1852
 1049SOL    HW114606   1.704   3.207   3.568 -1.3788  0.2415  1.9443
 1049SOL    HW214607   1.635   3.217   3.442 -0.8578  1.1711 -0.3914
 1050SOL     OW14608   2.789   4.250   5.998 -0.3684 -0.2557 -0.3415
 1050SOL    HW114609   2.793   4.240   5.903  2.4441 -0.0128 -0.2478
 1050SOL    HW214610   2.858   4.308   6.031 -1.1887  1.8587 -2.3360
 1051SOL     OW14611   1.701   1.097   0.941  0.3736 -0.2705 -0.5065
 1051SOL    HW114612   1.778   1.081   0.886  0.0324 -0.6845 -0.8643
 1051SOL    HW214613   1.749   1.148   1.006  1.6183 -1.3810 -0.5659
 1052SOL     OW14614   3.895   3.362   6.181  0.0233  0.7729 -0.6654
 1052SOL    HW114615   3.853   3.435   6.227  0.7583  1.3141 -0.8559
 1052SOL    HW214616   3.893   3.387   6.088  0.9203  0.7576 -0.6910
 1053SOL     OW14617   0.712   0.386   9.355  0.2524 -0.1540 -0.4676
 1053SOL    HW114618   0.794   0.336   9.350  0.6627  0.2092  2.2585
 1053SOL    HW214619   0.746   0.471   9.328 -1.6631  0.6278 -0.4381
 1054SOL     OW14620   2.080   2.582  14.692  0.4693 -0.2783 -0.5858
 1054SOL    HW114621   2.131   2.542  14.763  2.5872  0.9995 -1.4028
 1054SOL    HW214622   1.992   2.544  14.697  0.2856  0.4122  1.4531
 1055SOL     OW14623   1.959   1.026   8.571 -0.4560 -0.8234  0.1723
 1055SOL    HW114624   1.917   0.967   8.633  1.5041 -3.9686 -1.4989
 1055SOL    HW214625   1.943   1.110   8.615  2.4499 -0.4201  0.5218
 1056SOL     OW14626   1.568   1.073  10.097 -0.0791  0.4627 -0.4176
 1056SOL    HW114627   1.564   0.994  10.044 -1.0143  0.4035 -0.2642
 1056SOL    HW214628   1.556   1.038  10.186  1.4507 -1.7909 -1.1108
 1057SOL     OW14629   0.851   2.937  15.901 -0.6157 -0.3155 -0.5691
 1057SOL    HW114630   0.856   2.868  15.967 -2.3553  0.7745  0.6884
 1057SOL    HW214631   0.761   2.965  15.914 -0.8616 -1.8208  1.0863
 1058SOL     OW14632   1.689   3.044  12.224  0.1710  0.2219 -0.0493
 1058SOL    HW114633   1.756   3.106  12.196 -1.0540  1.2466 -0.7305
 1058SOL    HW214634   1.690   3.050  12.319  1.7525  0.3207 -0.0744
 1059SOL     OW14635   0.849   1.917   4.736 -0.2421 -0.2036 -0.7959
 1059SOL    HW114636   0.788   1.862   4.686  0.6892 -2.4913  0.6015
 1059SOL    HW214637   0.885   1.987   4.681  2.9881 -0.7111  0.7449
 1060SOL     OW14638   2.849   0.866  13.962  0.5320 -0.0106 -0.2309
 1060SOL    HW114639   2.786   0.811  13.915 -0.2086 -1.1761  2.1111
 1060SOL    HW214640   2.859   0.828  14.049  1.2672 -0.1950 -0.4027
 1061SOL     OW14641   1.417   0.221   4.295 -0.1843 -0.2783  0.3093
 1061SOL    HW114642   1.387   0.182   4.377 -1.7618  0.9375  0.3014
 1061SOL    HW214643   1.337   0.213   4.243  1.0317 -0.1011 -1.5872
 1062SOL     OW14644   4.712   1.316   7.459 -0.0861  0.2842  0.5773
 1062SOL    HW114645   0.018   1.371   7.532 -1.1454 -0.1004  1.2637
 1062SOL    HW214646   0.004   1.227   7.492  0.3470  1.5489  3.7504
 1063SOL     OW14647   1.322   0.664  11.205  0.1261 -0.1056 -0.3811
 1063SOL    HW114648   1.263   0.613  11.150 -2.5527  1.2641  1.2620
 1063SOL    HW214649   1.397   0.670  11.146 -0.5971 -2.1674 -1.5185
 1064SOL     OW14650   0.122   4.364  12.252 -0.5559  0.2654  0.9084
 1064SOL    HW114651   0.199   4.383  12.198 -2.9112  0.1842 -2.4444
 1064SOL    HW214652   0.126   4.430  12.321 -1.6667  1.4633 -0.1753
 1065SOL     OW14653   2.843   4.265   5.718  0.3358 -0.5113 -0.4890
 1065SOL    HW114654   2.787   4.217   5.656 -0.1663 -1.3801  0.6427
 1065SOL    HW214655   2.924   4.217   5.704  0.5167 -0.4545  0.3768
 1066SOL     OW14656   3.437   4.371   1.617  0.2172  0.0927 -0.0285
 1066SOL    HW114657   3.407   4.345   1.705 -1.7690 -0.0637 -0.7717
 1066SOL    HW214658   3.366   4.335   1.564 -0.9504  2.0774  0.1993
 1067SOL     OW14659   0.162   1.529   3.774 -0.2423 -0.0509 -0.3758
 1067SOL    HW114660   0.090   1.539   3.836  1.3417 -1.1731  1.6783
 1067SOL    HW214661   0.113   1.494   3.700  1.7255 -2.3895 -0.5790
 1068SOL     OW14662   4.416   3.016   7.973 -0.0037 -0.5962 -0.2460
 1068SOL    HW114663   4.357   2.981   7.907  1.9567 -0.0920 -2.2487
 1068SOL    HW214664   4.373   2.994   8.056  0.9419  0.2591  0.4700
 1069SOL     OW14665   4.263   3.608   4.671 -0.0445  0.6501 -0.5158
 1069SOL    HW114666   4.343   3.562   4.644 -0.5028 -0.6383  0.3074
 1069SOL    HW214667   4.205   3.536   4.697  0.1539  0.6724  0.0028
 1070SOL     OW14668   0.792   4.302   2.660 -0.0459  0.1014  0.2159
 1070SOL    HW114669   0.755   4.214   2.659  1.0602 -0.3657  0.9547
 1070SOL    HW214670   0.885   4.289   2.645  0.0397  0.2929  0.5915
 1071SOL     OW14671   0.600   1.908   0.694  0.1886 -0.1004  0.3190
 1071SOL    HW114672   0.618   1.814   0.701  0.6542  0.0206  0.7635
 1071SOL    HW214673   0.686   1.947   0.680 -0.5064  1.3768  0.1939
 1072SOL     OW14674   3.325   1.256   7.268  0.3046  0.5349  0.4593
 1072SOL    HW114675   3.318   1.182   7.208 -2.2412  2.3650 -1.4963
 1072SOL    HW214676   3.328   1.333   7.211  0.5767 -1.7252 -2.5404
 1073SOL     OW14677   1.154   0.141   4.416  0.2563 -0.9637 -0.0991
 1073SOL    HW114678   1.077   0.194   4.435  0.9333 -0.6725  1.8134
 1073SOL    HW214679   1.119   0.067   4.367 -1.0503 -1.1146  1.0788
 1074SOL     OW14680   2.662   0.273   4.516 -0.0256 -0.1889 -0.6168
 1074SOL    HW114681   2.638   0.232   4.599  0.1567  1.5066  0.2588
 1074SOL    HW214682   2.739   0.322   4.544 -1.4290  1.6923 -0.0525
 1075SOL     OW14683   4.054   2.547   2.977  0.1653  0.4286 -0.1136
 1075SOL    HW114684   3.994   2.525   2.906 -0.0908 -2.2687  0.9159
 1075SOL    HW214685   4.102   2.619   2.936 -1.1088  2.2017  1.5430
 1076SOL     OW14686   4.287   1.259   7.462 -0.4922  0.1761 -0.0178
 1076SOL    HW114687   4.299   1.344   7.503 -0.2725 -0.7119  1.7520
 1076SOL    HW214688   4.352   1.212   7.514  1.4448  1.3731 -1.3360
 1077SOL     OW14689   0.502   3.901   9.719  0.0361 -0.3202 -0.2640
 1077SOL    HW114690   0.409   3.920   9.713  0.4731  1.5079 -1.0340
 1077SOL    HW214691   0.505   3.885   9.814  0.9632  0.1934 -0.2085
 1078SOL     OW14692   1.131   1.265   1.121  0.0298  0.1513 -0.3571
 1078SOL    HW114693   1.168   1.302   1.041  2.5734  0.2718  0.8523
 1078SOL    HW214694   1.208   1.244   1.175  0.5586  0.7351 -0.8831
 1079SOL     OW14695   2.629   1.736  14.798  0.2471  0.0426 -0.0378
 1079SOL    HW114696   2.562   1.701  14.741  0.7047 -1.3639  0.2950
 1079SOL    HW214697   2.685   1.659  14.794  0.9750  0.6735 -2.0200
 1080SOL     OW14698   3.874   4.505   4.551 -0.1454 -0.4420  0.0172
 1080SOL    HW114699   3.854   4.542   4.637  1.3497 -0.0113  0.1846
 1080SOL    HW214700   3.828   4.424   4.571 -2.6163  1.9970  4.3370
 1081SOL     OW14701   2.408   4.438   5.984 -0.2667  0.6753  0.5784
 1081SOL    HW114702   2.324   4.473   6.012 -0.1189  0.6645  1.0311
 1081SOL    HW214703   2.386   4.397   5.900  0.0094  1.8739 -0.0786
 1082SOL     OW14704   3.587   2.275   2.619 -0.0907  0.1719 -0.2337
 1082SOL    HW114705   3.680   2.276   2.595 -0.1377  2.6779 -0.3409
 1082SOL    HW214706   3.557   2.357   2.579 -1.3442 -0.1758 -0.0006
 1083SOL     OW14707   2.675   0.863   3.038 -0.1161  0.4016 -0.3094
 1083SOL    HW114708   2.588   0.900   3.025 -0.5990 -0.3510  0.8699
 1083SOL    HW214709   2.714   0.915   2.967  2.0293  1.7094  1.8183
 1084SOL     OW14710   3.257   4.510   7.965 -0.0138 -0.6307  0.0685
 1084SOL    HW114711   3.243   4.550   8.051  1.2790  1.8903 -0.8863
 1084SOL    HW214712   3.311   4.435   7.989  1.5702  0.5127  0.0726
 1085SOL     OW14713   2.732   4.634   5.710  0.0748  0.6088  0.3879
 1085SOL    HW114714   2.783   4.714   5.698  0.0766  0.4145 -0.9152
 1085SOL    HW214715   2.644   4.653   5.679 -0.5037 -0.4109  1.4378
 1086SOL     OW14716   4.677   4.667  11.686  0.1382  0.4136 -0.2302
 1086SOL    HW114717   4.654   4.667  11.593 -0.9492 -0.5898  0.0461
 1086SOL    HW214718   0.038   4.713  11.670  0.8670 -1.1961 -1.0844
 1087SOL     OW14719   2.471   2.179   2.470  0.0056  0.0279 -0.0444
 1087SOL    HW114720   2.420   2.256   2.493 -0.3171  0.2152 -1.3895
 1087SOL    HW214721   2.526   2.168   2.547 -0.3978  0.5887  0.3182
 1088SOL     OW14722   0.680   3.534  12.857  0.6031 -0.3417 -0.3171
 1088SOL    HW114723   0.713   3.453  12.817  1.7022  0.5460 -1.1830
 1088SOL    HW214724   0.756   3.591  12.853 -0.2708  0.8147 -0.4217
 1089SOL     OW14725   4.368   0.633   2.139  0.2644 -0.1066 -0.3649
 1089SOL    HW114726   4.298   0.579   2.104 -1.0860  0.3501  1.6284
 1089SOL    HW214727   4.443   0.599   2.090 -1.7152  0.1836 -3.5258
 1090SOL     OW14728   2.955   4.300   3.246 -0.1649  0.1433 -0.4162
 1090SOL    HW114729   2.893   4.255   3.189  1.2734 -1.3375 -0.8207
 1090SOL    HW214730   2.902   4.375   3.276  0.1288 -0.0087  0.4913
 1091SOL     OW14731   1.545   3.701   2.963 -0.7692 -0.0815  0.6830
 1091SOL    HW114732   1.547   3.696   2.867  0.5535 -1.1400  0.7648
 1091SOL    HW214733   1.605   3.635   2.997 -1.9956 -1.8142 -0.5286
 1092SOL     OW14734   1.588   4.263   1.445 -0.6492  0.5759 -0.2105
 1092SOL    HW114735   1.518   4.215   1.401 -0.5447  1.9518 -1.9134
 1092SOL    HW214736   1.539   4.325   1.498  0.8467  1.3773  0.2473
 1093SOL     OW14737   3.717   3.665  12.137  0.0511 -0.2818 -0.3781
 1093SOL    HW114738   3.641   3.646  12.194 -0.6554  4.1849  0.1207
 1093SOL    HW214739   3.709   3.753  12.102 -0.2532 -1.3717 -3.0095
 1094SOL     OW14740   3.326   4.165   5.748 -0.0056 -0.4846  0.7165
 1094SOL    HW114741   3.266   4.096   5.775 -1.9940  0.5357 -1.1081
 1094SOL    HW214742   3.374   4.116   5.682  0.1623 -1.5968  1.6774
 1095SOL     OW14743   4.567   4.449   9.185 -0.0676 -0.6889  0.3276
 1095SOL    HW114744   4.595   4.393   9.258  1.4072 -0.5586 -0.1286
 1095SOL    HW214745   4.634   4.515   9.202 -0.3877 -0.5493  1.0431
 1096SOL     OW14746   2.425   3.786   4.049 -0.3652 -0.1545 -0.2622
 1096SOL    HW114747   2.377   3.703   4.044 -1.7003  0.5801  0.2504
 1096SOL    HW214748   2.376   3.838   3.985  0.7014  1.0822 -0.0603
 1097SOL     OW14749   2.046   2.681   8.483  0.1293 -0.3709  0.5439
 1097SOL    HW114750   1.964   2.634   8.494 -0.0619  0.0054  0.7136
 1097SOL    HW214751   2.107   2.608   8.486 -0.4158 -0.8392  0.2329
 1098SOL     OW14752   1.623   2.347   1.822 -0.0320 -0.2231  0.4972
 1098SOL    HW114753   1.707   2.367   1.781 -0.6194 -0.4728 -0.8255
 1098SOL    HW214754   1.645   2.280   1.887 -1.9185 -0.6755  0.6671
 1099SOL     OW14755   4.684   3.443   9.731 -0.3121 -0.7372 -0.2651
 1099SOL    HW114756   4.694   3.413   9.640 -0.7357  0.1777 -0.6097
 1099SOL    HW214757   4.606   3.497   9.721  0.2573  0.1004 -0.1621
 1100SOL     OW14758   1.529   1.028   6.701 -0.0278  0.4930 -0.0375
 1100SOL    HW114759   1.485   1.110   6.720  0.5192  1.5218 -3.2567
 1100SOL    HW214760   1.545   0.985   6.785 -0.2265  0.0439 -0.2262
 1101SOL     OW14761   0.887   0.044  12.008 -0.4611  0.3623  0.3080
 1101SOL    HW114762   0.860   4.703  11.941 -1.8968  0.8156  0.4494
 1101SOL    HW214763   0.962   4.717  12.043  0.2931  0.8135 -0.6856
 1102SOL     OW14764   1.353   1.689   0.264 -0.4051 -0.4213 -0.6416
 1102SOL    HW114765   1.448   1.684   0.267 -0.3277  1.6267  0.2524
 1102SOL    HW214766   1.343   1.693   0.359 -1.7861  1.8289 -0.8652
 1103SOL     OW14767   1.936   4.146  12.173  0.4841  0.6032 -0.2916
 1103SOL    HW114768   2.015   4.199  12.161 -0.6140  1.8345 -2.1567
 1103SOL    HW214769   1.948   4.122  12.265  0.3952 -1.1043 -0.7276
 1104SOL     OW14770   2.414   2.750   6.671  0.4011 -0.4632 -0.1596
 1104SOL    HW114771   2.430   2.782   6.582 -0.2133  0.2755 -0.0056
 1104SOL    HW214772   2.339   2.805   6.692  0.2422  0.2997 -2.7893
 1105SOL     OW14773   2.008   3.677   0.796  0.2434 -0.0779  0.0273
 1105SOL    HW114774   2.043   3.757   0.756 -1.1069  2.1539  3.3076
 1105SOL    HW214775   1.929   3.718   0.829  1.8219  1.6481  1.6661
 1106SOL     OW14776   2.739   4.170   6.698  0.4239  0.4263 -0.2688
 1106SOL    HW114777   2.766   4.084   6.728 -0.5684  0.1845 -0.0772
 1106SOL    HW214778   2.664   4.188   6.755  0.5470  2.0318 -0.6067
 1107SOL     OW14779   2.999   0.514   1.296 -0.5027  0.6063 -0.0563
 1107SOL    HW114780   3.059   0.462   1.350 -1.5040 -1.2105 -0.7024
 1107SOL    HW214781   2.978   0.449   1.229  1.8985 -1.6401  1.3836
 1108SOL     OW14782   1.822   3.123  10.072  0.2431  0.3888  0.0337
 1108SOL    HW114783   1.879   3.154  10.001 -0.6072  0.6637 -0.5338
 1108SOL    HW214784   1.741   3.092  10.031  1.8087 -0.1666 -2.6765
 1109SOL     OW14785   2.895   2.787   2.129  0.3380 -0.0088  1.2041
 1109SOL    HW114786   2.900   2.699   2.091  2.5191  0.5791  0.1465
 1109SOL    HW214787   2.836   2.830   2.068  1.8170 -0.7960 -0.7908
 1110SOL     OW14788   2.197   2.424   8.510  0.0944  0.0294  0.7853
 1110SOL    HW114789   2.130   2.373   8.556  0.2035  0.1972  1.1300
 1110SOL    HW214790   2.222   2.363   8.441  2.1476  1.2230  0.4643
 1111SOL     OW14791   2.818   0.551   2.137 -0.3040  0.0108  0.0800
 1111SOL    HW114792   2.763   0.475   2.119 -1.8345  0.4664  2.7426
 1111SOL    HW214793   2.771   0.630   2.110 -1.4473  0.5741  3.7050
 1112SOL     OW14794   4.028   1.697  10.742 -0.3574  0.0953  0.0087
 1112SOL    HW114795   4.098   1.702  10.807  0.2845  0.5042 -0.7090
 1112SOL    HW214796   4.049   1.773  10.687  0.9593 -0.7439 -0.6402
 1113SOL     OW14797   3.573   0.347   8.075  0.2809  0.0088  0.4969
 1113SOL    HW114798   3.492   0.353   8.126 -1.2368  1.8496 -2.1604
 1113SOL    HW214799   3.561   0.413   8.006  2.0385  0.3426  0.5109
 1114SOL     OW14800   1.643   1.404   7.989  0.3702  0.0354 -0.4383
 1114SOL    HW114801   1.732   1.370   7.988  0.4027  0.0637  0.8939
 1114SOL    HW214802   1.595   1.322   8.001  1.4888 -0.8686 -2.2218
 1115SOL     OW14803   1.644   1.029  16.799 -0.2049  0.1251  0.2205
 1115SOL    HW114804   1.670   1.094  16.734  0.3979  0.2602  0.5911
 1115SOL    HW214805   1.674   0.953  16.750  0.4116  0.1489  0.5600
 1116SOL     OW14806   2.556   4.562  10.184  0.7373 -0.2609  0.2735
 1116SOL    HW114807   2.483   4.553  10.245  2.4331 -4.8361  1.6173
 1116SOL    HW214808   2.583   4.653  10.182  2.2712 -0.7057  1.7612
 1117SOL     OW14809   2.382   1.997   6.154 -0.0985  0.3168 -0.4306
 1117SOL    HW114810   2.337   1.944   6.088  0.4956  0.7329 -1.1674
 1117SOL    HW214811   2.381   2.082   6.110  3.6859  0.9739  0.7139
 1118SOL     OW14812   1.417   4.479  14.377 -0.4668 -0.2539  0.0336
 1118SOL    HW114813   1.506   4.447  14.362 -0.3651 -0.6137  1.4440
 1118SOL    HW214814   1.414   4.502  14.469  0.6360 -0.5496  0.1473
 1119SOL     OW14815   1.153   1.155   0.251  0.1682 -0.2445  0.4589
 1119SOL    HW114816   1.074   1.209   0.256  1.2300  1.2343  1.2902
 1119SOL    HW214817   1.221   1.217   0.226  0.6143 -0.0873  2.0448
 1120SOL     OW14818   0.572   3.683   8.117  0.4672 -0.3785  0.3863
 1120SOL    HW114819   0.591   3.597   8.079  2.5469  1.0627 -1.8785
 1120SOL    HW214820   0.650   3.719   8.158 -0.0555  1.6727 -0.3899
 1121SOL     OW14821   3.800   3.902  13.492  0.7204 -0.4567 -0.2174
 1121SOL    HW114822   3.849   3.883  13.412 -1.4549  1.2417 -1.9377
 1121SOL    HW214823   3.846   3.859  13.564  2.5841 -1.1407 -1.8336
 1122SOL     OW14824   1.857   1.034   6.836  0.0325  0.1687 -0.5034
 1122SOL    HW114825   1.809   0.962   6.876  2.3590 -1.2442 -0.2949
 1122SOL    HW214826   1.846   1.096   6.908 -0.8561 -1.2167  0.5485
 1123SOL     OW14827   0.259   2.205   6.110  0.6622  0.6940 -0.8293
 1123SOL    HW114828   0.338   2.243   6.149 -0.0064  0.9335  0.3005
 1123SOL    HW214829   0.191   2.242   6.166  0.0997 -0.6302 -0.6377
 1124SOL     OW14830   3.962   3.318  10.065  0.4002 -0.6702 -0.4040
 1124SOL    HW114831   3.931   3.235  10.100  0.7265 -0.4996  0.2855
 1124SOL    HW214832   3.883   3.372  10.070 -0.3364 -1.4909 -2.9796
 1125SOL     OW14833   1.963   4.158   4.692  0.3967  0.2608 -0.1771
 1125SOL    HW114834   2.051   4.119   4.695 -0.0141 -0.5811  0.7251
 1125SOL    HW214835   1.932   4.145   4.781  0.6573 -1.2586 -0.2957
 1126SOL     OW14836   1.929   1.980  10.778  0.2672 -0.5273  0.8331
 1126SOL    HW114837   1.889   2.057  10.818  3.6156  1.1487  0.8659
 1126SOL    HW214838   1.993   2.024  10.723  0.3390 -0.6899  0.7874
 1127SOL     OW14839   2.099   1.945   3.528 -0.1484 -0.7449  0.1828
 1127SOL    HW114840   2.102   2.033   3.491 -3.5947 -0.9967 -0.6747
 1127SOL    HW214841   2.186   1.947   3.569  0.6287  1.0061 -1.6091
 1128SOL     OW14842   1.012   3.914   8.975  0.3983  0.3781 -0.1837
 1128SOL    HW114843   0.943   3.978   8.961  1.5982  1.9027  0.9305
 1128SOL    HW214844   1.078   3.948   9.035 -0.2796  1.9406 -0.3272
 1129SOL     OW14845   3.784   2.598   4.611 -0.0118  0.5795  0.2149
 1129SOL    HW114846   3.817   2.517   4.649 -0.2958  1.2060  1.7953
 1129SOL    HW214847   3.865   2.648   4.609 -0.5615  1.4482 -0.8125
 1130SOL     OW14848   2.056   3.728  13.324 -0.1215  0.7645 -0.3189
 1130SOL    HW114849   2.005   3.679  13.388  1.1122 -1.4049 -0.9942
 1130SOL    HW214850   2.136   3.683  13.349 -0.7103 -0.9205 -1.4410
 1131SOL     OW14851   3.154   3.082   3.079 -0.0179 -0.1578 -0.0626
 1131SOL    HW114852   3.124   3.140   3.148  0.5449  0.9857 -0.7830
 1131SOL    HW214853   3.169   3.001   3.127 -1.4956 -0.5528 -0.2788
 1132SOL     OW14854   4.492   0.910   0.997 -0.1160 -0.3647  0.1121
 1132SOL    HW114855   4.471   0.911   1.090  0.8382  0.0219  0.3268
 1132SOL    HW214856   4.580   0.949   0.995  0.4773 -1.6375  1.2776
 1133SOL     OW14857   3.130   1.457   5.313 -0.1911 -0.5251  0.3781
 1133SOL    HW114858   3.146   1.459   5.408 -4.2854  0.0442  1.0378
 1133SOL    HW214859   3.143   1.549   5.290 -1.5235 -1.2886 -3.4083
 1134SOL     OW14860   0.424   3.554   9.560  0.3409 -0.3087 -0.4743
 1134SOL    HW114861   0.449   3.551   9.652 -4.4269  0.3013  0.8682
 1134SOL    HW214862   0.430   3.461   9.538  0.0594 -0.5347  0.4150
 1135SOL     OW14863   0.673   2.591  14.190  0.4566 -0.2962 -0.4725
 1135SOL    HW114864   0.600   2.543  14.150 -0.7053 -1.1544  2.7342
 1135SOL    HW214865   0.667   2.680  14.155  0.9655  0.7585  2.1357
 1136SOL     OW14866   1.413   1.062   2.607 -0.0149 -0.4796 -0.3723
 1136SOL    HW114867   1.368   0.992   2.654  1.6660  0.3091  2.3810
 1136SOL    HW214868   1.503   1.038   2.628 -0.7353 -2.0763  0.9405
 1137SOL     OW14869   2.818   1.533   5.851 -0.0057 -0.7138 -0.1430
 1137SOL    HW114870   2.780   1.612   5.814  1.4193 -0.9545 -2.1306
 1137SOL    HW214871   2.894   1.574   5.892  0.3566 -1.3317 -0.2001
 1138SOL     OW14872   0.285   3.076   2.136 -0.3571 -0.1019  0.1147
 1138SOL    HW114873   0.366   3.073   2.187 -0.5177 -1.4145  0.2767
 1138SOL    HW214874   0.225   3.136   2.181 -0.2607 -0.8626  1.2506
 1139SOL     OW14875   0.390   1.113   7.629 -0.2052  0.0341  0.4392
 1139SOL    HW114876   0.464   1.171   7.648  0.0660  0.0026 -0.5089
 1139SOL    HW214877   0.421   1.048   7.566 -1.2268 -0.0387  0.0143
 1140SOL     OW14878   0.396   1.762  10.016 -0.2688  0.0622  0.3992
 1140SOL    HW114879   0.374   1.671   9.993 -0.0364 -0.5053  2.4350
 1140SOL    HW214880   0.308   1.800  10.019 -0.5783 -0.5204 -1.0546
 1141SOL     OW14881   3.387   0.643   4.633 -0.2252  0.1261 -0.1319
 1141SOL    HW114882   3.423   0.562   4.599 -0.5762  0.2634 -0.8216
 1141SOL    HW214883   3.368   0.676   4.545  0.8744 -1.6467 -1.0238
 1142SOL     OW14884   3.803   1.847   4.428 -0.0040 -0.0873 -0.1745
 1142SOL    HW114885   3.864   1.869   4.358  0.5801 -0.2460  0.2880
 1142SOL    HW214886   3.820   1.922   4.484 -0.7310 -1.3361  1.7469
 1143SOL     OW14887   2.066   2.274   2.994 -0.3078  0.6726 -0.5029
 1143SOL    HW114888   2.060   2.200   3.055 -2.0884  2.4893  1.5237
 1143SOL    HW214889   2.026   2.342   3.048 -2.1080 -0.2226 -0.7081
 1144SOL     OW14890   1.400   0.918  16.262 -0.6900 -0.3202 -0.1460
 1144SOL    HW114891   1.491   0.887  16.265 -0.1416  1.2494 -0.4060
 1144SOL    HW214892   1.373   0.885  16.176 -2.5805 -0.6337  0.5708
 1145SOL     OW14893   4.477   0.930   8.054  0.1047 -0.2784  0.3732
 1145SOL    HW114894   4.511   1.002   8.000  0.1970  0.0854  0.9162
 1145SOL    HW214895   4.408   0.896   7.997  1.2414  0.4447 -1.4398
 1146SOL     OW14896   0.326   3.893   4.165  0.7136 -0.2462 -0.1469
 1146SOL    HW114897   0.245   3.912   4.211 -0.0858 -3.0767 -0.4063
 1146SOL    HW214898   0.299   3.934   4.082 -1.8201 -0.2179  0.6890
 1147SOL     OW14899   3.375   4.152   7.286  0.0781  0.2045 -0.1271
 1147SOL    HW114900   3.285   4.181   7.298  0.3194  1.3296 -1.1228
 1147SOL    HW214901   3.429   4.224   7.319  0.9692 -0.1683 -0.7524
 1148SOL     OW14902   0.953   2.621  11.442 -0.2656  0.5913  0.1393
 1148SOL    HW114903   0.889   2.566  11.396 -0.6910  0.8386  0.4350
 1148SOL    HW214904   0.897   2.686  11.485 -1.2243  1.1532 -1.9653
 1149SOL     OW14905   0.683   3.252   5.442  0.7006 -0.2826 -0.3071
 1149SOL    HW114906   0.665   3.165   5.408 -1.2030 -0.5003  1.2634
 1149SOL    HW214907   0.592   3.279   5.452  0.5310 -0.2230 -1.9304
 1150SOL     OW14908   2.507   3.080   1.909 -0.3239 -0.3069  0.0946
 1150SOL    HW114909   2.433   3.108   1.963  0.5111  0.3126  0.9185
 1150SOL    HW214910   2.570   3.148   1.933 -0.6266 -0.1221  0.3716
 1151SOL     OW14911   2.973   3.442   5.355 -0.3005  0.3886 -0.6776
 1151SOL    HW114912   3.000   3.358   5.317 -0.0486 -0.1004  0.6106
 1151SOL    HW214913   3.050   3.469   5.405  0.5355 -0.6865 -1.3672
 1152SOL     OW14914   3.546   3.052   3.394 -0.3560 -0.3439  0.2015
 1152SOL    HW114915   3.558   3.018   3.306 -1.8618  2.3215 -1.0205
 1152SOL    HW214916   3.456   3.084   3.395 -0.4330 -0.5553 -0.4686
 1153SOL     OW14917   3.703   2.430  14.614  1.0847  0.0526  0.5567
 1153SOL    HW114918   3.663   2.364  14.671  2.1862 -0.7575  0.3924
 1153SOL    HW214919   3.775   2.471  14.661  0.6671  0.5133  0.7904
 1154SOL     OW14920   1.273   1.533   3.394 -0.2284 -0.2851 -0.7887
 1154SOL    HW114921   1.301   1.606   3.449 -0.4368 -1.1302  0.4392
 1154SOL    HW214922   1.336   1.552   3.324 -0.0819  0.6707 -0.3975
 1155SOL     OW14923   4.114   3.551   6.116 -0.0739  0.2269  0.7315
 1155SOL    HW114924   4.023   3.553   6.143 -0.1050  2.0232  0.4597
 1155SOL    HW214925   4.135   3.480   6.177  1.0430 -0.8228 -0.8562
 1156SOL     OW14926   3.133   3.251   6.881 -0.1509 -0.2443 -0.3481
 1156SOL    HW114927   3.205   3.230   6.941 -1.0687  1.0941  1.1933
 1156SOL    HW214928   3.110   3.162   6.854 -1.9543 -0.5608  2.2819
 1157SOL     OW14929   0.126   4.681   5.494 -0.5379 -0.6261  0.4185
 1157SOL    HW114930   0.089   4.715   5.413 -0.0752  1.1902  0.9870
 1157SOL    HW214931   0.162   4.601   5.454 -0.0522  0.2913 -0.9787
 1158SOL     OW14932   1.488   1.717   5.340  0.4555 -0.1937  0.6891
 1158SOL    HW114933   1.432   1.769   5.282 -1.8068 -0.1247  2.9420
 1158SOL    HW214934   1.500   1.779   5.412 -0.5129  0.3075  0.4066
 1159SOL     OW14935   4.685   3.142  10.035  0.0490  0.2411 -0.5100
 1159SOL    HW114936   4.719   3.053  10.046 -1.8909 -0.2249  1.8530
 1159SOL    HW214937   4.622   3.142  10.108  2.2340 -0.7219  1.3731
 1160SOL     OW14938   3.959   0.027   7.527  0.1690 -0.0182 -0.3942
 1160SOL    HW114939   3.997   0.114   7.521  0.2923 -0.0588 -0.1985
 1160SOL    HW214940   3.984   4.720   7.615 -0.1557 -0.2311 -0.3675
 1161SOL     OW14941   3.341   2.960   5.491 -0.1140  0.6235  0.2054
 1161SOL    HW114942   3.331   2.885   5.433 -2.5646  2.8509 -2.2926
 1161SOL    HW214943   3.338   2.916   5.576  3.1764 -0.9350 -0.4919
 1162SOL     OW14944   2.785   2.266   3.235  0.0833  0.0825 -0.2740
 1162SOL    HW114945   2.695   2.251   3.207 -0.6487 -0.0004  2.0660
 1162SOL    HW214946   2.785   2.361   3.250  0.6027 -0.0367  0.4695
 1163SOL     OW14947   1.951   2.336   2.053 -0.5649 -0.4814  0.1419
 1163SOL    HW114948   2.022   2.272   2.056  0.1927  0.4188  1.5113
 1163SOL    HW214949   1.877   2.289   2.090 -0.2073  0.5102  2.1497
 1164SOL     OW14950   3.491   4.125   4.146  0.1070 -0.7626 -0.2486
 1164SOL    HW114951   3.471   4.031   4.150 -0.4827 -0.5894  0.7733
 1164SOL    HW214952   3.581   4.124   4.113  0.8079  1.8749  1.5968
 1165SOL     OW14953   4.648   0.084   4.893  0.8949  0.4165  0.2755
 1165SOL    HW114954   4.623   4.715   4.876  0.0309  0.4309  1.4717
 1165SOL    HW214955   4.655   0.114   4.802  2.6645 -0.5936  0.0904
 1166SOL     OW14956   3.550   4.043   8.350  0.0446 -0.4989 -0.3285
 1166SOL    HW114957   3.629   4.058   8.299  0.6197  0.0941  0.7540
 1166SOL    HW214958   3.520   4.134   8.343 -2.2309 -1.4409 -3.0157
 1167SOL     OW14959   4.621   4.081   0.458 -0.3604 -0.0460 -0.3889
 1167SOL    HW114960   4.615   4.177   0.461 -0.1810 -0.0455 -0.0651
 1167SOL    HW214961   4.541   4.057   0.504 -1.5191  0.1262 -2.3298
 1168SOL     OW14962   1.520   1.516   1.453  0.5181 -0.3715  0.1625
 1168SOL    HW114963   1.427   1.524   1.431  0.5968  2.9873  1.0428
 1168SOL    HW214964   1.522   1.479   1.541 -0.4723  2.2995  1.3159
 1169SOL     OW14965   0.385   2.012  15.656  0.3997 -0.3606 -0.1320
 1169SOL    HW114966   0.331   2.074  15.705  0.4316 -0.9858  0.6947
 1169SOL    HW214967   0.450   2.076  15.627 -0.3964  0.6045  0.2259
 1170SOL     OW14968   3.827   0.167   4.923 -0.4285 -0.0407  0.1528
 1170SOL    HW114969   3.811   0.246   4.975 -2.9969 -0.4986  0.0379
 1170SOL    HW214970   3.742   0.125   4.931  0.5669 -2.2343 -0.9994
 1171SOL     OW14971   0.195   3.882  10.908  0.5908  0.8910  0.0043
 1171SOL    HW114972   0.228   3.929  10.832  0.8017 -0.4239 -0.7129
 1171SOL    HW214973   0.210   3.788  10.893 -0.8335  0.7259 -0.3706
 1172SOL     OW14974   2.314   2.447   7.713 -0.1530  0.1126 -0.0945
 1172SOL    HW114975   2.232   2.467   7.758 -0.6675  2.8053 -2.2409
 1172SOL    HW214976   2.377   2.481   7.777 -1.9409  0.2997  1.5618
 1173SOL     OW14977   1.981   2.414  11.909 -0.2787  0.4945  0.3218
 1173SOL    HW114978   2.056   2.447  11.959 -0.2349  1.6560 -0.4972
 1173SOL    HW214979   1.907   2.415  11.969 -0.4015  1.9140  0.1543
 1174SOL     OW14980   4.310   0.707  17.650 -0.2137 -0.2403  0.7569
 1174SOL    HW114981   4.374   0.777  17.659 -0.3252 -0.2141  1.3736
 1174SOL    HW214982   4.228   0.753  17.631  0.9382  2.7332  3.0431
 1175SOL     OW14983   1.320   1.206  10.132  0.2854 -0.3647 -0.1202
 1175SOL    HW114984   1.401   1.158  10.113 -0.0254 -1.4530  1.2898
 1175SOL    HW214985   1.278   1.147  10.194  1.1934  1.2415  2.0030
 1176SOL     OW14986   2.131   2.256   4.940 -0.2143 -0.2831  0.3202
 1176SOL    HW114987   2.221   2.273   4.968  0.4934 -0.0224 -2.0972
 1176SOL    HW214988   2.150   2.228   4.851 -1.3285  2.1060 -0.6790
 1177SOL     OW14989   2.718   2.602   3.265  0.6020 -0.5287 -0.4257
 1177SOL    HW114990   2.690   2.689   3.236 -0.7993 -0.5647  0.7865
 1177SOL    HW214991   2.811   2.612   3.249  0.7776  0.0695  0.9365
 1178SOL     OW14992   1.950   3.955   7.240  0.1652 -0.2624 -0.1827
 1178SOL    HW114993   1.998   3.901   7.178 -0.4673  0.2819 -1.1348
 1178SOL    HW214994   1.985   3.925   7.324  0.0390  1.0132  0.3416
 1179SOL     OW14995   0.623   1.672   5.720 -0.0074  0.3441 -0.1211
 1179SOL    HW114996   0.581   1.666   5.635 -1.8771  2.1113  0.6700
 1179SOL    HW214997   0.545   1.702   5.768 -0.7699 -0.8998 -0.5879
 1180SOL     OW14998   0.262   1.002   5.116  0.3470  1.2378 -0.5413
 1180SOL    HW114999   0.259   0.954   5.034 -0.3822 -0.2311  0.3474
 1180SOL    HW215000   0.251   1.091   5.083  1.4603  1.8799  0.8114
 1181SOL     OW15001   0.472   1.266   4.423 -0.4958 -0.1100 -0.0484
 1181SOL    HW115002   0.512   1.352   4.432 -2.0123  0.6467 -0.4483
 1181SOL    HW215003   0.380   1.294   4.416 -0.3560  0.0655 -1.2559
 1182SOL     OW15004   4.098   2.973   7.045 -0.2172 -0.3516  0.2392
 1182SOL    HW115005   4.180   2.984   7.093  0.4321 -1.5754 -0.5717
 1182SOL    HW215006   4.128   2.894   7.000 -3.8484 -0.4726 -2.0204
 1183SOL     OW15007   1.241   2.292   2.229  0.4324  0.2254 -0.0679
 1183SOL    HW115008   1.199   2.292   2.143  0.6235 -0.3280 -0.1587
 1183SOL    HW215009   1.308   2.225   2.212 -0.6077 -1.1073  1.1885
 1184SOL     OW15010   0.879   2.611   4.542  0.2229  0.3134 -0.1324
 1184SOL    HW115011   0.844   2.563   4.467  2.3435 -2.1042  0.3855
 1184SOL    HW215012   0.809   2.620   4.606  0.5939  0.6642  0.2233
 1185SOL     OW15013   0.237   1.305  13.894 -0.1208 -0.0185 -0.1418
 1185SOL    HW115014   0.228   1.296  13.799 -2.3174  0.1840  0.0418
 1185SOL    HW215015   0.308   1.368  13.898 -0.5310  0.5787 -2.1623
 1186SOL     OW15016   1.706   2.611  13.448 -0.3070  0.4693  0.3627
 1186SOL    HW115017   1.762   2.675  13.404 -0.7059  0.3760 -0.2835
 1186SOL    HW215018   1.765   2.537  13.462 -1.2150 -0.2304  0.4881
 1187SOL     OW15019   4.401   3.618  15.977 -0.0798 -0.3933 -0.4848
 1187SOL    HW115020   4.361   3.677  15.912 -1.4984  1.5800  2.1894
 1187SOL    HW215021   4.447   3.687  16.024 -2.1153  0.0865  0.8285
 1188SOL     OW15022   3.877   1.839   8.617 -0.1695  0.2148 -0.2555
 1188SOL    HW115023   3.889   1.749   8.587  0.6787  0.0424  0.6217
 1188SOL    HW215024   3.968   1.852   8.645 -0.4876 -1.5464  1.6277
 1189SOL     OW15025   2.508   0.193  12.911  0.4489 -0.1701 -0.5093
 1189SOL    HW115026   2.591   0.146  12.915  2.2824  3.1309  0.5340
 1189SOL    HW215027   2.533   0.280  12.942 -0.5725 -0.1399  0.2200
 1190SOL     OW15028   1.379   1.282   2.931  0.1684  0.0806  0.0952
 1190SOL    HW115029   1.388   1.188   2.950  2.3228  0.6311  1.7703
 1190SOL    HW215030   1.283   1.288   2.934  0.1361  0.1691 -0.9694
 1191SOL     OW15031   1.708   3.588   1.566 -0.0729  0.0292  0.2007
 1191SOL    HW115032   1.718   3.662   1.627  0.0006  0.7694 -0.7100
 1191SOL    HW215033   1.615   3.570   1.579  0.3401 -1.3638  1.2936
 1192SOL     OW15034   3.921   1.916   2.230  0.2046 -0.2954  0.2695
 1192SOL    HW115035   3.975   1.994   2.244  4.8164 -3.7272  1.4125
 1192SOL    HW215036   3.986   1.848   2.249 -0.1186 -1.2187 -1.8888
 1193SOL     OW15037   3.963   2.898   9.224 -0.4515  0.1769  0.5973
 1193SOL    HW115038   3.963   2.851   9.308  0.9516 -0.6539  0.1344
 1193SOL    HW215039   3.943   2.834   9.156 -3.6129  2.7785 -0.9042
 1194SOL     OW15040   2.281   2.716   4.448 -0.1652 -0.2339  0.4686
 1194SOL    HW115041   2.314   2.647   4.390 -0.6126 -0.8932  0.9947
 1194SOL    HW215042   2.188   2.721   4.428  0.1555  1.7781 -0.4820
 1195SOL     OW15043   2.837   3.059   3.704  0.3710  0.3017 -0.2484
 1195SOL    HW115044   2.827   2.972   3.743 -0.1398  0.2269 -0.5450
 1195SOL    HW215045   2.858   3.110   3.782 -1.0478 -1.1262  1.0807
 1196SOL     OW15046   0.353   3.681   5.837 -0.2193  0.3581  0.6632
 1196SOL    HW115047   0.378   3.773   5.829 -2.3974  0.8509 -0.6493
 1196SOL    HW215048   0.288   3.669   5.768  0.7275  0.3625 -0.2188
 1197SOL     OW15049   1.029   0.625   8.693  0.2580  0.3156 -0.9395
 1197SOL    HW115050   1.027   0.662   8.781  0.3255 -2.1152  0.0826
 1197SOL    HW215051   0.945   0.659   8.663  1.3678  1.8161 -2.3455
 1198SOL     OW15052   0.412   2.047  10.330 -0.0023 -0.1607 -0.0476
 1198SOL    HW115053   0.336   2.101  10.309  0.1397  0.0444 -0.0335
 1198SOL    HW215054   0.479   2.115  10.340 -0.2345 -0.1386  1.2989
 1199SOL     OW15055   3.539   1.239  17.325 -0.0541 -0.5168 -0.1180
 1199SOL    HW115056   3.577   1.169  17.271  0.5360 -1.3994  1.4316
 1199SOL    HW215057   3.515   1.302  17.257 -1.5289 -0.4400  0.4752
 1200SOL     OW15058   1.839   4.512  10.263  0.3821  0.2929  0.6323
 1200SOL    HW115059   1.778   4.440  10.248  1.1620 -0.1770 -0.2391
 1200SOL    HW215060   1.824   4.557  10.346  0.8052  2.0446 -0.2438
 1201SOL     OW15061   2.873   2.113   3.995  0.6151  0.6885 -0.4560
 1201SOL    HW115062   2.895   2.160   4.075  0.9948  1.4693 -1.0183
 1201SOL    HW215063   2.804   2.163   3.951 -0.1811 -0.0235 -0.0178
 1202SOL     OW15064   3.583   0.332   8.679 -0.4726  0.1625 -0.3866
 1202SOL    HW115065   3.521   0.313   8.749  0.7556  0.1948  0.6904
 1202SOL    HW215066   3.551   0.418   8.649 -1.9654 -0.5761 -0.9308
 1203SOL     OW15067   4.114   1.873   0.137 -0.5403 -0.3172  0.0003
 1203SOL    HW115068   4.131   1.783   0.108  1.0743 -0.9859  3.0097
 1203SOL    HW215069   4.176   1.877   0.210  2.7536 -0.5845 -2.7847
 1204SOL     OW15070   1.162   3.212   0.220 -0.3076 -0.0020  0.2751
 1204SOL    HW115071   1.246   3.168   0.232 -0.1947  0.4705  1.2420
 1204SOL    HW215072   1.150   3.194   0.127  0.7163  1.2741 -0.1068
 1205SOL     OW15073   4.497   1.073   9.682  0.2040  0.1446  0.2918
 1205SOL    HW115074   4.523   1.030   9.763  1.3601  0.4452  0.0790
 1205SOL    HW215075   4.493   1.165   9.708  0.8683  0.3372 -0.2711
 1206SOL     OW15076   4.585   1.142   7.915  0.0610  0.5367  0.1208
 1206SOL    HW115077   4.664   1.130   7.862 -1.0874  0.6599 -1.6205
 1206SOL    HW215078   4.559   1.228   7.884 -1.8507 -0.3505 -0.7482
 1207SOL     OW15079   3.123   2.187   5.344  0.4964 -0.2525  0.1224
 1207SOL    HW115080   3.097   2.129   5.273  1.8029  0.6711 -1.0933
 1207SOL    HW215081   3.146   2.122   5.410 -1.1140  0.3821  1.3206
 1208SOL     OW15082   3.517   0.382   0.044 -1.0781  0.2626 -0.2152
 1208SOL    HW115083   3.446   0.446   0.055 -1.0983  0.0283  1.0037
 1208SOL    HW215084   3.546   0.384   0.135  1.9226  0.5835 -1.1986
 1209SOL     OW15085   3.129   4.222   7.383 -0.1329 -0.2513  0.3622
 1209SOL    HW115086   3.195   4.184   7.441 -0.0017  0.0329  0.3977
 1209SOL    HW215087   3.091   4.295   7.432  0.3087  0.3860 -0.2412
 1210SOL     OW15088   4.717   2.750  13.945  0.5636  0.1681 -0.0705
 1210SOL    HW115089   0.025   2.674  13.894 -2.5254  0.3394 -2.1429
 1210SOL    HW215090   0.071   2.809  13.941  0.3996  0.5350  2.2539
 1211SOL     OW15091   2.652   3.579   8.101 -0.1011  0.2642  0.5712
 1211SOL    HW115092   2.747   3.572   8.115 -0.3836 -2.5958  1.1607
 1211SOL    HW215093   2.625   3.639   8.170 -1.8678 -0.2290  0.3088
 1212SOL     OW15094   2.562   1.414   6.302 -0.3349 -0.4706 -0.1995
 1212SOL    HW115095   2.654   1.398   6.280 -0.3709  0.4931 -1.0203
 1212SOL    HW215096   2.516   1.357   6.240 -0.3053 -1.3634  0.5906
 1213SOL     OW15097   4.667   4.533  16.614  0.4134 -0.3606  0.4061
 1213SOL    HW115098   0.005   4.474  16.570  2.2670 -0.0702  2.5018
 1213SOL    HW215099   4.721   4.605  16.646  1.9862  0.3189 -3.8558
 1214SOL     OW15100   4.049   3.868   5.560 -0.2933 -0.1558 -0.1787
 1214SOL    HW115101   4.044   3.942   5.619 -0.1224  0.6498 -1.1785
 1214SOL    HW215102   4.143   3.854   5.575  0.1754 -0.2127 -3.1032
 1215SOL     OW15103   0.050   3.271   3.048  0.1669 -0.0272 -0.0787
 1215SOL    HW115104   4.706   3.280   2.979  0.4210 -2.1562 -0.5863
 1215SOL    HW215105   0.016   3.201   3.103  0.9439 -1.4663 -1.4426
 1216SOL     OW15106   3.753   4.459   8.021 -0.4817 -0.5267  0.2149
 1216SOL    HW115107   3.745   4.510   7.940  0.6556  2.1479  1.7945
 1216SOL    HW215108   3.721   4.524   8.083  1.7648  0.9204 -0.1194
 1217SOL     OW15109   4.186   1.255   7.967  0.5432  0.2708 -0.6372
 1217SOL    HW115110   4.099   1.281   7.935  0.2876 -0.5905 -0.6414
 1217SOL    HW215111   4.180   1.160   7.964 -2.8283  0.4492 -0.0936
 1218SOL     OW15112   1.763   1.792   4.422 -0.4166  0.4418 -0.3356
 1218SOL    HW115113   1.741   1.700   4.408 -0.1181  0.2210  0.6620
 1218SOL    HW215114   1.692   1.840   4.379 -0.7814  1.1182  1.0019
 1219SOL     OW15115   3.810   0.561  14.041 -0.0428  0.0748 -0.1953
 1219SOL    HW115116   3.813   0.470  14.072 -0.2278  0.6528  1.4944
 1219SOL    HW215117   3.841   0.560  13.950  0.1146 -0.4048 -0.1370
 1220SOL     OW15118   3.155   1.851   1.936 -0.4441  0.5894 -0.3591
 1220SOL    HW115119   3.204   1.891   1.864 -2.9750 -1.7254 -3.3038
 1220SOL    HW215120   3.119   1.774   1.893 -0.6442  0.9876 -0.9177
 1221SOL     OW15121   3.852   1.845   6.105  0.4073 -0.4213 -0.5784
 1221SOL    HW115122   3.876   1.908   6.038  2.2155  0.5598  0.9658
 1221SOL    HW215123   3.893   1.873   6.187 -1.7302  2.1329 -0.4004
 1222SOL     OW15124   4.551   0.896   8.319  0.0856 -0.3256 -0.1459
 1222SOL    HW115125   4.531   0.929   8.231  0.1649  0.3550  0.0907
 1222SOL    HW215126   4.467   0.898   8.364 -1.0076 -0.9723 -2.1472
 1223SOL     OW15127   0.209   1.039   3.987 -0.1181 -0.7193  0.0482
 1223SOL    HW115128   0.297   1.018   4.019  0.8954 -0.3527 -2.4761
 1223SOL    HW215129   0.231   1.108   3.924  1.1492 -0.2586  0.9954
 1224SOL     OW15130   0.051   2.113  11.434 -0.2188 -0.0038 -0.1003
 1224SOL    HW115131   0.037   2.098  11.341 -1.8201 -1.7526  0.4136
 1224SOL    HW215132   0.140   2.084  11.449 -0.1519  1.9289  3.2971
 1225SOL     OW15133   2.171   2.911   2.683  0.6914 -0.0672  0.4052
 1225SOL    HW115134   2.134   2.994   2.654 -0.3518 -0.9232 -0.7321
 1225SOL    HW215135   2.146   2.926   2.774  0.1805  1.6328 -0.0244
 1226SOL     OW15136   1.648   4.082   7.509  0.0275  0.4485 -0.5827
 1226SOL    HW115137   1.736   4.118   7.493 -0.7313  1.8494 -1.6737
 1226SOL    HW215138   1.671   4.015   7.573 -0.4149  1.7210  0.9202
 1227SOL     OW15139   3.464   1.341   8.518  0.7165  0.3804 -0.2468
 1227SOL    HW115140   3.397   1.319   8.583  0.7342 -1.1570 -0.7600
 1227SOL    HW215141   3.547   1.324   8.562 -0.1047 -2.0173  0.3592
 1228SOL     OW15142   1.464   4.373  15.575  0.0183 -0.3903  0.1336
 1228SOL    HW115143   1.378   4.335  15.590  0.5761 -1.3526  0.9467
 1228SOL    HW215144   1.494   4.389  15.665  0.1767 -2.6587  0.4876
 1229SOL     OW15145   1.380   3.754   7.740  0.1181  0.7727  0.4854
 1229SOL    HW115146   1.373   3.758   7.645 -2.9539  0.6938  0.7327
 1229SOL    HW215147   1.298   3.714   7.768 -1.0783  1.7005 -1.7179
 1230SOL     OW15148   0.080   3.718  17.129 -0.2551  1.2829 -0.0632
 1230SOL    HW115149   0.021   3.776  17.177 -1.5791  1.6657 -2.1712
 1230SOL    HW215150   0.025   3.641  17.125  0.6619  0.6199  0.1447
 1231SOL     OW15151   3.254   2.675   2.830 -0.1137 -0.1696 -0.4383
 1231SOL    HW115152   3.188   2.620   2.874 -1.2705  2.3807  1.0237
 1231SOL    HW215153   3.335   2.649   2.874  0.2808  2.3623  0.3194
 1232SOL     OW15154   4.717   0.851   9.054  0.0240 -0.2040 -0.3217
 1232SOL    HW115155   0.020   0.911   9.125 -1.5934 -0.6353  0.5985
 1232SOL    HW215156   0.059   0.865   8.984 -0.9379  1.5113 -0.8729
 1233SOL     OW15157   0.171   3.847  11.943  0.8123 -0.2567  0.2684
 1233SOL    HW115158   0.264   3.835  11.923  0.2684 -3.1736 -0.5419
 1233SOL    HW215159   0.165   3.774  12.004  1.4735 -0.3644  0.2013
 1234SOL     OW15160   0.305   1.275  11.106  0.7684  0.1263  0.2811
 1234SOL    HW115161   0.276   1.253  11.194  0.0918 -1.3038 -0.2894
 1234SOL    HW215162   0.277   1.366  11.097 -1.2506 -0.4402  0.7953
 1235SOL     OW15163   1.950   1.285   8.658 -0.4954  0.4560 -0.0065
 1235SOL    HW115164   1.966   1.373   8.692 -2.1436  0.3890  0.9436
 1235SOL    HW215165   1.904   1.244   8.731 -0.9280  2.0082  0.6066
 1236SOL     OW15166   4.336   3.271   0.344 -0.3043 -0.2782  0.4256
 1236SOL    HW115167   4.419   3.222   0.352 -0.1405  0.2967  2.1953
 1236SOL    HW215168   4.315   3.283   0.437  1.8682  0.5872  0.8204
 1237SOL     OW15169   3.542   2.111  15.726  0.1353  0.8282  0.1029
 1237SOL    HW115170   3.496   2.194  15.715  0.7669  0.9218 -1.7886
 1237SOL    HW215171   3.576   2.086  15.640 -0.8840 -2.6925  0.7197
 1238SOL     OW15172   3.529   3.496   2.874 -0.1305 -0.0981 -0.0168
 1238SOL    HW115173   3.522   3.535   2.787  2.1472 -0.4420 -0.3466
 1238SOL    HW215174   3.531   3.404   2.846 -2.4355 -0.1559  0.0206
 1239SOL     OW15175   2.587   2.978   0.721  0.2104  0.1714  0.0345
 1239SOL    HW115176   2.534   3.000   0.798 -2.1523 -0.9952 -1.2662
 1239SOL    HW215177   2.559   3.039   0.653 -1.7727  0.1572  0.8456
 1240SOL     OW15178   3.549   3.460  12.771 -0.1969  0.5927 -0.1310
 1240SOL    HW115179   3.482   3.528  12.775 -0.4310  0.2924  1.0810
 1240SOL    HW215180   3.529   3.430  12.683 -0.1550  1.7688 -0.5398
 1241SOL     OW15181   1.797   2.407   4.080  0.4210  0.2561  0.3932
 1241SOL    HW115182   1.733   2.366   4.137  0.5609 -0.6731 -0.1203
 1241SOL    HW215183   1.813   2.493   4.120 -1.0461  2.0625 -2.8583
 1242SOL     OW15184   3.608   1.004  17.079  0.4231 -0.3092 -0.3092
 1242SOL    HW115185   3.517   1.012  17.051  0.1618 -1.4457  0.2474
 1242SOL    HW215186   3.646   1.036  16.997  0.7082 -1.9300 -0.8007
 1243SOL     OW15187   2.023   2.020  14.534  0.0011 -0.4919 -0.4513
 1243SOL    HW115188   2.055   1.993  14.620 -0.9663 -1.7904 -0.5085
 1243SOL    HW215189   1.970   1.946  14.504  0.4159 -1.2458  0.6714
 1244SOL     OW15190   0.246   0.844   0.764 -0.3408  0.4310  0.1794
 1244SOL    HW115191   0.163   0.878   0.798  0.4586  1.5888  0.9329
 1244SOL    HW215192   0.207   0.794   0.691  2.7590 -1.4320 -0.1885
 1245SOL     OW15193   1.982   4.580   4.769  0.3146  0.2219  0.7014
 1245SOL    HW115194   2.007   4.668   4.742  2.4254 -0.0980  1.6251
 1245SOL    HW215195   1.907   4.595   4.826 -0.6089 -1.3936 -0.0789
 1246SOL     OW15196   3.188   4.186   3.324  1.2643 -0.1116 -0.5477
 1246SOL    HW115197   3.196   4.253   3.392  1.4789  0.3097 -0.9928
 1246SOL    HW215198   3.126   4.235   3.269  2.4693  1.4802 -0.4628
 1247SOL     OW15199   4.070   0.758   5.332  0.0498  0.5984 -0.8355
 1247SOL    HW115200   4.150   0.713   5.356 -1.4370 -0.5571  1.9559
 1247SOL    HW215201   4.074   0.834   5.390  0.8049  0.1820 -0.3489
 1248SOL     OW15202   2.801   2.571   6.235 -0.2607  0.3246  0.5131
 1248SOL    HW115203   2.886   2.595   6.198 -2.0840  2.5187 -2.2649
 1248SOL    HW215204   2.822   2.491   6.283 -1.1868 -0.6199 -0.6300
 1249SOL     OW15205   1.510   0.809   4.053 -0.2464  0.1651  0.4471
 1249SOL    HW115206   1.414   0.814   4.048 -0.2598 -1.2535 -0.7400
 1249SOL    HW215207   1.540   0.825   3.964 -0.9949 -1.1668 -0.0481
 1250SOL     OW15208   4.521   0.922   7.250  0.5269 -0.2642  0.5222
 1250SOL    HW115209   4.441   0.921   7.199  0.9344  0.0965 -0.1238
 1250SOL    HW215210   4.531   1.015   7.272  0.6784 -0.3113  0.6528
 1251SOL     OW15211   2.667   3.052  13.934 -0.4113 -1.3125  0.5517
 1251SOL    HW115212   2.607   3.081  13.865  0.8768  1.6123  0.6338
 1251SOL    HW215213   2.694   3.126  13.988  0.4643 -0.5501 -0.9039
 1252SOL     OW15214   4.531   0.583  15.086  0.4746  0.4917 -0.2557
 1252SOL    HW115215   4.446   0.559  15.123  0.4618  1.4767  0.3653
 1252SOL    HW215216   4.526   0.557  14.994  0.8892  1.5091 -0.5684
 1253SOL     OW15217   4.086   4.519   9.916 -0.6069  0.7524  0.5088
 1253SOL    HW115218   4.088   4.585   9.986 -1.7477  0.1636  1.0976
 1253SOL    HW215219   4.163   4.533   9.861 -1.0759  0.9604 -0.0974
 1254SOL     OW15220   1.771   1.712  10.591  0.3058  0.0712 -0.2319
 1254SOL    HW115221   1.806   1.662  10.517  0.0863  1.0835 -1.0341
 1254SOL    HW215222   1.690   1.664  10.607 -0.3289  1.5768  1.0945
 1255SOL     OW15223   1.467   1.034   1.056 -0.2732  0.2837 -0.1246
 1255SOL    HW115224   1.538   1.087   1.021  0.5444 -0.0799  0.9985
 1255SOL    HW215225   1.456   1.075   1.141  1.1892 -0.5973  0.4935
 1256SOL     OW15226   4.507   1.876   0.979 -0.0034 -0.3850 -0.0142
 1256SOL    HW115227   4.568   1.871   1.052  0.1587 -0.0900 -0.1292
 1256SOL    HW215228   4.543   1.948   0.927  1.0754 -1.9180 -1.3793
 1257SOL     OW15229   0.901   2.424   9.695  0.6493  0.5289 -0.4456
 1257SOL    HW115230   0.903   2.403   9.789 -2.4233 -1.8791 -0.9075
 1257SOL    HW215231   0.942   2.510   9.685  1.0088  0.4239  0.1148
 1258SOL     OW15232   0.251   3.120   2.739 -0.1036 -0.5322  0.2194
 1258SOL    HW115233   0.218   3.046   2.687 -1.1009 -0.6386  1.0088
 1258SOL    HW215234   0.205   3.193   2.699  1.2982  0.0132 -0.3874
 1259SOL     OW15235   4.707   4.529   3.055 -0.2232  0.0147  0.1578
 1259SOL    HW115236   0.050   4.462   3.033 -0.8114 -0.3586 -0.4653
 1259SOL    HW215237   0.023   4.554   3.139  0.6069 -0.0355 -0.1997
 1260SOL     OW15238   3.353   2.325   2.879  0.0863 -0.2242  0.1765
 1260SOL    HW115239   3.283   2.358   2.823  0.0867  0.1843  0.4206
 1260SOL    HW215240   3.392   2.404   2.915 -0.4156 -0.8485  2.0847
 1261SOL     OW15241   1.966   3.900   7.997  0.2346  0.0492 -0.0850
 1261SOL    HW115242   2.026   3.940   8.060  0.4428  0.6829 -0.6859
 1261SOL    HW215243   1.888   3.908   8.051  0.9865 -1.0188  1.1402
 1262SOL     OW15244   2.878   1.491   8.383 -0.0786  0.2660  0.4050
 1262SOL    HW115245   2.972   1.504   8.378  0.1818 -0.6665  2.5825
 1262SOL    HW215246   2.862   1.513   8.475 -0.2167 -1.9496  0.9030
 1263SOL     OW15247   3.690   2.199   8.052 -0.0151  1.1871  0.1670
 1263SOL    HW115248   3.611   2.151   8.078  1.2270 -1.0819 -0.2373
 1263SOL    HW215249   3.674   2.288   8.084 -2.5931  0.8240 -0.1349
 1264SOL     OW15250   0.708   1.560  17.301 -0.6927  0.3366  0.1964
 1264SOL    HW115251   0.785   1.608  17.271 -1.0341  0.8375  0.1340
 1264SOL    HW215252   0.730   1.467  17.307  2.3423  1.0624  0.0218
 1265SOL     OW15253   0.741   0.741   7.593 -0.3176  0.3551  0.0443
 1265SOL    HW115254   0.727   0.657   7.551  2.4607  1.5561 -3.2820
 1265SOL    HW215255   0.756   0.719   7.685 -1.5911  1.0996  0.4400
 1266SOL     OW15256   3.457   3.797   8.115  0.3954  0.3907 -0.1875
 1266SOL    HW115257   3.540   3.845   8.107  2.2253 -2.6527  0.6425
 1266SOL    HW215258   3.438   3.805   8.208 -1.4853  1.6061 -0.6755
 1267SOL     OW15259   4.029   1.132   6.299 -0.4122 -0.8279 -0.2933
 1267SOL    HW115260   3.949   1.142   6.247 -0.3005 -0.1232 -0.3257
 1267SOL    HW215261   4.094   1.154   6.233 -1.5154  0.9170 -0.8055
 1268SOL     OW15262   0.977   2.590  12.709 -0.7930  0.0164 -0.2138
 1268SOL    HW115263   0.890   2.581  12.669 -1.2440 -0.6695  0.9208
 1268SOL    HW215264   1.018   2.563  12.626 -1.2489 -0.3392 -0.3263
 1269SOL     OW15265   0.900   2.910   1.057 -0.7737  0.7731 -0.4378
 1269SOL    HW115266   0.873   2.948   1.140  0.7193  1.8887 -0.4617
 1269SOL    HW215267   0.905   2.989   1.002  0.4138  0.9278 -0.1149
 1270SOL     OW15268   1.352   2.256   0.442 -0.2315 -0.2505  0.8283
 1270SOL    HW115269   1.436   2.250   0.396 -1.3122  0.0725 -1.1795
 1270SOL    HW215270   1.346   2.165   0.471 -5.1033 -0.1947 -0.0503
 1271SOL     OW15271   3.259   1.517  17.576  0.7363 -0.1676  0.1955
 1271SOL    HW115272   3.340   1.558  17.607  0.2966  0.1330  0.9536
 1271SOL    HW215273   3.277   1.509  17.482  0.5791 -1.0664  0.2393
 1272SOL     OW15274   3.130   0.360   9.066  0.1318  0.1049  0.5419
 1272SOL    HW115275   3.196   0.320   9.123  1.1339 -1.5899 -1.8206
 1272SOL    HW215276   3.187   0.422   9.020  0.0666  0.2227  0.6189
 1273SOL     OW15277   0.913   1.099   6.823 -0.9680 -0.1279  0.1884
 1273SOL    HW115278   0.980   1.157   6.786  0.3408 -1.5798  0.2616
 1273SOL    HW215279   0.834   1.146   6.798 -0.0684  2.0024  1.3384
 1274SOL     OW15280   0.117   1.176   3.592  0.3035 -0.2515 -0.7159
 1274SOL    HW115281   0.212   1.183   3.586  0.3830  0.7664  2.0865
 1274SOL    HW215282   0.103   1.084   3.617 -1.3612  0.1924  0.0021
 1275SOL     OW15283   2.121   4.445   5.045  0.3003 -0.2563  0.5396
 1275SOL    HW115284   2.083   4.503   4.978 -1.9815 -0.2969  1.7906
 1275SOL    HW215285   2.215   4.462   5.035  0.2364 -0.7359 -0.8697
 1276SOL     OW15286   0.960   3.032   5.498 -0.6361  0.2074  0.3763
 1276SOL    HW115287   0.989   3.123   5.504 -0.4900  0.0377  2.0424
 1276SOL    HW215288   1.043   2.987   5.486 -0.5184  0.4013  0.4643
 1277SOL     OW15289   0.170   4.292   4.649  0.4309  0.1129 -0.3722
 1277SOL    HW115290   0.209   4.379   4.646 -1.4918  0.9704 -0.7739
 1277SOL    HW215291   0.238   4.226   4.660  0.3455  0.3381  1.5312
 1278SOL     OW15292   2.860   3.333   6.438 -0.3642  0.3418 -0.3506
 1278SOL    HW115293   2.915   3.327   6.361  0.3704  2.4931  0.0149
 1278SOL    HW215294   2.820   3.246   6.443 -0.9534  0.4886 -2.4555
 1279SOL     OW15295   2.026   0.878  10.687  0.3752 -0.0607  0.0550
 1279SOL    HW115296   1.976   0.835  10.618 -0.4100 -1.8196  1.7123
 1279SOL    HW215297   2.033   0.811  10.756  1.1300  1.1638  1.1647
 1280SOL     OW15298   1.110   1.632  10.219 -0.0605  0.1672  0.5836
 1280SOL    HW115299   1.070   1.566  10.277 -0.1254 -0.3110 -0.0029
 1280SOL    HW215300   1.164   1.578  10.161 -1.3718 -0.1890 -0.2958
 1281SOL     OW15301   4.047   3.090   9.881  0.0375  0.3306 -0.3512
 1281SOL    HW115302   3.999   3.168   9.908 -0.0251  0.8627 -2.0146
 1281SOL    HW215303   4.126   3.098   9.935 -0.9159 -0.5556  1.1918
 1282SOL     OW15304   0.211   2.476  12.839  0.1717 -0.2493  0.1658
 1282SOL    HW115305   0.238   2.541  12.775  1.2387 -2.5120 -1.6509
 1282SOL    HW215306   0.143   2.529  12.882  0.4082 -0.1821  0.4603
 1283SOL     OW15307   0.562   2.546   8.576  0.6299 -0.3723 -0.0233
 1283SOL    HW115308   0.475   2.586   8.573  1.1562  1.0453  3.2470
 1283SOL    HW215309   0.564   2.518   8.668 -1.3993 -0.6963 -0.0765
 1284SOL     OW15310   0.772   1.353   5.798  0.2576 -0.0808  0.3967
 1284SOL    HW115311   0.842   1.288   5.797 -1.4004 -1.8613 -0.2629
 1284SOL    HW215312   0.824   1.433   5.798  0.7418 -0.3900  1.3670
 1285SOL     OW15313   4.578   1.382   2.973 -0.3519 -0.0049 -0.4787
 1285SOL    HW115314   4.563   1.477   2.967  0.0148  0.0057 -1.2822
 1285SOL    HW215315   4.666   1.380   2.935 -0.3004  0.3040 -0.3808
 1286SOL     OW15316   1.450   4.296   8.211 -0.0141  0.4251  0.5312
 1286SOL    HW115317   1.394   4.218   8.209 -0.3347  0.6948 -0.8974
 1286SOL    HW215318   1.422   4.342   8.132 -0.8988 -0.3365  0.3934
 1287SOL     OW15319   3.001   0.293   6.228 -0.4632 -0.3977 -0.6484
 1287SOL    HW115320   2.957   0.359   6.282 -1.1218 -1.1821 -0.2476
 1287SOL    HW215321   3.028   0.226   6.290  2.6847  1.9697  0.5958
 1288SOL     OW15322   3.321   1.671   0.473 -0.4295 -0.1876 -0.2813
 1288SOL    HW115323   3.308   1.730   0.548 -1.6627 -0.7628 -0.0415
 1288SOL    HW215324   3.339   1.733   0.402  2.4197 -0.2200  0.4220
 1289SOL     OW15325   0.827   2.779   0.611 -0.3044  0.1550  0.1095
 1289SOL    HW115326   0.816   2.740   0.697  0.5018 -0.3360 -0.0166
 1289SOL    HW215327   0.887   2.852   0.625  1.5566 -1.4686  0.4464
 1290SOL     OW15328   1.238   4.232   6.720 -0.5654  0.0041  0.3364
 1290SOL    HW115329   1.221   4.316   6.678  1.4573 -0.3494 -1.1848
 1290SOL    HW215330   1.282   4.250   6.803 -1.5975 -0.3126  0.9500
 1291SOL     OW15331   4.130   2.611   0.730  0.5568  0.9193 -0.0445
 1291SOL    HW115332   4.052   2.564   0.760 -0.6506  2.0118 -1.4642
 1291SOL    HW215333   4.123   2.605   0.635 -0.2859  0.7585  0.0283
 1292SOL     OW15334   1.802   2.765  16.942 -0.1080  0.1067 -0.8718
 1292SOL    HW115335   1.772   2.801  17.026  0.3043  2.1311 -1.6002
 1292SOL    HW215336   1.890   2.800  16.936 -0.5314  1.2969 -0.1353
 1293SOL     OW15337   3.367   2.144  10.151 -0.0100  0.3420  0.7679
 1293SOL    HW115338   3.346   2.126  10.242 -0.2351  1.3853  0.9181
 1293SOL    HW215339   3.278   2.146  10.117 -0.1040 -0.4555  0.9673
 1294SOL     OW15340   3.443   3.045  12.729 -0.2326 -0.2747  0.1964
 1294SOL    HW115341   3.446   2.950  12.716 -0.9967 -0.3164  0.2802
 1294SOL    HW215342   3.497   3.058  12.807  1.8201 -2.3962 -0.8866
 1295SOL     OW15343   1.451   3.957   2.892  0.2497  0.2724  0.0327
 1295SOL    HW115344   1.357   3.943   2.904  0.3840  0.5808  1.4892
 1295SOL    HW215345   1.485   3.871   2.919 -0.5678  0.2689  1.0677
 1296SOL     OW15346   0.533   4.274   4.662  0.0104 -0.1813  0.8805
 1296SOL    HW115347   0.614   4.322   4.650 -1.3372  1.1414 -3.0574
 1296SOL    HW215348   0.473   4.342   4.631  0.0541  0.3766  2.0041
 1297SOL     OW15349   2.688   2.853  10.307 -0.8016  0.0067 -0.3800
 1297SOL    HW115350   2.593   2.844  10.298 -0.7457 -1.5422  0.6222
 1297SOL    HW215351   2.695   2.831  10.400  0.4883  1.3545 -0.1576
 1298SOL     OW15352   0.140   2.649   9.811 -0.1266 -0.2426  0.5339
 1298SOL    HW115353   0.131   2.556   9.790  0.8592 -0.0956 -0.5116
 1298SOL    HW215354   0.070   2.681   9.755 -0.7151 -1.1781  0.7390
 1299SOL     OW15355   0.844   1.799   7.282 -0.1953 -0.0725 -0.0364
 1299SOL    HW115356   0.792   1.720   7.267 -1.3665  0.6411  0.1632
 1299SOL    HW215357   0.774   1.864   7.294 -0.1723 -0.1694  0.5870
 1300SOL     OW15358   2.370   3.323   8.556  0.0473 -0.6671 -0.4113
 1300SOL    HW115359   2.379   3.272   8.636 -3.0325 -0.3205  0.1656
 1300SOL    HW215360   2.458   3.318   8.519  0.6049  0.7981  0.7142
 1301SOL     OW15361   2.399   0.551   0.753 -0.2346 -0.0216 -0.2486
 1301SOL    HW115362   2.480   0.505   0.773 -0.3319  0.1527  0.5713
 1301SOL    HW215363   2.421   0.643   0.767  1.2820 -0.4037 -0.1754
 1302SOL     OW15364   0.076   3.855   7.401 -0.3319  0.5131  0.1849
 1302SOL    HW115365   0.171   3.858   7.386 -0.5108 -2.3111 -1.4245
 1302SOL    HW215366   0.076   3.823   7.491  1.1076 -0.8451 -0.3032
 1303SOL     OW15367   3.051   3.529  16.972 -0.3245  0.1164 -0.2648
 1303SOL    HW115368   3.137   3.486  16.975 -1.3455 -1.8000  1.5122
 1303SOL    HW215369   3.019   3.526  17.062 -1.3892 -2.0534 -0.7168
 1304SOL     OW15370   3.067   2.495   6.930 -0.1568 -0.4490  0.5721
 1304SOL    HW115371   3.113   2.479   7.013  2.0698 -0.6756 -0.7015
 1304SOL    HW215372   3.007   2.562   6.964 -0.4580 -0.7179  0.5659
 1305SOL     OW15373   0.562   4.392   7.757 -0.1030 -0.0248  0.4920
 1305SOL    HW115374   0.520   4.472   7.726 -0.1896 -0.0808  0.4639
 1305SOL    HW215375   0.624   4.413   7.827  0.7973  0.0195 -0.3161
 1306SOL     OW15376   4.016   4.141   3.329 -0.6209  0.7203  0.8018
 1306SOL    HW115377   4.019   4.081   3.404  0.1065 -0.5951 -0.2829
 1306SOL    HW215378   3.933   4.106   3.295  1.7689 -3.3098 -0.8583
 1307SOL     OW15379   3.335   3.281   4.883  0.4093 -0.0371  0.3035
 1307SOL    HW115380   3.393   3.321   4.818  1.1963 -2.2254 -0.3396
 1307SOL    HW215381   3.397   3.272   4.955  2.7351 -0.9154 -1.8054
 1308SOL     OW15382   1.337   1.997  11.697  0.5175  0.4043  0.9896
 1308SOL    HW115383   1.267   1.953  11.648  0.8142  0.8745  0.1454
 1308SOL    HW215384   1.284   2.062  11.743 -2.0319 -0.0772 -1.2264
 1309SOL     OW15385   0.952   4.069   7.134 -0.0643  0.2968  0.3572
 1309SOL    HW115386   0.925   4.107   7.218 -2.0198 -3.3426  1.3727
 1309SOL    HW215387   0.886   4.108   7.076 -2.2429 -2.6554  0.8600
 1310SOL     OW15388   0.884   0.571  12.740 -0.0204  0.4284 -0.7030
 1310SOL    HW115389   0.883   0.665  12.722 -1.7951  0.4269 -0.6052
 1310SOL    HW215390   0.793   0.548  12.759 -0.0773  1.0993 -0.1535
 1311SOL     OW15391   4.575   0.436  10.465  0.3533  0.6315 -0.4498
 1311SOL    HW115392   4.612   0.399  10.385  4.6066  3.6569  0.1619
 1311SOL    HW215393   4.629   0.506  10.500  2.2418 -0.5346 -1.0726
 1312SOL     OW15394   4.568   2.633  10.801  0.0242  0.0358 -0.0403
 1312SOL    HW115395   4.542   2.606  10.714 -0.1859 -3.7409  1.2003
 1312SOL    HW215396   4.582   2.549  10.844  0.4758  0.0836 -0.0876
 1313SOL     OW15397   0.465   2.379   2.859  0.0502  0.6069  0.0190
 1313SOL    HW115398   0.510   2.463   2.866  1.7207 -0.2134 -0.9115
 1313SOL    HW215399   0.487   2.355   2.949 -0.2344 -1.4547 -0.4384
 1314SOL     OW15400   2.984   0.797  17.479  0.4266 -0.2037 -0.1754
 1314SOL    HW115401   2.959   0.723  17.423  0.9488 -0.8518  0.4348
 1314SOL    HW215402   2.971   0.876  17.428  1.5431  0.8653  1.1874
 1315SOL     OW15403   3.096   1.826   8.375 -0.3991  0.7736 -0.0946
 1315SOL    HW115404   3.143   1.862   8.450 -0.5167 -1.4830  1.0725
 1315SOL    HW215405   3.018   1.811   8.429  0.2083  0.3359  0.6569
 1316SOL     OW15406   3.333   2.842   5.730 -0.0427 -0.6020  0.2479
 1316SOL    HW115407   3.328   2.826   5.824  2.9521 -2.8912  0.0015
 1316SOL    HW215408   3.379   2.767   5.692  0.5199 -0.4225  0.5933
 1317SOL     OW15409   0.633   0.584   4.545  0.1094  0.3751 -0.1003
 1317SOL    HW115410   0.623   0.523   4.618  0.6643  0.5048  0.0860
 1317SOL    HW215411   0.721   0.622   4.541 -0.8381  2.4964 -0.8591
 1318SOL     OW15412   0.427   3.369   5.431  0.1288 -0.6563  0.1713
 1318SOL    HW115413   0.364   3.372   5.359 -0.2322 -1.4110  0.4478
 1318SOL    HW215414   0.422   3.459   5.461  0.3417 -0.1412 -1.3132
 1319SOL     OW15415   0.565   2.171   3.593 -0.7070 -0.1962 -0.3425
 1319SOL    HW115416   0.635   2.161   3.527  0.1708  0.8218  0.4407
 1319SOL    HW215417   0.590   2.136   3.678 -1.5329  0.9827  0.3730
 1320SOL     OW15418   0.861   1.264   0.774  0.3967 -0.2924 -0.2060
 1320SOL    HW115419   0.772   1.230   0.786 -0.5882  2.1540 -0.5919
 1320SOL    HW215420   0.917   1.189   0.793 -0.7957 -1.0583  0.2846
 1321SOL     OW15421   3.876   0.283   7.366  0.6066 -0.0133  0.2163
 1321SOL    HW115422   3.914   0.337   7.435  0.2840 -0.8537  1.0594
 1321SOL    HW215423   3.842   0.355   7.312  0.1694 -0.0735  0.4088
 1322SOL     OW15424   3.842   2.378   7.247  0.6804 -0.8225 -0.0024
 1322SOL    HW115425   3.933   2.352   7.232  0.6223 -0.4176 -1.0060
 1322SOL    HW215426   3.818   2.325   7.323  0.5002 -0.0717  0.4669
 1323SOL     OW15427   0.541   0.099   7.560  0.3370 -0.1982  0.3923
 1323SOL    HW115428   0.627   0.065   7.587  1.0607  3.4083  2.6276
 1323SOL    HW215429   0.481   0.025   7.572  1.4662 -1.3398 -0.9151
 1324SOL     OW15430   4.101   1.427  13.495  0.2168  0.0535 -1.0120
 1324SOL    HW115431   4.029   1.484  13.470  1.5494  2.3864  0.4553
 1324SOL    HW215432   4.152   1.475  13.560 -2.1813 -0.9822  1.6487
 1325SOL     OW15433   3.965   3.813   3.077 -0.0222  0.0855  0.6108
 1325SOL    HW115434   3.877   3.843   3.053  0.0121 -1.4922 -1.4623
 1325SOL    HW215435   4.017   3.892   3.063 -0.5062  0.0326 -1.4537
 1326SOL     OW15436   2.981   3.158   5.297  0.2717  0.2984 -0.5313
 1326SOL    HW115437   2.957   3.172   5.389  1.6922 -0.6967 -0.0002
 1326SOL    HW215438   2.974   3.062   5.300 -2.4005  0.5569  1.0907
 1327SOL     OW15439   2.604   4.307  10.116 -0.0897 -0.1650  0.3736
 1327SOL    HW115440   2.693   4.328  10.089 -0.6223  0.5074 -0.8899
 1327SOL    HW215441   2.562   4.393  10.112 -0.0136 -0.2936 -3.2532
 1328SOL     OW15442   4.608   4.378   8.051 -0.2496 -1.0341  0.0517
 1328SOL    HW115443   4.556   4.392   8.131  1.2289  1.3089  0.5925
 1328SOL    HW215444   4.682   4.434   8.075 -0.5262 -0.5263 -0.2769
 1329SOL     OW15445   3.321   3.152   2.065  0.5473  0.2411  0.0565
 1329SOL    HW115446   3.391   3.195   2.015 -1.5165  0.4643 -2.6066
 1329SOL    HW215447   3.262   3.125   1.995  1.1003 -0.9614  0.0604
 1330SOL     OW15448   0.446   1.974   6.673  0.1604 -0.4591 -0.2084
 1330SOL    HW115449   0.422   1.901   6.731  1.2048  1.2700  2.3836
 1330SOL    HW215450   0.392   2.039   6.718  0.9060 -0.3485  0.5108
 1331SOL     OW15451   2.486   0.592   1.989  0.0723  0.4575  0.1144
 1331SOL    HW115452   2.440   0.559   2.066  0.7356 -1.0614 -0.1296
 1331SOL    HW215453   2.575   0.560   2.001  0.3092  2.4113  3.4996
 1332SOL     OW15454   0.232   0.739   3.473  0.2368  0.6644 -0.0735
 1332SOL    HW115455   0.206   0.791   3.549 -0.6833 -0.9785  0.7286
 1332SOL    HW215456   0.224   0.811   3.410  1.7938  0.6977 -0.2193
 1333SOL     OW15457   2.103   0.637   2.829 -0.3767 -0.1930  0.5494
 1333SOL    HW115458   2.038   0.637   2.898 -0.7048 -2.4043  0.2426
 1333SOL    HW215459   2.125   0.730   2.833  2.0943 -0.6804 -1.3891
 1334SOL     OW15460   2.744   0.269   2.602 -0.5223 -0.5303  0.4758
 1334SOL    HW115461   2.730   0.175   2.616 -1.7868 -0.0422  2.5288
 1334SOL    HW215462   2.671   0.306   2.653 -1.6256 -0.7042 -0.9855
 1335SOL     OW15463   1.375   0.137  15.902  0.2088 -0.8856 -0.1007
 1335SOL    HW115464   1.414   0.057  15.865 -0.6328 -0.4333 -1.9901
 1335SOL    HW215465   1.453   0.171  15.944  0.0930 -2.3116  1.2647
 1336SOL     OW15466   3.052   3.006   0.461 -0.0761  0.0624 -0.1504
 1336SOL    HW115467   3.043   2.997   0.556  0.5808  2.2159  0.1051
 1336SOL    HW215468   3.061   2.917   0.427  1.8686  0.0201  0.4914
 1337SOL     OW15469   3.746   2.952   5.055  0.1481  0.3562  0.0117
 1337SOL    HW115470   3.760   2.882   4.991  1.8741 -0.8916  1.7597
 1337SOL    HW215471   3.702   2.904   5.125 -0.9945 -0.6853 -1.4262
 1338SOL     OW15472   0.934   3.383   4.286  0.9984  0.5267 -0.5036
 1338SOL    HW115473   1.002   3.450   4.295  0.1136  1.2178  1.0308
 1338SOL    HW215474   0.982   3.315   4.237  0.4807  1.1870 -1.9193
 1339SOL     OW15475   0.470   4.621   4.207 -0.1107  0.1077 -0.2201
 1339SOL    HW115476   0.522   4.544   4.232 -0.7221 -0.9164 -2.0730
 1339SOL    HW215477   0.398   4.568   4.171 -0.4975 -0.5607  1.5592
 1340SOL     OW15478   4.239   2.131   5.695  0.0132 -0.3147  0.0224
 1340SOL    HW115479   4.241   2.039   5.722  1.9673  0.5551  2.8856
 1340SOL    HW215480   4.235   2.167   5.784 -0.1461 -0.1460 -0.0539
 1341SOL     OW15481   3.784   2.716   6.048  0.0076 -0.8077 -0.2151
 1341SOL    HW115482   3.843   2.790   6.036  1.9788 -1.9130  2.5281
 1341SOL    HW215483   3.854   2.662   6.084  0.8968  1.5536  1.5661
 1342SOL     OW15484   2.820   3.242   2.177  0.6285 -0.1068  0.5487
 1342SOL    HW115485   2.889   3.290   2.223  2.1332 -0.2945 -1.5451
 1342SOL    HW215486   2.766   3.221   2.253 -1.4882 -0.8951 -1.1977
 1343SOL     OW15487   2.565   1.279  10.608 -0.2728  0.2649  0.5104
 1343SOL    HW115488   2.497   1.291  10.541  0.7617  0.6266 -0.4664
 1343SOL    HW215489   2.589   1.371  10.612 -0.4978  0.3568 -0.2034
 1344SOL     OW15490   1.685   2.361  17.681  0.5631  0.1512  0.0692
 1344SOL    HW115491   1.676   2.421  17.607  1.5028  0.3343  0.1037
 1344SOL    HW215492   1.604   2.366   0.043 -0.2974 -0.0336 -1.2991
 1345SOL     OW15493   3.362   3.056   0.605 -0.1067 -0.0873  0.1927
 1345SOL    HW115494   3.403   3.009   0.533  1.5223 -1.3732  1.9544
 1345SOL    HW215495   3.387   3.001   0.680 -0.8687 -0.2475  0.3280
 1346SOL     OW15496   4.496   1.740   8.214 -0.0842  0.6424 -0.1942
 1346SOL    HW115497   4.499   1.728   8.309  0.6596 -0.1239 -0.3103
 1346SOL    HW215498   4.580   1.695   8.200 -0.2854  0.4579 -0.8552
 1347SOL     OW15499   0.769   4.614   3.926  0.1120 -0.1229  0.1518
 1347SOL    HW115500   0.750   4.553   3.854 -1.8414 -0.0935  0.6503
 1347SOL    HW215501   0.821   4.554   3.980  1.1433  0.5936 -0.0354
 1348SOL     OW15502   3.233   0.591  15.676 -0.6606  0.8971  0.2720
 1348SOL    HW115503   3.253   0.524  15.741  0.1541 -0.5057 -1.4220
 1348SOL    HW215504   3.138   0.581  15.685 -0.3502 -1.4803  0.8777
 1349SOL     OW15505   0.966   3.619   2.363 -0.4230  0.0229  0.1820
 1349SOL    HW115506   0.906   3.652   2.296  0.0429  0.0866 -0.2016
 1349SOL    HW215507   0.928   3.649   2.446  1.6019 -0.4840  1.2798
 1350SOL     OW15508   0.067   1.286   9.311  0.5221 -0.0047  0.0726
 1350SOL    HW115509   0.160   1.307   9.312 -0.0535  2.5436  0.3355
 1350SOL    HW215510   0.065   1.195   9.338  1.1538 -0.3751 -1.1627
 1351SOL     OW15511   3.065   1.404  13.973  0.4103  0.1204  0.4949
 1351SOL    HW115512   3.020   1.320  13.963 -1.6289  1.1289  1.2697
 1351SOL    HW215513   3.135   1.383  13.910  1.0657  0.8482  0.9848
 1352SOL     OW15514   2.201   1.353   6.859  0.2162  0.4750  0.0243
 1352SOL    HW115515   2.113   1.358   6.821  0.7711  0.5974 -1.2484
 1352SOL    HW215516   2.241   1.295   6.794 -1.4276 -0.2186 -0.3599
 1353SOL     OW15517   2.719   1.474   8.978  0.1326 -0.0250 -0.5724
 1353SOL    HW115518   2.806   1.512   8.967  0.6029 -0.8099  0.4709
 1353SOL    HW215519   2.728   1.401   8.916  1.8914 -0.0062 -0.3526
 1354SOL     OW15520   2.238   3.277   1.244  0.2711 -0.0267  0.6957
 1354SOL    HW115521   2.290   3.200   1.264 -0.5851 -0.6260  0.6138
 1354SOL    HW215522   2.206   3.245   1.160  3.7136 -0.5533 -0.3894
 1355SOL     OW15523   1.391   2.817  17.511  0.3685  0.3300  0.1923
 1355SOL    HW115524   1.302   2.850  17.520  1.7851  3.8004  1.3676
 1355SOL    HW215525   1.442   2.890  17.545  0.3721  0.2015  0.4667
 1356SOL     OW15526   4.453   3.281   7.674  0.1396  0.2168  0.0855
 1356SOL    HW115527   4.376   3.249   7.720  0.3409 -0.0637  0.2278
 1356SOL    HW215528   4.435   3.375   7.671  0.0719  0.1660 -1.2644
 1357SOL     OW15529   1.452   3.667  13.742 -0.0923 -0.2467  0.2804
 1357SOL    HW115530   1.426   3.684  13.651 -0.2894 -0.3616  0.3142
 1357SOL    HW215531   1.535   3.715  13.749  0.3007 -1.3487  3.2882
 1358SOL     OW15532   0.582   3.850   0.344 -0.1369  0.2742  0.3543
 1358SOL    HW115533   0.531   3.769   0.343 -0.5234  0.5246  0.2149
 1358SOL    HW215534   0.518   3.915   0.371  1.2010  0.9234  2.0213
 1359SOL     OW15535   4.662   3.013  11.569  0.4504  0.1024 -0.0133
 1359SOL    HW115536   4.575   2.985  11.598  1.3663 -2.1123  0.6136
 1359SOL    HW215537   0.003   2.958  11.616  0.2376  0.2046  0.3949
 1360SOL     OW15538   4.218   4.210   2.015 -0.1600  0.4626  0.0798
 1360SOL    HW115539   4.278   4.148   1.973 -0.6041 -0.9170  1.4892
 1360SOL    HW215540   4.164   4.237   1.941  0.8243 -1.4211 -1.3506
 1361SOL     OW15541   2.853   3.013  17.544  0.1340  0.4609 -0.1511
 1361SOL    HW115542   2.908   2.973  17.612  0.9306 -1.3211 -1.8539
 1361SOL    HW215543   2.776   3.033  17.598  0.9004  1.7947  0.4573
 1362SOL     OW15544   0.122   4.105   5.253 -0.4628 -0.0239  0.7660
 1362SOL    HW115545   0.034   4.123   5.218  0.1539  0.0236 -0.7521
 1362SOL    HW215546   0.130   4.185   5.306 -1.3550 -0.2147  1.1935
 1363SOL     OW15547   4.476   0.893   4.885  0.3264  0.2061  0.2414
 1363SOL    HW115548   4.385   0.862   4.885  0.4066 -0.0288  0.5569
 1363SOL    HW215549   4.460   0.981   4.919  0.4410  1.1804 -2.1780
 1364SOL     OW15550   1.919   4.322   1.952  0.1784  0.4814  0.8322
 1364SOL    HW115551   1.892   4.367   1.872  3.0386  0.9898  0.1573
 1364SOL    HW215552   2.015   4.318   1.950  0.0649 -2.3390  0.7309
 1365SOL     OW15553   2.336   3.520   1.331  0.1405 -0.4744 -0.1933
 1365SOL    HW115554   2.396   3.529   1.257  0.2413  1.7580  0.1685
 1365SOL    HW215555   2.289   3.443   1.301 -1.6411 -0.3370  2.2626
 1366SOL     OW15556   1.377   4.041  15.587 -0.1372 -0.5691 -0.1718
 1366SOL    HW115557   1.324   4.008  15.515  0.3629  0.1054 -0.8507
 1366SOL    HW215558   1.342   4.129  15.604 -0.2713 -0.6401 -0.0846
 1367SOL     OW15559   1.630   2.879  15.155 -0.4554  0.5227 -0.3151
 1367SOL    HW115560   1.578   2.920  15.086 -2.3089 -0.5383  0.4460
 1367SOL    HW215561   1.643   2.956  15.211  1.3599  1.1911 -1.6413
 1368SOL     OW15562   0.208   1.740  13.977  0.1392  0.0284  0.2304
 1368SOL    HW115563   0.217   1.834  13.995 -0.0365 -0.0650  0.8087
 1368SOL    HW215564   0.116   1.740  13.953 -0.0958  0.2707  1.1409
 1369SOL     OW15565   3.295   1.347   5.100 -0.0804  0.0941  0.0389
 1369SOL    HW115566   3.283   1.362   5.194  1.8678  1.1105  0.1298
 1369SOL    HW215567   3.252   1.421   5.057 -0.8885 -0.8403 -0.7626
 1370SOL     OW15568   2.124   3.116   3.702 -0.4378 -0.2428  0.0614
 1370SOL    HW115569   2.128   3.069   3.786 -1.1743 -0.4651 -0.0237
 1370SOL    HW215570   2.217   3.125   3.682 -0.2385 -1.5422  0.3970
 1371SOL     OW15571   3.964   2.283   5.950 -0.4753  0.3212  0.1324
 1371SOL    HW115572   3.938   2.191   5.957 -0.5760  0.4984  1.9102
 1371SOL    HW215573   3.943   2.303   5.858 -0.8063  1.0311  0.3542
 1372SOL     OW15574   3.210   1.956  17.613 -0.6618 -0.3944 -0.3514
 1372SOL    HW115575   3.238   1.935  17.524 -0.2650 -1.6990  0.0872
 1372SOL    HW215576   3.289   1.940  17.665 -1.8183  0.6360  1.7360
 1373SOL     OW15577   2.297   3.765   7.275 -0.2874 -0.2221  0.0230
 1373SOL    HW115578   2.332   3.713   7.203  0.0439 -1.0951  0.8058
 1373SOL    HW215579   2.267   3.848   7.237 -0.1581  0.0984  0.6095
 1374SOL     OW15580   2.246   2.435   3.105  0.1153 -0.4956 -0.1280
 1374SOL    HW115581   2.237   2.508   3.044  0.3488 -0.4582 -0.1181
 1374SOL    HW215582   2.202   2.369   3.051 -0.3358 -0.2105 -0.1115
 1375SOL     OW15583   2.771   0.636   4.272  0.4784  0.2692  0.4320
 1375SOL    HW115584   2.824   0.580   4.328 -1.3691 -1.3961  0.4901
 1375SOL    HW215585   2.782   0.719   4.318 -0.0954  0.6446 -0.1183
 1376SOL     OW15586   3.854   0.276  12.413 -0.3990 -0.0617 -0.1968
 1376SOL    HW115587   3.898   0.327  12.481 -1.5135  0.2835  0.2780
 1376SOL    HW215588   3.902   0.193  12.411 -3.5188 -1.9378  2.0892
 1377SOL     OW15589   2.991   0.753   5.423  0.7736  0.2909 -0.1627
 1377SOL    HW115590   2.934   0.828   5.444 -0.9807 -0.6107 -1.7305
 1377SOL    HW215591   2.944   0.691   5.479  0.3053  1.9406  1.2953
 1378SOL     OW15592   2.389   0.293   1.733  0.3092  0.7442  1.5009
 1378SOL    HW115593   2.319   0.229   1.719  1.3586  0.1304 -0.8768
 1378SOL    HW215594   2.459   0.231   1.757  0.9934  2.0033  2.7631
 1379SOL     OW15595   3.632   0.667   5.730  0.0401  0.1889  0.0469
 1379SOL    HW115596   3.617   0.626   5.645  0.8400  2.8899 -1.3955
 1379SOL    HW215597   3.591   0.753   5.719 -0.3406 -0.1509 -1.1494
 1380SOL     OW15598   1.559   1.428  10.893  0.1285 -0.3706  0.3966
 1380SOL    HW115599   1.545   1.345  10.938  0.1516 -0.8151 -0.4200
 1380SOL    HW215600   1.592   1.392  10.811 -2.2231 -0.4482 -0.5219
 1381SOL     OW15601   3.202   3.520   2.677  0.0708  0.8851  0.3299
 1381SOL    HW115602   3.121   3.489   2.635  2.2889 -4.0322 -0.3376
 1381SOL    HW215603   3.267   3.456   2.648  0.6711  1.5699  0.1612
 1382SOL     OW15604   0.615   2.883   9.531 -0.1535  0.2431  0.4652
 1382SOL    HW115605   0.687   2.942   9.553 -2.0363  3.2492 -1.4177
 1382SOL    HW215606   0.586   2.933   9.455  0.1476 -3.4574 -2.0594
 1383SOL     OW15607   1.624   2.184   3.996  0.1341  0.2039 -0.1639
 1383SOL    HW115608   1.555   2.250   4.008 -1.2884 -1.4332  0.7312
 1383SOL    HW215609   1.674   2.179   4.077  1.7551  0.6428 -1.1522
 1384SOL     OW15610   0.714   3.301   0.222  0.7724  0.1086 -0.1760
 1384SOL    HW115611   0.783   3.297   0.156  0.6113  1.1131 -0.3979
 1384SOL    HW215612   0.746   3.375   0.274 -1.7023  0.9983  0.0715
 1385SOL     OW15613   2.423   4.403   3.214  0.2498  0.8506 -0.0888
 1385SOL    HW115614   2.380   4.335   3.265  1.4934 -1.3875 -1.9916
 1385SOL    HW215615   2.488   4.435   3.277 -0.6610 -0.9078  1.7088
 1386SOL     OW15616   3.384   1.077   6.367 -0.2121 -0.6240 -0.6410
 1386SOL    HW115617   3.324   1.030   6.425  0.0808  0.0493  0.2070
 1386SOL    HW215618   3.460   1.021   6.376  0.4314  0.3487  0.0228
 1387SOL     OW15619   0.766   0.574   1.819  0.5614 -0.1526 -0.0479
 1387SOL    HW115620   0.724   0.509   1.763  2.1942 -1.8408  0.6994
 1387SOL    HW215621   0.753   0.659   1.776  0.4033 -0.0267  0.2490
 1388SOL     OW15622   2.176   4.685   1.969 -0.4374  0.1355 -0.2138
 1388SOL    HW115623   2.099   0.021   1.959 -1.3990 -1.0472  0.4175
 1388SOL    HW215624   2.213   4.694   1.881 -1.9740 -0.1292 -0.8983
 1389SOL     OW15625   3.590   0.883  10.974  0.8160 -0.1539 -0.0816
 1389SOL    HW115626   3.642   0.959  10.951 -0.7546  0.2823 -2.2418
 1389SOL    HW215627   3.499   0.913  10.969  0.3877 -1.7421 -1.7491
 1390SOL     OW15628   2.188   4.319   2.285 -0.0986 -0.0036 -0.3130
 1390SOL    HW115629   2.130   4.389   2.256  0.5119  1.5467  2.1975
 1390SOL    HW215630   2.173   4.256   2.215 -1.0749 -3.1160  2.6955
 1391SOL     OW15631   0.859   1.619   3.164 -0.4779  0.1707 -0.2952
 1391SOL    HW115632   0.840   1.703   3.205 -3.2087 -1.3896  1.5815
 1391SOL    HW215633   0.930   1.636   3.101  0.4649  1.1424  1.0350
 1392SOL     OW15634   2.125   3.766   5.769 -0.3669  0.3472  0.3572
 1392SOL    HW115635   2.190   3.833   5.793  1.5940 -0.6577 -2.1091
 1392SOL    HW215636   2.170   3.687   5.737 -0.5569  0.3647  0.0508
 1393SOL     OW15637   2.058   3.177   4.702 -0.2743 -0.0883 -0.6708
 1393SOL    HW115638   2.032   3.158   4.793  1.3897  4.5010  0.7264
 1393SOL    HW215639   2.061   3.272   4.702  1.3892 -0.1400  0.8785
 1394SOL     OW15640   3.668   3.885   5.649 -0.4676 -0.8276  0.2674
 1394SOL    HW115641   3.679   3.833   5.569  2.3774  1.9268 -1.1158
 1394SOL    HW215642   3.733   3.952   5.626 -2.9720  1.3862 -0.3748
 1395SOL     OW15643   2.624   3.439   6.338  0.2067  0.1200 -0.4156
 1395SOL    HW115644   2.700   3.419   6.393  0.5642  1.7257 -0.3151
 1395SOL    HW215645   2.662   3.426   6.251  0.0874  1.8359 -0.7289
 1396SOL     OW15646   4.468   1.875   6.271 -0.1353  0.1754  0.2024
 1396SOL    HW115647   4.435   1.869   6.361 -0.7819  1.9718  0.0902
 1396SOL    HW215648   4.441   1.789   6.238  1.3829  0.0196 -0.6348
 1397SOL     OW15649   2.858   1.900   3.162 -1.1576 -0.7435 -0.0679
 1397SOL    HW115650   2.795   1.902   3.234 -2.3971  1.1475 -1.2215
 1397SOL    HW215651   2.845   1.812   3.125  1.3504 -1.6903  1.3512
 1398SOL     OW15652   1.961   3.447   1.914 -0.1565  0.2783  0.2916
 1398SOL    HW115653   2.030   3.422   1.974 -0.3335  1.0427  0.8119
 1398SOL    HW215654   1.967   3.374   1.851 -0.3503 -1.2844  2.0971
 1399SOL     OW15655   3.272   1.561   4.551  0.3186  0.1506  0.3801
 1399SOL    HW115656   3.327   1.578   4.628 -0.1970 -1.4604  1.1022
 1399SOL    HW215657   3.201   1.623   4.568  0.0882  0.0145 -0.1109
 1400SOL     OW15658   2.077   4.720  13.116  0.1288  0.6008 -0.0899
 1400SOL    HW115659   2.160   0.041  13.095 -0.3873  1.4958 -0.3434
 1400SOL    HW215660   2.091   4.631  13.085 -1.1118  0.2999  0.2339
 1401SOL     OW15661   1.876   3.707   1.825  0.8889 -0.3949  0.3395
 1401SOL    HW115662   1.856   3.714   1.918  2.4004 -0.3365  0.6503
 1401SOL    HW215663   1.901   3.615   1.824  1.2965 -0.2820  0.4668
 1402SOL     OW15664   4.032   2.908  12.151  0.2948 -0.3032 -0.0604
 1402SOL    HW115665   4.055   2.999  12.130 -0.9205  0.0155 -0.0660
 1402SOL    HW215666   4.079   2.879  12.228 -1.5646 -3.0700  0.0218
 1403SOL     OW15667   2.161   4.419   1.788 -0.1092 -0.2824  0.0304
 1403SOL    HW115668   2.242   4.468   1.774  0.0765 -0.1594  1.5717
 1403SOL    HW215669   2.108   4.498   1.795 -0.1439 -0.4308  1.3326
 1404SOL     OW15670   2.271   1.909   6.413  0.3255 -0.0733  0.6195
 1404SOL    HW115671   2.305   1.925   6.325 -2.8597  1.6365 -0.2693
 1404SOL    HW215672   2.345   1.901   6.473 -1.1301  1.9243  2.6692
 1405SOL     OW15673   4.231   4.407   4.305 -0.4766  0.0287  0.0842
 1405SOL    HW115674   4.312   4.423   4.354 -0.3125  3.6655 -1.3531
 1405SOL    HW215675   4.173   4.389   4.378  1.9873 -0.3344  1.9668
 1406SOL     OW15676   4.073   2.952   2.558 -0.1676  0.1610 -0.4921
 1406SOL    HW115677   4.136   2.880   2.557  0.5903  0.8353 -0.5390
 1406SOL    HW215678   4.022   2.911   2.488  1.3245  0.0180 -1.4979
 1407SOL     OW15679   0.313   4.707  13.880 -0.2081  0.0017  0.1777
 1407SOL    HW115680   0.350   4.660  13.954  1.1718 -0.5059 -0.8334
 1407SOL    HW215681   0.386   0.028  13.835  0.6337 -0.3287  1.2498
 1408SOL     OW15682   3.540   0.992   5.931  0.2649 -0.0803 -0.3104
 1408SOL    HW115683   3.476   0.946   5.986  1.2894 -1.3868 -0.2115
 1408SOL    HW215684   3.508   0.953   5.849  1.9275  1.3802 -1.6624
 1409SOL     OW15685   1.206   3.295   3.573  0.4562  0.2433  0.2587
 1409SOL    HW115686   1.135   3.359   3.573 -0.0138 -0.2875  1.6071
 1409SOL    HW215687   1.213   3.288   3.477 -0.8800  0.6824  0.1238
 1410SOL     OW15688   2.912   3.378   7.051 -0.3566 -0.2267 -0.5534
 1410SOL    HW115689   2.868   3.298   7.081  1.1446 -1.0882 -0.6736
 1410SOL    HW215690   2.982   3.343   6.997  2.2474 -0.5597  2.9990
 1411SOL     OW15691   4.124   4.037   3.054  0.1891  0.4030  0.4547
 1411SOL    HW115692   4.106   4.102   3.122 -0.5622 -0.1963  0.8322
 1411SOL    HW215693   4.192   4.092   3.017  0.2987  0.5541  0.8743
 1412SOL     OW15694   1.731   3.451   0.817 -0.7478 -0.2421 -0.3567
 1412SOL    HW115695   1.774   3.537   0.809 -0.9501 -0.2059 -1.0727
 1412SOL    HW215696   1.689   3.458   0.902 -0.5369  0.3229 -0.2975
 1413SOL     OW15697   1.029   4.505   5.513 -0.0234 -0.2861  0.3281
 1413SOL    HW115698   1.075   4.453   5.579 -0.1822 -0.7952  0.0390
 1413SOL    HW215699   1.092   4.511   5.442 -2.0039 -0.0518 -1.4058
 1414SOL     OW15700   2.111   2.490  16.093  0.1888 -0.6286 -0.3848
 1414SOL    HW115701   2.187   2.480  16.036  0.5977 -0.6845  0.1587
 1414SOL    HW215702   2.127   2.417  16.153  0.0622  1.5891  2.3752
 1415SOL     OW15703   4.352   0.960  12.639  0.2089 -0.3002 -0.3238
 1415SOL    HW115704   4.298   1.035  12.665 -1.8640 -1.9588  0.1444
 1415SOL    HW215705   4.305   0.887  12.678  2.2882 -1.8891 -0.8305
 1416SOL     OW15706   2.521   1.601   8.587  0.0361 -0.6677 -0.3250
 1416SOL    HW115707   2.512   1.514   8.627  0.3868 -0.5061  0.1064
 1416SOL    HW215708   2.597   1.589   8.530  0.2752  0.8265 -0.3030
 1417SOL     OW15709   2.765   0.572   6.196 -0.1428 -0.0621  0.4481
 1417SOL    HW115710   2.800   0.533   6.276  1.1027  0.5689  0.2225
 1417SOL    HW215711   2.842   0.610   6.153 -1.8492  0.9022 -1.7712
 1418SOL     OW15712   2.809   3.928   8.201 -0.2938  0.3402  0.7051
 1418SOL    HW115713   2.799   4.013   8.160 -2.3339 -0.1363  0.2189
 1418SOL    HW215714   2.866   3.882   8.140 -2.8982 -0.0726 -1.3791
 1419SOL     OW15715   3.902   1.483  10.444  0.4063 -0.6140 -0.2529
 1419SOL    HW115716   3.966   1.420  10.412 -0.0213 -1.5962  0.8214
 1419SOL    HW215717   3.908   1.561  10.388 -2.6747 -0.3247 -0.1934
 1420SOL     OW15718   3.719   1.221   0.805  0.5319 -0.2672 -0.0381
 1420SOL    HW115719   3.707   1.246   0.896 -1.1382  1.9012 -0.8445
 1420SOL    HW215720   3.739   1.307   0.769  0.6100 -0.1120  0.3846
 1421SOL     OW15721   0.411   2.408   8.098  0.1188 -0.0494 -0.1397
 1421SOL    HW115722   0.393   2.492   8.056  1.2346 -0.2476 -1.0050
 1421SOL    HW215723   0.499   2.410   8.134  0.5946 -0.7379 -1.2559
 1422SOL     OW15724   2.211   4.128   7.528 -0.3288  0.0621  0.3832
 1422SOL    HW115725   2.283   4.070   7.506  0.9950  2.2770 -1.1254
 1422SOL    HW215726   2.155   4.062   7.568 -1.3159 -0.2106 -1.4698
 1423SOL     OW15727   0.632   4.659   1.895 -0.0688  0.3337 -0.3530
 1423SOL    HW115728   0.667   0.027   1.904  0.0046  0.1746  0.9052
 1423SOL    HW215729   0.546   4.675   1.933  0.9283  1.0504  1.6081
 1424SOL     OW15730   3.293   1.753   7.678  0.2313 -0.6305  0.5624
 1424SOL    HW115731   3.204   1.731   7.649  0.3796 -1.3432  0.6368
 1424SOL    HW215732   3.335   1.792   7.602 -0.0830 -0.1573  0.6270
 1425SOL     OW15733   3.895   1.083   0.500 -0.0438  0.3456  0.6157
 1425SOL    HW115734   3.921   0.992   0.509 -1.3936  0.0406  1.4723
 1425SOL    HW215735   3.882   1.103   0.592 -1.0806 -0.1848  0.5959
 1426SOL     OW15736   1.376   1.529  17.649 -0.5240  0.4873 -0.5553
 1426SOL    HW115737   1.439   1.538  17.578 -2.1428  1.9512 -1.7803
 1426SOL    HW215738   1.440   1.510   0.029  0.7261  1.7290 -1.4009
 1427SOL     OW15739   4.462   0.256   5.401 -0.1400  0.6669 -0.0984
 1427SOL    HW115740   4.461   0.304   5.483  0.3360 -0.2729  0.4542
 1427SOL    HW215741   4.482   0.325   5.338  2.8634  0.1889  0.3628
 1428SOL     OW15742   1.449   4.343   8.507 -0.0198 -0.0116  0.5046
 1428SOL    HW115743   1.361   4.321   8.477  0.4925 -0.6006 -0.5694
 1428SOL    HW215744   1.503   4.325   8.429 -1.0201  1.7454 -0.5990
 1429SOL     OW15745   3.045   1.244  13.503  0.2865 -0.1924  0.7415
 1429SOL    HW115746   3.006   1.157  13.503  1.0716 -0.5483 -0.1599
 1429SOL    HW215747   3.033   1.273  13.412  1.7383  1.0089  0.9416
 1430SOL     OW15748   3.552   0.140   3.585  0.3482 -0.0511 -0.1204
 1430SOL    HW115749   3.542   0.101   3.498 -0.4024 -0.8501  0.3068
 1430SOL    HW215750   3.644   0.161   3.596  0.3247  0.5176 -1.0526
 1431SOL     OW15751   4.654   4.414   3.858 -0.9766  0.2489  0.0411
 1431SOL    HW115752   4.578   4.403   3.915 -2.1130 -1.3620 -1.7710
 1431SOL    HW215753   4.645   4.335   3.804  1.1262 -0.3394  0.5680
 1432SOL     OW15754   2.825   0.300   5.983  0.2352  0.1958  0.1041
 1432SOL    HW115755   2.769   0.370   5.949  0.7457  0.8473  0.5860
 1432SOL    HW215756   2.861   0.346   6.059 -1.0243  0.0646  0.7759
 1433SOL     OW15757   2.948   2.991   7.337 -0.0646  0.2119 -0.0045
 1433SOL    HW115758   2.921   3.022   7.424 -0.1268 -0.3250  0.1661
 1433SOL    HW215759   2.861   3.008   7.300  0.9444  2.5738 -1.2212
 1434SOL     OW15760   0.083   4.039  11.595 -0.2769 -0.1654 -0.5453
 1434SOL    HW115761   0.036   4.004  11.520 -1.8267 -0.2296  0.4630
 1434SOL    HW215762   0.172   4.007  11.579 -0.1881  0.7608 -1.9453
 1435SOL     OW15763   3.064   0.014   5.071  0.4331 -0.2237 -0.0558
 1435SOL    HW115764   3.109   4.653   5.087  0.9406 -0.2564 -1.6063
 1435SOL    HW215765   3.038   0.049   5.156 -1.9550 -2.3857  0.1306
 1436SOL     OW15766   1.903   0.262   5.575  0.2313 -0.0886 -0.0423
 1436SOL    HW115767   1.870   0.227   5.493  0.9998 -3.1138  0.9299
 1436SOL    HW215768   1.847   0.339   5.589  0.7939  0.6787 -2.0281
 1437SOL     OW15769   4.517   3.402   9.997  0.1886  0.0899  0.4168
 1437SOL    HW115770   4.466   3.398  10.078 -1.3884  0.2961 -0.5608
 1437SOL    HW215771   4.451   3.405   9.928 -0.1674 -0.4137  0.7377
 1438SOL     OW15772   3.307   3.376  11.133 -0.0795 -0.2710  0.0985
 1438SOL    HW115773   3.376   3.347  11.192 -1.0562 -0.2493  1.2413
 1438SOL    HW215774   3.335   3.319  11.062 -1.9966  0.0829 -0.9352
 1439SOL     OW15775   3.135   1.832  15.193  0.1498  0.1806 -0.3997
 1439SOL    HW115776   3.153   1.890  15.119 -1.3365  0.8718 -0.2161
 1439SOL    HW215777   3.039   1.836  15.190  0.3148  2.9513 -1.0828
 1440SOL     OW15778   2.555   3.708   9.662  0.7379 -0.5194  0.3588
 1440SOL    HW115779   2.584   3.713   9.571  0.4588  3.0177  0.4849
 1440SOL    HW215780   2.569   3.798   9.689 -0.5222 -0.1712 -0.1294
 1441SOL     OW15781   4.587   2.496   7.505  0.1655 -0.6199  0.1705
 1441SOL    HW115782   4.669   2.485   7.553 -0.5229 -1.6866  1.1097
 1441SOL    HW215783   4.612   2.451   7.424  0.3159  1.1841 -0.7916
 1442SOL     OW15784   1.941   4.438   3.764  0.1789 -0.0948 -0.2386
 1442SOL    HW115785   1.959   4.522   3.807 -1.8370 -0.2110  0.8590
 1442SOL    HW215786   1.871   4.399   3.816 -1.7105  0.7176 -2.1652
 1443SOL     OW15787   4.576   4.609  12.166 -0.2024  0.1305 -0.2124
 1443SOL    HW115788   4.611   4.603  12.255 -0.7289  1.1234  0.0641
 1443SOL    HW215789   4.642   4.665  12.127  0.6749  0.4472  1.7005
 1444SOL     OW15790   4.184   1.460   3.441 -0.1031  0.1581  0.0387
 1444SOL    HW115791   4.274   1.483   3.419 -0.2265  0.9220  0.3282
 1444SOL    HW215792   4.173   1.512   3.521  2.2085  0.4375  0.1737
 1445SOL     OW15793   3.928   1.800  14.730 -0.0765  0.7094  0.1549
 1445SOL    HW115794   4.000   1.766  14.677 -1.0033  0.4323 -0.9305
 1445SOL    HW215795   3.884   1.717  14.746 -0.6307  0.6291 -1.8472
 1446SOL     OW15796   1.824   3.193   7.054  0.1660 -0.5229 -0.1257
 1446SOL    HW115797   1.738   3.206   7.094  0.1425  0.4814 -0.5045
 1446SOL    HW215798   1.811   3.245   6.975  2.2138  0.0976 -0.0562
 1447SOL     OW15799   4.521   3.397   3.232  0.3643  0.0222 -0.1609
 1447SOL    HW115800   4.463   3.383   3.156 -1.3952 -4.2844  1.9547
 1447SOL    HW215801   4.605   3.429   3.198  1.4526 -0.6856  1.8975
 1448SOL     OW15802   3.217   3.757   0.698 -0.0633  0.4863 -0.5450
 1448SOL    HW115803   3.140   3.815   0.707  1.7510  2.7625  0.4381
 1448SOL    HW215804   3.175   3.678   0.666  0.9094 -0.2982  0.1353
 1449SOL     OW15805   3.312   4.581   1.929 -0.4401  0.7653 -0.0664
 1449SOL    HW115806   3.280   4.633   1.855 -0.8899  1.4895  0.6456
 1449SOL    HW215807   3.254   4.601   2.002  0.1329 -0.7391  0.8105
 1450SOL     OW15808   0.973   1.990  13.577 -0.4883  0.1499  0.7162
 1450SOL    HW115809   1.010   2.074  13.604 -1.1876  0.6596  0.0761
 1450SOL    HW215810   0.948   2.015  13.488  1.4007 -3.6791 -0.8820
 1451SOL     OW15811   2.266   1.527   2.834  0.1503  0.2871 -0.3560
 1451SOL    HW115812   2.315   1.583   2.774  1.0855  1.2381  1.3187
 1451SOL    HW215813   2.331   1.524   2.904 -0.4679 -1.5251  0.1356
 1452SOL     OW15814   4.593   2.385  10.902 -0.7114 -0.1529 -0.8062
 1452SOL    HW115815   4.587   2.337  10.984  0.1459 -1.8510 -1.7258
 1452SOL    HW215816   4.566   2.317  10.840 -0.2360 -1.4866  0.4553
 1453SOL     OW15817   0.956   4.397  14.218 -0.2810 -0.5939 -0.1355
 1453SOL    HW115818   0.937   4.303  14.214  0.7269 -0.7731 -0.6460
 1453SOL    HW215819   0.964   4.417  14.312  0.2174 -0.2519 -0.2504
 1454SOL     OW15820   4.034   3.039   4.836 -0.3029 -0.2687 -0.3723
 1454SOL    HW115821   4.034   3.134   4.824  1.2345 -0.2173  0.0289
 1454SOL    HW215822   3.948   3.014   4.802  0.2132 -1.5060 -0.7531
 1455SOL     OW15823   2.431   3.724   6.385 -0.0643 -0.0880  0.2320
 1455SOL    HW115824   2.465   3.641   6.352  1.2426 -0.3947  2.4040
 1455SOL    HW215825   2.493   3.746   6.454 -0.1624  1.7894 -0.2604
 1456SOL     OW15826   1.101   0.285  16.607  0.1320  0.6530  0.4691
 1456SOL    HW115827   1.190   0.316  16.592  0.1990  0.1535 -0.1653
 1456SOL    HW215828   1.063   0.358  16.656  0.1138  0.9176  0.0617
 1457SOL     OW15829   4.111   1.488  13.189 -0.3863  0.3508 -0.1050
 1457SOL    HW115830   4.040   1.546  13.214  0.3943  1.8625 -1.3938
 1457SOL    HW215831   4.070   1.423  13.133 -1.5285  1.6059 -0.7093
 1458SOL     OW15832   2.338   0.676   6.649  0.5771  0.9174  0.7443
 1458SOL    HW115833   2.389   0.672   6.568 -0.7368 -1.1189  0.0337
 1458SOL    HW215834   2.356   0.768   6.670  3.8619  0.9357 -2.1234
 1459SOL     OW15835   0.212   3.480   3.434 -0.2838  1.0471 -0.8558
 1459SOL    HW115836   0.254   3.562   3.457 -0.2778  0.6288  0.6150
 1459SOL    HW215837   0.152   3.474   3.508  0.7867  0.9704 -0.0098
 1460SOL     OW15838   0.317   1.482   7.880  0.6740 -0.2637 -0.1803
 1460SOL    HW115839   0.315   1.577   7.869 -1.0538 -0.0680  1.7587
 1460SOL    HW215840   0.374   1.480   7.957  1.7449  0.1774 -0.9578
 1461SOL     OW15841   2.473   2.154   1.503 -0.0087 -0.0746  0.3081
 1461SOL    HW115842   2.409   2.172   1.433 -0.7266  1.9991  1.4936
 1461SOL    HW215843   2.486   2.060   1.492 -0.8175 -0.2054  0.4249
 1462SOL     OW15844   2.681   2.135  15.176  0.2397  0.4080  0.2685
 1462SOL    HW115845   2.741   2.153  15.104 -0.5086 -0.3713 -0.5511
 1462SOL    HW215846   2.665   2.041  15.168  0.2201  0.3960  0.4547
 1463SOL     OW15847   4.301   0.943   2.853  0.0388 -0.0704 -0.3549
 1463SOL    HW115848   4.354   0.865   2.833  2.6728  1.5490  0.2499
 1463SOL    HW215849   4.354   1.011   2.812 -1.0836  0.0955 -1.5056
 1464SOL     OW15850   0.641   0.226   8.127  0.2292 -0.3969 -0.3589
 1464SOL    HW115851   0.622   0.152   8.070 -0.9686 -1.2755  1.1888
 1464SOL    HW215852   0.708   0.272   8.076  0.1284 -0.5486 -0.6265
 1465SOL     OW15853   2.751   2.737   4.318  0.2845  0.4953 -0.4977
 1465SOL    HW115854   2.763   2.792   4.240  2.2981 -0.0628 -0.5732
 1465SOL    HW215855   2.841   2.704   4.323  0.1038  0.1509  0.4540
 1466SOL     OW15856   1.822   1.470   3.110  0.0046  0.1443 -0.1101
 1466SOL    HW115857   1.769   1.521   3.171  1.1510 -0.1583  1.1452
 1466SOL    HW215858   1.876   1.540   3.072  1.4101 -0.8420  0.0800
 1467SOL     OW15859   0.306   0.966   3.295  0.1512  0.3393 -0.2411
 1467SOL    HW115860   0.324   1.058   3.318  1.5245 -0.4635  1.8439
 1467SOL    HW215861   0.376   0.934   3.239 -1.9140 -1.0341 -2.0243
 1468SOL     OW15862   4.715   2.424   3.164  0.2813  0.2377 -0.2086
 1468SOL    HW115863   4.668   2.437   3.246  3.5475  1.9050  1.3999
 1468SOL    HW215864   4.671   2.494   3.117 -1.9465  0.0759  1.6278
 1469SOL     OW15865   1.199   2.441   5.485 -0.1830  0.8285  0.4643
 1469SOL    HW115866   1.241   2.471   5.404 -0.4336  1.3927  0.5373
 1469SOL    HW215867   1.197   2.346   5.474  1.8986  0.7552  0.8726
 1470SOL     OW15868   3.655   4.157   5.179  0.2248 -0.4110  0.4494
 1470SOL    HW115869   3.665   4.251   5.195 -1.0993 -0.7611  3.4514
 1470SOL    HW215870   3.731   4.129   5.232 -0.1015 -2.7131 -0.3135
 1471SOL     OW15871   4.378   0.622   5.795  0.0938 -0.0243 -0.2860
 1471SOL    HW115872   4.406   0.673   5.871 -0.5604 -1.2683  0.7890
 1471SOL    HW215873   4.298   0.668   5.770  0.2738  0.2525 -0.3570
 1472SOL     OW15874   2.798   4.484   2.533 -0.0288  0.0708  0.6746
 1472SOL    HW115875   2.730   4.551   2.533 -1.8105 -1.7440 -0.3992
 1472SOL    HW215876   2.778   4.445   2.447  0.6631 -1.4783  1.2067
 1473SOL     OW15877   3.451   2.283   3.689  0.1429  0.3737 -0.2544
 1473SOL    HW115878   3.485   2.212   3.635 -1.5141  0.4724 -1.4276
 1473SOL    HW215879   3.506   2.275   3.767  0.0572  3.2847  0.1232
 1474SOL     OW15880   2.685   2.817   6.348 -0.0493 -0.6156  0.5542
 1474SOL    HW115881   2.740   2.778   6.280  0.7416  1.5317 -0.0499
 1474SOL    HW215882   2.747   2.814   6.421  0.0446 -0.0417  0.5026
 1475SOL     OW15883   3.305   1.951   2.706  0.1080 -0.3884  0.5881
 1475SOL    HW115884   3.305   2.046   2.719 -0.1544 -0.1826 -0.9067
 1475SOL    HW215885   3.255   1.944   2.625  1.6400  4.1400 -0.7587
 1476SOL     OW15886   2.876   4.646  17.260 -0.0378 -0.2096 -0.4487
 1476SOL    HW115887   2.957   4.598  17.240 -0.2385 -0.9968  0.6072
 1476SOL    HW215888   2.854   4.588  17.333  2.5249 -1.2211 -0.4792
 1477SOL     OW15889   2.737   4.425  11.270  0.0196 -0.3607 -0.4739
 1477SOL    HW115890   2.745   4.444  11.364 -1.1785 -1.1345 -0.2118
 1477SOL    HW215891   2.825   4.438  11.235 -0.1780  1.0260 -0.4641
 1478SOL     OW15892   1.170   3.436   3.066  0.1635 -0.5816  0.1478
 1478SOL    HW115893   1.241   3.379   3.038  2.0608  2.7568 -1.8919
 1478SOL    HW215894   1.230   3.505   3.094 -1.3356  0.7163  0.1710
 1479SOL     OW15895   3.487   1.209   3.105  0.4599  0.0264  0.3964
 1479SOL    HW115896   3.485   1.268   3.029  0.5706 -0.7715 -0.2331
 1479SOL    HW215897   3.480   1.128   3.053  1.6727 -1.0555  1.9250
 1480SOL     OW15898   1.055   4.720   7.647 -0.1060 -0.2312 -0.3137
 1480SOL    HW115899   1.078   4.645   7.703  2.5477  0.5898 -0.2880
 1480SOL    HW215900   1.066   0.062   7.718 -1.1328 -0.6078  0.1848
 1481SOL     OW15901   0.090   1.971   8.328  0.6549  0.1866  0.0222
 1481SOL    HW115902   0.078   2.029   8.403  1.2612  0.0093  0.2573
 1481SOL    HW215903   0.178   1.981   8.292  1.1229 -1.3409  0.7245
 1482SOL     OW15904   2.586   3.059   8.987  0.2203 -0.6092  0.4830
 1482SOL    HW115905   2.611   3.136   9.039  1.3146 -1.2307  0.8921
 1482SOL    HW215906   2.524   3.011   9.041  0.2809 -0.6128  0.5500
 1483SOL     OW15907   3.257   3.999   2.768  0.5787  0.0315 -0.4470
 1483SOL    HW115908   3.193   3.944   2.722 -1.6395  2.6358 -0.4683
 1483SOL    HW215909   3.316   4.031   2.701  1.7211 -0.9687  0.0731
 1484SOL     OW15910   3.192   2.690   0.102  0.6871 -0.1983  0.4161
 1484SOL    HW115911   3.281   2.725   0.103 -0.4803  2.8081  1.3072
 1484SOL    HW215912   3.219   2.610   0.146  3.5759  1.0201  0.8382
 1485SOL     OW15913   3.304   2.073   7.539 -0.6133 -0.2988  0.1937
 1485SOL    HW115914   3.339   1.990   7.509 -0.1964  0.5753 -1.6968
 1485SOL    HW215915   3.385   2.117   7.567 -0.9613  0.1107  0.5565
 1486SOL     OW15916   0.302   0.221   8.430 -0.1103 -0.3555 -0.0296
 1486SOL    HW115917   0.207   0.219   8.418 -0.0728  0.3294 -0.4405
 1486SOL    HW215918   0.329   0.270   8.352  2.4350 -1.4007  0.1879
 1487SOL     OW15919   1.591   2.308   6.767  0.1930 -0.1802  0.6338
 1487SOL    HW115920   1.499   2.333   6.780 -0.2490 -1.3605 -0.2211
 1487SOL    HW215921   1.614   2.283   6.857  0.6303  0.4763  0.7014
 1488SOL     OW15922   1.717   3.659  11.758  0.1369  0.0641 -0.5093
 1488SOL    HW115923   1.624   3.682  11.755  0.3956  1.0350 -1.1166
 1488SOL    HW215924   1.695   3.566  11.765  1.1675 -0.0247  1.5801
 1489SOL     OW15925   3.425   4.013   5.527 -0.8849 -0.1016 -0.1968
 1489SOL    HW115926   3.441   3.961   5.447  1.5921 -0.4794  0.5217
 1489SOL    HW215927   3.497   3.977   5.579 -0.7663  0.1688 -0.1772
 1490SOL     OW15928   4.647   3.986   2.659 -0.4605  0.3486 -0.0406
 1490SOL    HW115929   4.579   3.921   2.639 -1.3835  1.1894  0.3197
 1490SOL    HW215930   4.595   4.066   2.664  1.2984  1.4927 -0.0395
 1491SOL     OW15931   1.943   0.224  15.695  0.5176 -0.4907  0.4400
 1491SOL    HW115932   1.920   0.140  15.735  0.2548 -0.2297  0.8396
 1491SOL    HW215933   1.877   0.230  15.625 -0.0661 -0.1666  1.0131
 1492SOL     OW15934   2.771   1.332  14.545  0.3489  0.0103  0.3774
 1492SOL    HW115935   2.862   1.311  14.564  0.0126  0.4287  2.4470
 1492SOL    HW215936   2.769   1.349  14.451  0.7225 -0.6422  0.2592
 1493SOL     OW15937   1.587   2.088   4.839  0.2364  0.0402 -0.4316
 1493SOL    HW115938   1.660   2.034   4.810 -1.5519 -1.9298 -1.2741
 1493SOL    HW215939   1.564   2.059   4.928  0.4463  1.3764  0.0544
 1494SOL     OW15940   0.873   4.144   0.552 -0.5704  0.3539 -0.3047
 1494SOL    HW115941   0.796   4.164   0.605  1.2165 -0.4669  2.6001
 1494SOL    HW215942   0.942   4.122   0.614 -0.8716  0.3995  0.0455
 1495SOL     OW15943   2.747   1.588   7.319 -0.7729  0.4547  0.6551
 1495SOL    HW115944   2.697   1.578   7.401  0.8231 -1.9084  1.3202
 1495SOL    HW215945   2.825   1.629   7.357  0.4297 -0.7354 -0.5689
 1496SOL     OW15946   2.259   3.000   3.393 -0.2660  0.4189  0.5658
 1496SOL    HW115947   2.273   3.037   3.305 -0.7483  0.0564  0.3363
 1496SOL    HW215948   2.191   2.936   3.374 -0.5398  2.0396 -4.0633
 1497SOL     OW15949   2.844   1.033   2.265  0.2496  0.1258 -0.3081
 1497SOL    HW115950   2.786   1.053   2.192 -1.2817 -0.6966  0.6508
 1497SOL    HW215951   2.917   0.992   2.220  0.3322 -2.4051  2.0672
 1498SOL     OW15952   4.012   4.063   2.146 -0.1343  0.3248  0.1982
 1498SOL    HW115953   4.055   4.002   2.206 -2.0642 -1.8499 -0.6257
 1498SOL    HW215954   4.087   4.118   2.124 -0.3483  0.6724  0.3403
 1499SOL     OW15955   3.569   0.782   1.818 -0.2100  0.6659 -0.1675
 1499SOL    HW115956   3.479   0.817   1.821  0.0139  1.1274  1.6456
 1499SOL    HW215957   3.609   0.840   1.883  1.4830  0.3348 -0.9443
 1500SOL     OW15958   3.792   1.383   2.362  0.0469  0.0844 -0.1856
 1500SOL    HW115959   3.809   1.474   2.338 -2.1391  0.3245 -0.7851
 1500SOL    HW215960   3.874   1.342   2.333 -2.2725 -2.6688 -2.9476
 1501SOL     OW15961   0.459   2.166   0.912  0.1528  0.2366  0.3348
 1501SOL    HW115962   0.548   2.177   0.879 -0.4078 -0.8587 -1.5506
 1501SOL    HW215963   0.430   2.258   0.918  0.8796  0.6493 -2.3084
 1502SOL     OW15964   4.291   4.458  10.614  0.2959 -0.1815 -0.2468
 1502SOL    HW115965   4.366   4.451  10.555  1.3436  1.9646  0.8255
 1502SOL    HW215966   4.331   4.494  10.693 -1.4129  1.4309 -0.1254
 1503SOL     OW15967   2.205   1.645  14.957  0.2073  0.6083 -0.2772
 1503SOL    HW115968   2.173   1.732  14.930 -0.7291 -0.4873 -2.7072
 1503SOL    HW215969   2.280   1.671  15.009  0.4656 -0.1077 -0.2940
 1504SOL     OW15970   2.366   0.039   4.459 -0.1490  0.1822 -0.1143
 1504SOL    HW115971   2.430   4.711   4.407  0.9403 -0.1125  1.5134
 1504SOL    HW215972   2.406   0.025   4.545  1.0982  2.7093 -0.3015
 1505SOL     OW15973   0.090   1.338   8.466  0.1934  0.1078 -0.3662
 1505SOL    HW115974   0.031   1.267   8.492 -1.2949  1.3286 -0.4246
 1505SOL    HW215975   0.174   1.319   8.509  0.8608  0.5266 -1.4939
 1506SOL     OW15976   4.290   2.367   1.861 -0.1264 -0.2602  0.0264
 1506SOL    HW115977   4.256   2.398   1.946  1.6110  0.9000  0.2986
 1506SOL    HW215978   4.372   2.322   1.883 -0.1634 -1.5466 -2.5229
 1507SOL     OW15979   0.101   4.516   9.439  0.1174 -0.0530  0.3260
 1507SOL    HW115980   0.196   4.507   9.434  0.1938 -1.3919  4.4549
 1507SOL    HW215981   0.083   4.590   9.381  3.6132  1.1463  0.7730
 1508SOL     OW15982   1.906   1.732  16.362  0.1758 -0.3602  0.0476
 1508SOL    HW115983   1.921   1.678  16.285  0.4643  0.3981 -0.4236
 1508SOL    HW215984   1.853   1.670  16.413  0.4973 -0.7437 -0.0839
 1509SOL     OW15985   4.430   1.658   4.491 -0.2728  0.6666  0.3990
 1509SOL    HW115986   4.446   1.630   4.581 -0.7707 -0.9789 -0.0125
 1509SOL    HW215987   4.346   1.704   4.491  0.0394  1.2331  0.3767
 1510SOL     OW15988   0.772   1.235   4.153  0.1068  0.0639  0.5167
 1510SOL    HW115989   0.753   1.270   4.066  1.3815 -0.5517 -0.0151
 1510SOL    HW215990   0.865   1.257   4.149 -0.1682  0.6781 -3.0052
 1511SOL     OW15991   3.398   2.345  16.935 -0.5495  0.0898 -0.3328
 1511SOL    HW115992   3.399   2.429  16.981  0.8144 -0.6150  0.9547
 1511SOL    HW215993   3.309   2.331  16.904 -0.2732 -0.6402 -0.7901
 1512SOL     OW15994   0.587   1.085   5.058 -0.0836  0.0233  0.0685
 1512SOL    HW115995   0.553   1.019   5.119  1.0278 -1.0360 -0.4703
 1512SOL    HW215996   0.532   1.070   4.981 -0.0426  2.7369 -0.4878
 1513SOL     OW15997   3.331   4.687   3.469 -0.1925 -0.3188  0.3722
 1513SOL    HW115998   3.269   4.675   3.396 -0.5109 -1.1138  0.7755
 1513SOL    HW215999   3.306   0.051   3.504 -1.3677  0.1945 -1.6860
 1514SOL     OW16000   3.342   2.685   7.091 -0.0505  0.1473  0.3616
 1514SOL    HW116001   3.384   2.717   7.171 -0.5984  2.3256 -0.2277
 1514SOL    HW216002   3.288   2.763   7.074 -0.2982 -0.5813 -2.2786
 1515SOL     OW16003   0.786   3.137   0.820 -0.4034  0.0618 -0.2721
 1515SOL    HW116004   0.837   3.183   0.887  0.9460 -0.0374 -1.2214
 1515SOL    HW216005   0.846   3.112   0.749  0.0350 -0.4439  0.2707
 1516SOL     OW16006   3.075   1.402   4.164  0.7882 -0.1012 -0.3822
 1516SOL    HW116007   2.987   1.424   4.134  0.5214 -0.2428  0.2976
 1516SOL    HW216008   3.059   1.376   4.255 -3.1483 -0.7361 -1.2541
 1517SOL     OW16009   1.166   4.681   6.839  0.2274  0.7140 -0.4926
 1517SOL    HW116010   1.153   4.600   6.888 -2.5275  0.8482 -0.9722
 1517SOL    HW216011   1.260   4.694   6.848  0.5094 -1.6926  0.1678
 1518SOL     OW16012   0.518   2.676   1.435 -0.3252  0.3188  0.5855
 1518SOL    HW116013   0.537   2.629   1.515 -0.7215 -0.9855 -0.0959
 1518SOL    HW216014   0.547   2.767   1.445 -0.6226  0.5500 -0.6598
 1519SOL     OW16015   4.321   3.865  10.940 -0.1993  0.2029  0.3605
 1519SOL    HW116016   4.283   3.818  11.015  1.9147 -0.4811  1.0005
 1519SOL    HW216017   4.366   3.793  10.896 -0.5351 -0.8001  1.6506
 1520SOL     OW16018   4.327   4.676   2.252 -0.1982 -0.1400  0.0980
 1520SOL    HW116019   4.377   4.695   2.331  1.6341  2.2232 -1.5837
 1520SOL    HW216020   4.283   4.598   2.284 -0.4867  1.1666  2.8961
 1521SOL     OW16021   2.434   2.435   4.831  0.6022 -0.2692 -0.3888
 1521SOL    HW116022   2.431   2.362   4.769  1.7677  1.4940 -2.4576
 1521SOL    HW216023   2.479   2.388   4.902  2.0679 -1.6595 -2.2408
 1522SOL     OW16024   1.442   1.972   3.947  0.0421  0.0977  0.0158
 1522SOL    HW116025   1.510   2.039   3.940  2.2148 -1.7232  3.3400
 1522SOL    HW216026   1.383   2.016   4.008  1.0458  0.8281  0.4668
 1523SOL     OW16027   0.603   4.229   9.381  0.2955 -0.0870 -0.7717
 1523SOL    HW116028   0.580   4.289   9.311  1.4768 -0.2368 -1.2797
 1523SOL    HW216029   0.666   4.283   9.428 -0.9838  1.2785 -0.6075
 1524SOL     OW16030   2.528   0.349   1.170  0.4717  0.0135 -0.2764
 1524SOL    HW116031   2.482   0.281   1.121 -0.2730 -0.0328  0.4925
 1524SOL    HW216032   2.604   0.359   1.112  0.2808  3.9787  0.1506
 1525SOL     OW16033   3.918   1.576   8.616  0.0389 -0.2306  0.4863
 1525SOL    HW116034   3.998   1.568   8.669 -0.1027  0.6320  0.8238
 1525SOL    HW216035   3.854   1.524   8.665  1.3572 -2.1052  0.2524
 1526SOL     OW16036   2.387   2.703  12.625  0.1930  0.3978  0.1818
 1526SOL    HW116037   2.449   2.643  12.582 -3.0094 -1.5823 -1.6426
 1526SOL    HW216038   2.308   2.683  12.575 -0.1107  3.6960 -0.6310
 1527SOL     OW16039   1.806   1.922   1.911  0.1961  0.0996  0.1539
 1527SOL    HW116040   1.846   1.860   1.850  0.7687  0.7666 -0.1527
 1527SOL    HW216041   1.715   1.891   1.910  0.4083 -0.5342  0.1292
 1528SOL     OW16042   2.325   0.451   2.899  0.3146 -0.2486 -0.1645
 1528SOL    HW116043   2.248   0.475   2.849  0.8487 -0.7709 -1.2347
 1528SOL    HW216044   2.330   0.358   2.874  0.3161 -0.6963  1.4836
 1529SOL     OW16045   2.455   3.556  16.659 -0.1213 -0.8065 -0.0386
 1529SOL    HW116046   2.428   3.619  16.726 -2.0413  0.6279 -2.1734
 1529SOL    HW216047   2.436   3.602  16.578 -1.2932 -1.0074  0.1286
 1530SOL     OW16048   4.095   2.506   4.472  0.4923 -0.2126 -0.8894
 1530SOL    HW116049   4.139   2.550   4.399 -0.4042  2.6526  0.3031
 1530SOL    HW216050   4.030   2.574   4.483  0.3668 -0.1206 -2.1896
 1531SOL     OW16051   0.614   2.943   6.682 -0.5854  0.6341  0.4241
 1531SOL    HW116052   0.588   2.854   6.705  0.4498 -0.1371 -1.3956
 1531SOL    HW216053   0.530   2.989   6.686 -0.1751  1.4349 -0.1150
 1532SOL     OW16054   1.176   0.398   3.163 -0.2977 -0.4226 -0.1443
 1532SOL    HW116055   1.194   0.308   3.189  1.7729  1.3206  4.4760
 1532SOL    HW216056   1.139   0.431   3.245  2.8871  0.5369  0.9464
 1533SOL     OW16057   0.417   0.647   2.472 -0.2201 -0.6921 -0.1476
 1533SOL    HW116058   0.484   0.633   2.539 -0.6845 -0.8142  0.2909
 1533SOL    HW216059   0.362   0.572   2.493 -0.5157 -0.1365  1.0918
 1534SOL     OW16060   0.488   1.276   7.119 -0.2893 -0.0814 -0.6754
 1534SOL    HW116061   0.546   1.267   7.195  0.5134  2.6770 -0.9707
 1534SOL    HW216062   0.549   1.290   7.047  0.1456 -0.3089 -0.3577
 1535SOL     OW16063   3.143   2.454   7.859  0.2041  0.3593 -0.1760
 1535SOL    HW116064   3.171   2.376   7.906  0.2056 -0.1751 -1.0652
 1535SOL    HW216065   3.172   2.521   7.921  0.2728  1.2649 -1.1983
 1536SOL     OW16066   4.209   0.896  17.001 -0.1238 -0.0249 -0.6637
 1536SOL    HW116067   4.280   0.952  17.031 -1.3128  0.7253  0.7637
 1536SOL    HW216068   4.262   0.823  16.969  2.0074  2.2452 -2.2663
 1537SOL     OW16069   4.586   0.864   8.718  0.9050  0.0022  0.1040
 1537SOL    HW116070   4.506   0.904   8.683  1.8318  2.2201  0.5545
 1537SOL    HW216071   4.636   0.945   8.724  0.6723  0.2112 -0.7038
 1538SOL     OW16072   1.014   1.711   2.233  0.6910 -0.2091 -0.5373
 1538SOL    HW116073   1.103   1.711   2.197  1.1547 -1.0005  0.6175
 1538SOL    HW216074   1.031   1.710   2.327 -4.1805  1.2234  0.3190
 1539SOL     OW16075   4.323   2.189  10.451 -0.1517 -0.1714 -0.3814
 1539SOL    HW116076   4.244   2.178  10.505  1.3537 -0.6932  1.6864
 1539SOL    HW216077   4.284   2.151  10.372 -4.1241  2.8127  0.0718
 1540SOL     OW16078   0.397   2.705   2.108 -0.5328  0.5408 -0.3172
 1540SOL    HW116079   0.442   2.744   2.183 -0.5098  0.9211 -0.5257
 1540SOL    HW216080   0.414   2.613   2.126  0.0099  0.7013 -0.0055
 1541SOL     OW16081   1.721   2.872   2.326 -0.1289 -0.4307  0.3535
 1541SOL    HW116082   1.686   2.955   2.356 -1.7468 -0.4577 -1.5108
 1541SOL    HW216083   1.679   2.862   2.241  1.1956  0.3463 -0.3986
 1542SOL     OW16084   1.204   2.934   5.460 -0.4170  0.0862  0.1153
 1542SOL    HW116085   1.232   2.939   5.369  2.7327 -0.6531  1.0736
 1542SOL    HW216086   1.251   3.006   5.504  1.5803 -1.2080  0.0667
 1543SOL     OW16087   0.569   0.767   4.795  0.2944 -0.1203 -0.0091
 1543SOL    HW116088   0.556   0.839   4.734 -0.9841 -0.7987 -0.5300
 1543SOL    HW216089   0.576   0.701   4.727 -0.3880 -2.3114  2.0351
 1544SOL     OW16090   0.243   3.719  15.550  0.4706 -0.1562 -0.5565
 1544SOL    HW116091   0.275   3.797  15.507  0.0744 -1.1258 -2.6006
 1544SOL    HW216092   0.168   3.704  15.493  0.1081  1.8298 -0.5999
 1545SOL     OW16093   3.269   3.747   5.983 -0.6111 -0.2454  0.3572
 1545SOL    HW116094   3.234   3.658   5.982  0.2368 -0.5673 -1.0211
 1545SOL    HW216095   3.354   3.725   5.945 -0.5186  0.0472  0.3902
 1546SOL     OW16096   0.233   0.758   8.064  0.7306  0.6059  0.2011
 1546SOL    HW116097   0.226   0.850   8.090 -1.9977  0.6754 -0.7527
 1546SOL    HW216098   0.151   0.724   8.100  2.2242 -2.9008  0.2557
 1547SOL     OW16099   0.359   0.369   3.513  0.3418 -0.4940  0.1686
 1547SOL    HW116100   0.433   0.308   3.511  1.1528  0.4345  2.0457
 1547SOL    HW216101   0.369   0.427   3.589  0.0672 -0.4855  0.1959
 1548SOL     OW16102   2.138   1.139   5.464  0.2813 -0.2765 -0.0559
 1548SOL    HW116103   2.131   1.219   5.516  0.7715  0.3811 -0.9998
 1548SOL    HW216104   2.173   1.074   5.524 -0.9135 -0.3665  0.5445
 1549SOL     OW16105   4.547   0.626   7.515 -0.2223  0.4402  0.4854
 1549SOL    HW116106   4.454   0.603   7.517 -0.6974  2.4411  1.5867
 1549SOL    HW216107   4.550   0.692   7.585 -0.5767  1.3167 -0.3174
 1550SOL     OW16108   3.159   3.122   6.134 -0.0093  0.5457  0.1895
 1550SOL    HW116109   3.148   3.214   6.160 -1.1401 -0.3308  2.8111
 1550SOL    HW216110   3.109   3.115   6.053  0.7550 -0.9108 -0.1446
 1551SOL     OW16111   2.872   1.272   2.373 -0.0455  0.1149 -0.1657
 1551SOL    HW116112   2.897   1.188   2.334  1.8384  0.5460  0.0999
 1551SOL    HW216113   2.811   1.314   2.313 -1.1289  0.1488  0.9570
 1552SOL     OW16114   1.079   2.465   6.039 -0.2273  0.1746 -0.3057
 1552SOL    HW116115   1.174   2.470   6.044 -0.2637 -0.3156  1.0590
 1552SOL    HW216116   1.075   2.479   5.945 -0.7157 -0.0677 -0.3215
 1553SOL     OW16117   3.472   1.873  16.196 -1.0168  0.0580  0.3121
 1553SOL    HW116118   3.550   1.922  16.220 -0.4360  0.3850 -2.2005
 1553SOL    HW216119   3.427   1.936  16.139 -2.8818 -0.3945  1.2896
 1554SOL     OW16120   2.144   2.652   3.921  0.3458  0.0046  0.2886
 1554SOL    HW116121   2.087   2.667   3.996  2.1380  2.2800  1.1573
 1554SOL    HW216122   2.096   2.696   3.851  3.0664  2.2281 -0.1742
 1555SOL     OW16123   0.763   1.812  16.042 -0.1195  0.4120 -0.3165
 1555SOL    HW116124   0.755   1.844  15.952 -2.5510 -1.0343 -0.6080
 1555SOL    HW216125   0.712   1.732  16.032  0.3589  0.1842 -0.9268
 1556SOL     OW16126   0.776   1.081   1.784 -0.3521  0.5059  0.5197
 1556SOL    HW116127   0.744   1.038   1.864 -1.6048  2.0897  0.8760
 1556SOL    HW216128   0.780   1.174   1.804 -2.4924  0.7854 -0.3044
 1557SOL     OW16129   4.210   0.192   3.738  0.1255  0.1421 -0.0878
 1557SOL    HW116130   4.166   0.108   3.721  2.1941 -1.0987  0.7277
 1557SOL    HW216131   4.301   0.172   3.760 -0.9808 -3.2368  1.4682
 1558SOL     OW16132   2.801   0.811   4.576  0.4821  0.0345  0.2342
 1558SOL    HW116133   2.804   0.728   4.623 -1.5854 -0.2020 -0.0611
 1558SOL    HW216134   2.870   0.864   4.616  1.5915 -0.8073 -0.5566
 1559SOL     OW16135   0.506   4.040   7.270  0.0995 -0.0651  0.3538
 1559SOL    HW116136   0.567   4.001   7.207  0.0775 -0.2495  0.4463
 1559SOL    HW216137   0.441   4.078   7.211  1.5866  1.0375 -0.5843
 1560SOL     OW16138   0.975   2.211   5.120 -0.4965  0.0069 -0.4390
 1560SOL    HW116139   1.000   2.131   5.166  3.0122  2.8803  2.6206
 1560SOL    HW216140   0.915   2.170   5.058  0.2153 -0.4730 -0.8120
 1561SOL     OW16141   1.002   1.535   6.011 -0.7933  0.2138  0.2861
 1561SOL    HW116142   1.090   1.562   6.038  0.1590 -1.1086 -1.5006
 1561SOL    HW216143   0.965   1.617   5.981  1.2119  0.7300 -0.7288
 1562SOL     OW16144   4.267   0.272   5.748 -0.3013 -0.2866  0.6257
 1562SOL    HW116145   4.304   0.184   5.743 -2.4493 -1.1506 -0.2434
 1562SOL    HW216146   4.338   0.326   5.714  0.9726 -2.6437 -0.5290
 1563SOL     OW16147   4.657   1.537   7.123  0.2090 -0.1600 -0.3152
 1563SOL    HW116148   4.581   1.581   7.084  0.5611  0.7788  0.0819
 1563SOL    HW216149   4.658   1.456   7.072 -0.8074  0.2264 -0.9477
 1564SOL     OW16150   1.961   2.506   2.360  0.4247 -0.3159  0.3653
 1564SOL    HW116151   2.042   2.536   2.318  0.3977 -0.3009  0.3237
 1564SOL    HW216152   2.001   2.433   2.406  0.0964  0.5192  1.9818
 1565SOL     OW16153   1.678   0.839   1.351  0.1541  0.5079 -0.5083
 1565SOL    HW116154   1.600   0.894   1.350  0.0011  0.3089  0.6599
 1565SOL    HW216155   1.664   0.781   1.276  1.5790  2.3244 -2.1780
 1566SOL     OW16156   0.237   1.892   5.787  0.3482 -0.0599  0.8830
 1566SOL    HW116157   0.182   1.969   5.799  1.7067  1.3916 -2.1911
 1566SOL    HW216158   0.178   1.828   5.747 -0.9268  0.6805  1.5929
 1567SOL     OW16159   4.498   3.819  16.148 -0.0544  0.3211  0.2605
 1567SOL    HW116160   4.427   3.841  16.208  1.3735 -0.4106  2.2390
 1567SOL    HW216161   4.574   3.843  16.201  1.4146 -1.9489 -0.8193
 1568SOL     OW16162   0.362   2.922   0.616  0.2477  0.3157  0.2602
 1568SOL    HW116163   0.429   2.941   0.682  0.0139  1.0565  0.2763
 1568SOL    HW216164   0.382   2.829   0.602  2.3592  1.2406 -3.1164
 1569SOL     OW16165   1.949   4.063  11.669 -0.3240  0.5250  0.1212
 1569SOL    HW116166   1.963   4.007  11.746 -0.2555  0.5261  0.1095
 1569SOL    HW216167   1.896   4.004  11.616 -0.1563  1.5696 -1.2036
 1570SOL     OW16168   1.017   0.675   3.583 -0.2825 -0.9958 -0.2086
 1570SOL    HW116169   0.954   0.661   3.655  1.4321  0.8212  1.6337
 1570SOL    HW216170   1.012   0.769   3.567 -0.4969 -1.1371 -0.9686
 1571SOL     OW16171   2.790   2.914  12.868 -0.4559 -0.0033 -0.2519
 1571SOL    HW116172   2.712   2.870  12.833  0.1131 -0.6211 -0.7546
 1571SOL    HW216173   2.830   2.938  12.785  1.4817 -1.8112  0.1551
 1572SOL     OW16174   2.973   0.280   1.152 -0.2802 -0.1411 -0.1722
 1572SOL    HW116175   3.003   0.213   1.213  0.1488  1.3712  1.2453
 1572SOL    HW216176   2.998   0.239   1.069  2.7038  1.5572 -0.0898
 1573SOL     OW16177   2.013   2.741   5.579  0.0684 -0.2570 -0.2153
 1573SOL    HW116178   1.985   2.650   5.589  1.4550 -0.8277 -1.5155
 1573SOL    HW216179   1.997   2.781   5.665 -0.5593 -0.1226 -0.3969
 1574SOL     OW16180   2.746   2.734   0.913 -0.0880 -0.5099 -0.0803
 1574SOL    HW116181   2.687   2.790   0.962  0.7913 -2.2854  2.9898
 1574SOL    HW216182   2.817   2.731   0.977 -0.4582 -3.8129  0.1619
 1575SOL     OW16183   2.540   0.383  10.658  0.0008 -0.1078  0.0401
 1575SOL    HW116184   2.457   0.344  10.630  0.0498  1.0791 -1.7659
 1575SOL    HW216185   2.580   0.320  10.717 -2.3327 -1.3914  0.2532
 1576SOL     OW16186   1.932   2.537   7.292  0.4596 -0.7291 -0.3231
 1576SOL    HW116187   1.984   2.472   7.339 -1.0615 -1.4185  0.3940
 1576SOL    HW216188   1.897   2.587   7.367 -0.3830  0.1310 -1.2896
 1577SOL     OW16189   2.785   3.610   5.458  0.0933 -0.1768 -0.0589
 1577SOL    HW116190   2.844   3.684   5.444 -0.0847  0.1645  1.0156
 1577SOL    HW216191   2.834   3.541   5.415  1.4996 -0.6668  2.3776
 1578SOL     OW16192   2.818   1.902   5.040  0.0083 -0.0197 -0.6261
 1578SOL    HW116193   2.753   1.958   4.997 -2.1344 -2.2119 -0.2511
 1578SOL    HW216194   2.836   1.835   4.973 -1.0056  1.0167 -1.9277
 1579SOL     OW16195   2.967   2.039   4.328  0.1600 -0.1223 -0.0401
 1579SOL    HW116196   2.912   1.968   4.294  1.0274  0.2821 -2.3337
 1579SOL    HW216197   3.056   2.004   4.335  0.3710 -0.0742 -2.3329
 1580SOL     OW16198   2.010   4.456  11.360  0.5059 -0.0093 -0.3722
 1580SOL    HW116199   1.945   4.406  11.409  1.2912 -1.0590 -0.4052
 1580SOL    HW216200   2.007   4.419  11.272  0.4951 -0.2565 -0.2681
 1581SOL     OW16201   2.501   3.309   5.558 -0.3247 -0.3573 -0.4587
 1581SOL    HW116202   2.594   3.331   5.569 -1.0892  2.5203  0.1121
 1581SOL    HW216203   2.492   3.336   5.466  3.4204  0.4861 -0.5873
 1582SOL     OW16204   0.779   3.113  14.477  0.5130 -0.3681 -0.0893
 1582SOL    HW116205   0.801   3.160  14.557 -0.8306 -0.8759  0.5700
 1582SOL    HW216206   0.844   3.043  14.483 -0.0737 -0.6739  2.7130
 1583SOL     OW16207   2.255   2.346  14.114  0.5471 -0.3412  0.1693
 1583SOL    HW116208   2.171   2.391  14.110  1.6140  1.8924  2.2177
 1583SOL    HW216209   2.238   2.274  14.175 -0.2686 -0.6599 -0.4368
 1584SOL     OW16210   2.997   1.061   3.208  0.0673 -0.3529  0.0225
 1584SOL    HW116211   2.975   1.076   3.301 -1.9445 -0.1119 -0.4797
 1584SOL    HW216212   2.924   1.108   3.167  0.2864 -0.2747 -0.2762
 1585SOL     OW16213   4.345   0.920  14.438  0.6873 -0.4969 -0.3493
 1585SOL    HW116214   4.253   0.897  14.426  0.5421 -0.1605  0.1137
 1585SOL    HW216215   4.388   0.900  14.355  1.5770  1.2621 -0.3180
 1586SOL     OW16216   0.321   1.997   3.149  0.3042 -0.5286  0.0526
 1586SOL    HW116217   0.232   1.963   3.142  0.1169 -0.5710  2.5938
 1586SOL    HW216218   0.332   2.038   3.063  0.7483 -1.7246 -0.4576
 1587SOL     OW16219   0.623   0.243   3.216  0.3678 -0.2621  0.2884
 1587SOL    HW116220   0.545   0.201   3.252  1.0434 -3.5961 -2.0666
 1587SOL    HW216221   0.610   0.334   3.244  0.5550 -0.4169  0.8644
 1588SOL     OW16222   2.750   1.679  16.340 -0.1129  0.6690 -0.0495
 1588SOL    HW116223   2.843   1.657  16.354  0.0409  0.8998 -0.6985
 1588SOL    HW216224   2.707   1.611  16.392 -1.1152  2.0264  0.8828
 1589SOL     OW16225   0.182   1.542   5.955 -0.6957 -0.1798  0.0796
 1589SOL    HW116226   0.234   1.536   5.875 -3.0282  3.1350 -1.7102
 1589SOL    HW216227   0.213   1.466   6.003  1.5148  0.8570  0.2921
 1590SOL     OW16228   2.761   3.399  13.192 -0.7505 -0.1146  0.6038
 1590SOL    HW116229   2.667   3.382  13.188 -0.9201  1.1360 -0.9516
 1590SOL    HW216230   2.792   3.326  13.139 -0.9501  0.9177 -0.9291
 1591SOL     OW16231   0.802   2.107   5.394 -0.8742  0.5071 -0.1352
 1591SOL    HW116232   0.842   2.176   5.446  1.0474 -0.2821 -0.5442
 1591SOL    HW216233   0.729   2.081   5.450  0.5334  0.1217  1.4913
 1592SOL     OW16234   4.684   3.434   5.453  0.0593 -0.2292 -0.5357
 1592SOL    HW116235   4.688   3.494   5.379 -0.9639  0.9106  0.3255
 1592SOL    HW216236   4.687   3.493   5.528  0.5393 -1.8904  0.7654
 1593SOL     OW16237   3.745   3.981  15.592  0.0236  0.1480 -0.4264
 1593SOL    HW116238   3.703   4.010  15.673 -0.8914 -1.8100 -0.2206
 1593SOL    HW216239   3.796   4.061  15.574 -0.9663  0.5877 -1.2698
 1594SOL     OW16240   2.379   1.255   3.195  0.6701 -0.8132  0.1367
 1594SOL    HW116241   2.383   1.160   3.193  0.9000 -0.8155  0.6707
 1594SOL    HW216242   2.462   1.283   3.232  0.1542  0.8404  0.0516
 1595SOL     OW16243   3.757   4.496  17.461 -0.0535 -0.0822  0.0552
 1595SOL    HW116244   3.755   4.447  17.543  0.4190  0.4745  0.3927
 1595SOL    HW216245   3.679   4.464  17.415 -0.2149  1.6159 -0.8269
 1596SOL     OW16246   2.886   1.651  12.659  0.3534 -0.7242 -0.0696
 1596SOL    HW116247   2.886   1.701  12.741 -0.3381  0.2778 -0.6854
 1596SOL    HW216248   2.980   1.633  12.664  0.4416 -0.1172  0.4849
 1597SOL     OW16249   0.270   3.576   6.714  0.8165 -0.2139  0.3545
 1597SOL    HW116250   0.326   3.652   6.699  0.7637 -0.3157 -0.3778
 1597SOL    HW216251   0.314   3.526   6.782  0.9062 -0.3682  0.1811
 1598SOL     OW16252   3.239   2.222  12.964 -0.1748  0.2739  0.1513
 1598SOL    HW116253   3.243   2.223  13.060 -0.3347 -0.0985  0.1586
 1598SOL    HW216254   3.261   2.315  12.951 -1.8366  0.6554  0.1189
 1599SOL     OW16255   1.009   2.034   2.369  0.2097  0.7275  0.3028
 1599SOL    HW116256   0.983   2.060   2.280 -2.0473 -1.4633  0.3527
 1599SOL    HW216257   1.093   1.997   2.342 -0.9733 -1.3652 -0.4831
 1600SOL     OW16258   0.144   4.526   7.641  0.7613 -1.0115 -0.0846
 1600SOL    HW116259   0.092   4.601   7.672  1.6225 -1.1559  1.6956
 1600SOL    HW216260   0.074   4.482   7.592 -1.3932  1.3234  0.8284
 1601SOL     OW16261   3.723   1.814   5.687  0.2787  0.3693  0.3769
 1601SOL    HW116262   3.779   1.782   5.758 -1.2248 -2.6983  0.2080
 1601SOL    HW216263   3.744   1.737   5.633  0.7817  1.0093 -0.3465
 1602SOL     OW16264   2.447   0.008  12.680 -0.1750  0.2668  0.6827
 1602SOL    HW116265   2.526   4.678  12.662  0.4983  1.9587 -1.1662
 1602SOL    HW216266   2.474   0.099  12.692  1.4184  0.0357 -1.1219
 1603SOL     OW16267   0.759   2.479   2.155 -0.2937  0.8456  0.1568
 1603SOL    HW116268   0.822   2.548   2.136  0.7798  0.1688  1.2542
 1603SOL    HW216269   0.716   2.491   2.239 -2.3293  0.0417 -0.7467
 1604SOL     OW16270   4.282   3.050   6.066  0.2507 -0.9035  0.0421
 1604SOL    HW116271   4.202   3.078   6.111  1.1527 -1.3292  1.8798
 1604SOL    HW216272   4.348   3.098   6.115  0.4337 -0.4872 -0.6187
 1605SOL     OW16273   2.067   1.093   3.700 -0.1789 -0.6210  0.2830
 1605SOL    HW116274   2.079   1.001   3.675 -0.0046 -0.4000 -0.4390
 1605SOL    HW216275   2.150   1.107   3.746 -1.0406 -0.3091  1.7584
 1606SOL     OW16276   3.355   4.459  17.542 -0.0717  0.2595 -0.7626
 1606SOL    HW116277   3.413   4.384  17.555  0.0472  0.4528 -0.1533
 1606SOL    HW216278   3.330   4.474  17.634  0.3411  0.5603 -0.6983
 1607SOL     OW16279   2.371   1.603   0.786  0.0088  0.0030 -0.3545
 1607SOL    HW116280   2.320   1.675   0.824  0.8824 -0.3546  1.4880
 1607SOL    HW216281   2.380   1.646   0.701 -0.6386  1.5734  0.3696
 1608SOL     OW16282   1.349   0.399  16.568 -0.4895  0.6632  0.4601
 1608SOL    HW116283   1.335   0.464  16.500  2.7188 -0.6387 -1.4342
 1608SOL    HW216284   1.436   0.430  16.594  0.1916 -0.5659 -0.3245
 1609SOL     OW16285   3.609   4.343  10.369 -0.7857  0.2533 -0.1078
 1609SOL    HW116286   3.645   4.260  10.401  0.6082  1.0107  0.2976
 1609SOL    HW216287   3.680   4.393  10.329  0.7679  0.0987  2.4143
 1610SOL     OW16288   4.224   4.218  10.737 -0.0987  0.0485 -0.4532
 1610SOL    HW116289   4.245   4.304  10.700 -0.2985  1.3130  2.4062
 1610SOL    HW216290   4.311   4.181  10.750  0.0207  0.3067 -0.5201
 1611SOL     OW16291   0.374   0.115   1.915 -0.2198 -0.4835  0.1037
 1611SOL    HW116292   0.405   0.189   1.968 -0.5584 -0.7401  0.6443
 1611SOL    HW216293   0.280   0.106   1.930 -0.5674 -0.8780 -2.3217
 1612SOL     OW16294   0.661   3.806   1.981  0.7702  0.1771 -0.1739
 1612SOL    HW116295   0.583   3.785   1.929  0.8420 -0.6790  0.0554
 1612SOL    HW216296   0.687   3.891   1.946  1.7663  0.5908  1.5956
 1613SOL     OW16297   3.847   2.680   6.911  0.6186 -0.2142  0.1953
 1613SOL    HW116298   3.892   2.669   6.827 -0.0940 -0.5773 -0.1392
 1613SOL    HW216299   3.765   2.720   6.883  0.5975 -0.4737 -0.1114
 1614SOL     OW16300   3.309   1.863   3.335 -0.2212 -0.2198 -0.4152
 1614SOL    HW116301   3.308   1.773   3.368 -0.3746 -0.7726 -1.9490
 1614SOL    HW216302   3.401   1.885   3.349 -0.0859 -1.0011 -0.0731
 1615SOL     OW16303   0.909   1.366   7.590  0.0472 -0.0595 -0.1474
 1615SOL    HW116304   0.876   1.315   7.516  0.1867 -1.1595  0.5509
 1615SOL    HW216305   0.983   1.312   7.618  1.0740  0.7899 -1.2217
 1616SOL     OW16306   2.557   3.787   8.530 -0.5351 -0.1962  0.3711
 1616SOL    HW116307   2.565   3.781   8.625  0.7140 -2.6048  0.1204
 1616SOL    HW216308   2.633   3.737   8.500  0.6099  2.9071 -1.9970
 1617SOL     OW16309   0.228   4.013   8.099  0.5250 -0.0201  0.2863
 1617SOL    HW116310   0.200   4.060   8.178 -0.0741 -0.0108  0.0738
 1617SOL    HW216311   0.260   4.093   8.057 -1.1394  0.8306  0.6217
 1618SOL     OW16312   2.864   1.167   6.925  0.3461 -0.4741  0.2219
 1618SOL    HW116313   2.857   1.215   7.008 -1.4920 -1.9914  0.9311
 1618SOL    HW216314   2.872   1.077   6.955 -1.5826 -0.5865  0.3818
 1619SOL     OW16315   0.023   2.959   2.317  0.8520 -0.0236  0.2625
 1619SOL    HW116316   4.698   3.021   2.372 -0.9158 -0.2380 -0.9835
 1619SOL    HW216317   4.695   2.967   2.235 -2.5606 -0.7548  2.2659
 1620SOL     OW16318   0.774   0.925   8.999 -0.3443  0.1828 -0.0293
 1620SOL    HW116319   0.811   0.976   9.071  2.7275  0.7340 -1.9723
 1620SOL    HW216320   0.764   0.834   9.029 -0.4002  0.3613  0.4829
 1621SOL     OW16321   1.973   3.885   1.656 -0.6222  0.4417  0.2068
 1621SOL    HW116322   2.059   3.888   1.698 -1.0156  1.0962  0.9774
 1621SOL    HW216323   1.937   3.809   1.702  1.7724 -1.7322 -1.5008
 1622SOL     OW16324   4.238   0.360  14.519 -0.5322  0.2215  0.3173
 1622SOL    HW116325   4.198   0.324  14.598  0.7084  0.5012  1.0669
 1622SOL    HW216326   4.233   0.280  14.467 -2.3275  0.0617  0.7186
 1623SOL     OW16327   2.503   3.863   6.871  0.2979  0.1895  0.1852
 1623SOL    HW116328   2.503   3.918   6.792  2.9312  0.7821  0.5880
 1623SOL    HW216329   2.583   3.814   6.851 -0.2589 -1.3581  1.7136
 1624SOL     OW16330   2.476   4.704   5.635 -0.1478 -0.7445  0.5478
 1624SOL    HW116331   2.402   4.644   5.648  0.0042 -1.4236 -1.6966
 1624SOL    HW216332   2.435   0.057   5.591  2.0102  1.6141  2.5452
 1625SOL     OW16333   0.328   0.061   7.294 -0.1926 -0.3427  0.1053
 1625SOL    HW116334   0.267   0.125   7.330  1.0272  0.2796  1.0890
 1625SOL    HW216335   0.268   4.709   7.307 -1.3984  0.6470  0.0890
 1626SOL     OW16336   4.393   0.361   7.263  0.1438  0.2720 -0.3498
 1626SOL    HW116337   4.475   0.335   7.220 -0.2333  1.2988 -1.6748
 1626SOL    HW216338   4.379   0.453   7.240 -0.8145 -0.2501 -1.8488
 1627SOL     OW16339   4.631   0.170   7.519  0.5891  0.2436  0.4259
 1627SOL    HW116340   4.694   0.124   7.574  0.5320 -3.4637 -2.5769
 1627SOL    HW216341   4.546   0.125   7.520  0.0625  1.2402  0.4840
 1628SOL     OW16342   1.982   0.917   3.406  0.4517 -0.0332  0.4782
 1628SOL    HW116343   1.995   0.832   3.363  1.1979 -0.4856  1.6000
 1628SOL    HW216344   2.053   0.925   3.470  0.9474  0.2406 -0.1094
 1629SOL     OW16345   1.011   1.726  16.076  0.6211 -0.4681 -0.0874
 1629SOL    HW116346   1.002   1.634  16.099  1.4426 -0.2923  0.9175
 1629SOL    HW216347   0.922   1.760  16.085  0.5014 -1.1703  1.3841
 1630SOL     OW16348   4.202   1.607   0.099  0.6685  0.8387  0.3789
 1630SOL    HW116349   4.203   1.514   0.079  2.3722  1.4938 -2.5178
 1630SOL    HW216350   4.293   1.615   0.130  1.0666 -1.0040 -0.3334
 1631SOL     OW16351   0.944   1.763   8.001  0.7619  0.4751  0.4928
 1631SOL    HW116352   0.894   1.843   8.012 -1.6580 -0.7371 -1.5993
 1631SOL    HW216353   0.877   1.698   8.023 -0.6012  2.4490  2.1239
 1632SOL     OW16354   0.077   1.019  10.265 -0.2329  0.6536  0.2337
 1632SOL    HW116355   0.003   1.058  10.218 -1.0778 -0.0710  0.9689
 1632SOL    HW216356   0.073   1.061  10.351 -2.6171  2.2520 -0.6453
 1633SOL     OW16357   2.983   0.405   3.579  0.4426 -0.4685  0.0276
 1633SOL    HW116358   3.066   0.453   3.578  0.7006 -0.9562 -1.0942
 1633SOL    HW216359   2.926   0.481   3.566  2.8660  1.1590 -1.0878
 1634SOL     OW16360   2.681   0.585  14.104 -0.2358 -0.3615  0.2692
 1634SOL    HW116361   2.703   0.646  14.175  0.4544 -0.1976 -0.0879
 1634SOL    HW216362   2.693   0.637  14.024 -1.2863 -0.9170 -0.2455
 1635SOL     OW16363   1.862   1.878  12.753  0.3638  0.0732 -0.3686
 1635SOL    HW116364   1.852   1.909  12.843 -1.3845 -0.5808 -0.3165
 1635SOL    HW216365   1.775   1.843  12.734 -0.4953  0.9242  2.0521
 1636SOL     OW16366   1.236   4.395  10.854 -0.4747  0.6361 -0.0928
 1636SOL    HW116367   1.164   4.452  10.829 -2.1001 -2.1062 -1.6798
 1636SOL    HW216368   1.310   4.456  10.850 -0.8276  1.1139  0.6897
 1637SOL     OW16369   1.860   3.984   4.083  0.2585 -0.1367  0.3794
 1637SOL    HW116370   1.933   3.937   4.044 -0.8567 -0.8979 -0.7985
 1637SOL    HW216371   1.782   3.980   4.027  0.4237 -0.1687  0.1534
 1638SOL     OW16372   3.484   3.501   7.252  0.6327 -0.6433 -0.0814
 1638SOL    HW116373   3.546   3.515   7.323  0.3492  0.8576 -0.1184
 1638SOL    HW216374   3.537   3.449   7.192  1.7386  1.8819 -1.2845
 1639SOL     OW16375   2.749   3.765   3.276  0.2183  0.0280 -0.2113
 1639SOL    HW116376   2.740   3.713   3.356  2.2894  0.4493  0.2852
 1639SOL    HW216377   2.778   3.710   3.203 -0.1494 -0.0829 -0.2732
 1640SOL     OW16378   0.361   3.811   6.616  0.0427  0.1474 -0.4891
 1640SOL    HW116379   0.391   3.897   6.646 -1.9898  1.0379 -1.0163
 1640SOL    HW216380   0.327   3.849   6.535  0.4968  1.3827 -0.1130
 1641SOL     OW16381   2.072   3.623  12.767 -0.2461 -0.4809  0.6789
 1641SOL    HW116382   2.156   3.663  12.788  0.3633 -0.8273 -1.0461
 1641SOL    HW216383   2.026   3.639  12.849 -1.7435 -0.8617 -0.0834
 1642SOL     OW16384   0.357   4.350   9.219  0.1526  0.0020 -0.7583
 1642SOL    HW116385   0.443   4.375   9.186  1.4082 -1.4141  1.3975
 1642SOL    HW216386   0.354   4.401   9.300 -0.1534  0.5598 -1.1175
 1643SOL     OW16387   4.187   2.165   6.876  0.3746 -0.0795 -0.4000
 1643SOL    HW116388   4.121   2.108   6.836  1.6413 -0.6289 -1.7147
 1643SOL    HW216389   4.266   2.110   6.879 -1.0904 -2.1454  0.6484
 1644SOL     OW16390   3.322   3.642   5.656  0.3749  0.2219 -0.4611
 1644SOL    HW116391   3.371   3.664   5.577  1.2435 -1.5375 -0.4220
 1644SOL    HW216392   3.394   3.661   5.716 -3.0647 -0.3246  3.8657
 1645SOL     OW16393   4.358   4.148  12.310 -0.4032 -0.6657  0.0469
 1645SOL    HW116394   4.293   4.201  12.263  2.5592  1.2766 -1.8393
 1645SOL    HW216395   4.413   4.213  12.354 -1.1285 -0.9186  1.3435
 1646SOL     OW16396   1.747   2.987   8.656 -0.0450 -0.0274 -0.8467
 1646SOL    HW116397   1.813   3.018   8.594  0.5128 -0.2303 -0.3555
 1646SOL    HW216398   1.688   2.932   8.604  0.2779 -1.8132  0.6650
 1647SOL     OW16399   0.523   1.105   5.722  0.2154 -0.2098  0.4237
 1647SOL    HW116400   0.606   1.153   5.728 -0.4137  0.7843  1.0878
 1647SOL    HW216401   0.528   1.071   5.633 -1.0144  2.0805 -0.5440
 1648SOL     OW16402   4.559   2.677   3.977  0.0447 -0.5117 -0.1775
 1648SOL    HW116403   4.582   2.719   4.060 -1.5373 -2.0993  1.0433
 1648SOL    HW216404   4.619   2.602   3.978  2.1007  1.1400  0.5310
 1649SOL     OW16405   0.704   1.666  17.646  0.6122  0.2180 -0.1401
 1649SOL    HW116406   0.695   1.572  17.665 -0.2838  0.3060 -0.1461
 1649SOL    HW216407   0.643   1.677  17.573  1.7405  0.8467 -0.9797
 1650SOL     OW16408   0.576   2.515   1.208  0.7204 -0.2876  0.7159
 1650SOL    HW116409   0.631   2.438   1.225 -2.6636 -2.7049  0.7260
 1650SOL    HW216410   0.595   2.559   1.291 -0.6960  1.2005  0.2545
 1651SOL     OW16411   2.822   2.709   2.866 -0.2052  0.5500  0.3432
 1651SOL    HW116412   2.868   2.790   2.848  1.9885 -0.7807  0.0338
 1651SOL    HW216413   2.778   2.694   2.782  0.2586 -0.3493  0.2618
 1652SOL     OW16414   2.416   4.052   6.669 -0.2112 -0.1935 -0.9685
 1652SOL    HW116415   2.335   4.013   6.636 -0.1024 -0.9856 -0.3151
 1652SOL    HW216416   2.392   4.143   6.686  1.8081 -0.2331  1.9400
 1653SOL     OW16417   4.488   1.266   5.822 -0.0895 -0.7087 -0.3821
 1653SOL    HW116418   4.404   1.226   5.844 -0.0898  0.5608  1.9854
 1653SOL    HW216419   4.463   1.322   5.748  0.0234  0.2735  0.3122
 1654SOL     OW16420   1.250   0.727   4.982 -0.5498 -0.2873 -0.1746
 1654SOL    HW116421   1.285   0.810   5.016  0.4862 -0.6105 -0.4328
 1654SOL    HW216422   1.295   0.715   4.899 -0.2969  3.1439 -0.5496
 1655SOL     OW16423   0.179   0.254   2.224  0.2114  0.0848 -0.9884
 1655SOL    HW116424   0.099   0.204   2.209  0.4522 -0.0382 -1.8376
 1655SOL    HW216425   0.224   0.198   2.287 -1.8291 -0.3696  0.0808
 1656SOL     OW16426   1.825   4.398   2.937  0.4084  0.1613 -0.2173
 1656SOL    HW116427   1.740   4.433   2.908  1.9935  2.5529 -1.9883
 1656SOL    HW216428   1.857   4.374   2.850 -0.1422 -0.3994 -0.2710
 1657SOL     OW16429   4.483   0.606   3.945  0.1360 -0.3032 -0.1749
 1657SOL    HW116430   4.535   0.593   4.025 -0.0284 -0.1264 -0.0393
 1657SOL    HW216431   4.403   0.577   3.988 -0.6213  0.9979 -0.7082
 1658SOL     OW16432   0.103   1.018   4.832 -0.5984 -0.1589 -0.8342
 1658SOL    HW116433   0.072   0.932   4.801 -2.5639 -0.2084  1.2184
 1658SOL    HW216434   0.116   1.072   4.754 -0.1073  0.1423 -0.5410
 1659SOL     OW16435   3.902   2.497   7.638 -0.0982  0.2449  0.3793
 1659SOL    HW116436   3.986   2.482   7.593 -0.4825 -1.9801  0.3957
 1659SOL    HW216437   3.868   2.408   7.633 -0.2262  0.2840  0.5596
 1660SOL     OW16438   3.859   2.327   2.596 -0.4416  0.1703  0.6274
 1660SOL    HW116439   3.879   2.238   2.565 -1.7162  0.0333  0.1965
 1660SOL    HW216440   3.932   2.373   2.555  1.8478 -2.6941  1.4554
 1661SOL     OW16441   0.202   0.485   2.895  0.4017 -0.1398 -0.0486
 1661SOL    HW116442   0.221   0.421   2.826  0.0829  0.7364 -0.9641
 1661SOL    HW216443   0.197   0.432   2.974 -0.2208  1.1287  0.7798
 1662SOL     OW16444   0.672   0.939   8.544  0.3129  0.1416 -0.2138
 1662SOL    HW116445   0.682   1.034   8.534  0.7730  0.2236  1.0126
 1662SOL    HW216446   0.587   0.924   8.503 -0.4105 -0.1215  1.3938
 1663SOL     OW16447   4.266   2.698  17.618  0.2512 -0.3448  0.1830
 1663SOL    HW116448   4.274   2.792  17.629 -0.8726 -0.2803  0.4641
 1663SOL    HW216449   4.329   2.680  17.548  1.3754  4.3502  0.0104
 1664SOL     OW16450   1.727   0.471  15.048  0.6519  0.2967  0.1403
 1664SOL    HW116451   1.681   0.499  14.968  1.6972  1.5597 -0.0223
 1664SOL    HW216452   1.742   0.554  15.093  0.2866  1.2067 -1.4160
 1665SOL     OW16453   0.454   1.769   3.450 -0.4325  0.4004  0.0470
 1665SOL    HW116454   0.458   1.860   3.422 -2.6928  0.2513 -0.7302
 1665SOL    HW216455   0.509   1.764   3.528  0.1176  2.1139 -0.2223
 1666SOL     OW16456   0.694   0.072  15.687  0.7958 -0.2093 -0.2223
 1666SOL    HW116457   0.699   0.073  15.591  2.2163  1.6514 -0.1436
 1666SOL    HW216458   0.620   0.131  15.703  1.9764  1.1187  0.3582
 1667SOL     OW16459   0.876   3.167   3.037 -0.1143  0.3570 -0.1266
 1667SOL    HW116460   0.934   3.230   2.993  3.2606 -3.4361 -1.1757
 1667SOL    HW216461   0.802   3.162   2.977  0.2566  3.0782 -0.8209
 1668SOL     OW16462   1.975   2.297  10.658  0.3780  0.2207 -0.3880
 1668SOL    HW116463   2.021   2.231  10.607  1.6703 -1.1125  2.5078
 1668SOL    HW216464   1.898   2.311  10.603  1.5687 -0.7792 -2.2938
 1669SOL     OW16465   4.421   1.722  14.936  0.4333  0.7452  0.1663
 1669SOL    HW116466   4.484   1.776  14.984  1.2792  1.7026 -2.0369
 1669SOL    HW216467   4.469   1.644  14.907 -1.8174 -0.1305 -1.2255
 1670SOL     OW16468   3.047   4.271   6.302  0.9047 -0.1141 -0.0745
 1670SOL    HW116469   2.960   4.306   6.282  0.5662 -1.0358 -0.1965
 1670SOL    HW216470   3.027   4.232   6.386 -1.5224  1.6387  0.1498
 1671SOL     OW16471   2.667   1.204  10.837  0.2904 -0.1492 -0.3513
 1671SOL    HW116472   2.596   1.251  10.882 -0.7481 -1.4928 -0.5741
 1671SOL    HW216473   2.643   1.221  10.746  0.8167  1.2106 -0.2332
 1672SOL     OW16474   1.989   3.082   6.502  0.0876 -0.5428 -0.2003
 1672SOL    HW116475   2.069   3.086   6.450 -0.2377 -0.4557 -0.7026
 1672SOL    HW216476   2.025   3.119   6.582 -0.0240 -0.7548 -0.0503
 1673SOL     OW16477   2.537   1.204   6.762  0.0895  0.3747 -0.6627
 1673SOL    HW116478   2.449   1.168   6.748 -1.1449  2.4748  1.8151
 1673SOL    HW216479   2.575   1.215   6.675 -1.8164  1.6014 -1.3287
 1674SOL     OW16480   0.963   4.264  16.377 -0.1815 -0.3260  0.0522
 1674SOL    HW116481   0.962   4.263  16.473  0.9237  0.3343  0.0765
 1674SOL    HW216482   0.887   4.208  16.365 -0.9119  0.7359 -0.2495
 1675SOL     OW16483   0.083   0.612  15.444 -0.0137  0.3209 -0.0130
 1675SOL    HW116484   0.007   0.662  15.413 -1.0483 -0.1500  1.7739
 1675SOL    HW216485   0.134   0.596  15.365  0.2360 -1.1274  0.4485
 1676SOL     OW16486   2.725   3.435   7.717 -0.1711  0.7818 -0.0684
 1676SOL    HW116487   2.733   3.389   7.800  0.9805 -1.9835 -1.6969
 1676SOL    HW216488   2.815   3.466   7.711 -0.3525  1.3319  0.0885
 1677SOL     OW16489   0.165   1.698   7.893  0.7094 -0.5663  0.2208
 1677SOL    HW116490   0.118   1.694   7.976 -0.1586 -0.9997 -0.2947
 1677SOL    HW216491   0.089   1.703   7.835  0.1890  0.4874  1.0051
 1678SOL     OW16492   4.112   1.703   6.982  0.1486 -0.1423 -0.0494
 1678SOL    HW116493   4.148   1.725   7.068  0.5369  0.5284 -0.3865
 1678SOL    HW216494   4.022   1.686   7.010  1.0487 -1.7627  1.8671
 1679SOL     OW16495   4.652   1.059   1.802  0.5567 -0.0608  0.6454
 1679SOL    HW116496   4.600   0.983   1.830  1.8900 -0.6854  1.4687
 1679SOL    HW216497   4.587   1.123   1.830  0.1760  0.1654 -0.8058
 1680SOL     OW16498   3.351   4.056   1.194 -0.0868 -0.0898 -0.1049
 1680SOL    HW116499   3.394   4.128   1.148 -0.3739 -0.2070 -0.5611
 1680SOL    HW216500   3.403   3.979   1.173 -0.1246 -1.0094  3.2192
 1681SOL     OW16501   0.753   1.399   9.791  0.5053 -0.2365  0.0154
 1681SOL    HW116502   0.682   1.384   9.728 -2.2061  3.3074  2.1695
 1681SOL    HW216503   0.818   1.433   9.729 -0.8822  1.8163 -0.3185
 1682SOL     OW16504   2.785   2.184   2.095 -0.0386  0.5074  0.1285
 1682SOL    HW116505   2.792   2.091   2.113 -2.1316 -0.0799 -1.9860
 1682SOL    HW216506   2.690   2.194   2.099 -0.0028 -0.0666  2.5095
 1683SOL     OW16507   3.156   2.494   7.198 -0.2596 -0.2881 -0.0071
 1683SOL    HW116508   3.223   2.551   7.161 -0.8085 -0.5914 -1.4816
 1683SOL    HW216509   3.116   2.543   7.270  0.1623 -1.0812  0.7681
 1684SOL     OW16510   1.930   1.849   1.326  0.2441  0.4357  0.5036
 1684SOL    HW116511   1.990   1.779   1.351  0.2014  0.6404  1.1748
 1684SOL    HW216512   1.842   1.825   1.355  0.4327  0.1905  0.8664
 1685SOL     OW16513   1.419   1.767   6.424 -0.2522 -0.3797  0.3326
 1685SOL    HW116514   1.422   1.855   6.462  0.6374 -0.3554  0.2074
 1685SOL    HW216515   1.369   1.719   6.491  1.6994  1.1922  2.9348
 1686SOL     OW16516   0.566   3.531   5.154 -0.3382  0.0123 -0.0895
 1686SOL    HW116517   0.608   3.612   5.184 -1.3408 -0.2269  1.9476
 1686SOL    HW216518   0.642   3.481   5.125  1.0186  2.2365 -0.3388
 1687SOL     OW16519   0.936   1.477   4.282 -0.2207  0.2368  0.4672
 1687SOL    HW116520   0.930   1.478   4.186  0.5660 -0.4520  0.4121
 1687SOL    HW216521   1.025   1.452   4.307 -0.7819 -2.3979 -0.2271
 1688SOL     OW16522   0.138   4.256   5.987  0.2721 -0.3436 -0.2820
 1688SOL    HW116523   0.210   4.315   6.009  0.9707 -1.2236 -0.2458
 1688SOL    HW216524   0.074   4.326   5.975  1.9990  1.3203  0.1673
 1689SOL     OW16525   4.372   1.546  13.255 -0.2071  0.3794  0.6539
 1689SOL    HW116526   4.361   1.615  13.190  0.5489  0.1860  0.3174
 1689SOL    HW216527   4.288   1.506  13.232 -0.4775  0.7696  0.9728
 1690SOL     OW16528   3.278   1.211   5.676  0.1922  0.0240 -0.0639
 1690SOL    HW116529   3.369   1.228   5.649 -0.4628  3.2738 -0.2045
 1690SOL    HW216530   3.270   1.255   5.760 -1.4377 -0.2386 -0.0896
 1691SOL     OW16531   3.032   0.284   1.872  0.0560  0.6964  0.2768
 1691SOL    HW116532   2.983   0.250   1.946  1.6070 -1.2251  0.4069
 1691SOL    HW216533   3.122   0.260   1.893  0.0489 -0.2983 -0.8097
 1692SOL     OW16534   2.239   0.416   5.423  0.6338  0.0370 -0.1371
 1692SOL    HW116535   2.145   0.420   5.407  0.2292 -2.9661  1.5539
 1692SOL    HW216536   2.272   0.388   5.338 -0.8674 -0.8332 -0.4376
 1693SOL     OW16537   0.917   3.619  16.204  0.4111  0.1242 -0.4286
 1693SOL    HW116538   0.898   3.613  16.298 -1.7708  0.8101 -0.8139
 1693SOL    HW216539   0.955   3.707  16.204  1.0970 -0.1703  0.3960
 1694SOL     OW16540   1.083   4.695  10.150  0.4124  0.5891 -0.4821
 1694SOL    HW116541   1.084   4.677  10.244  1.4021 -1.9476 -0.9761
 1694SOL    HW216542   1.073   4.604  10.121 -2.8961  1.5401 -2.3772
 1695SOL     OW16543   4.087   1.551   5.796  0.8020  0.7168  0.1117
 1695SOL    HW116544   4.098   1.476   5.738 -0.7909  1.6663 -1.4486
 1695SOL    HW216545   4.021   1.512   5.853 -1.0793  1.9678 -1.1897
 1696SOL     OW16546   1.937   0.914   1.407  0.5322 -0.2286 -0.0452
 1696SOL    HW116547   1.928   1.009   1.401 -1.6345 -0.5108 -1.1593
 1696SOL    HW216548   1.849   0.893   1.376  0.4807  0.4551 -0.3755
 1697SOL     OW16549   4.554   0.327   4.618 -0.0379  0.2805  0.1900
 1697SOL    HW116550   4.622   0.262   4.602 -1.4873 -0.7613 -1.6277
 1697SOL    HW216551   4.537   0.343   4.526 -0.5724 -2.6055 -0.2253
 1698SOL     OW16552   3.977   3.269  11.301  0.4164  0.4021 -1.3010
 1698SOL    HW116553   3.966   3.188  11.251  0.0003 -0.5040  0.2728
 1698SOL    HW216554   3.991   3.329  11.228  2.2008  0.7639 -0.6470
 1699SOL     OW16555   2.418   3.101   6.349 -0.3653 -0.0874  0.0512
 1699SOL    HW116556   2.430   3.149   6.267 -0.0270  1.2853  0.8916
 1699SOL    HW216557   2.505   3.122   6.382 -0.6082 -0.6587  1.0546
 1700SOL     OW16558   2.105   2.581  15.405 -0.4545  0.1462 -0.3478
 1700SOL    HW116559   2.104   2.588  15.501 -0.4383  0.3577 -0.3614
 1700SOL    HW216560   2.130   2.669  15.375  0.9766 -0.5807 -1.2796
 1701SOL     OW16561   1.929   1.064   2.734 -0.1405 -0.3543 -0.3990
 1701SOL    HW116562   1.854   1.030   2.685 -1.0079 -0.4435  0.9801
 1701SOL    HW216563   1.886   1.053   2.819 -1.9831 -0.6349 -1.3497
 1702SOL     OW16564   1.182   4.273  14.120  0.5907 -0.2206  0.3480
 1702SOL    HW116565   1.184   4.304  14.029 -1.2310 -0.7902  0.1000
 1702SOL    HW216566   1.091   4.284  14.149  0.2999 -0.4475 -0.4684
 1703SOL     OW16567   3.932   2.638  11.888 -0.1522 -0.6632  0.3701
 1703SOL    HW116568   3.837   2.626  11.889 -0.2182 -0.2252 -0.5962
 1703SOL    HW216569   3.942   2.725  11.848  0.9316 -0.2354  1.5800
 1704SOL     OW16570   2.705   2.389   1.838 -0.4794  0.1246 -0.2663
 1704SOL    HW116571   2.702   2.365   1.745  0.2145 -0.6630 -0.0905
 1704SOL    HW216572   2.646   2.464   1.836 -2.2660 -1.2887 -0.8063
 1705SOL     OW16573   2.373   1.532  11.699  0.2015 -0.4553 -0.0465
 1705SOL    HW116574   2.374   1.592  11.773 -1.7035 -0.5591  0.0619
 1705SOL    HW216575   2.282   1.548  11.675  0.8732  2.3231 -0.6768
 1706SOL     OW16576   3.287   4.673   6.666 -0.1405 -0.1188 -0.1563
 1706SOL    HW116577   3.278   0.045   6.646  2.1729  0.2094  0.2665
 1706SOL    HW216578   3.358   4.689   6.728 -1.0600  0.2586  0.7898
 1707SOL     OW16579   4.182   2.072   2.803 -0.2128  0.1044 -0.0648
 1707SOL    HW116580   4.187   2.018   2.724 -2.1084  0.3725 -0.3743
 1707SOL    HW216581   4.203   2.160   2.772 -1.7489  0.2676 -0.6584
 1708SOL     OW16582   0.193   3.560   3.084  0.3139 -0.1655  0.0437
 1708SOL    HW116583   0.149   3.642   3.102  1.1070  0.5711 -1.4059
 1708SOL    HW216584   0.180   3.503   3.160  2.8164 -0.4541  0.2593
 1709SOL     OW16585   4.526   2.562   0.649 -0.2656  0.2613 -0.3208
 1709SOL    HW116586   4.508   2.575   0.742 -1.5326 -0.3127 -0.4835
 1709SOL    HW216587   4.467   2.625   0.607  0.6410  0.1519 -1.7748
 1710SOL     OW16588   2.819   2.842   5.171  0.0365  0.5180 -0.2485
 1710SOL    HW116589   2.909   2.860   5.144  0.7237  0.6354  2.1074
 1710SOL    HW216590   2.763   2.844   5.093  0.1855 -2.1735 -0.4443
 1711SOL     OW16591   3.964   4.070  14.381  0.0177  0.5308  0.3685
 1711SOL    HW116592   3.896   4.049  14.445  0.0188 -1.0773 -0.1343
 1711SOL    HW216593   4.024   4.121  14.435 -0.4100  0.7379  0.6473
 1712SOL     OW16594   2.348   3.682   6.997 -0.7582 -0.1851 -0.5477
 1712SOL    HW116595   2.286   3.691   6.925  0.5354 -3.1917 -2.0290
 1712SOL    HW216596   2.402   3.753   6.961 -1.8452  0.7648 -0.3161
 1713SOL     OW16597   3.258   0.958   1.197 -0.0231  0.2636  0.0619
 1713SOL    HW116598   3.332   0.967   1.257  1.4855 -0.9111 -1.5784
 1713SOL    HW216599   3.264   0.863   1.182  0.9165  0.2257  0.6830
 1714SOL     OW16600   1.407   3.975   8.938 -0.5326  0.0257  0.1486
 1714SOL    HW116601   1.446   4.046   8.887  0.2977 -1.6325 -1.5020
 1714SOL    HW216602   1.478   3.948   8.996 -0.2889 -0.2744 -0.2933
 1715SOL     OW16603   4.713   3.006  14.211 -0.2347 -0.1409  1.2446
 1715SOL    HW116604   4.671   3.073  14.266 -1.2543  1.5082 -1.5736
 1715SOL    HW216605   0.060   3.057  14.169 -0.2101  0.2883  1.7882
 1716SOL     OW16606   1.452   1.796   2.986  0.4866  0.1350 -0.2075
 1716SOL    HW116607   1.438   1.705   2.962 -3.4412  0.2233  1.7220
 1716SOL    HW216608   1.455   1.835   2.899  0.1932  0.1727 -0.2013
 1717SOL     OW16609   4.109   1.814   8.724  0.5392 -0.3509  0.3810
 1717SOL    HW116610   4.129   1.721   8.727 -3.5935 -1.1972  1.8121
 1717SOL    HW216611   4.198   1.846   8.738  0.1901  1.2642 -1.1538
 1718SOL     OW16612   1.120   0.040  17.320  0.3396 -1.0835 -0.1806
 1718SOL    HW116613   1.206   0.034  17.278  0.5806  2.9014 -0.3216
 1718SOL    HW216614   1.146   0.067  17.408  0.4996  0.1502 -0.5929
 1719SOL     OW16615   1.481   3.501   3.327 -1.4138  0.3572  0.8986
 1719SOL    HW116616   1.478   3.573   3.391 -0.6764 -0.1094  1.4549
 1719SOL    HW216617   1.430   3.545   3.259 -2.2636  0.1676  1.4100
 1720SOL     OW16618   1.986   0.150   1.956  0.4220  0.2627 -0.1121
 1720SOL    HW116619   1.942   0.180   1.876  0.2785  0.0785 -0.1005
 1720SOL    HW216620   2.053   0.217   1.969  0.6631 -0.5730  2.9089
 1721SOL     OW16621   3.297   2.528   5.594  0.1860  0.5042 -0.1988
 1721SOL    HW116622   3.356   2.452   5.591 -0.6593 -0.1578  0.1448
 1721SOL    HW216623   3.209   2.495   5.581 -0.1809  1.8069 -1.0779
 1722SOL     OW16624   1.040   3.755   6.615  0.2413 -0.8984  0.5008
 1722SOL    HW116625   0.984   3.804   6.555  2.6710 -0.6792 -1.6113
 1722SOL    HW216626   1.019   3.666   6.588 -0.9943 -0.4547  0.0023
 1723SOL     OW16627   0.964   4.059   8.612  0.8095 -0.0761  1.0681
 1723SOL    HW116628   0.942   4.064   8.705 -2.6403 -1.1968  0.2963
 1723SOL    HW216629   0.971   4.155   8.603  1.3991 -0.0826  1.4048
 1724SOL     OW16630   0.649   2.860   7.100 -0.3776 -0.1939  0.1274
 1724SOL    HW116631   0.702   2.895   7.028  0.0469  1.5118  1.2889
 1724SOL    HW216632   0.699   2.871   7.180  1.0407 -1.0993 -0.6443
 1725SOL     OW16633   3.910   0.181   8.226 -0.0443  0.0074 -0.2575
 1725SOL    HW116634   3.919   0.093   8.189 -0.3707  0.5681 -1.6402
 1725SOL    HW216635   3.960   0.174   8.308 -2.0319 -2.5079  0.7268
 1726SOL     OW16636   1.948   2.806   3.094  0.1097 -0.4774  0.1035
 1726SOL    HW116637   2.001   2.732   3.065  0.3291  0.2269 -1.2635
 1726SOL    HW216638   1.865   2.792   3.049 -0.2350  0.9789  0.3064
 1727SOL     OW16639   2.600   4.266   2.711 -0.4499 -0.3813 -0.2461
 1727SOL    HW116640   2.627   4.338   2.653 -0.7994 -0.0480  0.0008
 1727SOL    HW216641   2.604   4.187   2.658 -1.1485 -0.2744 -0.4478
 1728SOL     OW16642   0.447   3.072   3.743 -0.5550  0.0099 -0.0388
 1728SOL    HW116643   0.370   3.112   3.701 -0.9129  0.7080  1.2662
 1728SOL    HW216644   0.476   3.026   3.664 -0.0405  0.8067 -0.3102
 1729SOL     OW16645   2.078   3.033   5.474  0.2127  0.1542 -0.3536
 1729SOL    HW116646   2.067   2.945   5.509 -1.5712  0.9534  1.0689
 1729SOL    HW216647   2.029   3.036   5.392  1.4835  1.2615 -1.0807
 1730SOL     OW16648   1.086   4.338   7.920  0.6703 -0.2315 -0.9263
 1730SOL    HW116649   1.056   4.255   7.956  0.5876 -0.1905 -0.8988
 1730SOL    HW216650   1.014   4.364   7.862  0.9421 -1.9512 -2.0261
 1731SOL     OW16651   1.928   0.548   1.772  0.0549 -0.0294  0.4776
 1731SOL    HW116652   1.833   0.541   1.785  0.2297 -2.8423  0.1444
 1731SOL    HW216653   1.921   0.604   1.695 -1.2712 -0.0107  0.6143
 1732SOL     OW16654   3.783   1.758   4.839  0.1521 -0.1800 -0.2728
 1732SOL    HW116655   3.792   1.710   4.756 -0.5722  0.6113 -0.8055
 1732SOL    HW216656   3.770   1.681   4.894 -1.0152 -0.5989 -1.1182
 1733SOL     OW16657   4.593   2.813  11.144 -0.5085 -0.0621  0.7450
 1733SOL    HW116658   4.590   2.775  11.231  1.6154 -1.5138  0.1904
 1733SOL    HW216659   4.665   2.876  11.153 -0.1501 -0.0957 -1.8696
 1734SOL     OW16660   2.549   3.454   2.674  0.2863 -0.8098  0.9275
 1734SOL    HW116661   2.573   3.483   2.586  0.5617 -3.6130  0.0987
 1734SOL    HW216662   2.542   3.536   2.723  0.5738  0.6969 -1.5569
 1735SOL     OW16663   0.777   1.890   2.417  0.2021 -0.4220  0.4029
 1735SOL    HW116664   0.719   1.958   2.381  0.2721 -0.7900 -0.4111
 1735SOL    HW216665   0.863   1.932   2.412  0.6572 -1.1695  1.8633
 1736SOL     OW16666   1.894   1.651   8.135  0.5184  0.1675  0.3218
 1736SOL    HW116667   1.882   1.559   8.110 -0.9483  0.1453  1.1218
 1736SOL    HW216668   1.914   1.629   8.226 -0.1712 -1.6002  0.0571
 1737SOL     OW16669   0.613   0.550  12.831  0.1273 -0.4547 -0.2758
 1737SOL    HW116670   0.572   0.464  12.845 -0.7564  0.2561  1.5357
 1737SOL    HW216671   0.567   0.572  12.750  0.0144  1.2154  0.2392
 1738SOL     OW16672   2.907   0.235   8.972 -0.0865 -0.4971 -0.2518
 1738SOL    HW116673   2.990   0.261   9.011 -0.2926  1.7069 -1.3292
 1738SOL    HW216674   2.907   0.139   8.975 -0.8857 -0.4532  1.6861
 1739SOL     OW16675   2.667   3.925   4.041  0.0948  0.0783 -0.3115
 1739SOL    HW116676   2.694   3.951   3.953  0.7062  0.1725 -0.0961
 1739SOL    HW216677   2.580   3.885   4.038  0.2945 -0.2309 -2.1963
 1740SOL     OW16678   4.335   0.121  15.639  0.4540 -0.2332  0.0216
 1740SOL    HW116679   4.363   0.051  15.698  2.0117  0.0409 -0.3804
 1740SOL    HW216680   4.370   0.090  15.555 -3.5483  0.5275 -1.9379
 1741SOL     OW16681   1.924   1.579   7.740  0.3261  0.3113  0.5122
 1741SOL    HW116682   1.832   1.572   7.714  0.6640 -0.7520 -0.4094
 1741SOL    HW216683   1.952   1.649   7.680 -2.0794 -0.7884 -1.9309
 1742SOL     OW16684   2.473   0.067  10.436 -0.3496  0.5623 -0.5451
 1742SOL    HW116685   2.425   0.091  10.515  1.4314 -1.2556  1.0885
 1742SOL    HW216686   2.456   4.694  10.443 -0.4144  0.6642  0.6197
 1743SOL     OW16687   2.390   0.597  14.364 -0.6159  0.2703 -0.2399
 1743SOL    HW116688   2.367   0.601  14.272 -0.4040  0.9031 -0.2644
 1743SOL    HW216689   2.326   0.659  14.400 -0.0345  0.4049  0.5851
 1744SOL     OW16690   0.434   0.896   6.072 -0.3680 -0.9150  0.3731
 1744SOL    HW116691   0.526   0.873   6.086 -0.1024  0.5030  1.0262
 1744SOL    HW216692   0.452   0.977   6.025 -0.3528  0.1327  2.1787
 1745SOL     OW16693   0.362   1.688  16.412  0.1682 -0.1556  0.0357
 1745SOL    HW116694   0.386   1.719  16.500  1.5965 -0.6812 -0.1618
 1745SOL    HW216695   0.279   1.735  16.402  0.1366  0.5096  3.5393
 1746SOL     OW16696   3.964   1.989   5.378  0.0896  0.1892 -0.1359
 1746SOL    HW116697   4.004   1.902   5.364  1.5238  0.8727 -0.2801
 1746SOL    HW216698   3.880   1.970   5.335 -0.6459 -1.0061  1.8144
 1747SOL     OW16699   2.486   0.046   4.822 -0.3869  0.7672  0.0174
 1747SOL    HW116700   2.485   0.076   4.913  0.5319  1.4022 -0.1838
 1747SOL    HW216701   2.413   0.094   4.782 -1.3749  0.0336  0.9121
 1748SOL     OW16702   0.744   0.822   1.682 -0.0804  0.1776  0.3880
 1748SOL    HW116703   0.774   0.913   1.671 -1.1689  0.7515  2.2032
 1748SOL    HW216704   0.652   0.848   1.684 -0.1333  0.0275 -0.1535
 1749SOL     OW16705   1.530   4.368   6.807 -0.0458 -0.5799 -0.2348
 1749SOL    HW116706   1.566   4.435   6.865 -0.0772 -1.0254  0.2921
 1749SOL    HW216707   1.515   4.299   6.870  0.2707  0.7138  1.2596
 1750SOL     OW16708   3.810   4.137   6.546  0.4554  0.2814 -0.8024
 1750SOL    HW116709   3.794   4.052   6.588  2.4983  0.1964 -0.2184
 1750SOL    HW216710   3.787   4.206   6.609  0.3014 -1.1140  0.6723
 1751SOL     OW16711   4.460   2.248   3.669  0.4817 -0.1584  0.1346
 1751SOL    HW116712   4.463   2.154   3.653 -2.8078 -0.3558  0.7867
 1751SOL    HW216713   4.459   2.239   3.765  4.1015  1.8189  0.3686
 1752SOL     OW16714   3.800   3.361   6.731 -0.5833 -0.3025 -0.7438
 1752SOL    HW116715   3.805   3.271   6.699  1.2385 -0.5029  0.1424
 1752SOL    HW216716   3.763   3.399   6.651 -2.9983 -1.6582 -0.2630
 1753SOL     OW16717   1.246   0.953   9.991 -0.2294  0.2359 -0.4307
 1753SOL    HW116718   1.184   0.919  10.056 -1.2435  1.3380 -0.8224
 1753SOL    HW216719   1.233   1.047  10.000 -0.9331 -0.0010  1.1236
 1754SOL     OW16720   4.691   1.519   4.135  0.6892  0.3600  0.3311
 1754SOL    HW116721   4.679   1.584   4.065 -1.1717  2.0216  2.1814
 1754SOL    HW216722   4.684   1.431   4.097 -0.7344  0.6276 -0.0406
 1755SOL     OW16723   1.720   0.163   0.362  0.3125 -0.4252 -0.4764
 1755SOL    HW116724   1.665   0.116   0.299  0.5144 -0.8375 -0.3488
 1755SOL    HW216725   1.664   0.238   0.383  0.9340 -0.2608  0.5903
 1756SOL     OW16726   0.519   2.693   5.209  0.0292  0.3529 -0.6348
 1756SOL    HW116727   0.579   2.747   5.158 -0.1211 -0.0141 -1.1988
 1756SOL    HW216728   0.447   2.755   5.222  0.0249 -0.0977  1.5933
 1757SOL     OW16729   2.559   3.743   1.180  0.2074 -0.0194 -0.1916
 1757SOL    HW116730   2.587   3.652   1.171 -0.7393 -0.4706  1.5430
 1757SOL    HW216731   2.643   3.790   1.178 -0.2237  0.7562  0.0856
 1758SOL     OW16732   2.327   3.277   2.518  0.1827 -0.0826 -0.2603
 1758SOL    HW116733   2.376   3.234   2.588  0.4519 -0.4934 -0.7052
 1758SOL    HW216734   2.244   3.230   2.526 -0.2380  0.8997  1.1482
 1759SOL     OW16735   3.102   4.550  16.526  0.2340  0.4935 -0.5016
 1759SOL    HW116736   3.169   4.597  16.576 -1.1490  1.8766  0.0587
 1759SOL    HW216737   3.159   4.493  16.473  1.4194  1.6546 -0.4866
 1760SOL     OW16738   1.761   2.317   7.294 -0.0630 -0.3791  0.5156
 1760SOL    HW116739   1.848   2.357   7.298  0.0310 -0.3274 -2.1074
 1760SOL    HW216740   1.778   2.223   7.285 -1.2551 -0.7686  2.3374
 1761SOL     OW16741   4.388   1.891   8.728  0.2505  0.1721 -0.4278
 1761SOL    HW116742   4.441   1.845   8.663  3.2570  1.4296  1.1470
 1761SOL    HW216743   4.428   1.977   8.713 -2.1390  1.3746  0.1037
 1762SOL     OW16744   4.710   0.250   6.608  0.2364 -0.0555  0.1487
 1762SOL    HW116745   4.658   0.325   6.636 -0.4138 -0.5364  0.2397
 1762SOL    HW216746   4.677   0.234   6.519 -1.5153  3.7268  0.1364
 1763SOL     OW16747   1.943   4.563  12.164 -0.4122  0.2309 -0.1464
 1763SOL    HW116748   1.960   4.483  12.114  0.8787 -0.5722  1.6023
 1763SOL    HW216749   2.015   4.617  12.130 -0.8532  0.6783 -0.3829
 1764SOL     OW16750   0.605   2.137   1.932  0.4270  1.0169  0.4390
 1764SOL    HW116751   0.578   2.229   1.933  2.9647  1.7766 -0.2891
 1764SOL    HW216752   0.679   2.146   1.872 -0.6078  1.2104 -0.8021
 1765SOL     OW16753   3.410   0.218   5.667  0.2134  0.0093  0.2373
 1765SOL    HW116754   3.326   0.263   5.675 -0.0801 -0.5030  0.0747
 1765SOL    HW216755   3.418   0.222   5.572  1.3434 -0.9344  0.2931
 1766SOL     OW16756   1.571   1.307   8.893  0.2696  0.3883 -0.6908
 1766SOL    HW116757   1.535   1.341   8.975 -0.2341 -1.0805 -0.3086
 1766SOL    HW216758   1.527   1.361   8.827 -1.6772 -1.2330 -0.7156
 1767SOL     OW16759   0.900   2.752  14.898  0.9368 -0.2045 -0.2594
 1767SOL    HW116760   0.824   2.803  14.927  2.2041  1.6222 -0.1567
 1767SOL    HW216761   0.911   2.705  14.981  4.5744  0.8431 -0.1328
 1768SOL     OW16762   0.995   3.507   7.355 -0.0400 -0.1664  0.3045
 1768SOL    HW116763   1.039   3.443   7.300 -0.7234  1.5470 -2.2046
 1768SOL    HW216764   0.941   3.456   7.415  0.7392 -1.6428 -0.2528
 1769SOL     OW16765   0.129   1.785   6.695  0.6532  0.2670  0.0155
 1769SOL    HW116766   0.098   1.866   6.655 -2.2796 -1.6606 -1.6428
 1769SOL    HW216767   0.191   1.817   6.760  0.4727 -1.0293  0.8423
 1770SOL     OW16768   1.677   2.069  11.624  0.1846  0.3717 -0.0971
 1770SOL    HW116769   1.668   2.107  11.537  0.4234  0.4451 -0.0886
 1770SOL    HW216770   1.756   2.017  11.612  0.7668  1.2085  0.1448
 1771SOL     OW16771   4.149   1.715  12.035  0.1446  0.1877 -0.3975
 1771SOL    HW116772   4.136   1.785  12.099  0.4872 -1.2300  1.2126
 1771SOL    HW216773   4.117   1.635  12.077 -1.3581  0.7717 -0.3999
 1772SOL     OW16774   4.465   3.031   2.338  0.0139 -0.7390  0.0116
 1772SOL    HW116775   4.401   2.991   2.280  0.5084  0.1331 -1.1626
 1772SOL    HW216776   4.441   2.999   2.424  0.4113 -0.8727  0.0701
 1773SOL     OW16777   2.586   0.562   4.952 -0.6415  0.3948 -0.5265
 1773SOL    HW116778   2.560   0.603   5.035 -0.5997  0.8657 -0.7457
 1773SOL    HW216779   2.513   0.528   4.902  0.0025 -0.1710 -1.0832
 1774SOL     OW16780   1.062   4.557  15.871 -0.3124 -0.2490 -0.2391
 1774SOL    HW116781   1.131   4.557  15.937 -0.5329  0.4237 -0.0073
 1774SOL    HW216782   0.983   4.527  15.915 -0.5462  0.4452 -0.1981
 1775SOL     OW16783   2.067   1.986   8.488  0.2268 -0.1826  0.4624
 1775SOL    HW116784   2.155   1.967   8.523  0.5796  1.6279  0.5880
 1775SOL    HW216785   2.083   2.028   8.403 -0.0765  0.1133  0.5529
 1776SOL     OW16786   0.466   4.527   4.913 -0.0962 -1.0346 -0.1124
 1776SOL    HW116787   0.484   4.601   4.855  4.2905 -0.2817  2.2147
 1776SOL    HW216788   0.545   4.474   4.907  0.7999  0.4959 -1.9527
 1777SOL     OW16789   1.034   4.519   3.331 -0.2453 -0.0982  0.2477
 1777SOL    HW116790   0.995   4.544   3.247 -0.2149  1.2907  0.6514
 1777SOL    HW216791   1.125   4.521   3.302 -0.9888 -0.8736 -2.1317
 1778SOL     OW16792   1.321   0.799   8.857  0.3160 -0.1361  0.4609
 1778SOL    HW116793   1.269   0.780   8.934  1.3205 -1.1314  0.8985
 1778SOL    HW216794   1.276   0.881   8.839 -1.3612 -0.9278  1.0690
 1779SOL     OW16795   3.208   3.239   1.226 -0.0466 -0.3603 -0.2298
 1779SOL    HW116796   3.223   3.332   1.246 -3.4478  0.7367 -2.8036
 1779SOL    HW216797   3.146   3.213   1.295 -0.1285 -1.2290 -0.6384
 1780SOL     OW16798   2.278   0.122   3.162  0.6907  0.3850  0.4194
 1780SOL    HW116799   2.332   0.172   3.224 -1.6839  1.4734  1.5892
 1780SOL    HW216800   2.316   0.034   3.156  0.8229  0.5427 -1.0249
 1781SOL     OW16801   4.127   2.267   4.065  0.4968  0.4272  0.1479
 1781SOL    HW116802   4.066   2.267   3.991  0.1474  0.1546  0.4435
 1781SOL    HW216803   4.178   2.347   4.047  0.3704  0.1629 -1.4285
 1782SOL     OW16804   3.852   3.111   7.688 -0.2441  0.1259  0.2222
 1782SOL    HW116805   3.831   3.038   7.746 -1.1777  1.1792  1.2071
 1782SOL    HW216806   3.884   3.052   7.620 -1.9055 -0.6945  0.1563
 1783SOL     OW16807   4.418   4.159   4.553  0.2961 -0.5640 -0.4771
 1783SOL    HW116808   4.490   4.097   4.553  1.7565  1.1306  0.5715
 1783SOL    HW216809   4.360   4.128   4.482 -2.5552 -0.0184  1.6054
 1784SOL     OW16810   2.465   3.300   6.899 -0.3010  0.0564 -0.4684
 1784SOL    HW116811   2.448   3.327   6.989 -0.1450 -0.8314 -0.1650
 1784SOL    HW216812   2.397   3.346   6.850 -0.2418  0.9264  0.2560
 1785SOL     OW16813   1.517   1.922   5.027  0.0857  0.1490  0.0004
 1785SOL    HW116814   1.493   1.832   5.007 -1.1764  0.9748 -2.2447
 1785SOL    HW216815   1.426   1.952   5.035 -0.2046 -0.9886  0.9515
 1786SOL     OW16816   3.196   0.127   7.480  0.0891 -0.1126  0.1212
 1786SOL    HW116817   3.104   0.115   7.503 -0.1666  0.0703 -0.7860
 1786SOL    HW216818   3.227   0.195   7.540 -2.1254  0.0549  1.0567
 1787SOL     OW16819   2.806   0.034   9.865 -0.0958 -0.0592  0.3338
 1787SOL    HW116820   2.814   0.052   9.959 -0.1557 -0.5048  0.4245
 1787SOL    HW216821   2.712   0.041   9.850  0.3373  3.2403 -0.6938
 1788SOL     OW16822   3.353   0.110   4.900 -0.1492 -0.0881  0.1746
 1788SOL    HW116823   3.394   0.024   4.896 -2.1278 -0.9572 -1.2740
 1788SOL    HW216824   3.419   0.161   4.853 -0.5402  1.7369  1.5682
 1789SOL     OW16825   2.090   1.073   6.345  0.2935  0.6401 -0.2706
 1789SOL    HW116826   2.000   1.072   6.378  0.4443 -0.1743  0.1160
 1789SOL    HW216827   2.075   1.079   6.250  0.5349  0.5751 -0.3120
 1790SOL     OW16828   0.761   2.573   3.687 -0.1465  0.5497 -0.2953
 1790SOL    HW116829   0.775   2.662   3.718  1.9789  0.5905 -1.3509
 1790SOL    HW216830   0.845   2.528   3.703 -1.6801 -2.7489 -1.5240
 1791SOL     OW16831   4.521   3.353   6.804  0.3672  0.0604  0.1161
 1791SOL    HW116832   4.549   3.262   6.791  3.3449  1.0095 -0.0698
 1791SOL    HW216833   4.614   3.375   6.811 -0.0479  1.4432  1.1869
 1792SOL     OW16834   3.796   2.416  14.369  0.1551  0.1910 -0.0362
 1792SOL    HW116835   3.878   2.456  14.400  0.3556  0.6187 -1.0999
 1792SOL    HW216836   3.761   2.389  14.453 -1.1532 -0.5384 -0.8160
 1793SOL     OW16837   2.728   0.921   5.460  0.4571  0.6907  0.0879
 1793SOL    HW116838   2.790   0.970   5.405 -0.5080 -0.0683 -1.6876
 1793SOL    HW216839   2.655   0.983   5.455  0.0246  0.1761  0.1362
 1794SOL     OW16840   2.833   2.436  13.204 -0.4236 -0.2269 -0.2698
 1794SOL    HW116841   2.887   2.515  13.199  1.6878 -1.7206 -1.0124
 1794SOL    HW216842   2.895   2.389  13.259 -0.7140 -0.0370  0.2253
 1795SOL     OW16843   2.441   1.591   4.865  0.4784  0.2577 -0.0567
 1795SOL    HW116844   2.384   1.515   4.852  1.3485 -0.0547 -2.0533
 1795SOL    HW216845   2.507   1.566   4.800 -0.5037 -1.6145 -0.3326
 1796SOL     OW16846   3.888   0.943   5.752  0.4527  0.0691 -0.1267
 1796SOL    HW116847   3.844   0.880   5.695 -0.3815  1.0497 -0.5588
 1796SOL    HW216848   3.956   0.883   5.782  1.0269  0.9246  0.2984
 1797SOL     OW16849   0.965   0.953   3.533  0.3779  0.1708 -0.6575
 1797SOL    HW116850   0.876   0.967   3.498 -0.3377 -2.6990  0.0394
 1797SOL    HW216851   1.020   1.000   3.470  0.1304 -1.2362 -1.9251
 1798SOL     OW16852   1.595   3.315  16.670  0.6849  0.2132  0.3337
 1798SOL    HW116853   1.559   3.296  16.756  2.3825 -3.3609  0.2539
 1798SOL    HW216854   1.666   3.372  16.700  0.0889  0.8999  0.4049
 1799SOL     OW16855   2.080   3.139   2.551  0.1492  0.0742  0.0197
 1799SOL    HW116856   1.995   3.175   2.577  0.8406 -0.1826  2.5773
 1799SOL    HW216857   2.061   3.135   2.457 -1.1605  2.9820  0.1441
 1800SOL     OW16858   1.704   0.906   4.275  0.0192 -0.1059  0.8893
 1800SOL    HW116859   1.769   0.879   4.210  0.3944 -2.3689  2.1910
 1800SOL    HW216860   1.629   0.919   4.217  1.1493  0.2481 -0.4845
 1801SOL     OW16861   3.920   2.957  16.129  0.6068 -0.1778  0.5271
 1801SOL    HW116862   3.839   2.923  16.091 -0.8367  1.5784  2.0083
 1801SOL    HW216863   3.977   2.883  16.107  0.1682 -0.6805  1.0795
 1802SOL     OW16864   0.427   4.238   2.509  0.8122  0.1902  0.1640
 1802SOL    HW116865   0.388   4.321   2.536  0.0430  0.4720 -1.8514
 1802SOL    HW216866   0.454   4.196   2.591 -0.2666 -2.2079 -0.7222
 1803SOL     OW16867   3.906   4.412   2.686  0.3105 -0.2554  0.5588
 1803SOL    HW116868   3.819   4.450   2.696 -0.4132 -1.6209 -0.5423
 1803SOL    HW216869   3.890   4.346   2.754 -0.2387 -0.9275 -0.2155
 1804SOL     OW16870   3.601   1.030   8.447  0.4933 -0.0559  0.6973
 1804SOL    HW116871   3.590   1.058   8.356  0.0335  0.6065  0.9577
 1804SOL    HW216872   3.650   1.103   8.482  1.0371  1.2366 -2.7495
 1805SOL     OW16873   4.082   1.427   6.757  0.4716  0.4022 -0.7185
 1805SOL    HW116874   4.010   1.489   6.745  0.1959  0.1517 -0.3340
 1805SOL    HW216875   4.125   1.460   6.835 -2.3776  0.5803  0.7573
 1806SOL     OW16876   3.128   3.988   4.412 -0.1825  0.0227 -0.0033
 1806SOL    HW116877   3.055   4.031   4.458  0.6216 -0.4277  1.6841
 1806SOL    HW216878   3.140   4.048   4.338 -0.2628 -0.2650 -0.2476
 1807SOL     OW16879   2.075   3.023   5.185  0.0240 -0.5173 -0.2662
 1807SOL    HW116880   2.088   2.933   5.157 -0.9765 -1.1248  1.2163
 1807SOL    HW216881   2.152   3.061   5.143 -0.1324 -0.3725 -0.4225
 1808SOL     OW16882   1.408   1.987   8.022 -0.3251  0.1751  0.1041
 1808SOL    HW116883   1.346   2.015   7.954  0.7083 -1.0444 -1.3407
 1808SOL    HW216884   1.453   2.066   8.054 -0.3509  0.7639 -1.3183
 1809SOL     OW16885   4.035   2.770   8.196 -0.2597  0.3918 -0.2425
 1809SOL    HW116886   4.006   2.733   8.280  0.7406 -0.3735 -0.2232
 1809SOL    HW216887   4.013   2.861   8.215 -1.2482 -0.0297  0.6167
 1810SOL     OW16888   4.439   2.981  16.187 -0.0710 -0.0161 -0.3803
 1810SOL    HW116889   4.358   3.011  16.228  1.0535  1.0836  1.0594
 1810SOL    HW216890   4.500   3.051  16.211  1.2264 -1.5057  0.7663
 1811SOL     OW16891   4.172   0.247   9.115  0.6237  0.1548  0.5543
 1811SOL    HW116892   4.090   0.296   9.103 -0.4383 -1.2271  2.1036
 1811SOL    HW216893   4.162   0.187   9.041  1.3637  3.6831 -2.4291
 1812SOL     OW16894   0.129   3.701  15.120  0.2595  0.1966 -0.1263
 1812SOL    HW116895   0.135   3.772  15.057  1.4429  1.2776  1.1795
 1812SOL    HW216896   0.062   3.641  15.088  1.1277 -0.5276 -0.5994
 1813SOL     OW16897   0.482   4.580  12.983 -0.4101  0.1194 -0.1664
 1813SOL    HW116898   0.425   4.512  12.947  0.4630 -1.4930  1.4789
 1813SOL    HW216899   0.516   4.608  12.898 -0.0156 -0.6260 -0.2605
 1814SOL     OW16900   0.737   0.749   5.037  0.4317 -0.0357  0.0726
 1814SOL    HW116901   0.673   0.786   5.098 -0.4720 -0.3978 -0.6524
 1814SOL    HW216902   0.681   0.739   4.961 -1.2934  1.5602  1.1251
 1815SOL     OW16903   3.343   3.787   1.768 -0.1348  0.3862  0.2563
 1815SOL    HW116904   3.307   3.875   1.777 -0.5505  0.3972 -1.5219
 1815SOL    HW216905   3.266   3.741   1.800 -0.2981  1.6436  1.6438
 1816SOL     OW16906   0.832   0.267   7.901 -0.1012  0.0630  0.6952
 1816SOL    HW116907   0.917   0.244   7.939 -1.0979 -1.8639  1.7613
 1816SOL    HW216908   0.850   0.303   7.815  0.2759  0.9284  1.1363
 1817SOL     OW16909   2.549   3.301   1.391 -0.0480 -0.6197 -0.4358
 1817SOL    HW116910   2.547   3.227   1.452 -2.2799 -1.3824 -1.4496
 1817SOL    HW216911   2.461   3.338   1.400 -0.1453 -0.9764  0.1135
 1818SOL     OW16912   3.269   1.476   2.720 -0.1146  0.2832  0.4943
 1818SOL    HW116913   3.257   1.554   2.665 -0.5072 -1.4493 -1.8639
 1818SOL    HW216914   3.223   1.409   2.671 -2.7852  3.5109 -1.4466
 1819SOL     OW16915   3.207   1.844   9.020 -0.5492 -0.3101  0.4188
 1819SOL    HW116916   3.208   1.938   9.004  1.5231 -0.6927 -1.7380
 1819SOL    HW216917   3.292   1.823   8.982 -0.4745  0.8912 -0.0456
 1820SOL     OW16918   2.954   4.533   8.541  0.0151  0.4148 -0.4243
 1820SOL    HW116919   2.935   4.614   8.494 -0.3061 -0.4810 -1.8302
 1820SOL    HW216920   2.869   4.490   8.533 -1.0192  2.5232 -0.5491
 1821SOL     OW16921   4.241   0.874   2.510 -0.4639 -0.2739  0.2673
 1821SOL    HW116922   4.250   0.960   2.550 -1.3233  0.0352 -0.2028
 1821SOL    HW216923   4.335   0.857   2.515 -0.9381 -2.7612  0.9739
 1822SOL     OW16924   2.968   1.484   0.091 -0.2362  0.4133 -0.3741
 1822SOL    HW116925   2.917   1.437   0.025  1.0093  1.5867 -2.1722
 1822SOL    HW216926   3.018   1.411   0.127  1.2091  2.1234  1.0860
 1823SOL     OW16927   3.936   4.703   3.469  0.3401  0.3374  0.1002
 1823SOL    HW116928   4.016   4.663   3.433  1.7646  0.5975  2.9553
 1823SOL    HW216929   3.906   4.624   3.515 -1.9656  1.2605  0.1463
 1824SOL     OW16930   2.081   2.270  12.511  0.1503  0.5022 -0.3279
 1824SOL    HW116931   2.100   2.272  12.604 -3.1678 -1.4618  0.4146
 1824SOL    HW216932   1.998   2.317  12.510 -1.1610 -1.8018  3.2264
 1825SOL     OW16933   2.011   4.565   2.214 -0.4165  0.0917  0.1460
 1825SOL    HW116934   1.948   4.562   2.142  0.9258  1.3602 -1.0731
 1825SOL    HW216935   2.073   4.626   2.175 -1.1022  0.7753  0.1337
 1826SOL     OW16936   2.916   4.188   4.179 -0.2925  0.3094  0.0263
 1826SOL    HW116937   2.975   4.243   4.127 -1.2192  2.1994  0.9885
 1826SOL    HW216938   2.894   4.248   4.250  0.4892 -1.7615  2.0045
 1827SOL     OW16939   1.614   3.611  17.205  0.3452 -0.5904 -0.2498
 1827SOL    HW116940   1.570   3.649  17.129 -0.9294  1.3504  1.4697
 1827SOL    HW216941   1.705   3.635  17.189 -0.2697  2.4759  0.9300
 1828SOL     OW16942   1.989   0.778   6.140 -0.4924 -0.4659  0.7644
 1828SOL    HW116943   1.963   0.714   6.074  2.1332  1.0054 -1.7273
 1828SOL    HW216944   1.907   0.808   6.179 -0.5399 -1.4961  1.4404
 1829SOL     OW16945   4.643   1.858   0.615 -0.7711  0.7526 -0.0850
 1829SOL    HW116946   4.607   1.925   0.673  1.6293  1.3217  0.7427
 1829SOL    HW216947   4.693   1.920   0.562  0.0799  0.6569  0.6065
 1830SOL     OW16948   2.374   2.227   7.087  0.0070 -0.5935 -0.1380
 1830SOL    HW116949   2.389   2.310   7.132 -0.6153 -0.1231 -0.7941
 1830SOL    HW216950   2.301   2.192   7.137 -1.3997  1.0401 -1.0438
 1831SOL     OW16951   1.317   2.715   0.107  0.5803  0.5501 -0.1769
 1831SOL    HW116952   1.227   2.687   0.125  0.5496  0.3682 -0.5982
 1831SOL    HW216953   1.327   2.651   0.037 -0.1909 -3.8287  3.7454
 1832SOL     OW16954   2.149   1.995   1.075  0.5958  0.4152  0.4328
 1832SOL    HW116955   2.058   2.015   1.094  0.0041 -2.4713  0.5437
 1832SOL    HW216956   2.201   2.069   1.107 -0.0974  0.2949  1.8167
 1833SOL     OW16957   1.087   2.093  13.885 -0.9606 -0.4042 -0.0365
 1833SOL    HW116958   1.125   2.006  13.879 -0.6145 -0.3665  1.6807
 1833SOL    HW216959   1.097   2.126  13.795 -4.3414  1.3618  0.2018
 1834SOL     OW16960   4.191   2.039  10.224 -0.6687  0.0363 -0.3699
 1834SOL    HW116961   4.226   1.958  10.187 -2.1249  0.5000 -2.7315
 1834SOL    HW216962   4.171   2.090  10.145 -0.5289 -1.8712 -1.6313
 1835SOL     OW16963   4.544   2.073   0.783  0.2728 -0.3680 -0.5448
 1835SOL    HW116964   4.628   2.118   0.793  0.0771 -0.1747  0.2599
 1835SOL    HW216965   4.502   2.142   0.733 -2.3857 -0.3543  1.7098
 1836SOL     OW16966   4.497   1.875   7.983 -0.5611 -0.3578  0.2455
 1836SOL    HW116967   4.555   1.820   7.929  0.2495 -1.4316  2.2031
 1836SOL    HW216968   4.522   1.849   8.072 -0.5061  1.8099  0.8635
 1837SOL     OW16969   1.403   2.074   4.219  0.3424  0.4129 -0.1971
 1837SOL    HW116970   1.358   2.045   4.299 -0.3896  1.5967 -0.1755
 1837SOL    HW216971   1.347   2.149   4.197  0.0638 -0.2212 -1.6630
 1838SOL     OW16972   1.940   3.753   6.011  0.1417  0.3635  0.4893
 1838SOL    HW116973   1.984   3.825   5.965 -0.0483  0.1581 -0.0117
 1838SOL    HW216974   1.935   3.686   5.943  1.6968  1.6300 -0.8553
 1839SOL     OW16975   3.435   1.210   3.978 -0.2742 -0.5032 -0.0371
 1839SOL    HW116976   3.456   1.232   3.887 -0.0383  0.2646  0.2083
 1839SOL    HW216977   3.410   1.293   4.017 -2.3473 -2.2013  2.2474
 1840SOL     OW16978   0.955   2.957  17.516 -0.2589 -0.0944 -0.2217
 1840SOL    HW116979   1.044   2.964  17.549 -0.8686  2.2404  0.9121
 1840SOL    HW216980   0.913   2.940  17.600 -1.3104 -1.3466 -0.9842
 1841SOL     OW16981   3.924   1.726  10.330  0.0327  0.0935 -0.5804
 1841SOL    HW116982   3.870   1.785  10.383 -0.3283 -2.3304  1.7496
 1841SOL    HW216983   3.965   1.788  10.270  1.1064  0.1880  0.2445
 1842SOL     OW16984   3.575   0.303  14.061  0.1774 -0.4845  0.3246
 1842SOL    HW116985   3.600   0.265  13.977  0.8624  1.0815 -0.1735
 1842SOL    HW216986   3.651   0.315  14.118 -0.0150  1.1080  0.2612
 1843SOL     OW16987   0.314   1.172  16.360  0.1944  0.6245 -0.7684
 1843SOL    HW116988   0.234   1.134  16.325  1.1607 -2.0384 -0.1018
 1843SOL    HW216989   0.278   1.247  16.407 -0.5584  0.3354 -0.8875
 1844SOL     OW16990   0.115   0.009  16.655 -0.7499  0.1859  0.1583
 1844SOL    HW116991   0.071   0.082  16.611  0.6694  1.0258  0.1319
 1844SOL    HW216992   0.199   0.018  16.610 -0.5745 -0.9605  0.2619
 1845SOL     OW16993   0.117   1.029   8.182 -0.2814  0.1408  0.2385
 1845SOL    HW116994   0.171   1.103   8.153  1.9269 -1.3273  0.6086
 1845SOL    HW216995   0.027   1.062   8.184 -0.1428  0.4756  1.0743
 1846SOL     OW16996   1.436   1.512   3.154  0.2226  0.5839  0.1760
 1846SOL    HW116997   1.443   1.527   3.060  3.6235 -0.9542  0.2050
 1846SOL    HW216998   1.444   1.417   3.151 -0.1820  0.5764 -0.7825
 1847SOL     OW16999   3.617   4.504  10.776  0.0487  0.1666  0.3028
 1847SOL    HW117000   3.709   4.532  10.780  0.1346  0.1567 -1.5726
 1847SOL    HW217001   3.607   4.439  10.845 -1.9514 -1.1569 -1.2441
 1848SOL     OW17002   3.633   3.216   8.019  0.0330 -0.3624 -0.2983
 1848SOL    HW117003   3.614   3.237   7.928 -1.5089  0.8593  0.2910
 1848SOL    HW217004   3.578   3.138   8.019  0.5519 -0.7286 -0.2011
 1849SOL     OW17005   2.502   3.966  15.589  0.1896 -0.0195  0.4843
 1849SOL    HW117006   2.548   4.042  15.553 -0.9791 -0.7709 -2.5580
 1849SOL    HW217007   2.574   3.935  15.645  0.6637 -0.6843 -0.4862
 1850SOL     OW17008   4.603   2.844   0.829  0.2137  0.0736 -0.6184
 1850SOL    HW117009   4.536   2.872   0.891  0.8187  0.6620 -0.2245
 1850SOL    HW217010   4.675   2.887   0.876  0.6434 -1.7675  0.4633
 1851SOL     OW17011   1.982   3.089   3.954 -0.2138  0.2526  0.4026
 1851SOL    HW117012   1.915   3.079   3.887 -0.4086  1.4650  0.4034
 1851SOL    HW217013   2.014   3.176   3.929  0.7826 -0.6924 -1.6893
 1852SOL     OW17014   0.895   1.137   0.440  0.3960  0.0217 -0.2164
 1852SOL    HW117015   0.861   1.213   0.392 -2.3698 -0.8232  0.3809
 1852SOL    HW217016   0.960   1.181   0.494  1.2511  0.9622 -2.0091
 1853SOL     OW17017   0.289   1.544   9.851  0.0952 -0.1770  0.7595
 1853SOL    HW117018   0.270   1.498   9.769 -2.3207 -0.0238  1.2136
 1853SOL    HW217019   0.229   1.619   9.842  2.4658  1.8344  1.7264
 1854SOL     OW17020   3.000   3.368   6.184  0.1990  0.4220  0.2661
 1854SOL    HW117021   2.915   3.339   6.151 -0.6600  0.2605  2.5927
 1854SOL    HW217022   2.984   3.462   6.191  0.3432  0.4430  0.3216
 1855SOL     OW17023   0.820   4.099   4.147  0.2113 -0.2578 -0.2614
 1855SOL    HW117024   0.743   4.043   4.139  0.1732 -0.4309  1.3595
 1855SOL    HW217025   0.872   4.063   4.075  0.6116  1.2124 -0.7210
 1856SOL     OW17026   1.015   2.413   7.350 -0.1061  0.1450  0.1590
 1856SOL    HW117027   1.091   2.449   7.396 -0.5272  0.3485  0.6966
 1856SOL    HW217028   0.942   2.465   7.386 -0.6198 -0.9057  0.6403
 1857SOL     OW17029   1.939   1.449   2.104  0.0147  0.0551  0.4987
 1857SOL    HW117030   1.881   1.487   2.170  0.8275 -1.5762  2.1591
 1857SOL    HW217031   1.985   1.385   2.158  1.1710 -1.4523 -2.2712
 1858SOL     OW17032   0.116   3.656   1.133 -0.4690  0.4358 -0.0215
 1858SOL    HW117033   0.070   3.645   1.216 -0.8404 -2.4726 -0.6087
 1858SOL    HW217034   0.205   3.632   1.160  0.3291  1.9930 -1.2090
 1859SOL     OW17035   1.698   1.207   4.591 -0.3945  0.1164 -0.0183
 1859SOL    HW117036   1.711   1.301   4.580 -1.5976  0.1991 -0.6595
 1859SOL    HW217037   1.775   1.169   4.550 -0.2416 -0.2871  0.6333
 1860SOL     OW17038   2.187   0.290   8.147 -0.1010  0.1594  0.1890
 1860SOL    HW117039   2.167   0.382   8.161 -1.2466 -0.3851  2.1547
 1860SOL    HW217040   2.203   0.263   8.237  0.5924  1.3052  0.4016
 1861SOL     OW17041   2.254   0.219   8.422 -0.3058  0.5811  1.2177
 1861SOL    HW117042   2.203   0.174   8.489  0.7827 -1.0689  0.9392
 1861SOL    HW217043   2.346   0.216   8.448 -0.2417  0.6216  0.9955
 1862SOL     OW17044   2.033   2.646   6.277 -0.1978 -0.0174  0.0734
 1862SOL    HW117045   2.102   2.590   6.313 -1.6682  0.1496  3.1175
 1862SOL    HW217046   2.061   2.657   6.186 -2.3458  0.9474 -0.4586
 1863SOL     OW17047   1.882   2.343   5.828 -0.1256 -0.0258 -0.2478
 1863SOL    HW117048   1.862   2.335   5.921  2.5051  0.0136  0.3172
 1863SOL    HW217049   1.922   2.256   5.815  1.8292  0.8535 -0.0616
 1864SOL     OW17050   4.521   3.067   5.378 -0.0368  0.7199 -0.1810
 1864SOL    HW117051   4.537   2.974   5.397  1.2588  0.7656 -1.0949
 1864SOL    HW217052   4.611   3.093   5.394  0.1779  0.0223 -0.2392
 1865SOL     OW17053   0.146   3.647  13.020  0.2425  0.3147  0.1761
 1865SOL    HW117054   0.232   3.604  13.020 -0.3886 -0.9034 -1.8077
 1865SOL    HW217055   0.170   3.740  13.013  1.4979  0.0106  0.3985
 1866SOL     OW17056   3.694   1.563   8.029 -0.3612  0.5094  0.9249
 1866SOL    HW117057   3.632   1.635   8.037  0.3930  1.3301 -0.5386
 1866SOL    HW217058   3.760   1.596   8.089 -0.7230 -0.4292  1.8352
 1867SOL     OW17059   3.603   2.947   5.796 -0.5249  0.2321 -0.3303
 1867SOL    HW117060   3.509   2.965   5.791 -0.6768  0.5708  3.5411
 1867SOL    HW217061   3.596   2.859   5.758  3.0162 -1.5769  3.1394
 1868SOL     OW17062   4.230   0.433   1.670 -0.0672 -0.6458 -0.1683
 1868SOL    HW117063   4.174   0.466   1.600 -0.5489  1.7046  1.3254
 1868SOL    HW217064   4.220   0.338   1.671 -0.5246 -0.5889  0.7713
 1869SOL     OW17065   4.232   0.251   8.032  0.6007  0.3017 -0.3468
 1869SOL    HW117066   4.264   0.173   7.986 -0.9670  0.5339 -1.8059
 1869SOL    HW217067   4.300   0.265   8.098 -1.1262  2.1779  1.0295
 1870SOL     OW17068   2.457   3.433   1.825  0.4364 -0.6169 -0.7490
 1870SOL    HW117069   2.422   3.520   1.810 -0.1952 -0.3498  2.2642
 1870SOL    HW217070   2.386   3.372   1.807  0.9032 -0.7829 -2.0506
 1871SOL     OW17071   3.518   0.033   4.661  0.2923  0.7723 -0.5563
 1871SOL    HW117072   3.510   4.665   4.629 -1.2854  0.4713  0.7109
 1871SOL    HW217073   3.602   0.051   4.619  1.5617  1.7241  2.3890
 1872SOL     OW17074   2.473   2.076  12.294  0.6414 -0.1791  0.2680
 1872SOL    HW117075   2.413   2.016  12.337 -0.9092  1.1736 -0.0110
 1872SOL    HW217076   2.477   2.140  12.366  4.3359 -0.7396  0.5536
 1873SOL     OW17077   2.448   1.204   1.335  0.1513  0.3299 -0.0579
 1873SOL    HW117078   2.455   1.187   1.241 -2.0951  0.2466 -0.2225
 1873SOL    HW217079   2.538   1.230   1.353 -0.6001  2.6501  0.3551
 1874SOL     OW17080   2.622   2.020   5.699 -0.2306 -0.4036 -0.2313
 1874SOL    HW117081   2.714   2.010   5.720 -0.2151  3.4109  1.4872
 1874SOL    HW217082   2.621   2.112   5.675  0.8878 -0.1924  0.5755
 1875SOL     OW17083   2.089   2.698   8.200 -0.1925  0.1941  0.4554
 1875SOL    HW117084   2.035   2.772   8.172 -1.1358 -1.1460 -1.2714
 1875SOL    HW217085   2.078   2.697   8.295 -1.7735 -1.4910  0.2694
 1876SOL     OW17086   3.775   3.977   7.773  0.4682 -0.1780 -0.1044
 1876SOL    HW117087   3.863   3.941   7.768  0.4480 -0.1772 -0.4343
 1876SOL    HW217088   3.802   4.057   7.818  0.8304  0.3995 -1.3629
 1877SOL     OW17089   3.762   3.952  12.139  0.1429  0.4427  0.2051
 1877SOL    HW117090   3.739   4.030  12.189  0.4837 -0.2805  1.4821
 1877SOL    HW217091   3.704   3.976  12.066  0.9434  1.8782  0.0232
 1878SOL     OW17092   2.633   2.021  11.183  0.0767  0.1296 -0.0898
 1878SOL    HW117093   2.567   2.090  11.190  0.8149  0.7523  0.8075
 1878SOL    HW217094   2.688   2.049  11.111 -0.3509 -0.2712 -0.5753
 1879SOL     OW17095   4.530   3.740  12.246 -0.1461  0.0994  0.3096
 1879SOL    HW117096   4.495   3.667  12.194  0.8896  1.5164 -2.3990
 1879SOL    HW217097   4.475   3.807  12.206 -0.5496 -0.2443  0.2875
 1880SOL     OW17098   3.625   0.176   1.582 -0.4343 -0.3675  0.6962
 1880SOL    HW117099   3.607   0.099   1.529 -0.5967  0.1346  0.0286
 1880SOL    HW217100   3.720   0.170   1.575 -0.2707  1.4799  1.2650
 1881SOL     OW17101   2.244   2.245   2.055 -0.0567  0.3632  0.0474
 1881SOL    HW117102   2.270   2.267   1.965 -0.4583  0.9175  0.0624
 1881SOL    HW217103   2.264   2.328   2.098 -1.1052  1.7232 -2.0805
 1882SOL     OW17104   1.271   2.316   4.252  0.2713  0.1842 -0.0531
 1882SOL    HW117105   1.314   2.334   4.336 -2.2320  0.1534  1.2102
 1882SOL    HW217106   1.177   2.312   4.270 -0.1584  0.7045 -2.2194
 1883SOL     OW17107   1.259   2.809   6.034 -0.1266 -0.4876  0.3458
 1883SOL    HW117108   1.285   2.720   6.012 -2.0922 -0.7465 -0.9202
 1883SOL    HW217109   1.218   2.797   6.119  1.0133  0.5868  1.0543
 1884SOL     OW17110   0.169   3.082   7.553 -0.1664 -0.4828 -0.6095
 1884SOL    HW117111   0.113   3.146   7.596  0.8983  1.4663 -2.0779
 1884SOL    HW217112   0.228   3.140   7.504 -3.4347  1.2825 -2.4357
 1885SOL     OW17113   1.066   2.040   3.904 -0.5021  0.1124 -0.1046
 1885SOL    HW117114   1.114   2.055   3.822 -0.8407 -1.4015 -0.5742
 1885SOL    HW217115   0.979   2.063   3.872  0.4549  2.2729 -1.1876
 1886SOL     OW17116   1.161   2.424  15.989 -0.3485  0.3477  0.3281
 1886SOL    HW117117   1.232   2.443  16.050 -0.6077 -0.9408  1.0432
 1886SOL    HW217118   1.161   2.329  15.999 -1.9374  0.1534 -1.5226
 1887SOL     OW17119   2.745   1.585   4.418  0.5881 -0.3480  0.0978
 1887SOL    HW117120   2.753   1.494   4.389  3.4721  0.1954 -0.8092
 1887SOL    HW217121   2.785   1.635   4.348  1.3491 -0.0099  0.7769
 1888SOL     OW17122   2.913   4.286  10.035 -0.2108  0.1119  0.1959
 1888SOL    HW117123   2.936   4.379  10.033 -3.0262  0.8483  1.3280
 1888SOL    HW217124   2.969   4.258  10.107  0.7734 -0.7556 -0.9048
 1889SOL     OW17125   4.531   4.061  12.976 -0.2367  0.6792 -0.6656
 1889SOL    HW117126   4.518   4.150  13.008 -2.3890 -1.0079  3.2453
 1889SOL    HW217127   4.506   4.071  12.884 -1.4820  2.0854 -0.1693
 1890SOL     OW17128   0.317   3.476   2.851  0.0546  0.0299 -0.4366
 1890SOL    HW117129   0.244   3.537   2.846 -0.3416 -0.1362  3.5860
 1890SOL    HW217130   0.300   3.449   2.941  1.1064  0.1620 -0.1923
 1891SOL     OW17131   0.456   1.471   8.761  0.4300  0.0785 -0.1619
 1891SOL    HW117132   0.426   1.388   8.799  3.0921 -1.3430 -1.1863
 1891SOL    HW217133   0.545   1.478   8.795  0.4779 -2.0270  0.1814
 1892SOL     OW17134   1.563   0.679   6.894 -0.0767 -0.3710 -0.5581
 1892SOL    HW117135   1.499   0.649   6.959  1.1790  1.5868  1.5772
 1892SOL    HW217136   1.540   0.623   6.820 -1.3640  0.8331 -1.0713
 1893SOL     OW17137   4.670   2.682   6.253 -0.1773  0.1636  0.0002
 1893SOL    HW117138   4.656   2.614   6.186  0.6717 -1.9311  1.9724
 1893SOL    HW217139   4.595   2.734   6.225  0.0076 -0.1858 -1.1836
 1894SOL     OW17140   1.017   1.108  12.235 -0.3547 -0.2156  0.0761
 1894SOL    HW117141   1.003   1.203  12.231 -0.9114 -0.3120 -0.3259
 1894SOL    HW217142   0.987   1.081  12.148 -1.2632 -0.1440  0.3636
 1895SOL     OW17143   1.744   0.712  14.124 -0.0027  0.2491  0.2518
 1895SOL    HW117144   1.656   0.681  14.145  0.0620  0.2201  0.4796
 1895SOL    HW217145   1.733   0.758  14.040  0.1860  3.2937  1.8970
 1896SOL     OW17146   1.815   2.405   5.358  0.2164 -0.4803 -0.4248
 1896SOL    HW117147   1.866   2.349   5.299  1.7583 -1.2074  1.5925
 1896SOL    HW217148   1.754   2.452   5.303  1.5726  0.3824 -1.1850
 1897SOL     OW17149   1.180   1.547   6.299  1.0021  0.2418 -0.5047
 1897SOL    HW117150   1.191   1.599   6.219 -2.7477  0.2432 -0.9916
 1897SOL    HW217151   1.149   1.613   6.360 -0.1055 -1.8835  1.2186
 1898SOL     OW17152   1.488   4.375   5.287 -0.4765 -0.0166 -0.0998
 1898SOL    HW117153   1.426   4.443   5.314  1.6426  1.9559 -0.2045
 1898SOL    HW217154   1.493   4.328   5.371 -0.0543 -2.9686 -1.7851
 1899SOL     OW17155   0.417   2.970   3.172  0.4550  0.2884  0.3599
 1899SOL    HW117156   0.331   2.963   3.130  0.2783 -0.0138  0.7700
 1899SOL    HW217157   0.409   2.889   3.223 -0.0783 -0.3233 -0.6929
 1900SOL     OW17158   0.942   4.437   8.386 -0.2384  0.0880 -0.4732
 1900SOL    HW117159   0.932   4.529   8.410  3.7134  0.7143 -1.1955
 1900SOL    HW217160   0.963   4.448   8.293  2.6718 -0.2718  0.1507
 1901SOL     OW17161   1.546   2.977  17.661 -0.0094 -0.0687  0.2792
 1901SOL    HW117162   1.559   2.920   0.048 -2.4420  0.0949  0.8369
 1901SOL    HW217163   1.572   3.058   0.018 -0.3439  0.3641 -0.2979
 1902SOL     OW17164   4.455   0.967   4.238  0.0579 -0.4886 -0.3059
 1902SOL    HW117165   4.423   1.050   4.274 -0.2093 -0.5134 -0.4903
 1902SOL    HW217166   4.395   0.914   4.291 -0.8079  1.1339  0.3590
 1903SOL     OW17167   2.156   4.168   2.064 -0.3023  0.2039 -0.5030
 1903SOL    HW117168   2.082   4.108   2.070  0.1071 -0.5041 -2.4296
 1903SOL    HW217169   2.187   4.160   1.974  0.0566  0.4684 -0.4024
 1904SOL     OW17170   4.472   1.690   7.011 -0.3454  0.1426 -0.4451
 1904SOL    HW117171   4.519   1.702   6.928 -0.5846 -0.3888 -0.6576
 1904SOL    HW217172   4.500   1.766   7.061 -0.4218  1.5228 -2.5127
 1905SOL     OW17173   3.053   1.892   4.049  0.1074  0.3026  0.5502
 1905SOL    HW117174   3.095   1.969   4.087 -0.4792  0.3564  1.1002
 1905SOL    HW217175   2.972   1.936   4.024 -0.8985 -0.9799  1.5205
 1906SOL     OW17176   0.176   2.249   5.276  0.2972 -0.9150  0.3258
 1906SOL    HW117177   0.163   2.283   5.365  1.1330 -1.3895  0.6332
 1906SOL    HW217178   0.272   2.254   5.273  0.4157 -1.5158  2.7670
 1907SOL     OW17179   2.333   4.311   9.517 -0.1178 -0.0367 -1.0056
 1907SOL    HW117180   2.269   4.288   9.584  0.1030 -0.4178 -0.9271
 1907SOL    HW217181   2.366   4.228   9.483  0.2263 -0.4908  0.4463
 1908SOL     OW17182   2.977   4.550   9.986 -0.7471 -0.3879 -0.0978
 1908SOL    HW117183   2.939   4.621   9.935 -1.2963 -0.3479  0.3783
 1908SOL    HW217184   2.993   4.494   9.910 -0.8013 -3.1349  1.9037
 1909SOL     OW17185   1.677   4.281  10.222  0.5215  0.2056 -0.2286
 1909SOL    HW117186   1.634   4.249  10.143  0.1586 -0.6319  0.3045
 1909SOL    HW217187   1.761   4.235  10.226 -0.5040 -1.4483  2.2673
 1910SOL     OW17188   0.639   0.672   2.050 -0.1643 -0.3511  0.1158
 1910SOL    HW117189   0.727   0.677   2.088  0.0143  1.6401 -0.5892
 1910SOL    HW217190   0.668   0.643   1.964 -0.1339  1.6943 -0.5574
 1911SOL     OW17191   1.838   1.768   5.876 -0.0733  0.3430 -0.9615
 1911SOL    HW117192   1.755   1.738   5.913  1.0071  0.0418  1.2774
 1911SOL    HW217193   1.818   1.766   5.783  0.7122  2.2456 -1.1757
 1912SOL     OW17194   2.110   4.014  13.350 -0.3257 -0.8430  0.1115
 1912SOL    HW117195   2.079   3.931  13.315 -0.1604  0.0914 -2.2378
 1912SOL    HW217196   2.041   4.031  13.415 -0.4373 -1.1998  0.0847
 1913SOL     OW17197   3.134   2.324   1.654  0.2428 -0.7248 -0.6876
 1913SOL    HW117198   3.208   2.289   1.604  1.1879  1.3182 -0.7119
 1913SOL    HW217199   3.080   2.336   1.575 -1.4131  1.9566  0.8749
 1914SOL     OW17200   4.133   3.312   4.801 -0.0719  0.0475  0.2738
 1914SOL    HW117201   4.228   3.307   4.787 -0.4427 -1.9141 -1.5758
 1914SOL    HW217202   4.129   3.339   4.893 -2.2401  1.4432 -0.2460
 1915SOL     OW17203   2.914   3.904   6.494  0.3239  0.1432 -0.3514
 1915SOL    HW117204   2.916   3.822   6.544  2.2601  0.4425  0.0534
 1915SOL    HW217205   2.825   3.934   6.512  0.4372  1.2623 -1.6407
 1916SOL     OW17206   2.614   0.793   7.561 -0.0465 -0.2154  0.7691
 1916SOL    HW117207   2.566   0.715   7.533 -1.7161  0.5515  1.5431
 1916SOL    HW217208   2.539   0.843   7.591 -0.9937 -1.8655  1.1818
 1917SOL     OW17209   2.779   4.041   3.310 -0.1797  0.1190 -0.4152
 1917SOL    HW117210   2.785   3.946   3.321 -2.1132 -0.0745 -0.9432
 1917SOL    HW217211   2.829   4.072   3.386  0.0221  0.8560 -0.8475
 1918SOL     OW17212   3.924   1.991   3.182  0.4654  0.7134 -0.0449
 1918SOL    HW117213   3.862   2.003   3.110 -1.1201 -0.0416  1.1874
 1918SOL    HW217214   3.991   1.943   3.134  0.0017  0.7661 -0.7420
 1919SOL     OW17215   3.169   2.984   3.813  0.5261 -0.1318 -0.2048
 1919SOL    HW117216   3.095   2.937   3.851  1.6111 -0.6904  1.1866
 1919SOL    HW217217   3.228   3.002   3.886  0.7144 -1.8864  0.0601
 1920SOL     OW17218   2.363   4.634  13.829 -0.1269 -0.0940 -0.0571
 1920SOL    HW117219   2.455   4.636  13.804 -0.5488 -1.0673 -1.6886
 1920SOL    HW217220   2.336   4.552  13.787 -0.0651 -0.2878  0.2843
 1921SOL     OW17221   3.610   2.498   7.294 -0.1652  0.6765 -0.0022
 1921SOL    HW117222   3.543   2.430   7.292 -0.6431  1.1653 -0.4486
 1921SOL    HW217223   3.689   2.459   7.256  0.1329  0.0014  1.2809
 1922SOL     OW17224   3.224   0.052  17.433 -0.3095  0.2195 -0.1741
 1922SOL    HW117225   3.161   0.055  17.505  0.0063 -1.1185  0.1653
 1922SOL    HW217226   3.186   4.712  17.370  0.5056 -0.3477 -0.1021
 1923SOL     OW17227   1.756   2.646  15.122  0.4393  0.4621 -0.4717
 1923SOL    HW117228   1.729   2.607  15.205  1.1981  0.5075 -0.2111
 1923SOL    HW217229   1.708   2.729  15.125  0.5738  0.5007  0.5064
 1924SOL     OW17230   2.716   1.958   5.312  0.1820  0.2223  0.4964
 1924SOL    HW117231   2.629   1.919   5.325  1.5172 -2.8712  0.1921
 1924SOL    HW217232   2.719   1.942   5.218 -0.5926 -1.0786  0.6870
 1925SOL     OW17233   4.510   3.642   8.272 -0.8228 -0.1140  0.6077
 1925SOL    HW117234   4.566   3.719   8.281 -1.5968  0.6446 -1.0926
 1925SOL    HW217235   4.444   3.680   8.213 -2.5292 -2.9716  0.6575
 1926SOL     OW17236   1.124   1.390   7.245  0.5430  0.3271 -0.6273
 1926SOL    HW117237   1.168   1.331   7.184 -0.9212 -2.3317  0.8811
 1926SOL    HW217238   1.038   1.394   7.204  1.5476 -0.0530 -2.7284
 1927SOL     OW17239   0.009   2.198  10.635  0.0092  0.0119 -0.4197
 1927SOL    HW117240   4.671   2.257  10.681  0.1685  0.5768 -0.9288
 1927SOL    HW217241   0.091   2.247  10.638 -0.0447 -0.0160  1.4168
 1928SOL     OW17242   2.601   1.339   0.909 -0.1860 -0.0623  0.2968
 1928SOL    HW117243   2.581   1.250   0.939 -1.4009 -0.4534 -1.6690
 1928SOL    HW217244   2.624   1.326   0.817  1.6157  0.8735  0.6218
 1929SOL     OW17245   1.611   0.278   7.631  0.2633 -0.0061  0.0671
 1929SOL    HW117246   1.540   0.340   7.647  2.7430  2.6863  0.4910
 1929SOL    HW217247   1.623   0.287   7.537  0.0002  1.0119  0.1339
 1930SOL     OW17248   1.894   1.846   6.152  0.7483 -0.7390  0.1595
 1930SOL    HW117249   1.873   1.826   6.060  0.4204 -2.0327  0.5178
 1930SOL    HW217250   1.961   1.911   6.136  0.8218 -0.4810  1.5644
 1931SOL     OW17251   4.427   1.512   8.383 -0.5124 -0.8855 -0.4893
 1931SOL    HW117252   4.396   1.469   8.304 -1.1908 -0.3072 -0.5352
 1931SOL    HW217253   4.345   1.522   8.431  0.3186 -0.3800  0.8482
 1932SOL     OW17254   3.489   4.507   4.580  0.2361 -0.1151  0.3575
 1932SOL    HW117255   3.516   4.471   4.495  0.3046  2.2249 -0.6171
 1932SOL    HW217256   3.511   4.442   4.647 -1.9114  0.0889  1.2404
 1933SOL     OW17257   0.815   2.802   6.547 -0.6885 -0.0197  0.1001
 1933SOL    HW117258   0.745   2.854   6.584 -1.2567 -1.1166  0.5627
 1933SOL    HW217259   0.797   2.710   6.566 -0.3065  0.2639  1.8463
 1934SOL     OW17260   4.388   2.756   4.728  0.0804  0.9705 -0.1011
 1934SOL    HW117261   4.353   2.770   4.640  1.3970 -0.8758 -0.9085
 1934SOL    HW217262   4.483   2.758   4.711  0.3137  0.6427  1.1663
 1935SOL     OW17263   4.247   2.417   5.347 -0.0781  0.0468  0.3463
 1935SOL    HW117264   4.183   2.355   5.380  2.2585 -2.8521 -0.5323
 1935SOL    HW217265   4.199   2.491   5.308  1.8959  0.4967 -1.2688
 1936SOL     OW17266   4.151   1.890  11.306 -0.4457 -0.1217  0.8512
 1936SOL    HW117267   4.107   1.825  11.361  1.2481 -2.5472 -0.6661
 1936SOL    HW217268   4.094   1.966  11.305  0.3513  0.4514 -0.3106
 1937SOL     OW17269   4.422   1.597   6.236 -0.2398 -0.9984 -0.7141
 1937SOL    HW117270   4.338   1.593   6.191 -1.6461  0.7152  1.7186
 1937SOL    HW217271   4.476   1.587   6.158 -0.1828 -2.1839 -0.5129
 1938SOL     OW17272   3.655   2.116   8.357  0.0627  0.2365  0.6809
 1938SOL    HW117273   3.559   2.115   8.352  0.1502 -0.5598 -0.6971
 1938SOL    HW217274   3.664   2.197   8.409  0.1775  1.8680 -1.8782
 1939SOL     OW17275   3.153   0.734  14.819  0.5439 -0.4904  0.0218
 1939SOL    HW117276   3.141   0.644  14.790  1.2642 -0.7787  0.6431
 1939SOL    HW217277   3.205   0.775  14.750  0.7657 -0.3893  0.2514
 1940SOL     OW17278   3.255   1.799  15.875  0.1200  0.3599  0.4563
 1940SOL    HW117279   3.226   1.753  15.797  0.4703  1.2668 -0.2074
 1940SOL    HW217280   3.254   1.883  15.829 -0.9427  1.4099  2.3900
 1941SOL     OW17281   1.335   4.313   7.141 -0.7797  0.0078  0.7962
 1941SOL    HW117282   1.391   4.293   7.215  0.3910  2.0834  0.4574
 1941SOL    HW217283   1.373   4.255   7.075 -2.2434  2.6097 -2.3772
 1942SOL     OW17284   0.301   2.284   8.334  0.9757 -0.2019  0.6582
 1942SOL    HW117285   0.329   2.320   8.249 -2.6228  0.2821 -0.3146
 1942SOL    HW217286   0.378   2.292   8.390 -0.5013 -0.6800  2.7560
 1943SOL     OW17287   2.263   0.646   1.812 -0.0633 -0.2196  0.4976
 1943SOL    HW117288   2.355   0.633   1.836  0.4931  0.4202 -1.2769
 1943SOL    HW217289   2.257   0.623   1.719  1.4437 -0.6090  0.4933
 1944SOL     OW17290   3.247   3.963  15.564 -1.0591 -0.2185  0.3041
 1944SOL    HW117291   3.323   3.923  15.606 -1.1053 -2.6720 -1.9637
 1944SOL    HW217292   3.260   3.945  15.471  1.6725  1.5444  0.3555
 1945SOL     OW17293   1.909   2.627   3.396 -1.1289  0.1635 -0.7743
 1945SOL    HW117294   1.940   2.537   3.404  2.9975  1.6813  0.8191
 1945SOL    HW217295   1.834   2.628   3.456  0.1936 -2.8380  0.9365
 1946SOL     OW17296   2.886   1.617  13.625  0.5840  0.2752  0.1191
 1946SOL    HW117297   2.871   1.535  13.673  1.2120 -0.2114 -0.5256
 1946SOL    HW217298   2.971   1.605  13.584  1.3170  1.5811  1.2351
 1947SOL     OW17299   4.524   1.413   0.459 -0.1967 -0.5431 -0.9563
 1947SOL    HW117300   4.467   1.470   0.510 -0.4605 -1.2299 -0.4909
 1947SOL    HW217301   4.572   1.369   0.529 -0.3291 -0.8830 -1.0815
 1948SOL     OW17302   1.442   3.670   1.197  0.3138 -0.2209 -0.2276
 1948SOL    HW117303   1.381   3.625   1.140  1.1713 -1.3046 -0.2860
 1948SOL    HW217304   1.424   3.621   1.276 -0.2191 -2.4641 -1.7409
 1949SOL     OW17305   3.955   4.655   5.152 -0.1300  0.1748 -0.3473
 1949SOL    HW117306   3.979   4.624   5.064 -2.8158 -0.4133 -0.8584
 1949SOL    HW217307   3.905   0.014   5.147  1.6952  1.2351 -1.6603
 1950SOL     OW17308   3.777   4.477   3.348 -0.0677  0.0138 -0.2113
 1950SOL    HW117309   3.781   4.435   3.262 -2.5152 -0.3766 -0.1379
 1950SOL    HW217310   3.826   4.422   3.410 -0.4980 -0.5966 -0.4083
 1951SOL     OW17311   0.500   2.083   9.197  0.3808  0.7019  0.0120
 1951SOL    HW117312   0.479   2.004   9.147 -0.8836  1.5018 -0.7162
 1951SOL    HW217313   0.483   2.152   9.133 -1.9054 -0.4474 -0.5982
 1952SOL     OW17314   1.148   0.025   4.674  0.1154  0.2007 -0.5635
 1952SOL    HW117315   1.153   0.065   4.587 -0.9483 -0.5455 -0.9643
 1952SOL    HW217316   1.132   4.654   4.657  2.8418 -0.7565  2.0143
 1953SOL     OW17317   2.804   2.987   6.634 -0.4747  0.1490 -0.1696
 1953SOL    HW117318   2.851   3.047   6.577 -1.9191  2.8265  1.5028
 1953SOL    HW217319   2.756   3.038   6.699 -1.1306 -0.0948 -0.4572
 1954SOL     OW17320   2.333   3.041   0.891  0.4100  0.4893 -0.5013
 1954SOL    HW117321   2.248   3.000   0.908  0.6298  0.9875  1.7520
 1954SOL    HW217322   2.307   3.132   0.906  2.2466  0.7752  0.9506
 1955SOL     OW17323   2.434   2.197   5.023 -0.7277 -0.1714 -0.3016
 1955SOL    HW117324   2.486   2.121   4.998 -1.8320 -0.5585 -1.4304
 1955SOL    HW217325   2.431   2.189   5.119  0.2087 -0.0219 -0.2589
 1956SOL     OW17326   4.409   0.190   9.241  0.3185  0.6325 -0.1025
 1956SOL    HW117327   4.322   0.218   9.213 -0.8791  0.6861  3.7048
 1956SOL    HW217328   4.416   0.116   9.182 -0.5886  0.1586  0.3914
 1957SOL     OW17329   2.463   0.446  13.149  0.0186  0.0631  0.0599
 1957SOL    HW117330   2.548   0.488  13.138  2.1195 -3.9581  1.0871
 1957SOL    HW217331   2.432   0.483  13.232  1.7638 -1.6204  1.4545
 1958SOL     OW17332   3.276   2.101   2.181 -0.0783 -0.4590  0.1121
 1958SOL    HW117333   3.339   2.047   2.229  0.8588 -0.5715 -1.2576
 1958SOL    HW217334   3.201   2.042   2.176 -0.4374  0.0664 -0.5935
 1959SOL     OW17335   0.647   4.474  10.319  0.3324 -0.2629  0.3653
 1959SOL    HW117336   0.722   4.458  10.376 -0.2695  0.8943  1.4684
 1959SOL    HW217337   0.575   4.429  10.363 -0.1787  1.0517  0.8692
 1960SOL     OW17338   0.369   3.080   4.220  0.1397  0.0903 -0.6185
 1960SOL    HW117339   0.462   3.099   4.210  0.1658  1.9828  3.3432
 1960SOL    HW217340   0.347   3.063   4.128 -2.0013  1.8211 -0.4347
 1961SOL     OW17341   1.244   1.714  10.444 -0.6777 -0.1988  0.2352
 1961SOL    HW117342   1.193   1.719  10.363  2.6295  0.2766 -1.8159
 1961SOL    HW217343   1.215   1.626  10.467 -0.8846  0.1162  1.1561
 1962SOL     OW17344   0.815   0.220   4.251 -0.3177 -0.0093 -0.4007
 1962SOL    HW117345   0.780   0.177   4.328  1.1558 -0.6548 -0.1028
 1962SOL    HW217346   0.862   0.148   4.209  0.0895  1.6886 -2.8512
 1963SOL     OW17347   0.445   1.280   2.583 -0.1567  0.0820 -0.5727
 1963SOL    HW117348   0.475   1.205   2.532 -2.6821  0.4744 -2.6628
 1963SOL    HW217349   0.431   1.354   2.523  1.9270 -0.2084 -1.4296
 1964SOL     OW17350   2.109   1.885   6.766  0.1765 -0.1737 -0.2686
 1964SOL    HW117351   2.178   1.941   6.731 -0.9231  0.0254 -2.1277
 1964SOL    HW217352   2.045   1.896   6.696  0.8198  1.4916 -0.5942
 1965SOL     OW17353   3.180   2.311   7.471 -0.2066  0.3155 -0.1245
 1965SOL    HW117354   3.199   2.219   7.487 -0.2067  0.1630 -1.0387
 1965SOL    HW217355   3.217   2.351   7.550  2.2773 -2.6317  0.1819
 1966SOL     OW17356   0.934   2.274   5.584  0.2473  0.2489  0.4880
 1966SOL    HW117357   0.881   2.276   5.664 -0.0844 -0.6292  0.2899
 1966SOL    HW217358   0.999   2.209   5.613  0.0858 -0.1850 -0.1173
 1967SOL     OW17359   4.127   1.071   8.190  0.3218 -0.4052  0.4141
 1967SOL    HW117360   4.211   1.059   8.234  2.0252  1.9737 -2.1846
 1967SOL    HW217361   4.104   1.161   8.213 -0.9140 -0.6889  0.2940
 1968SOL     OW17362   3.434   1.488   3.320 -0.0292 -0.0540 -0.3755
 1968SOL    HW117363   3.483   1.476   3.239 -2.3091  0.4192 -1.7980
 1968SOL    HW217364   3.498   1.539   3.370  1.2028  1.1665 -3.2456
 1969SOL     OW17365   1.399   0.850   7.476 -0.2651  1.0755 -0.1894
 1969SOL    HW117366   1.414   0.771   7.529  0.3369  1.0215 -0.4425
 1969SOL    HW217367   1.398   0.918   7.543  0.7795  0.6902  0.2168
 1970SOL     OW17368   3.245   0.525   3.562  0.0972 -0.3585 -0.2842
 1970SOL    HW117369   3.242   0.534   3.467  0.3437 -0.7406 -0.3286
 1970SOL    HW217370   3.293   0.600   3.597 -1.9038  0.9122 -0.2959
 1971SOL     OW17371   2.114   4.135   5.286 -0.3776 -0.4131 -0.6327
 1971SOL    HW117372   2.142   4.203   5.347  0.6318  0.0994 -1.6735
 1971SOL    HW217373   2.104   4.057   5.341 -0.1055 -0.4489 -0.6314
 1972SOL     OW17374   3.793   2.915   7.857  0.3753  0.1650  0.2590
 1972SOL    HW117375   3.751   2.912   7.771 -1.3475 -0.0625  1.1011
 1972SOL    HW217376   3.861   2.849   7.863  2.3255  2.4384  2.9395
 1973SOL     OW17377   1.101   2.908   2.744 -0.6140  0.0573  0.1769
 1973SOL    HW117378   1.118   2.941   2.832  0.0054  0.2385 -0.0060
 1973SOL    HW217379   1.145   2.823   2.747  1.0876  0.9093 -0.4024
 1974SOL     OW17380   3.096   3.328  16.420 -0.0272 -0.2521 -0.0127
 1974SOL    HW117381   3.095   3.349  16.513  4.5201  0.5351 -0.1284
 1974SOL    HW217382   3.014   3.279  16.410  0.0646 -0.5083  0.5147
 1975SOL     OW17383   0.195   0.124   3.491  0.1229 -0.2281  0.1556
 1975SOL    HW117384   0.215   0.098   3.581  1.2444  3.1970  0.8985
 1975SOL    HW217385   0.214   0.216   3.504 -1.3770  0.0819  0.2106
 1976SOL     OW17386   0.870   3.870   6.058 -0.5197  0.4273 -0.1869
 1976SOL    HW117387   0.791   3.912   6.024 -0.1068  0.2460 -1.3737
 1976SOL    HW217388   0.838   3.785   6.089  0.0844 -0.0754 -0.9602
 1977SOL     OW17389   1.837   0.990   4.971  0.4758  0.2552 -0.7487
 1977SOL    HW117390   1.790   1.070   4.995 -2.4285 -1.4551 -0.7850
 1977SOL    HW217391   1.787   0.956   4.897  0.6121 -0.9533 -0.2917
 1978SOL     OW17392   3.860   0.519   1.644 -0.1089 -0.0687 -0.3133
 1978SOL    HW117393   3.825   0.568   1.719 -0.1537 -1.5746  0.6582
 1978SOL    HW217394   3.928   0.573   1.604  0.3169 -0.9109 -0.7452
 1979SOL     OW17395   2.222   0.199  12.814 -0.1575 -0.1855 -0.0187
 1979SOL    HW117396   2.307   0.173  12.849  0.4446  0.9865 -0.6151
 1979SOL    HW217397   2.223   0.289  12.846 -1.6112 -0.1370 -0.1107
 1980SOL     OW17398   3.522   1.831   6.890 -0.5088  0.1242 -0.3820
 1980SOL    HW117399   3.479   1.907   6.928 -2.7930 -0.2715 -2.1896
 1980SOL    HW217400   3.542   1.859   6.801  2.5578  3.0821  1.1996
 1981SOL     OW17401   4.203   0.789   4.827  0.1540 -0.4474 -0.0592
 1981SOL    HW117402   4.152   0.712   4.803 -0.4289 -0.3523  0.8823
 1981SOL    HW217403   4.165   0.809   4.913 -1.1694  0.2704 -0.8135
 1982SOL     OW17404   1.246   1.791   6.774 -0.4202 -0.2291 -0.1355
 1982SOL    HW117405   1.222   1.847   6.700  0.1672 -1.1263 -1.0068
 1982SOL    HW217406   1.159   1.805   6.813 -0.2183 -0.3923  0.3663
 1983SOL     OW17407   0.731   3.430   3.618 -0.0738 -0.1850 -0.5384
 1983SOL    HW117408   0.673   3.410   3.544 -2.0729  0.1326  0.9655
 1983SOL    HW217409   0.795   3.486   3.574  0.6075  0.9985  2.0002
 1984SOL     OW17410   1.037   4.604  14.067 -0.4869 -0.2621  0.5759
 1984SOL    HW117411   1.012   4.525  14.115 -0.9488  0.1144  0.9549
 1984SOL    HW217412   0.967   4.606  14.001 -0.7507 -0.1875  0.8564
 1985SOL     OW17413   3.608   1.260   5.040 -1.0651 -0.2880 -0.0680
 1985SOL    HW117414   3.588   1.192   4.976 -2.1873  1.7617 -1.9253
 1985SOL    HW217415   3.547   1.241   5.111 -1.0686  0.7132  0.2000
 1986SOL     OW17416   0.216   0.270   7.426 -0.6087  0.2620 -0.2340
 1986SOL    HW117417   0.244   0.258   7.517  0.2669  0.2747 -0.5026
 1986SOL    HW217418   0.137   0.322   7.443 -1.9461 -0.3866 -4.5449
 1987SOL     OW17419   2.501   2.199   7.467 -0.0337 -0.1659  0.5951
 1987SOL    HW117420   2.412   2.164   7.456  0.0183  0.3010 -1.3116
 1987SOL    HW217421   2.547   2.121   7.496 -2.9746 -2.5827 -1.2046
 1988SOL     OW17422   1.924   1.705   6.861 -0.1847  0.7033  0.1355
 1988SOL    HW117423   2.007   1.752   6.866 -0.0400  0.6044 -1.1510
 1988SOL    HW217424   1.871   1.724   6.938 -0.7947 -1.6941  0.3206
 1989SOL     OW17425   3.644   0.773   3.622  0.1929 -0.5518 -0.0131
 1989SOL    HW117426   3.654   0.694   3.568  2.2065 -0.7515  0.6576
 1989SOL    HW217427   3.735   0.799   3.635 -0.1032  1.0184 -1.1328
 1990SOL     OW17428   2.539   2.875   8.616  0.2478 -0.6495 -0.1995
 1990SOL    HW117429   2.447   2.850   8.619 -0.5606  2.2974 -0.4452
 1990SOL    HW217430   2.564   2.842   8.530 -0.0035 -2.9397  0.6059
 1991SOL     OW17431   0.543   1.130   7.968  0.4244 -0.0712  0.3058
 1991SOL    HW117432   0.506   1.141   8.056  2.6616  0.2838  1.1910
 1991SOL    HW217433   0.531   1.218   7.931 -1.8528 -0.3515  0.3507
 1992SOL     OW17434   3.850   2.469  10.688  0.2400  0.2113 -0.4338
 1992SOL    HW117435   3.913   2.541  10.695 -0.3624  0.7676 -0.7186
 1992SOL    HW217436   3.763   2.509  10.683  0.5012  0.6826 -1.1700
 1993SOL     OW17437   3.105   1.854  11.699  0.1803 -0.1576  0.2843
 1993SOL    HW117438   3.040   1.837  11.632 -0.1654  3.2673 -0.2795
 1993SOL    HW217439   3.173   1.788  11.686 -1.6935 -1.7977 -1.0253
 1994SOL     OW17440   0.701   0.295   8.927 -0.1569 -0.3603  0.1147
 1994SOL    HW117441   0.770   0.301   8.861 -0.1905  1.3742  0.2152
 1994SOL    HW217442   0.746   0.246   8.995  0.9628  1.5342  0.7290
 1995SOL     OW17443   3.440   1.852   2.055  0.1272  0.2485  0.1737
 1995SOL    HW117444   3.346   1.873   2.049 -0.1105 -0.9410 -0.2313
 1995SOL    HW217445   3.445   1.789   1.983 -2.5263  2.3065 -1.8465
 1996SOL     OW17446   0.541   1.881   1.172 -0.3408  0.8358 -0.1097
 1996SOL    HW117447   0.481   1.840   1.235 -2.6188 -0.2670 -2.9759
 1996SOL    HW217448   0.628   1.882   1.211  0.0360 -1.5597 -0.8328
 1997SOL     OW17449   2.913   1.778   5.301 -0.1632  0.0703  0.0327
 1997SOL    HW117450   2.843   1.831   5.339  0.4373  1.1830 -0.3907
 1997SOL    HW217451   2.863   1.741   5.228 -2.0803  1.7707  0.4785
 1998SOL     OW17452   2.494   3.325  13.188  0.0204  0.5880  0.6913
 1998SOL    HW117453   2.466   3.414  13.212  2.9165  1.0977  2.1679
 1998SOL    HW217454   2.451   3.309  13.104 -2.0013 -2.8189  2.3566
 1999SOL     OW17455   1.574   1.738   1.865  0.0830 -0.0970  0.2629
 1999SOL    HW117456   1.481   1.737   1.887  0.2659  0.0426  1.0287
 1999SOL    HW217457   1.585   1.661   1.809 -0.4253 -0.3145  0.4665
 2000SOL     OW17458   4.182   1.423   2.060 -0.2321  0.1688 -0.0496
 2000SOL    HW117459   4.145   1.443   1.975 -0.6652  0.4727  0.2108
 2000SOL    HW217460   4.183   1.327   2.052  0.0257  0.3483 -2.2291
 2001SOL     OW17461   2.886   0.348  11.398 -0.3973  0.0518  0.7072
 2001SOL    HW117462   2.837   0.302  11.466 -0.6296  0.2182  0.6495
 2001SOL    HW217463   2.962   0.369  11.453 -1.3753 -0.4490  2.2476
 2002SOL     OW17464   3.258   4.525   0.121 -0.9440  0.3624  0.2448
 2002SOL    HW117465   3.234   4.617   0.108 -2.0933 -0.1673 -1.4800
 2002SOL    HW217466   3.185   4.507   0.180 -1.2089  0.5648 -0.0218
 2003SOL     OW17467   1.442   4.661   6.621 -0.1933 -0.3218  0.2747
 2003SOL    HW117468   1.450   4.683   6.713  1.3637 -1.8490  0.5131
 2003SOL    HW217469   1.531   4.680   6.588 -1.2617  1.8638 -1.3704
 2004SOL     OW17470   0.690   2.504   8.946  0.3353  0.0254  0.1856
 2004SOL    HW117471   0.651   2.486   9.032 -0.0717  1.2276  0.2587
 2004SOL    HW217472   0.776   2.543   8.959 -0.5020  0.9510  3.1404
 2005SOL     OW17473   3.237   2.811   3.154  0.2545  0.3719  0.0160
 2005SOL    HW117474   3.247   2.747   3.225 -0.7148 -0.5075 -0.6637
 2005SOL    HW217475   3.171   2.779   3.094 -0.5353  0.4311  0.8509
 2006SOL     OW17476   4.279   2.890   4.968 -0.0138  0.1437 -0.0502
 2006SOL    HW117477   4.190   2.892   4.933 -0.0628 -0.7241  0.0224
 2006SOL    HW217478   4.330   2.877   4.888 -0.0183  2.4513 -0.4140
 2007SOL     OW17479   1.570   1.260   8.503 -0.0948  0.3888 -0.3031
 2007SOL    HW117480   1.645   1.289   8.451 -0.6244  2.2799 -0.0281
 2007SOL    HW217481   1.594   1.172   8.532  0.7098  0.4063 -0.9221
 2008SOL     OW17482   1.901   1.884   7.704  0.4696 -0.3099  0.7311
 2008SOL    HW117483   1.901   1.869   7.799  1.3083  0.6254  0.8860
 2008SOL    HW217484   1.825   1.942   7.697  0.8631 -0.1232 -2.0529
 2009SOL     OW17485   0.592   2.327   8.413  0.5030  0.5873  0.5049
 2009SOL    HW117486   0.607   2.402   8.470  1.5545  1.5759 -1.0776
 2009SOL    HW217487   0.665   2.278   8.452 -0.1721 -1.7537 -1.1555
 2010SOL     OW17488   2.843   0.381  12.748  0.0593  0.1256 -0.4886
 2010SOL    HW117489   2.901   0.393  12.673 -0.4598 -0.6707 -1.0137
 2010SOL    HW217490   2.784   0.313  12.714 -3.0234  2.0053  1.0790
 2011SOL     OW17491   2.659   1.804   5.909 -0.3772  0.1277  0.3465
 2011SOL    HW117492   2.595   1.757   5.963 -0.7001  0.2904  0.1012
 2011SOL    HW217493   2.703   1.864   5.970 -1.1294 -1.7064  2.6847
 2012SOL     OW17494   2.482   4.035   5.538 -0.2457 -0.0729 -0.3377
 2012SOL    HW117495   2.437   4.082   5.607  0.1038 -1.0987  0.6022
 2012SOL    HW217496   2.543   4.097   5.499 -0.4779  0.3099 -0.0838
 2013SOL     OW17497   1.889   1.507  14.785  0.5008 -0.6371 -0.0135
 2013SOL    HW117498   1.830   1.435  14.761 -0.2276  0.0325 -0.2273
 2013SOL    HW217499   1.950   1.454  14.836  2.2506 -0.3094 -1.8052
 2014SOL     OW17500   2.051   2.098   6.060 -0.0345 -0.2494  0.6981
 2014SOL    HW117501   2.055   2.078   5.967 -0.3958 -2.7418  1.2155
 2014SOL    HW217502   1.977   2.158   6.065 -0.0469 -0.2751  0.8398
 2015SOL     OW17503   2.811   0.158  11.579  0.2326 -0.1071  0.9066
 2015SOL    HW117504   2.875   0.096  11.612  1.1698 -0.7974 -2.2925
 2015SOL    HW217505   2.727   0.131  11.616 -0.2663 -2.2193 -1.7723
 2016SOL     OW17506   0.143   1.459  12.532  0.3834 -0.2393  0.4632
 2016SOL    HW117507   0.174   1.508  12.609  1.2699 -2.3685  1.4599
 2016SOL    HW217508   0.139   1.370  12.568  0.4084 -0.3349  0.2264
 2017SOL     OW17509   0.040   3.965   2.389 -0.3498  0.1574  0.1855
 2017SOL    HW117510   0.088   4.047   2.392  0.7487 -0.4429 -1.1285
 2017SOL    HW217511   0.021   3.948   2.481  0.4083 -2.7474 -0.1770
 2018SOL     OW17512   0.886   3.993   0.256  0.2046  0.1450  0.0388
 2018SOL    HW117513   0.846   3.909   0.233 -0.1450  0.0370  1.0397
 2018SOL    HW217514   0.876   3.979   0.350  1.1920 -0.5984  0.0358
 2019SOL     OW17515   2.564   2.957  14.829 -0.4362 -0.1245  0.2564
 2019SOL    HW117516   2.470   2.959  14.813 -0.0420 -0.5615 -2.0529
 2019SOL    HW217517   2.565   3.007  14.911 -0.4896  0.4127 -0.0671
 2020SOL     OW17518   4.377   0.531   6.159 -0.1046  0.5630 -0.5897
 2020SOL    HW117519   4.397   0.495   6.073  1.2107 -0.5314  0.1786
 2020SOL    HW217520   4.309   0.590   6.126 -0.6882  0.2560  0.0563
 2021SOL     OW17521   3.936   3.220   4.226  0.0483  0.3368  0.0432
 2021SOL    HW117522   3.857   3.211   4.174  1.3674 -0.1301 -1.8828
 2021SOL    HW217523   3.962   3.307   4.195  2.6159 -0.3106  0.3131
 2022SOL     OW17524   2.134   3.461  16.523  0.5901  0.4876 -0.7122
 2022SOL    HW117525   2.210   3.414  16.487 -0.8920 -0.6510 -2.3384
 2022SOL    HW217526   2.169   3.532  16.576 -0.4553  0.1436  0.4468
 2023SOL     OW17527   0.826   2.474   1.011  0.2413  0.6213  0.4115
 2023SOL    HW117528   0.920   2.461   1.006 -0.0113 -0.7000 -0.8303
 2023SOL    HW217529   0.811   2.504   1.101 -1.6983  1.0219 -0.0464
 2024SOL     OW17530   4.350   1.469  14.600  0.3288 -0.4813 -0.5006
 2024SOL    HW117531   4.285   1.413  14.557 -1.0675  0.0580  0.8842
 2024SOL    HW217532   4.433   1.424  14.584  1.5118  1.5490 -0.1422
 2025SOL     OW17533   3.623   4.545  13.884 -0.0605 -0.3472  0.2348
 2025SOL    HW117534   3.683   4.520  13.954 -0.8609 -0.1650  0.9849
 2025SOL    HW217535   3.545   4.511  13.929 -0.9896  0.4073 -0.8065
 2026SOL     OW17536   4.558   4.122   6.003 -0.8028  0.1397 -0.8652
 2026SOL    HW117537   4.500   4.085   6.069 -0.5420  1.5608  0.1595
 2026SOL    HW217538   4.569   4.210   6.039 -0.5720  0.2002 -1.0801
 2027SOL     OW17539   1.375   4.497   3.734 -0.1405 -0.5026  0.2594
 2027SOL    HW117540   1.374   4.588   3.763 -0.6888 -0.2132 -0.6889
 2027SOL    HW217541   1.283   4.481   3.714  0.1540 -0.2137 -1.3615
 2028SOL     OW17542   2.899   0.692  15.055 -0.1486  0.2590  0.3231
 2028SOL    HW117543   2.972   0.645  15.016 -1.2961 -2.7094  1.7252
 2028SOL    HW217544   2.942   0.721  15.136 -1.8479 -2.6247  2.2800
 2029SOL     OW17545   1.852   3.359  13.314 -0.3974  0.3966  0.9743
 2029SOL    HW117546   1.814   3.439  13.276 -0.0467 -0.0948 -0.4079
 2029SOL    HW217547   1.831   3.379  13.405  0.4862  0.8930  1.0704
 2030SOL     OW17548   0.208   2.237   5.849 -0.2014  0.1648 -0.0065
 2030SOL    HW117549   0.113   2.228   5.863 -0.3406 -2.2738 -2.6662
 2030SOL    HW217550   0.240   2.242   5.939  1.1127  0.6316 -0.5021
 2031SOL     OW17551   1.220   1.635  15.901 -0.2017 -0.3048 -0.1640
 2031SOL    HW117552   1.164   1.626  15.824 -0.4229 -0.6640  0.0397
 2031SOL    HW217553   1.177   1.697  15.961 -0.8735 -2.3165  1.4563
 2032SOL     OW17554   3.337   1.817  11.098  0.4137  0.0225  0.1158
 2032SOL    HW117555   3.261   1.872  11.117  0.7319 -0.2013  1.9762
 2032SOL    HW217556   3.310   1.796  11.009 -0.9461 -0.7562  0.7123
 2033SOL     OW17557   1.211   0.600   8.219 -0.6579 -0.3111 -0.2365
 2033SOL    HW117558   1.126   0.644   8.219 -0.4104  0.1792 -2.1485
 2033SOL    HW217559   1.250   0.645   8.293 -2.3056  0.4068  0.1910
 2034SOL     OW17560   3.185   2.701   6.437 -0.0922  0.2048  0.2301
 2034SOL    HW117561   3.279   2.715   6.450 -0.2063  2.1944 -1.2102
 2034SOL    HW217562   3.155   2.788   6.460  0.3831  0.3656  0.2390
 2035SOL     OW17563   4.019   2.300  10.559 -0.4463 -0.0432  0.3273
 2035SOL    HW117564   4.024   2.299  10.464 -0.9867  0.5435  0.2956
 2035SOL    HW217565   3.947   2.357  10.584 -1.2054 -0.1703 -1.5811
 2036SOL     OW17566   2.484   2.907   7.000 -0.0966 -0.2068  0.1008
 2036SOL    HW117567   2.495   2.963   7.077 -2.5437 -1.1953  1.1742
 2036SOL    HW217568   2.403   2.861   7.021  0.0386 -0.2053  0.6257
 2037SOL     OW17569   4.047   0.120   4.611 -1.0742 -0.6553  0.1631
 2037SOL    HW117570   4.010   0.062   4.678 -0.2705 -0.2577  0.9459
 2037SOL    HW217571   4.027   0.079   4.527  0.2042 -0.1847 -0.3649
 2038SOL     OW17572   4.081   2.749   5.491 -0.1775  0.0418 -0.1594
 2038SOL    HW117573   4.063   2.724   5.400 -0.2078  0.7565 -0.3526
 2038SOL    HW217574   4.099   2.843   5.485 -0.8113  0.1578 -0.2373
 2039SOL     OW17575   1.647   0.367   2.275  0.2370  0.1223  0.0352
 2039SOL    HW117576   1.577   0.423   2.242 -0.9783 -0.6415  1.3303
 2039SOL    HW217577   1.716   0.399   2.216  0.4092  0.1497  0.2497
 2040SOL     OW17578   0.082   0.270   5.362  0.4558  0.2146 -0.2444
 2040SOL    HW117579   0.161   0.219   5.344 -0.3075 -1.6205  1.6723
 2040SOL    HW217580   0.017   0.228   5.306  1.5436 -1.9775  0.0964
 2041SOL     OW17581   2.990   3.594   2.852  0.1523  0.2007  0.5890
 2041SOL    HW117582   3.072   3.600   2.803 -0.8003 -0.6592 -1.1073
 2041SOL    HW217583   3.003   3.510   2.894  0.5852  0.3955  0.8448
 2042SOL     OW17584   1.310   1.180   5.775  0.9739 -0.0966 -0.1499
 2042SOL    HW117585   1.302   1.269   5.807  0.6116  0.7274 -2.5481
 2042SOL    HW217586   1.366   1.149   5.846  1.0178  0.3579  0.0142
 2043SOL     OW17587   3.501   2.240   7.639  0.6209  0.0759 -0.6202
 2043SOL    HW117588   3.449   2.320   7.643 -1.5859 -1.3367 -1.1747
 2043SOL    HW217589   3.530   2.239   7.730 -1.0405  0.9781 -0.0913
 2044SOL     OW17590   3.063   1.705   3.117 -0.0910  0.6917 -0.7997
 2044SOL    HW117591   3.109   1.646   3.057  1.1614  0.9348 -0.0878
 2044SOL    HW217592   3.057   1.786   3.066 -0.7903  0.6745 -0.7435
 2045SOL     OW17593   0.514   3.663   6.258  0.2372  0.9152 -0.6102
 2045SOL    HW117594   0.506   3.758   6.272  1.7281  1.1341 -1.2550
 2045SOL    HW217595   0.425   3.636   6.237  0.3014  0.1614  0.0903
 2046SOL     OW17596   3.060   0.638   6.083 -0.1250  0.2887  0.2131
 2046SOL    HW117597   3.091   0.549   6.063  0.3399  0.6671 -0.7711
 2046SOL    HW217598   3.114   0.657   6.159 -1.3065  1.2023  0.8138
 2047SOL     OW17599   1.665   1.774   2.697 -0.2740  0.0197  0.0266
 2047SOL    HW117600   1.574   1.784   2.725  0.1868 -2.2821  2.3586
 2047SOL    HW217601   1.678   1.869   2.695  2.1769 -0.3162  0.2966
 2048SOL     OW17602   1.278   2.977   4.705 -0.3454 -0.4243  0.7897
 2048SOL    HW117603   1.362   3.000   4.666 -0.4143 -2.0163 -0.3202
 2048SOL    HW217604   1.289   2.882   4.713  0.2942 -0.4798 -0.8308
 2049SOL     OW17605   3.507   1.226   5.370  0.5004  0.1953 -0.1662
 2049SOL    HW117606   3.428   1.178   5.393 -0.2857  1.2534 -0.6806
 2049SOL    HW217607   3.483   1.280   5.296 -0.1120  1.0911  0.6895
 2050SOL     OW17608   2.970   2.735   3.539  0.4892 -0.6308  0.5700
 2050SOL    HW117609   2.943   2.758   3.627 -1.2807  0.5605 -0.2736
 2050SOL    HW217610   3.035   2.669   3.563  0.8106  0.0987  1.6598
 2051SOL     OW17611   0.941   3.267   4.770 -0.1014  0.1232 -0.9904
 2051SOL    HW117612   0.888   3.290   4.847 -0.1749  1.7471 -1.5308
 2051SOL    HW217613   0.961   3.359   4.752  0.5553  0.1459 -0.1652
 2052SOL     OW17614   3.165   1.928  12.481  0.1886  0.1770 -0.2910
 2052SOL    HW117615   3.199   1.936  12.570 -1.5590  0.2359  0.3688
 2052SOL    HW217616   3.245   1.892  12.442  0.1462 -1.6317  1.3013
 2053SOL     OW17617   0.424   4.322   6.651  0.0173  0.4089 -0.7284
 2053SOL    HW117618   0.355   4.387   6.666 -2.5323 -2.2004 -1.2993
 2053SOL    HW217619   0.401   4.284   6.567  0.6749  1.2043 -1.2654
 2054SOL     OW17620   3.296   1.671  11.574  0.0147 -0.3821  0.2784
 2054SOL    HW117621   3.321   1.579  11.561 -1.4074 -1.1823  3.1866
 2054SOL    HW217622   3.339   1.710  11.498  1.8468  1.1369  2.1013
 2055SOL     OW17623   2.551   2.201   8.843  0.5192  0.0335  0.1407
 2055SOL    HW117624   2.567   2.276   8.899  1.4714 -0.2447  0.2387
 2055SOL    HW217625   2.485   2.224   8.778  1.0022  1.4149  0.1356
 2056SOL     OW17626   1.412   2.296   2.922 -0.5105  0.3519  0.3188
 2056SOL    HW117627   1.417   2.327   3.013 -0.8769 -1.7144  1.0441
 2056SOL    HW217628   1.326   2.254   2.921  0.5139 -1.8061  2.5110
 2057SOL     OW17629   2.516   3.146   1.643  1.1905  1.2767  0.1000
 2057SOL    HW117630   2.512   3.096   1.724  1.1283  0.2423 -0.5435
 2057SOL    HW217631   2.445   3.210   1.652  0.2107  0.0853  0.8321
 2058SOL     OW17632   4.494   4.491  13.953 -0.3576  0.4406  1.0803
 2058SOL    HW117633   4.533   4.538  13.880 -0.1287 -0.1638  0.8126
 2058SOL    HW217634   4.479   4.402  13.920 -0.3696  2.1475 -3.5009
 2059SOL     OW17635   1.793   2.043   2.181  0.2236 -0.1351 -0.1080
 2059SOL    HW117636   1.821   1.964   2.226  0.0045 -0.1708 -0.0372
 2059SOL    HW217637   1.795   2.023   2.087  1.8492 -0.4806  0.0042
 2060SOL     OW17638   3.941   2.783   9.708 -0.5732 -0.3381 -0.3494
 2060SOL    HW117639   3.953   2.766   9.802 -0.2896  1.6059 -0.0236
 2060SOL    HW217640   3.851   2.816   9.707 -0.0149  1.2504  1.7940
 2061SOL     OW17641   4.170   3.010   3.422  0.1058  0.1858  0.4049
 2061SOL    HW117642   4.105   3.051   3.480  0.1749 -1.1941  1.4794
 2061SOL    HW217643   4.134   3.046   3.341  0.5988 -0.6568 -0.1851
 2062SOL     OW17644   2.833   0.456   4.023  0.1824 -0.0710 -0.1632
 2062SOL    HW117645   2.809   0.424   4.110  4.2772  0.0405  0.9835
 2062SOL    HW217646   2.751   0.444   3.975  0.6155  1.1231 -1.2022
 2063SOL     OW17647   4.104   0.801   4.087  0.6308  0.1495  0.5234
 2063SOL    HW117648   4.012   0.803   4.060  0.8630  0.1138 -0.2808
 2063SOL    HW217649   4.133   0.886   4.054 -0.2118 -0.2298 -1.2540
 2064SOL     OW17650   0.162   2.471   2.845 -0.4698  0.0874 -0.2020
 2064SOL    HW117651   0.134   2.535   2.910  1.2644 -0.1170  0.7621
 2064SOL    HW217652   0.249   2.451   2.880 -0.7854 -2.9931 -1.1751
 2065SOL     OW17653   0.536   0.163   5.372 -0.3545 -0.4127  0.2146
 2065SOL    HW117654   0.529   0.106   5.448 -0.1373 -0.4851  0.1820
 2065SOL    HW217655   0.442   0.168   5.357 -0.3641  1.8389  1.0368
 2066SOL     OW17656   4.548   4.036  13.772  0.3367 -0.4913 -0.1718
 2066SOL    HW117657   4.580   4.038  13.681 -0.9084  1.1553 -0.5779
 2066SOL    HW217658   4.585   3.953  13.802 -1.6125 -1.3474 -0.1658
 2067SOL     OW17659   4.437   3.519   7.969  0.1192  0.4027  0.1110
 2067SOL    HW117660   4.473   3.431   7.967 -0.5807  0.1216 -0.1599
 2067SOL    HW217661   4.376   3.517   7.895 -0.0413 -0.0727  0.2555
 2068SOL     OW17662   2.645   4.464   3.051  0.3830 -0.5535  0.1547
 2068SOL    HW117663   2.563   4.430   3.086 -0.8957 -0.3841 -2.7217
 2068SOL    HW217664   2.697   4.385   3.037  0.0421 -0.6560 -0.5171
 2069SOL     OW17665   1.505   1.972   0.782 -0.3012 -0.2707 -0.2311
 2069SOL    HW117666   1.534   2.009   0.866 -1.9875  0.0135  0.2219
 2069SOL    HW217667   1.497   1.884   0.819  1.7260 -0.1743  0.4696
 2070SOL     OW17668   2.231   3.547   8.561 -0.2162 -0.0257 -0.1792
 2070SOL    HW117669   2.274   3.462   8.568 -0.8119 -0.3937 -1.0056
 2070SOL    HW217670   2.178   3.548   8.641 -2.0496 -3.0765 -1.3591
 2071SOL     OW17671   1.693   2.421   2.316  0.0743 -0.3683  0.0102
 2071SOL    HW117672   1.682   2.492   2.252  0.1912 -0.9398 -0.6397
 2071SOL    HW217673   1.780   2.430   2.355  0.6663 -3.5367 -0.6126
 2072SOL     OW17674   3.064   2.216   4.642 -0.0074 -0.3581  0.2455
 2072SOL    HW117675   3.061   2.289   4.581 -0.1103  0.1687  0.8859
 2072SOL    HW217676   3.138   2.168   4.603  0.1305  1.0385 -1.1907
 2073SOL     OW17677   0.560   0.049  13.515  0.1691  0.7113 -0.3785
 2073SOL    HW117678   0.631   0.054  13.451 -0.6440 -0.5807 -1.3850
 2073SOL    HW217679   0.489   0.083  13.461 -0.1900  0.3377 -0.1472
 2074SOL     OW17680   1.730   2.781  15.928 -0.2792 -0.5497 -0.1053
 2074SOL    HW117681   1.673   2.706  15.947 -1.4152  0.4614  0.4304
 2074SOL    HW217682   1.803   2.758  15.986 -0.5652  4.4572  2.2465
 2075SOL     OW17683   0.200   1.654   5.607 -0.1893  0.1588  0.2889
 2075SOL    HW117684   0.282   1.687   5.571 -0.4001  0.7281  0.3334
 2075SOL    HW217685   0.229   1.565   5.625 -0.3421  0.1775  0.6196
 2076SOL     OW17686   1.136   3.539   6.962  0.0752  0.3730 -0.2264
 2076SOL    HW117687   1.101   3.621   6.927 -0.1197 -0.2060 -1.3926
 2076SOL    HW217688   1.073   3.489   6.910 -0.0194 -1.3853  1.5846
 2077SOL     OW17689   1.204   4.624   6.397  0.5118  0.0617 -0.1719
 2077SOL    HW117690   1.201   4.555   6.463  0.0657  0.5152  0.2723
 2077SOL    HW217691   1.132   4.682   6.422 -1.0249 -1.1676 -1.7136
 2078SOL     OW17692   1.487   3.075   8.026  1.3808 -0.1351  0.0923
 2078SOL    HW117693   1.421   3.145   8.024  3.5042  1.8946  1.3209
 2078SOL    HW217694   1.437   3.006   8.069  0.2208 -1.5228 -3.5169
 2079SOL     OW17695   4.071   4.197   7.534  0.3932  0.2693  1.2050
 2079SOL    HW117696   4.087   4.280   7.490 -0.1879 -0.3449 -0.1757
 2079SOL    HW217697   3.986   4.169   7.498  1.1313  1.2129 -1.2706
 2080SOL     OW17698   3.078   1.646   3.915  1.7163 -0.7519  0.0840
 2080SOL    HW117699   3.021   1.589   3.968  0.8978 -1.3883 -1.4943
 2080SOL    HW217700   3.075   1.720   3.976  1.1965  0.0813 -0.9656
 2081SOL     OW17701   4.088   3.960  10.842  0.2430  0.1260  0.2442
 2081SOL    HW117702   4.172   3.919  10.865 -0.2722 -1.6772 -1.0232
 2081SOL    HW217703   4.111   4.052  10.840 -1.1363  0.3742 -2.9483
 2082SOL     OW17704   1.541   1.605   6.776  0.1107  0.3833 -0.1988
 2082SOL    HW117705   1.619   1.654   6.752  0.7286 -1.1299 -1.3000
 2082SOL    HW217706   1.526   1.556   6.695 -1.3598 -2.2324  1.6309
 2083SOL     OW17707   0.224   2.116   1.132 -0.3675 -0.3059 -0.1247
 2083SOL    HW117708   0.198   2.204   1.106  1.2777  0.2017 -0.0490
 2083SOL    HW217709   0.239   2.077   1.046  2.7562 -0.7719  0.6435
 2084SOL     OW17710   3.443   4.491   8.547  0.4610  0.0239 -0.5822
 2084SOL    HW117711   3.356   4.451   8.546  0.6838 -0.4635 -0.7244
 2084SOL    HW217712   3.434   4.566   8.605  2.1472 -0.9193  0.9090
 2085SOL     OW17713   2.614   3.958   9.731  0.3958  0.8523 -0.4369
 2085SOL    HW117714   2.666   4.005   9.666  0.4211  0.4264 -0.7303
 2085SOL    HW217715   2.637   4.002   9.812 -0.4823  2.7334 -1.2115
 2086SOL     OW17716   0.571   0.117   2.954 -0.6847 -0.3665 -0.2861
 2086SOL    HW117717   0.582   0.154   3.042  0.4876 -0.9077 -0.2074
 2086SOL    HW217718   0.645   0.057   2.961  0.8486  1.6578  0.5179
 2087SOL     OW17719   1.936   3.449   7.581  0.1794 -0.5100 -0.0654
 2087SOL    HW117720   1.889   3.503   7.517 -0.4497 -0.4406  0.4511
 2087SOL    HW217721   2.005   3.408   7.529  0.7586 -0.0571  0.3485
 2088SOL     OW17722   3.454   2.870  15.263 -0.3122  0.6419 -0.1479
 2088SOL    HW117723   3.408   2.809  15.205 -0.1452 -0.5640  0.9937
 2088SOL    HW217724   3.439   2.820  15.343  0.1320  0.0722 -0.4263
 2089SOL     OW17725   3.762   2.974   2.359  0.0982 -0.4754  0.2764
 2089SOL    HW117726   3.728   2.885   2.349  0.9487 -0.7809  0.1091
 2089SOL    HW217727   3.756   3.006   2.269  0.9109  1.0712  0.7770
 2090SOL     OW17728   2.191   1.310  17.399  0.3403  0.5043  0.4990
 2090SOL    HW117729   2.117   1.357  17.360  0.4383  0.2525  0.0125
 2090SOL    HW217730   2.262   1.299  17.335 -0.0209  0.3213  0.1358
 2091SOL     OW17731   1.062   1.988  15.911  1.0558 -0.0125  0.4601
 2091SOL    HW117732   1.019   1.919  15.961 -0.2769  0.3274 -0.1973
 2091SOL    HW217733   1.108   2.038  15.978  0.5060 -0.4547  1.1682
 2092SOL     OW17734   2.915   3.613   1.382  0.2120  0.0173 -0.1426
 2092SOL    HW117735   2.930   3.555   1.308  3.9236  0.8781 -0.0775
 2092SOL    HW217736   2.998   3.603   1.429 -0.0454 -0.6648  0.1695
 2093SOL     OW17737   2.307   1.964   5.193 -0.3184  0.4965 -0.0741
 2093SOL    HW117738   2.384   1.919   5.225 -0.7036 -0.6547 -0.7472
 2093SOL    HW217739   2.297   1.915   5.111 -1.1182  0.6797 -0.0849
 2094SOL     OW17740   0.284   3.106  14.401  1.0433 -0.7161  0.6489
 2094SOL    HW117741   0.214   3.149  14.448  1.4881  1.2544 -0.4715
 2094SOL    HW217742   0.270   3.133  14.310 -0.4976 -0.3046  1.0099
 2095SOL     OW17743   4.457   0.011   3.721  0.3354  0.2245 -0.1627
 2095SOL    HW117744   4.539   0.021   3.672  0.8273 -1.0374  0.4066
 2095SOL    HW217745   4.496   4.706   3.804  0.9936 -1.2323 -0.9425
 2096SOL     OW17746   0.244   1.299  11.627 -0.3527 -0.6492  0.0969
 2096SOL    HW117747   0.283   1.311  11.714  1.2400  0.0275 -0.7020
 2096SOL    HW217748   0.170   1.244  11.653 -0.8025  0.8082  1.9342
 2097SOL     OW17749   0.103   3.819   3.175  0.1459 -0.5915 -0.0439
 2097SOL    HW117750   0.013   3.791   3.157  0.0846 -0.9492  0.8025
 2097SOL    HW217751   0.111   3.882   3.103  1.3223 -0.5748  0.1062
 2098SOL     OW17752   3.711   4.229   0.226  0.4619 -0.2442 -1.0303
 2098SOL    HW117753   3.629   4.274   0.206  0.0691  0.4407  2.0543
 2098SOL    HW217754   3.770   4.299   0.253 -0.5808  0.4895 -0.6494
 2099SOL     OW17755   3.780   1.564   6.366  0.2135 -0.8511 -0.2855
 2099SOL    HW117756   3.783   1.648   6.411  0.3845 -1.3877  0.7003
 2099SOL    HW217757   3.868   1.548   6.332  1.2751  2.4167  0.9182
 2100SOL     OW17758   0.353   3.001   6.638  0.5691  0.1062 -0.3165
 2100SOL    HW117759   0.357   2.918   6.590  0.0006  0.2271 -0.5775
 2100SOL    HW217760   0.368   3.055   6.560  1.1675 -0.4245 -0.5750
 2101SOL     OW17761   2.985   0.534   7.165  0.4072 -0.1805  0.2956
 2101SOL    HW117762   2.892   0.517   7.174  0.2468  0.1449 -0.7471
 2101SOL    HW217763   3.020   0.473   7.230  1.9491 -0.7587 -1.0688
 2102SOL     OW17764   4.076   3.322   6.835  0.3231 -0.3060  0.3320
 2102SOL    HW117765   4.081   3.294   6.927  0.1384  0.4111  0.5585
 2102SOL    HW217766   3.996   3.375   6.837  0.7514  0.4099 -2.0181
 2103SOL     OW17767   0.833   0.070   5.672 -0.2371  0.2193 -0.0756
 2103SOL    HW117768   0.792   0.156   5.682 -0.7642  0.1191 -1.3331
 2103SOL    HW217769   0.922   0.106   5.675 -0.2535  0.2843 -0.4335
 2104SOL     OW17770   2.683   1.845  16.929 -0.2789  0.1365  0.5618
 2104SOL    HW117771   2.643   1.920  16.884 -1.8031 -0.9857  0.0611
 2104SOL    HW217772   2.636   1.776  16.883 -2.4941  3.2768 -1.8648
 2105SOL     OW17773   2.024   4.401   5.718 -0.2038  0.9847 -0.3337
 2105SOL    HW117774   1.970   4.345   5.663 -2.7097  2.3194  0.7375
 2105SOL    HW217775   1.991   4.374   5.804  0.0504  0.9662 -0.2419
 2106SOL     OW17776   1.800   4.703  15.804 -0.6672 -0.2532 -0.3512
 2106SOL    HW117777   1.767   0.058  15.851 -0.0726 -0.3972  0.3103
 2106SOL    HW217778   1.762   4.632  15.856  0.1795  1.4996  2.6289
 2107SOL     OW17779   4.310   1.403  17.597  0.4751 -0.8338 -0.4259
 2107SOL    HW117780   4.282   1.422  17.507 -0.6967  2.0705  0.5694
 2107SOL    HW217781   4.396   1.440  17.615 -0.4710  1.3311 -0.4244
 2108SOL     OW17782   1.472   1.836  11.187 -0.7327  0.0907 -0.0763
 2108SOL    HW117783   1.487   1.916  11.138 -0.4772 -0.9223 -1.6621
 2108SOL    HW217784   1.556   1.790  11.177  0.1388  1.4119  1.2134
 2109SOL     OW17785   0.131   3.067  14.731  0.5393  0.0791 -0.2521
 2109SOL    HW117786   0.054   3.089  14.783  0.9773  0.1024  0.3870
 2109SOL    HW217787   0.118   2.974  14.716 -0.6207  0.2654 -0.4008
 2110SOL     OW17788   3.100   0.799  17.131  0.3601  0.0965 -0.0054
 2110SOL    HW117789   3.133   0.807  17.220  1.7982 -0.5313 -0.4650
 2110SOL    HW217790   3.163   0.850  17.080 -0.4536  2.6679  1.5620
 2111SOL     OW17791   1.089   4.149  14.612 -0.3344  0.3923  0.0465
 2111SOL    HW117792   1.113   4.221  14.554 -0.7109  0.8097  0.4070
 2111SOL    HW217793   1.119   4.187  14.695 -0.1477  1.4171 -0.5009
 2112SOL     OW17794   4.144   1.016   1.339 -0.6577  0.0278  0.0824
 2112SOL    HW117795   4.096   1.088   1.298  0.8188  1.2500  0.5182
 2112SOL    HW217796   4.074   0.951   1.344  0.3065 -1.0662 -0.6017
 2113SOL     OW17797   1.291   0.461  12.974 -0.5971 -0.4662 -0.3421
 2113SOL    HW117798   1.203   0.497  12.987 -1.1057 -1.6369 -0.5249
 2113SOL    HW217799   1.314   0.498  12.889 -1.8948  0.2063 -0.4141
 2114SOL     OW17800   3.491   0.920   7.282  0.2893  0.0892 -0.3365
 2114SOL    HW117801   3.433   0.969   7.224 -0.1295  0.8372  0.7233
 2114SOL    HW217802   3.504   0.992   7.344 -3.2716  1.9580 -1.7291
 2115SOL     OW17803   4.368   3.004   7.121 -0.4063  0.3530  0.0396
 2115SOL    HW117804   4.369   2.915   7.156 -1.4234  0.2386 -0.1949
 2115SOL    HW217805   4.459   3.006   7.093 -0.2545  0.9687  0.5932
 2116SOL     OW17806   2.314   0.657   1.308 -0.1949 -0.4646 -0.5747
 2116SOL    HW117807   2.233   0.692   1.270 -0.4667  0.8873  1.2602
 2116SOL    HW217808   2.294   0.627   1.396  1.3497 -0.8389 -0.3503
 2117SOL     OW17809   2.391   1.280  11.648 -1.2221 -0.1048  0.1693
 2117SOL    HW117810   2.388   1.369  11.683  1.4877  0.8193 -1.9434
 2117SOL    HW217811   2.482   1.280  11.616 -1.6397 -0.0898 -1.0099
 2118SOL     OW17812   0.539   2.610  17.431  0.5545  0.1747 -0.6699
 2118SOL    HW117813   0.629   2.638  17.444  0.7253 -0.8766  0.4505
 2118SOL    HW217814   0.500   2.695  17.409  0.4907  0.6788  1.3684
 2119SOL     OW17815   3.388   3.507  11.520 -0.1971  0.2452  0.1721
 2119SOL    HW117816   3.351   3.558  11.592 -2.5795  1.7496 -2.1615
 2119SOL    HW217817   3.305   3.470  11.490 -0.0375  0.1872 -0.1945
 2120SOL     OW17818   0.970   2.677  17.203  0.0321  0.3170  0.0577
 2120SOL    HW117819   0.879   2.694  17.226 -0.1528  1.7197 -1.7018
 2120SOL    HW217820   0.992   2.761  17.161  1.1825 -0.6516 -1.2995
 2121SOL     OW17821   2.461   1.701  15.107  0.3194 -0.2423 -0.5799
 2121SOL    HW117822   2.523   1.630  15.123  0.0558 -0.2100  0.5788
 2121SOL    HW217823   2.521   1.775  15.116  1.6585 -1.2707 -0.9157
 2122SOL     OW17824   2.468   2.761   3.839 -0.3800  0.4723  0.0068
 2122SOL    HW117825   2.390   2.711   3.863  1.9552 -1.8408  2.7223
 2122SOL    HW217826   2.446   2.781   3.748 -1.3639  0.3764  0.2216
 2123SOL     OW17827   2.442   2.544  14.046  0.4042  0.4420 -0.0016
 2123SOL    HW117828   2.415   2.534  13.955  0.1885 -0.4334  0.1602
 2123SOL    HW217829   2.407   2.463  14.082  1.6182 -0.5606 -1.0568
 2124SOL     OW17830   1.574   4.054   8.359  0.4717 -0.1569  0.3761
 2124SOL    HW117831   1.485   4.030   8.333  0.8880 -2.0969  0.7392
 2124SOL    HW217832   1.587   4.003   8.439  1.7802  2.4163  1.8107
 2125SOL     OW17833   4.537   3.168   4.186 -0.0757 -0.5826 -0.3210
 2125SOL    HW117834   4.562   3.165   4.278 -1.2647 -0.0032  0.0228
 2125SOL    HW217835   4.595   3.232   4.145  0.7536 -1.0283  0.1550
 2126SOL     OW17836   3.676   0.032  11.613  0.5057 -0.4025  0.4480
 2126SOL    HW117837   3.583   0.029  11.636  0.6204  0.9561  1.0455
 2126SOL    HW217838   3.669   4.712  11.527 -0.1008 -0.1916  0.3935
 2127SOL     OW17839   0.601   2.060  17.576 -0.1318 -0.1760 -0.6366
 2127SOL    HW117840   0.540   2.120  17.535 -0.9372 -1.1879 -0.9164
 2127SOL    HW217841   0.643   2.111  17.646  0.3372 -2.1325  0.5302
 2128SOL     OW17842   0.108   4.142   7.509  1.0254 -0.6829 -0.3636
 2128SOL    HW117843   0.136   4.167   7.420 -0.6536 -0.3394 -0.7945
 2128SOL    HW217844   0.045   4.070   7.505 -1.8939  1.9437 -1.7962
 2129SOL     OW17845   3.820   1.562   5.602 -0.3561  0.0396 -0.1996
 2129SOL    HW117846   3.854   1.527   5.520 -1.5038 -0.2265 -0.5566
 2129SOL    HW217847   3.745   1.503   5.599 -0.1989 -0.2090  0.7294
 2130SOL     OW17848   3.384   1.265   7.926  0.4875 -0.0044 -0.2441
 2130SOL    HW117849   3.350   1.339   7.874 -1.2062 -2.0663 -2.0753
 2130SOL    HW217850   3.298   1.231   7.952  0.6611 -2.1676 -2.4363
 2131SOL     OW17851   0.946   1.232   9.065 -0.2492 -0.1526 -0.0269
 2131SOL    HW117852   0.969   1.315   9.107  2.2007  0.1348 -1.9501
 2131SOL    HW217853   0.901   1.183   9.134 -1.0180  2.2706  1.1844
 2132SOL     OW17854   0.827   4.538  16.272 -0.2602 -0.4949 -0.2886
 2132SOL    HW117855   0.908   4.508  16.312 -0.7560 -1.0724  0.2724
 2132SOL    HW217856   0.846   4.523  16.179  1.0449 -2.4506  0.2934
 2133SOL     OW17857   2.488   0.100   3.482  0.1106  0.2301 -0.2625
 2133SOL    HW117858   2.474   0.109   3.576  1.1585  1.0138 -0.1889
 2133SOL    HW217859   2.564   0.156   3.469 -1.2329  2.2861  0.7407
 2134SOL     OW17860   4.659   2.479  17.491 -0.4367 -0.1628  0.3758
 2134SOL    HW117861   4.641   2.540  17.420  0.4735 -1.2940 -0.8254
 2134SOL    HW217862   4.611   2.402  17.459 -3.1582  1.1545  1.2857
 2135SOL     OW17863   0.803   2.866   7.333 -0.1178 -0.0134  0.3003
 2135SOL    HW117864   0.896   2.843   7.332 -0.0934  0.0159  1.6354
 2135SOL    HW217865   0.779   2.827   7.417  2.3051 -1.3498  0.3943
 2136SOL     OW17866   0.658   0.982   7.151  0.4457 -0.0818 -0.0634
 2136SOL    HW117867   0.750   1.000   7.134  0.2601 -0.7124 -1.6796
 2136SOL    HW217868   0.641   1.058   7.207  0.3392 -0.1704  0.0253
 2137SOL     OW17869   1.677   3.168   1.665  0.2033  0.1913  0.5312
 2137SOL    HW117870   1.702   3.199   1.577  0.7273 -1.0646  0.2434
 2137SOL    HW217871   1.603   3.225   1.687  1.2275  1.8284 -0.2288
 2138SOL     OW17872   4.549   2.372   7.007 -0.5199  0.2870 -0.4193
 2138SOL    HW117873   4.608   2.364   7.082  0.3941 -2.6004 -1.4204
 2138SOL    HW217874   4.539   2.286   6.966  0.1246  0.0666 -0.1115
 2139SOL     OW17875   0.249   0.865   7.786 -0.6523 -0.0968  0.0957
 2139SOL    HW117876   0.275   0.796   7.847 -0.4641  0.6383  0.8512
 2139SOL    HW217877   0.288   0.820   7.711 -1.6336 -0.1681 -0.3666
 2140SOL     OW17878   1.693   2.699   3.541 -0.4358 -0.3324 -0.4960
 2140SOL    HW117879   1.653   2.727   3.458 -2.6043  0.2940  0.7543
 2140SOL    HW217880   1.641   2.747   3.606 -1.3801 -1.5188 -0.3905
 2141SOL     OW17881   2.007   1.668   9.592  0.0712  0.7791  0.3247
 2141SOL    HW117882   1.939   1.736   9.590 -2.6501 -1.9300  1.0451
 2141SOL    HW217883   2.082   1.710   9.551  0.8823 -1.2517 -0.2234
 2142SOL     OW17884   3.360   0.461   6.305  0.0069  0.4779 -0.0441
 2142SOL    HW117885   3.324   0.384   6.262 -0.2189  0.3712  0.3339
 2142SOL    HW217886   3.454   0.451   6.293 -0.0394 -0.3865  0.3405
 2143SOL     OW17887   4.586   3.273   2.855 -0.7165 -0.1380 -0.3878
 2143SOL    HW117888   4.562   3.182   2.834  2.3282 -1.1263  0.3358
 2143SOL    HW217889   4.622   3.289   2.768  0.5256 -2.5598 -0.3358
 2144SOL     OW17890   3.785   2.128  11.166  0.2781 -0.5582  0.7613
 2144SOL    HW117891   3.858   2.114  11.226 -0.7737 -0.0224  2.1586
 2144SOL    HW217892   3.783   2.224  11.157  3.0492 -0.4358  1.5491
 2145SOL     OW17893   0.057   3.615   6.518 -0.4311  0.0428  0.6981
 2145SOL    HW117894   0.037   3.701   6.555  0.0340  1.1091 -1.5200
 2145SOL    HW217895   0.128   3.581   6.573  0.8101  1.7792  0.1970
 2146SOL     OW17896   2.352   2.619   2.780  0.3568 -0.0157 -0.4721
 2146SOL    HW117897   2.345   2.704   2.736  0.5139  0.8187  1.1102
 2146SOL    HW217898   2.429   2.631   2.835  1.0433 -0.7058 -1.2905
 2147SOL     OW17899   1.182   3.067  13.427 -1.0078  0.1065 -0.0055
 2147SOL    HW117900   1.101   3.022  13.452 -0.7542 -0.2165  0.2406
 2147SOL    HW217901   1.236   2.989  13.417  0.4594  1.3599 -2.0235
 2148SOL     OW17902   4.440   3.910  11.462 -0.3140  0.4313 -0.1725
 2148SOL    HW117903   4.528   3.942  11.442 -0.2410 -0.5740 -1.4556
 2148SOL    HW217904   4.453   3.825  11.420 -0.2119  0.9048 -1.0788
 2149SOL     OW17905   4.079   2.964   4.181 -0.3159  0.1812 -0.5554
 2149SOL    HW117906   4.105   3.021   4.109  0.7507 -0.8117 -0.9600
 2149SOL    HW217907   3.996   3.005   4.206 -0.0865 -0.1393  0.7515
 2150SOL     OW17908   4.708   2.680   0.009 -0.1427  0.3917  0.0847
 2150SOL    HW117909   4.686   2.623  17.624  0.8408  0.4328 -0.2490
 2150SOL    HW217910   0.059   2.730  17.660 -1.4118 -0.3744 -3.4019
 2151SOL     OW17911   3.568   1.602   6.987  0.0716 -0.0952  0.0591
 2151SOL    HW117912   3.525   1.676   6.944  0.5827  0.0808 -0.1430
 2151SOL    HW217913   3.657   1.635   6.995  0.5309 -1.2699 -0.2193
 2152SOL     OW17914   4.311   4.232   7.883 -0.4724  0.6025  0.4920
 2152SOL    HW117915   4.259   4.312   7.871 -2.1428 -0.5517  0.1210
 2152SOL    HW217916   4.302   4.175   7.807  2.3807 -0.0797  0.6746
 2153SOL     OW17917   4.659   2.734   4.726 -0.0442 -0.1199  0.4976
 2153SOL    HW117918   0.017   2.739   4.674  0.4767 -0.2395  1.2955
 2153SOL    HW217919   4.684   2.677   4.798  2.5164  0.3518 -0.0284
 2154SOL     OW17920   0.531   4.408   3.081 -0.1349  0.2799  0.1043
 2154SOL    HW117921   0.525   4.322   3.039 -2.4191  0.8523 -0.7388
 2154SOL    HW217922   0.627   4.412   3.076  0.0157 -1.9321  1.1353
 2155SOL     OW17923   2.284   2.368  14.759 -0.3577 -0.1264 -0.4902
 2155SOL    HW117924   2.345   2.405  14.822  0.7605 -1.4959 -0.7491
 2155SOL    HW217925   2.226   2.315  14.814  1.7485 -1.4598  0.4341
 2156SOL     OW17926   0.786   4.589   6.031  0.2015  0.4914 -0.1165
 2156SOL    HW117927   0.841   4.668   6.033  1.7402 -0.5962  1.1835
 2156SOL    HW217928   0.850   4.519   6.042 -0.0725  0.2371 -0.1693
 2157SOL     OW17929   0.931   0.109   6.075  0.0009  0.0672 -0.4057
 2157SOL    HW117930   0.918   0.150   6.161 -1.8688 -1.5410  0.0734
 2157SOL    HW217931   1.022   0.135   6.058  0.7024 -0.4377  2.5707
 2158SOL     OW17932   2.568   2.463   7.543  0.6328  0.1836 -0.0372
 2158SOL    HW117933   2.496   2.475   7.604 -1.1242  1.0669 -2.3071
 2158SOL    HW217934   2.563   2.370   7.522  1.2904  0.1987 -0.2729
 2159SOL     OW17935   2.774   3.361  11.523 -0.2310 -0.4568  0.8142
 2159SOL    HW117936   2.822   3.443  11.527  1.2034 -1.1711 -1.3454
 2159SOL    HW217937   2.737   3.359  11.434 -1.7865  1.4948  1.4198
 2160SOL     OW17938   3.156   4.415   5.809 -0.3018 -0.1945 -0.7025
 2160SOL    HW117939   3.148   4.352   5.881  0.8099  0.4234 -0.0389
 2160SOL    HW217940   3.165   4.352   5.737 -1.4771 -0.5394 -0.5462
 2161SOL     OW17941   3.958   1.194   8.953  0.1656  0.3578 -0.5565
 2161SOL    HW117942   3.997   1.275   8.921 -0.5089  1.0667  0.4476
 2161SOL    HW217943   4.026   1.127   8.956  0.5077  0.7350  0.1599
 2162SOL     OW17944   1.450   0.237   7.188  0.0757  0.3538  0.1772
 2162SOL    HW117945   1.370   0.193   7.161  1.5336 -1.4965 -1.1661
 2162SOL    HW217946   1.476   0.180   7.261  2.1818 -1.4008 -1.9703
 2163SOL     OW17947   3.482   0.512   5.516  0.2781  0.1785  0.3020
 2163SOL    HW117948   3.466   0.537   5.425  0.5167 -0.7461  0.0052
 2163SOL    HW217949   3.405   0.554   5.555  0.1284  0.4593 -0.2969
 2164SOL     OW17950   4.436   1.742  12.304  0.2944 -0.5227  0.1443
 2164SOL    HW117951   4.508   1.680  12.303  1.2167  0.5439  0.2016
 2164SOL    HW217952   4.453   1.803  12.232 -1.6414 -0.4039 -0.2331
 2165SOL     OW17953   3.270   0.706   6.268  0.3156 -0.0934  0.3608
 2165SOL    HW117954   3.322   0.750   6.335 -0.0973  1.0661 -0.0666
 2165SOL    HW217955   3.294   0.616   6.288 -0.7587  0.2989  3.3636
 2166SOL     OW17956   1.958   1.449   0.994 -0.0831  0.2282  0.1966
 2166SOL    HW117957   2.049   1.434   0.969 -0.2990 -1.6469  0.5441
 2166SOL    HW217958   1.958   1.541   1.022  0.9711  0.2419  0.1691
 2167SOL     OW17959   3.283   1.965   4.604  0.3192  0.2005 -0.5691
 2167SOL    HW117960   3.280   1.992   4.696  2.3466 -1.7172  0.0611
 2167SOL    HW217961   3.376   1.989   4.598  0.7415 -1.5942 -1.1875
 2168SOL     OW17962   0.868   0.022   3.464 -0.0207 -0.7501  0.2709
 2168SOL    HW117963   0.944   4.706   3.419  1.1143 -0.5730  2.0724
 2168SOL    HW217964   0.847   4.656   3.498  0.3468 -0.6073  0.8614
 2169SOL     OW17965   2.009   2.562   0.359 -0.1358  0.2532  0.3461
 2169SOL    HW117966   2.039   2.498   0.424 -1.2343  0.0277  0.6290
 2169SOL    HW217967   2.095   2.582   0.321  0.2001  0.6406  1.3028
 2170SOL     OW17968   2.035   0.374  12.597  0.4132 -0.2023 -0.5374
 2170SOL    HW117969   2.033   0.327  12.514 -0.4255  1.2330 -1.3252
 2170SOL    HW217970   2.130   0.364  12.604  0.5825  0.9984 -1.0462
 2171SOL     OW17971   4.676   3.175   4.706 -0.1047 -0.0635 -0.3754
 2171SOL    HW117972   4.634   3.113   4.766 -3.1041  2.4147  0.0967
 2171SOL    HW217973   4.693   3.246   4.768 -1.9120 -1.0857  1.3123
 2172SOL     OW17974   3.443   3.405  17.496 -0.4114 -0.5076  0.1734
 2172SOL    HW117975   3.537   3.415  17.480 -0.4973 -3.3319 -2.1066
 2172SOL    HW217976   3.433   3.445  17.582 -2.4000 -1.2962  0.3022
 2173SOL     OW17977   1.112   0.358   7.137 -0.3378  0.0883 -0.3990
 2173SOL    HW117978   1.059   0.387   7.063 -1.3280  1.5239  0.8593
 2173SOL    HW217979   1.144   0.273   7.108  0.9495  1.1297 -2.0393
 2174SOL     OW17980   3.450   0.749   3.315 -0.0373 -0.1673  0.3129
 2174SOL    HW117981   3.479   0.745   3.224  0.0445 -0.3758  0.3488
 2174SOL    HW217982   3.516   0.692   3.354  1.1835  1.7889  1.0442
 2175SOL     OW17983   0.077   3.211   8.622 -0.2267 -0.3272  0.1116
 2175SOL    HW117984   0.044   3.260   8.697  1.6605 -0.8304  1.2770
 2175SOL    HW217985   0.134   3.147   8.665 -0.4012 -1.3393 -1.1575
 2176SOL     OW17986   3.222   4.359   4.449  1.1353 -0.0103  0.2678
 2176SOL    HW117987   3.315   4.353   4.430  0.9351  0.7387 -0.9088
 2176SOL    HW217988   3.197   4.286   4.393  0.3867 -0.0013  0.5774
 2177SOL     OW17989   3.453   1.060   0.966  0.8503  0.0389 -0.5873
 2177SOL    HW117990   3.385   1.050   1.033 -0.0901 -1.0770 -1.7101
 2177SOL    HW217991   3.484   0.974   0.936  1.9267  0.9835 -2.2000
 2178SOL     OW17992   1.201   0.641   4.046 -0.2084 -0.8208  0.0247
 2178SOL    HW117993   1.117   0.597   4.035  0.2347 -1.8952  0.9239
 2178SOL    HW217994   1.192   0.673   4.135  0.0699  0.4307 -0.3978
 2179SOL     OW17995   0.679   4.379   4.969  0.7258  0.3379 -0.6815
 2179SOL    HW117996   0.693   4.356   5.061 -2.5788 -1.8500 -0.7594
 2179SOL    HW217997   0.699   4.296   4.925  2.5534  1.5970 -2.2405
 2180SOL     OW17998   0.139   1.390   7.675  0.6333 -0.3854 -0.2132
 2180SOL    HW117999   0.121   1.308   7.722  1.4091 -1.8766 -2.5165
 2180SOL    HW218000   0.197   1.425   7.742  0.3631 -2.1542  0.9385
 2181SOL     OW18001   2.127   1.859  13.525  0.3590 -0.4640 -0.3207
 2181SOL    HW118002   2.106   1.806  13.602  0.8971 -1.5086 -0.8785
 2181SOL    HW218003   2.085   1.941  13.551  3.3341  0.6096  1.0834
 2182SOL     OW18004   4.424   1.597   2.306 -0.2040 -0.2041  0.9147
 2182SOL    HW118005   4.508   1.626   2.340 -0.2649  2.8113 -1.4893
 2182SOL    HW218006   4.447   1.579   2.215  0.8694 -0.4044  1.2322
 2183SOL     OW18007   2.675   4.704  16.140  0.0307  0.4923 -0.1356
 2183SOL    HW118008   2.760   4.700  16.184 -1.1649 -0.6742  2.0177
 2183SOL    HW218009   2.676   4.614  16.107 -1.0979 -0.8687  3.5953
 2184SOL     OW18010   2.640   1.942   3.732  0.7841 -0.6382 -0.8739
 2184SOL    HW118011   2.670   1.971   3.646  0.2172  0.0821 -0.8260
 2184SOL    HW218012   2.646   1.846   3.724 -1.1481 -0.6751 -1.9945
 2185SOL     OW18013   2.608   3.346   0.294  0.4736  0.1266 -0.2520
 2185SOL    HW118014   2.685   3.333   0.239  0.4600 -3.7416  0.6535
 2185SOL    HW218015   2.610   3.441   0.308  0.2375  0.4233 -2.1750
 2186SOL     OW18016   1.456   3.050   2.755  0.6923  0.1327 -0.1416
 2186SOL    HW118017   1.448   3.119   2.689  0.4848 -2.2125 -2.5681
 2186SOL    HW218018   1.429   2.972   2.707  1.3117 -0.2758  0.1787
 2187SOL     OW18019   1.078   1.631  11.685 -0.3273 -0.1646 -0.0958
 2187SOL    HW118020   1.011   1.681  11.732  1.2451  0.8021  1.0927
 2187SOL    HW218021   1.119   1.602  11.767  3.4091 -0.7037 -2.1926
 2188SOL     OW18022   2.764   3.473   3.347 -0.6680 -0.3644  0.0149
 2188SOL    HW118023   2.755   3.402   3.283 -0.6614  0.2800 -0.6935
 2188SOL    HW218024   2.853   3.502   3.329 -0.9754  1.5080  1.4501
 2189SOL     OW18025   2.491   0.917   6.614 -0.1689 -0.1103  0.3933
 2189SOL    HW118026   2.560   0.877   6.562 -1.6580 -1.7015 -0.3449
 2189SOL    HW218027   2.446   0.960   6.542  0.0538  0.2613  0.4758
 2190SOL     OW18028   0.262   2.536   0.407 -0.4389  0.3008  0.1377
 2190SOL    HW118029   0.253   2.444   0.383  0.5613 -0.7505  3.8462
 2190SOL    HW218030   0.195   2.565   0.345 -1.4895 -0.2551  1.0192
 2191SOL     OW18031   3.830   3.351   3.254  0.7308  0.1381 -0.1607
 2191SOL    HW118032   3.899   3.345   3.187 -0.3006  0.2761 -1.2247
 2191SOL    HW218033   3.784   3.432   3.230 -0.0644 -0.3109 -0.1408
 2192SOL     OW18034   0.198   4.188   6.859  0.4360 -0.4571 -0.0211
 2192SOL    HW118035   0.141   4.149   6.793 -0.9524  1.1258  0.2450
 2192SOL    HW218036   0.220   4.273   6.821 -0.9526  0.3698  1.0509
 2193SOL     OW18037   1.789   4.315   2.687 -0.9904 -0.3469 -0.4233
 2193SOL    HW118038   1.783   4.350   2.598 -0.5314  0.1592 -0.2542
 2193SOL    HW218039   1.714   4.255   2.692 -0.3458 -1.2356 -1.4828
 2194SOL     OW18040   1.323   3.661   3.159 -0.0534  0.0023  0.0337
 2194SOL    HW118041   1.284   3.736   3.203  1.5162  1.0933 -0.4118
 2194SOL    HW218042   1.380   3.694   3.089  1.9570  1.1696  2.2146
 2195SOL     OW18043   0.947   3.644   0.568  0.1022 -0.3538 -0.2003
 2195SOL    HW118044   1.024   3.608   0.522  0.6274  0.2219  0.2251
 2195SOL    HW218045   0.903   3.686   0.494  0.0163 -0.5916 -0.2849
 2196SOL     OW18046   2.357   2.183   3.685 -0.0450 -0.2876  0.0264
 2196SOL    HW118047   2.450   2.206   3.689 -0.2577  0.6235 -0.2740
 2196SOL    HW218048   2.329   2.259   3.635 -1.3816  0.0408  1.2752
 2197SOL     OW18049   1.091   0.625  12.943 -0.2848 -0.5177  0.0789
 2197SOL    HW118050   1.037   0.587  12.874 -2.0113  2.7372 -0.3464
 2197SOL    HW218051   1.021   0.664  12.996  0.7666  0.1983  0.9559
 2198SOL     OW18052   0.550   3.826   3.820  0.0806 -0.4131  0.4551
 2198SOL    HW118053   0.576   3.837   3.729 -1.0333 -1.1075  0.0508
 2198SOL    HW218054   0.509   3.910   3.842 -0.1426 -0.1829 -0.8217
 2199SOL     OW18055   0.978   1.518   7.851  0.3629  0.2341  0.1372
 2199SOL    HW118056   1.003   1.427   7.868 -1.7857 -0.9016 -2.8105
 2199SOL    HW218057   0.885   1.506   7.833  0.2734 -1.8471  1.9551
 2200SOL     OW18058   3.279   3.186   5.629  0.7751 -0.2705  0.0595
 2200SOL    HW118059   3.282   3.122   5.557  2.3752  0.0535 -0.1513
 2200SOL    HW218060   3.245   3.263   5.583 -3.8604 -0.6704  2.8781
 2201SOL     OW18061   0.584   1.053   5.475 -0.7954  0.3243 -0.0768
 2201SOL    HW118062   0.637   0.974   5.468  0.6662  1.2808  0.1889
 2201SOL    HW218063   0.644   1.126   5.490  0.9687 -0.5865 -2.7436
 2202SOL     OW18064   0.669   3.424   2.463  0.0794  0.2029 -0.4143
 2202SOL    HW118065   0.736   3.362   2.492  0.8575  1.0905 -0.2791
 2202SOL    HW218066   0.599   3.401   2.523 -0.4953  0.7310 -0.8855
 2203SOL     OW18067   3.252   1.385  15.632 -0.0215 -0.5254 -0.1545
 2203SOL    HW118068   3.299   1.394  15.715  0.3918 -0.7112 -0.3734
 2203SOL    HW218069   3.240   1.292  15.617 -1.1614 -0.2679 -0.8334
 2204SOL     OW18070   4.478   3.725   1.406 -0.4734 -0.0870  0.4542
 2204SOL    HW118071   4.565   3.706   1.373 -0.1691 -0.9482  1.7409
 2204SOL    HW218072   4.486   3.688   1.494 -1.1075 -1.6035 -0.1179
 2205SOL     OW18073   1.236   1.404  12.519  0.2850  0.3041 -0.2929
 2205SOL    HW118074   1.303   1.441  12.461  2.5097 -0.3319  1.8760
 2205SOL    HW218075   1.266   1.313  12.518 -0.1547  0.1679 -1.5515
 2206SOL     OW18076   3.432   2.802   6.448  0.7302  0.4635 -0.8641
 2206SOL    HW118077   3.503   2.788   6.384  3.1578 -1.8058  2.3253
 2206SOL    HW218078   3.451   2.892   6.474 -0.0585 -0.2917  2.2550
 2207SOL     OW18079   0.784   2.532   6.616  0.1081  0.9341  0.1755
 2207SOL    HW118080   0.764   2.439   6.621  2.5062  0.5155  1.9686
 2207SOL    HW218081   0.702   2.566   6.652  0.0412  1.3376 -0.3483
 2208SOL     OW18082   4.610   2.503   2.753 -0.8573 -0.2499 -0.1919
 2208SOL    HW118083   4.562   2.427   2.786 -1.2863 -0.0199 -0.2887
 2208SOL    HW218084   4.690   2.456   2.727 -0.6933  0.0830 -0.2929
 2209SOL     OW18085   3.883   3.788  10.931  0.4384 -0.4457 -0.4637
 2209SOL    HW118086   3.929   3.861  10.890  0.3017 -0.4748 -0.6657
 2209SOL    HW218087   3.807   3.775  10.875  0.4065  3.8587 -1.4486
 2210SOL     OW18088   0.032   2.546   5.519  0.1796  0.0207 -0.1795
 2210SOL    HW118089   4.659   2.548   5.502 -0.2671 -0.0766  2.3372
 2210SOL    HW218090   0.058   2.627   5.474 -0.6420  0.1443 -0.4400
 2211SOL     OW18091   4.073   1.577  16.443  0.1433  0.1601  0.3214
 2211SOL    HW118092   4.024   1.543  16.517 -0.6550  0.6356  0.0081
 2211SOL    HW218093   4.144   1.627  16.484 -0.4505  1.7144 -0.5384
 2212SOL     OW18094   1.764   2.877  17.502 -0.7433  0.4609  0.3324
 2212SOL    HW118095   1.835   2.920  17.551  0.0659  0.0039 -0.4519
 2212SOL    HW218096   1.699   2.947  17.501 -2.7026 -1.3642  0.1208
 2213SOL     OW18097   3.553   2.671  16.823 -0.3948  0.0265 -0.2644
 2213SOL    HW118098   3.595   2.624  16.751 -0.0828  0.9269 -0.6652
 2213SOL    HW218099   3.584   2.617  16.896  0.4305 -0.5078 -1.0040
 2214SOL     OW18100   3.961   3.484   4.135 -0.0732  0.4412  0.1304
 2214SOL    HW118101   3.923   3.571   4.147 -3.8764 -1.0749 -0.6642
 2214SOL    HW218102   4.041   3.513   4.091 -0.8499  1.0067 -0.9267
 2215SOL     OW18103   1.428   4.614  15.452  0.3397 -0.5147 -0.3268
 2215SOL    HW118104   1.502   4.575  15.404  0.5204  2.1446 -2.2359
 2215SOL    HW218105   1.378   4.533  15.462  0.1268 -0.4547 -0.9223
 2216SOL     OW18106   2.122   0.605   5.645  0.0582 -0.4496 -0.2142
 2216SOL    HW118107   2.074   0.586   5.565  1.0903  3.0117 -1.6528
 2216SOL    HW218108   2.059   0.554   5.697 -0.1393  2.0526  2.0359
 2217SOL     OW18109   0.160   2.013   1.911  0.2559  0.0671  0.3045
 2217SOL    HW118110   0.241   1.963   1.906  0.9028  1.1909 -0.4114
 2217SOL    HW218111   0.138   1.991   1.820 -2.1207  0.6421  0.7330
 2218SOL     OW18112   3.833   3.712   1.330 -0.0687 -0.5526  0.6423
 2218SOL    HW118113   3.858   3.688   1.241 -0.4954 -1.4655  0.7678
 2218SOL    HW218114   3.918   3.733   1.368 -0.2965 -0.0634  0.8817
 2219SOL     OW18115   1.621   4.366   3.626  0.5572 -0.1254  0.0979
 2219SOL    HW118116   1.684   4.438   3.631  1.4645 -1.0117  1.3206
 2219SOL    HW218117   1.551   4.412   3.673  1.4272 -0.6492  1.9009
 2220SOL     OW18118   4.687   0.726   7.312  0.1882  0.5980 -0.1278
 2220SOL    HW118119   4.625   0.797   7.295 -1.3696 -0.3312  1.6321
 2220SOL    HW218120   4.648   0.678   7.385  0.5780  1.1764  0.4714
 2221SOL     OW18121   2.670   2.261  14.056  0.2944  0.2498 -0.3083
 2221SOL    HW118122   2.591   2.224  14.018  1.6172 -2.3974 -0.4905
 2221SOL    HW218123   2.716   2.276  13.973 -0.6384 -1.5044 -1.1433
 2222SOL     OW18124   1.848   2.841   7.752  0.1136 -0.4359  0.4711
 2222SOL    HW118125   1.769   2.822   7.801 -1.0332 -0.5628 -1.4439
 2222SOL    HW218126   1.845   2.932   7.722 -0.3216 -0.1078  1.5469
 2223SOL     OW18127   0.062   3.176   6.937 -0.3826  0.2718 -0.0633
 2223SOL    HW118128   0.024   3.090   6.958  0.6310  0.0006  0.6700
 2223SOL    HW218129   0.061   3.217   7.024 -0.1625 -0.5319  0.3255
 2224SOL     OW18130   3.769   4.071   3.243  0.0448  0.4920 -0.2573
 2224SOL    HW118131   3.720   4.039   3.319 -1.0887  2.7976 -0.0179
 2224SOL    HW218132   3.706   4.125   3.196 -0.8210 -1.0929 -0.9403
 2225SOL     OW18133   1.484   2.841   3.062  0.0066  0.3543 -0.1107
 2225SOL    HW118134   1.443   2.755   3.067  1.0408 -0.1841 -0.6995
 2225SOL    HW218135   1.421   2.900   3.021 -0.1984  0.8414  0.9219
 2226SOL     OW18136   3.950   3.057   3.607  0.4572 -0.3616 -0.0725
 2226SOL    HW118137   3.963   2.990   3.674 -2.5323 -1.5803 -0.6939
 2226SOL    HW218138   3.881   3.112   3.644  1.1698  0.4763 -0.0025
 2227SOL     OW18139   4.495   0.315   8.744  0.0651  0.2840 -0.0946
 2227SOL    HW118140   4.437   0.241   8.761  0.7299 -0.5349 -1.4160
 2227SOL    HW218141   4.427   0.383   8.747 -0.1097  0.1100 -0.0743
 2228SOL     OW18142   2.712   1.027   7.392  0.2241 -0.0803 -0.1302
 2228SOL    HW118143   2.752   1.066   7.470  0.1873  2.6926 -1.4770
 2228SOL    HW218144   2.642   0.973   7.429  0.9885  0.9114  2.7069
 2229SOL     OW18145   4.188   0.386   7.089  0.1947  0.0904  0.3409
 2229SOL    HW118146   4.212   0.479   7.083  0.5230  0.2825  4.5706
 2229SOL    HW218147   4.264   0.350   7.134  0.1280  0.2860  0.6117
 2230SOL     OW18148   1.417   1.883   1.429  0.5939  0.1213 -0.3340
 2230SOL    HW118149   1.337   1.836   1.451  0.5453  0.4041  0.1043
 2230SOL    HW218150   1.382   1.963   1.389 -0.8438 -0.4627 -0.2290
 2231SOL     OW18151   4.468   2.170   5.146  0.0643  0.3580  0.0987
 2231SOL    HW118152   4.551   2.121   5.146 -1.2629 -1.8735  3.2606
 2231SOL    HW218153   4.473   2.210   5.233 -0.5785 -0.2329  0.4035
 2232SOL     OW18154   0.516   4.358  12.407 -0.1407  0.2912 -0.1802
 2232SOL    HW118155   0.566   4.409  12.343 -0.1450  1.8270  1.0392
 2232SOL    HW218156   0.434   4.334  12.364 -0.7078 -1.5078  1.9046
 2233SOL     OW18157   0.943   1.368  12.812 -0.4928 -0.6195 -0.3962
 2233SOL    HW118158   0.934   1.340  12.903 -2.6966  1.7156  0.0848
 2233SOL    HW218159   0.939   1.283  12.767 -1.6415 -1.1537  0.7153
 2234SOL     OW18160   2.022   1.496   8.772 -0.6801 -0.5344 -0.2756
 2234SOL    HW118161   2.015   1.482   8.867 -0.4863  1.9321  0.1074
 2234SOL    HW218162   2.018   1.592   8.776 -3.1930 -0.6962  1.1558
 2235SOL     OW18163   0.347   2.539  16.757 -0.1326  0.4837 -0.2207
 2235SOL    HW118164   0.402   2.482  16.704  1.6564  0.5305  1.5738
 2235SOL    HW218165   0.403   2.609  16.792  0.8035 -0.0546 -0.6468
 2236SOL     OW18166   2.985   3.821  15.549  0.0441  0.6080 -0.7700
 2236SOL    HW118167   2.894   3.845  15.566  0.3855 -0.3614  2.3709
 2236SOL    HW218168   3.016   3.897  15.499 -0.1609  0.5813 -0.9364
 2237SOL     OW18169   4.104   4.074   2.501  0.4078  0.2303 -0.0658
 2237SOL    HW118170   4.187   4.092   2.543  0.5717 -3.8816  1.3760
 2237SOL    HW218171   4.122   4.007   2.435  0.3928 -0.8810  1.0708
 2238SOL     OW18172   1.985   3.763   1.163  0.1750 -0.2881 -0.0284
 2238SOL    HW118173   1.946   3.846   1.136 -0.2334 -0.5699 -0.2942
 2238SOL    HW218174   2.008   3.787   1.253  1.5275  0.2140 -0.5063
 2239SOL     OW18175   2.896   2.939   2.462 -0.1597  0.0374  0.8903
 2239SOL    HW118176   2.950   2.996   2.407  2.6957 -2.3363  1.2126
 2239SOL    HW218177   2.961   2.876   2.494  1.0563  0.5749 -0.5088
 2240SOL     OW18178   4.597   4.534   4.787  0.0645  0.5606 -0.2289
 2240SOL    HW118179   4.548   4.539   4.704  2.3746 -1.9741 -1.7609
 2240SOL    HW218180   4.624   4.443   4.801 -0.3307  0.7405  1.6441
 2241SOL     OW18181   2.143   2.448   0.105  0.2129 -0.3251  0.2331
 2241SOL    HW118182   2.075   2.386   0.131 -2.1112  0.7404 -3.3195
 2241SOL    HW218183   2.104   2.492   0.029  0.9954  2.3793  1.4012
 2242SOL     OW18184   1.056   0.556   1.912  0.3034 -0.0359 -0.0399
 2242SOL    HW118185   0.967   0.523   1.904 -0.1781  1.3127 -0.3303
 2242SOL    HW218186   1.057   0.613   1.834 -0.7196 -2.8482 -2.1161
 2243SOL     OW18187   2.631   2.250   3.940 -0.1564  0.3603  0.5214
 2243SOL    HW118188   2.630   2.271   3.846  0.3594  0.1132  0.4582
 2243SOL    HW218189   2.581   2.168   3.948  2.2094 -1.0411  0.9681
 2244SOL     OW18190   1.450   4.152   3.613 -0.0525  0.0733  0.1283
 2244SOL    HW118191   1.502   4.232   3.621 -0.4275  0.1945  1.4004
 2244SOL    HW218192   1.412   4.150   3.526 -0.2791 -0.3967  0.2409
 2245SOL     OW18193   3.514   2.679   3.594 -0.2314 -0.3230 -0.7577
 2245SOL    HW118194   3.436   2.734   3.594 -0.1453 -0.2031 -0.9714
 2245SOL    HW218195   3.584   2.742   3.611 -0.4151 -0.2861 -0.1189
 2246SOL     OW18196   1.070   3.642   5.755  0.3481  0.1323  0.3540
 2246SOL    HW118197   1.087   3.702   5.828  1.0079  3.8372 -2.8722
 2246SOL    HW218198   1.142   3.579   5.763  1.0952  0.7933 -1.0646
 2247SOL     OW18199   2.900   0.445   6.451  0.0386 -0.3923 -0.5973
 2247SOL    HW118200   2.895   0.371   6.512  1.1342 -0.1384 -0.1948
 2247SOL    HW218201   2.986   0.483   6.472 -1.2474  2.7162 -0.9166
 2248SOL     OW18202   2.489   0.007   7.539 -0.1866  0.2227 -0.3911
 2248SOL    HW118203   2.563   4.669   7.532 -0.4732 -0.1550 -0.1782
 2248SOL    HW218204   2.428   4.668   7.581 -0.6855  0.4912 -0.7308
 2249SOL     OW18205   1.003   1.572  13.823  0.1436  0.5382 -0.0280
 2249SOL    HW118206   0.957   1.526  13.753  1.0577 -0.9813  0.3932
 2249SOL    HW218207   0.936   1.634  13.852 -1.2793 -1.0201  0.0038
 2250SOL     OW18208   1.182   0.355   7.425 -0.2446 -0.0251 -0.1351
 2250SOL    HW118209   1.135   0.374   7.344 -1.2077  1.3621  0.7308
 2250SOL    HW218210   1.177   0.260   7.420  0.3094  0.0147 -1.2533
 2251SOL     OW18211   4.227   3.808  11.196  0.1214 -0.0955 -0.7014
 2251SOL    HW118212   4.283   3.750  11.248 -3.4689 -1.2054  1.9197
 2251SOL    HW218213   4.171   3.735  11.169 -0.3014 -0.4895  1.2536
 2252SOL     OW18214   2.176   4.011   4.812 -0.3169 -0.3233 -0.5210
 2252SOL    HW118215   2.246   3.957   4.777  0.0755  0.8402 -1.5242
 2252SOL    HW218216   2.213   4.076   4.872 -0.2151  0.3564 -1.3131
 2253SOL     OW18217   3.477   0.717   6.730 -0.8007  0.1454  0.0953
 2253SOL    HW118218   3.402   0.702   6.789 -1.4611  3.9242  0.2223
 2253SOL    HW218219   3.535   0.758   6.794  1.4282 -0.3726 -1.6076
 2254SOL     OW18220   0.526   0.729   6.811 -0.1289  0.2320  0.7250
 2254SOL    HW118221   0.597   0.772   6.857 -0.4499  0.5499  0.9254
 2254SOL    HW218222   0.512   0.649   6.862  0.4670  0.5258  1.3364
 2255SOL     OW18223   0.543   4.310  12.693  0.1954  0.2462  0.0076
 2255SOL    HW118224   0.495   4.388  12.721 -0.2475 -0.8683  2.3990
 2255SOL    HW218225   0.553   4.333  12.601 -0.3125  0.6324  0.0517
 2256SOL     OW18226   4.309   4.066   7.634  0.0751 -0.0252 -0.8086
 2256SOL    HW118227   4.248   4.128   7.595 -1.0249 -2.1424 -2.4058
 2256SOL    HW218228   4.244   4.005   7.668  1.6128 -1.6100 -0.6664
 2257SOL     OW18229   4.380   2.833  14.939  0.2121 -0.0595  0.6153
 2257SOL    HW118230   4.442   2.806  14.871 -0.7695 -0.6858 -0.0336
 2257SOL    HW218231   4.294   2.814  14.902  0.4884  1.2730 -0.7088
 2258SOL     OW18232   3.500   4.661  17.419  0.0179  0.3002 -0.4711
 2258SOL    HW118233   3.441   0.013  17.435 -0.0394 -0.0734  1.0330
 2258SOL    HW218234   3.450   4.593  17.464 -0.3262  0.9978  0.1939
 2259SOL     OW18235   2.700   3.527  15.691  0.1046  0.7405  0.1625
 2259SOL    HW118236   2.690   3.574  15.609 -1.2407 -0.3735 -0.3006
 2259SOL    HW218237   2.615   3.520  15.734  1.2919  2.6567  2.8858
 2260SOL     OW18238   0.109   4.177   9.791 -0.2563 -0.0800  0.1048
 2260SOL    HW118239   0.151   4.101   9.833  0.5571 -0.7623 -1.9478
 2260SOL    HW218240   0.059   4.127   9.727 -0.9966  0.6587  0.1059
 2261SOL     OW18241   4.273   3.075   5.676  0.3646 -0.2466  0.0998
 2261SOL    HW118242   4.280   3.070   5.771 -1.6729  2.1664  0.3783
 2261SOL    HW218243   4.366   3.074   5.654 -0.1024  1.2795 -1.9845
 2262SOL     OW18244   3.022   2.176  12.339 -0.1078  0.3204 -0.1046
 2262SOL    HW118245   3.060   2.136  12.261  0.7051  1.5629 -0.3480
 2262SOL    HW218246   3.064   2.262  12.330  2.4842 -0.9032  0.0573
 2263SOL     OW18247   4.115   2.810  15.752 -0.0589 -0.1633  0.3299
 2263SOL    HW118248   4.202   2.829  15.718 -0.4559  0.4028 -0.3724
 2263SOL    HW218249   4.083   2.901  15.751  0.9438  0.1914  0.3972
 2264SOL     OW18250   4.670   2.928   2.919  0.1682  0.1195 -0.5120
 2264SOL    HW118251   4.616   2.928   2.998  0.6791 -0.4333 -0.1625
 2264SOL    HW218252   4.611   2.892   2.853  1.5967  0.0055 -1.7218
 2265SOL     OW18253   4.302   3.102   4.022  0.6580 -0.0620 -0.1854
 2265SOL    HW118254   4.347   3.029   3.979 -1.1174 -0.0514 -2.0768
 2265SOL    HW218255   4.379   3.139   4.064  0.1295  1.7127 -0.7644
 2266SOL     OW18256   4.634   3.133  11.313  0.3088  0.4848 -0.1482
 2266SOL    HW118257   4.600   3.073  11.379  3.5467 -2.1807 -0.8868
 2266SOL    HW218258   4.673   3.072  11.251  2.8597  0.8180  1.1090
 2267SOL     OW18259   0.200   1.127   7.821 -0.3515  0.7183 -0.2051
 2267SOL    HW118260   0.188   1.032   7.821 -0.7418  0.7650 -0.3565
 2267SOL    HW218261   0.264   1.143   7.752  0.6008 -2.1400  0.0238
 2268SOL     OW18262   0.003   2.391  12.262  0.2136 -0.1209 -0.3100
 2268SOL    HW118263   0.050   2.403  12.180 -0.4234  1.0739 -0.4904
 2268SOL    HW218264   4.710   2.297  12.254 -3.1429  0.4507 -1.1257
 2269SOL     OW18265   2.925   4.507   5.964  0.2534  0.0972  0.1262
 2269SOL    HW118266   3.004   4.503   5.910 -0.6517  0.9419 -1.2834
 2269SOL    HW218267   2.855   4.533   5.903 -0.2542  0.3257  0.8034
 2270SOL     OW18268   4.140   1.331  13.869 -0.2017  0.3931 -0.4722
 2270SOL    HW118269   4.194   1.403  13.902  3.3388 -1.1996 -2.8018
 2270SOL    HW218270   4.077   1.331  13.941  0.4515 -1.0292  0.1021
 2271SOL     OW18271   4.306   0.674  12.976 -0.1293  0.7374 -0.4366
 2271SOL    HW118272   4.256   0.690  13.056  0.3520 -1.7839  0.3631
 2271SOL    HW218273   4.250   0.716  12.912 -1.8771 -1.7221 -0.5081
 2272SOL     OW18274   4.556   3.772   5.909  0.0725 -0.4052  0.5976
 2272SOL    HW118275   4.544   3.684   5.873 -3.2762  0.1184  0.4322
 2272SOL    HW218276   4.566   3.732   5.996  1.0472 -2.1291 -0.3226
 2273SOL     OW18277   2.731   0.997   0.677  0.0405 -0.1419 -0.2907
 2273SOL    HW118278   2.802   1.052   0.710  0.6200 -1.9411  1.4517
 2273SOL    HW218279   2.685   1.066   0.629  1.1137  1.9337  1.6547
 2274SOL     OW18280   2.873   2.396  11.748 -0.3251  0.4824  0.4703
 2274SOL    HW118281   2.836   2.314  11.782 -1.3847 -0.8410 -3.8241
 2274SOL    HW218282   2.861   2.457  11.820 -0.4652  2.6921 -1.4156
 2275SOL     OW18283   0.941   1.915  17.249 -0.4103  0.1194 -0.6547
 2275SOL    HW118284   0.850   1.910  17.278 -0.5982  0.5852 -1.1666
 2275SOL    HW218285   0.991   1.972  17.307  1.2965 -1.1935 -0.8187
 2276SOL     OW18286   2.700   2.236   2.867  0.0946  0.0527  0.3751
 2276SOL    HW118287   2.645   2.167   2.829  0.2122 -0.3154  0.8693
 2276SOL    HW218288   2.636   2.284   2.918 -0.5398 -0.1830 -0.2029
 2277SOL     OW18289   3.523   3.154  15.630 -0.4047 -0.0731 -0.1199
 2277SOL    HW118290   3.476   3.150  15.547 -0.2585  3.2206 -0.3698
 2277SOL    HW218291   3.550   3.246  15.635  3.3015 -1.1638 -0.5280
 2278SOL     OW18292   1.190   4.313   3.613  0.4051 -0.1287  0.6972
 2278SOL    HW118293   1.273   4.295   3.570  1.1189  0.2452  1.9287
 2278SOL    HW218294   1.190   4.254   3.688 -1.4887  1.3762  1.8810
 2279SOL     OW18295   4.298   2.112   3.890  0.2361  0.5066 -0.2211
 2279SOL    HW118296   4.216   2.066   3.873  0.0367  1.1938 -1.1048
 2279SOL    HW218297   4.269   2.166   3.964  0.5550  0.0991  0.2022
 2280SOL     OW18298   3.711   3.366  13.050 -0.1133  0.5331 -0.2729
 2280SOL    HW118299   3.703   3.390  12.957 -0.0278 -2.2561 -1.0198
 2280SOL    HW218300   3.797   3.403  13.065  0.6158 -1.3323  0.1577
 2281SOL     OW18301   0.759   3.004   5.081 -0.1301  0.1351 -0.0602
 2281SOL    HW118302   0.842   2.981   5.038 -0.4662  0.5980 -0.9679
 2281SOL    HW218303   0.784   3.096   5.090  2.2820 -0.4221 -0.8885
 2282SOL     OW18304   1.705   1.523   5.551  0.1445 -0.2860  0.0816
 2282SOL    HW118305   1.798   1.513   5.569  0.6593  1.5716 -1.6263
 2282SOL    HW218306   1.701   1.485   5.463 -2.2626 -1.2829  0.6171
 2283SOL     OW18307   4.265   2.858   7.514  0.5040 -0.1258  0.1153
 2283SOL    HW118308   4.337   2.809   7.553  0.4005 -1.5615 -1.5229
 2283SOL    HW218309   4.207   2.784   7.495 -0.5782  0.6019  0.5514
 2284SOL     OW18310   2.867   0.873   6.987  0.4153  0.2184 -0.2204
 2284SOL    HW118311   2.795   0.904   6.932 -0.6131  0.8567  1.4947
 2284SOL    HW218312   2.901   0.804   6.930 -1.3764 -0.2872 -0.6935
 2285SOL     OW18313   0.519   0.078   5.067 -0.2143  0.0782 -0.0645
 2285SOL    HW118314   0.450   0.071   5.001 -1.2254 -2.5020  1.3070
 2285SOL    HW218315   0.534   0.172   5.079 -3.7113  0.4930  0.8211
 2286SOL     OW18316   1.491   4.718  13.352 -0.2951 -0.1427  0.4127
 2286SOL    HW118317   1.416   0.051  13.373 -2.7306 -2.6390 -1.7208
 2286SOL    HW218318   1.549   0.058  13.307 -0.2568  0.4314  1.2523
 2287SOL     OW18319   4.195   1.588   8.498 -0.4767 -0.0546  0.0082
 2287SOL    HW118320   4.184   1.591   8.593 -0.8627 -2.5023  0.0527
 2287SOL    HW218321   4.105   1.598   8.467  0.1987 -0.4199 -2.0421
 2288SOL     OW18322   2.820   1.315  12.098 -0.3237 -0.2450  0.7189
 2288SOL    HW118323   2.888   1.375  12.128  0.8441 -2.2726  2.0640
 2288SOL    HW218324   2.828   1.232  12.144  2.5029 -0.2303  0.2917
 2289SOL     OW18325   3.211   0.989   0.689 -0.7388 -0.4285  0.3549
 2289SOL    HW118326   3.142   0.971   0.753 -0.7637  0.7379  0.6514
 2289SOL    HW218327   3.210   1.084   0.701 -0.0726 -0.6959  2.5587
 2290SOL     OW18328   1.601   4.263  11.216 -0.2489  0.1939 -0.6966
 2290SOL    HW118329   1.556   4.346  11.200  0.3840  0.2140 -2.3212
 2290SOL    HW218330   1.549   4.236  11.292 -0.6150  2.3076 -0.1895
 2291SOL     OW18331   1.432   4.156  14.068 -0.4464 -0.0763  0.0500
 2291SOL    HW118332   1.367   4.208  14.116  1.0363 -0.2056  2.2047
 2291SOL    HW218333   1.434   4.074  14.117  1.7256 -1.2513 -2.0364
 2292SOL     OW18334   1.073   1.392   8.850  0.1854 -0.1260 -0.2624
 2292SOL    HW118335   1.031   1.472   8.880  1.0166 -1.1888  3.6713
 2292SOL    HW218336   1.009   1.330   8.884 -0.2031 -0.0097 -0.7765
 2293SOL     OW18337   3.675   1.277  17.015 -0.1969 -0.1438  0.2345
 2293SOL    HW118338   3.610   1.300  17.081  1.0639  0.0553  1.4164
 2293SOL    HW218339   3.613   1.244  16.950 -0.2385 -0.7018  0.5546
 2294SOL     OW18340   3.479   0.388   4.240 -0.0322  0.1902  0.3921
 2294SOL    HW118341   3.521   0.461   4.286 -0.3792  0.4579  0.2832
 2294SOL    HW218342   3.452   0.438   4.162 -1.1417  0.6247  1.0655
 2295SOL     OW18343   2.552   1.551  14.307 -0.0527 -0.0708  0.4897
 2295SOL    HW118344   2.610   1.580  14.377 -0.8852  1.5912  0.4943
 2295SOL    HW218345   2.597   1.473  14.275  1.5302  0.2665  1.9224
 2296SOL     OW18346   0.169   2.687   3.041 -0.3264  0.1153 -0.0238
 2296SOL    HW118347   0.115   2.745   3.095 -0.9209  1.6498 -2.2627
 2296SOL    HW218348   0.188   2.754   2.976  0.7548  2.6782  2.9521
 2297SOL     OW18349   3.900   1.430  12.965 -0.0665 -0.1105 -0.2936
 2297SOL    HW118350   3.810   1.423  12.933  0.6793  0.2305 -2.4502
 2297SOL    HW218351   3.877   1.485  13.040  0.3270 -1.9520  1.1649
 2298SOL     OW18352   0.474   4.348   5.351 -0.1214  0.3508  0.3360
 2298SOL    HW118353   0.557   4.314   5.317 -0.9922 -0.3978 -0.9848
 2298SOL    HW218354   0.494   4.441   5.336 -0.8110  0.4002 -0.2225
 2299SOL     OW18355   4.153   1.780   7.283 -0.3085  0.2147  0.1012
 2299SOL    HW118356   4.172   1.771   7.376 -0.5050  3.6656  0.5030
 2299SOL    HW218357   4.139   1.875   7.284 -0.4791  0.1885  0.2027
 2300SOL     OW18358   2.093   1.817   2.703 -0.0103 -0.8936 -0.1961
 2300SOL    HW118359   2.085   1.727   2.735 -0.3205 -0.7219  0.2108
 2300SOL    HW218360   2.039   1.813   2.624 -0.6294  1.0655  0.1257
 2301SOL     OW18361   4.455   1.883   2.810  0.4994  0.1113  0.2660
 2301SOL    HW118362   4.534   1.877   2.865  1.1779  0.6968 -0.6475
 2301SOL    HW218363   4.386   1.904   2.873  0.1014 -1.4759  0.3791
 2302SOL     OW18364   1.281   2.524  17.171 -0.6111 -0.0506 -0.5617
 2302SOL    HW118365   1.306   2.601  17.119 -0.1684  1.0679  1.3253
 2302SOL    HW218366   1.362   2.473  17.167 -0.6303 -0.1250  0.0983
 2303SOL     OW18367   0.789   4.336   6.271 -0.2527 -0.4139 -0.1941
 2303SOL    HW118368   0.826   4.252   6.245 -0.1675  0.0758 -1.6619
 2303SOL    HW218369   0.869   4.387   6.281 -0.5836  0.0004  0.3300
 2304SOL     OW18370   3.658   3.560   8.032 -0.3792 -0.0040 -0.3011
 2304SOL    HW118371   3.664   3.472   8.070  1.3278 -0.1722 -0.9438
 2304SOL    HW218372   3.596   3.605   8.088 -1.2360 -0.4422 -0.8904
 2305SOL     OW18373   3.173   0.324   7.254  0.0276  0.2983  0.0351
 2305SOL    HW118374   3.223   0.378   7.316 -0.8198 -1.8981  2.6364
 2305SOL    HW218375   3.146   0.247   7.305  2.4661 -0.6135 -0.0151
 2306SOL     OW18376   0.166   1.373   6.801 -0.7196 -0.0136  1.0449
 2306SOL    HW118377   0.242   1.421   6.769 -1.2941 -0.3097 -0.7887
 2306SOL    HW218378   0.109   1.406   6.731 -0.9264  0.5178  1.4611
 2307SOL     OW18379   2.036   1.530   4.527 -0.1450  0.1252 -0.6432
 2307SOL    HW118380   2.030   1.467   4.454 -1.3951 -0.8040  0.2574
 2307SOL    HW218381   2.131   1.520   4.530 -0.3770 -2.1111 -0.4538
 2308SOL     OW18382   3.008   0.313   6.707 -0.1982  0.4841 -0.2039
 2308SOL    HW118383   3.048   0.390   6.746 -0.9868 -0.3770  2.2781
 2308SOL    HW218384   3.083   0.264   6.674  0.9277  0.9179  1.7279
 2309SOL     OW18385   0.686   1.067   3.786  0.0066 -0.3996  0.6506
 2309SOL    HW118386   0.616   1.047   3.848 -2.2929  1.9804 -1.1506
 2309SOL    HW218387   0.733   0.984   3.792  0.2247 -0.1781  1.9966
 2310SOL     OW18388   0.366   1.424   7.337 -0.8817 -0.5203  0.1846
 2310SOL    HW118389   0.280   1.410   7.296 -1.2129  1.8608  0.0722
 2310SOL    HW218390   0.412   1.361   7.281 -1.1540  0.7537 -1.4804
 2311SOL     OW18391   0.406   0.595   0.184 -0.0913 -0.0239 -0.5160
 2311SOL    HW118392   0.444   0.680   0.203 -1.9866  0.1769  2.2705
 2311SOL    HW218393   0.474   0.546   0.137 -1.0026 -1.4086 -0.3850
 2312SOL     OW18394   1.966   1.726   3.432 -0.1623  0.1455 -0.6815
 2312SOL    HW118395   2.021   1.799   3.459 -0.5797  0.9731 -2.1063
 2312SOL    HW218396   1.955   1.692   3.521  0.1457  1.4330 -0.1519
 2313SOL     OW18397   1.356   1.178   5.498  0.5816 -0.4836 -0.0543
 2313SOL    HW118398   1.377   1.194   5.590  0.8329  0.3171 -0.2514
 2313SOL    HW218399   1.403   1.097   5.476 -1.2236 -1.5813  0.0546
 2314SOL     OW18400   1.999   3.219   5.735 -0.4594 -0.1203 -0.1593
 2314SOL    HW118401   2.067   3.231   5.801 -1.0059  1.2166  0.1757
 2314SOL    HW218402   1.977   3.308   5.705  0.1828 -0.2102 -0.8979
 2315SOL     OW18403   4.199   1.735   5.013  0.0938 -0.0135  0.4147
 2315SOL    HW118404   4.273   1.703   5.065  1.2995  0.3542 -1.0614
 2315SOL    HW218405   4.135   1.729   5.084 -2.3074  0.3088 -1.7185
 2316SOL     OW18406   1.458   1.491   8.695 -0.2230 -0.8131  0.0123
 2316SOL    HW118407   1.496   1.450   8.617  1.8166  1.0957  0.0087
 2316SOL    HW218408   1.481   1.584   8.686 -1.1272 -0.4805  1.2357
 2317SOL     OW18409   0.417   2.874   8.545  0.1196 -0.3224 -0.4338
 2317SOL    HW118410   0.400   2.794   8.594 -1.8779  1.2381  1.4266
 2317SOL    HW218411   0.404   2.834   8.459  1.1365 -1.2028 -0.1765
 2318SOL     OW18412   2.309   1.473   4.552 -0.3764  0.0060 -0.2428
 2318SOL    HW118413   2.384   1.484   4.495 -0.1022 -0.7964 -0.0462
 2318SOL    HW218414   2.343   1.501   4.636 -0.6666 -1.1265  0.2552
 2319SOL     OW18415   4.139   0.930   5.541 -0.1365 -0.3163 -0.8482
 2319SOL    HW118416   4.215   0.978   5.509  2.0213 -3.2287 -0.0484
 2319SOL    HW218417   4.080   1.005   5.550  2.8034  1.8895 -0.0920
 2320SOL     OW18418   3.297   3.868   5.051 -0.1225 -0.3234  0.5410
 2320SOL    HW118419   3.229   3.818   5.097 -0.3470  0.2199  0.8028
 2320SOL    HW218420   3.250   3.895   4.972 -0.9035  0.0060  1.1194
 2321SOL     OW18421   2.360   2.917  14.002 -0.8117  0.3106  0.2759
 2321SOL    HW118422   2.405   2.985  13.952 -0.4849  1.3546  1.9934
 2321SOL    HW218423   2.313   2.972  14.064 -1.9239  2.1620 -2.1927
 2322SOL     OW18424   1.358   1.414  16.585  0.5068  0.1390  0.2863
 2322SOL    HW118425   1.319   1.500  16.601 -0.6933 -0.4531  0.5362
 2322SOL    HW218426   1.339   1.361  16.663  1.4753 -0.5862  0.0350
 2323SOL     OW18427   0.523   1.656   7.992  0.1345  0.1800  0.4468
 2323SOL    HW118428   0.603   1.606   8.006  0.9331  1.4601  0.4028
 2323SOL    HW218429   0.508   1.699   8.077  0.1923  1.5333 -0.2370
 2324SOL     OW18430   2.652   4.697  15.045 -0.2276 -0.3592  0.3131
 2324SOL    HW118431   2.742   0.007  15.034 -0.3961  0.4293  1.2071
 2324SOL    HW218432   2.664   4.615  14.996 -0.8755 -0.5798  0.5302
 2325SOL     OW18433   1.398   1.546   8.372  0.3840  0.4861  0.0825
 2325SOL    HW118434   1.403   1.576   8.281 -2.1155 -0.7806 -0.4695
 2325SOL    HW218435   1.487   1.573   8.394  0.5044 -0.4514  0.7569
 2326SOL     OW18436   1.843   2.666   0.168 -0.4813 -0.4935  0.5430
 2326SOL    HW118437   1.888   2.645   0.086 -0.1479  0.8989  0.3705
 2326SOL    HW218438   1.897   2.620   0.232 -2.5717 -2.4682  0.8800
 2327SOL     OW18439   1.653   3.808   9.874  0.3594  0.3018  0.1924
 2327SOL    HW118440   1.629   3.808   9.967 -1.1389 -0.1851 -0.1853
 2327SOL    HW218441   1.697   3.891   9.858 -0.5900  0.7253 -0.2330
 2328SOL     OW18442   1.821   2.530   5.619 -0.2671 -0.4118  0.1649
 2328SOL    HW118443   1.801   2.465   5.552  0.5399 -0.4175 -0.0638
 2328SOL    HW218444   1.862   2.480   5.689 -1.6641  1.0328  2.0321
 2329SOL     OW18445   0.042   1.123   6.445 -0.1919 -0.1792  0.0806
 2329SOL    HW118446   0.019   1.090   6.358 -0.5297  0.4221 -0.0588
 2329SOL    HW218447   4.695   1.189   6.457 -2.0790 -2.4193  1.8102
 2330SOL     OW18448   3.670   3.986   8.086  0.0849 -0.4362  0.9240
 2330SOL    HW118449   3.680   4.076   8.055  0.3816 -0.9666 -0.5109
 2330SOL    HW218450   3.730   3.939   8.028 -0.6876 -0.8629  0.4806
 2331SOL     OW18451   2.753   0.852   7.779  0.8982 -0.5585  0.0434
 2331SOL    HW118452   2.715   0.795   7.846 -1.4890  1.4348  0.4428
 2331SOL    HW218453   2.710   0.813   7.703 -0.5764  2.0230 -0.4712
 2332SOL     OW18454   1.076   4.069   0.789 -0.6261 -0.1744 -0.0499
 2332SOL    HW118455   1.010   4.114   0.842 -0.6781  1.4514 -1.5153
 2332SOL    HW218456   1.080   3.982   0.829  2.1150  0.5292  1.1967
 2333SOL     OW18457   0.618   4.219   9.955 -0.5990  0.4111 -0.4982
 2333SOL    HW118458   0.564   4.234   9.878  1.0402  0.5610 -1.6219
 2333SOL    HW218459   0.700   4.183   9.920  0.5147  2.7601 -0.2773
 2334SOL     OW18460   2.109   1.147   1.860  0.0604  0.1395 -0.0309
 2334SOL    HW118461   2.190   1.132   1.909 -0.2244 -3.1973 -0.5642
 2334SOL    HW218462   2.105   1.070   1.803 -0.9282 -0.1003  0.3626
 2335SOL     OW18463   1.977   2.416   7.729  0.0077 -0.0028  0.1052
 2335SOL    HW118464   1.949   2.491   7.782  1.1216  1.0804 -0.8518
 2335SOL    HW218465   1.929   2.346   7.772  0.7461 -0.0372  0.8873
 2336SOL     OW18466   0.847   2.529  14.731 -0.5583 -0.2031 -0.7536
 2336SOL    HW118467   0.845   2.619  14.765  0.2079 -0.0367 -1.1540
 2336SOL    HW218468   0.942   2.525  14.740 -0.6745 -0.0517  0.4280
 2337SOL     OW18469   0.790   1.197   8.504 -0.3523 -0.4546  1.0995
 2337SOL    HW118470   0.870   1.174   8.550 -0.0161  0.4057  0.9544
 2337SOL    HW218471   0.812   1.162   8.417 -2.1288  1.2734 -0.0555
 2338SOL     OW18472   0.270   4.257   3.590 -0.0442  0.2316 -0.0488
 2338SOL    HW118473   0.331   4.249   3.517 -0.5194  1.8852 -0.6381
 2338SOL    HW218474   0.303   4.186   3.645 -0.3461  0.4145  0.3724
 2339SOL     OW18475   4.469   4.437   1.266  0.2434 -0.2909  0.4832
 2339SOL    HW118476   4.461   4.346   1.294  2.0111 -0.8052 -0.6148
 2339SOL    HW218477   4.378   4.450   1.241  0.0993 -0.6469  0.8361
 2340SOL     OW18478   1.920   3.207   3.516 -0.1363 -0.2329 -0.3606
 2340SOL    HW118479   1.907   3.112   3.517 -2.1944  0.0474  1.6023
 2340SOL    HW218480   2.016   3.206   3.509  0.0415  1.5397  1.8735
 2341SOL     OW18481   2.703   1.313   4.293  0.2438  0.0688 -0.4993
 2341SOL    HW118482   2.660   1.265   4.363 -0.5705  0.0929 -0.9905
 2341SOL    HW218483   2.710   1.232   4.241 -0.5993  0.8820 -1.8755
 2342SOL     OW18484   0.867   0.894  10.703 -0.4308 -0.5542  0.1948
 2342SOL    HW118485   0.881   0.966  10.765 -0.1189  0.9891 -1.6709
 2342SOL    HW218486   0.929   0.917  10.634  1.5246 -2.7664  1.2086
 2343SOL     OW18487   1.011   2.492   7.957  0.4061 -0.0257 -0.5371
 2343SOL    HW118488   0.953   2.416   7.955 -1.7659  1.5819  0.1400
 2343SOL    HW218489   0.946   2.562   7.967  1.6193  1.1040 -0.6207
 2344SOL     OW18490   0.475   2.766  10.481  0.3112 -0.5245 -0.9514
 2344SOL    HW118491   0.498   2.764  10.574 -1.9420 -0.2033 -0.4040
 2344SOL    HW218492   0.422   2.845  10.487  1.6956  0.3191  0.1090
 2345SOL     OW18493   2.062   3.164   9.322  0.3977  0.4515  0.2744
 2345SOL    HW118494   2.112   3.095   9.278  2.0855  1.5087  0.5252
 2345SOL    HW218495   2.120   3.169   9.398 -0.4483  0.5728  0.9099
 2346SOL     OW18496   1.670   0.595  14.802  0.1052  0.4115 -0.0475
 2346SOL    HW118497   1.607   0.580  14.732  0.0385  0.0307  0.0930
 2346SOL    HW218498   1.714   0.674  14.772 -1.6234  1.5008  0.2728
 2347SOL     OW18499   0.263   2.059   4.510 -0.2437  0.2932 -0.1772
 2347SOL    HW118500   0.270   2.143   4.555 -3.9593 -0.2069  1.3271
 2347SOL    HW218501   0.177   2.024   4.532 -0.1137 -0.8802 -1.5225
 2348SOL     OW18502   3.177   0.633   7.369 -0.1773 -0.1323 -0.5905
 2348SOL    HW118503   3.231   0.679   7.434 -0.3524  0.2198 -0.6981
 2348SOL    HW218504   3.087   0.657   7.393  1.2579  2.3063  2.3479
 2349SOL     OW18505   4.174   4.183   3.614 -0.2228  0.1013  0.1353
 2349SOL    HW118506   4.237   4.113   3.599  1.6608  1.4112  1.7712
 2349SOL    HW218507   4.093   4.133   3.612  0.5895 -1.1740 -0.6426
 2350SOL     OW18508   2.252   1.840   0.875  0.2584  0.5960  0.7976
 2350SOL    HW118509   2.201   1.890   0.939  0.0457  0.2893  0.8639
 2350SOL    HW218510   2.301   1.912   0.835  2.5291 -0.7100  1.2196
 2351SOL     OW18511   1.619   3.205  15.780  0.6026 -0.0257 -0.7603
 2351SOL    HW118512   1.540   3.214  15.728 -1.4956  0.5102  2.5353
 2351SOL    HW218513   1.591   3.140  15.844  1.5400  0.3131  0.0003
 2352SOL     OW18514   3.867   0.809   0.491  0.6551 -0.5711  0.3924
 2352SOL    HW118515   3.867   0.743   0.560  0.0902 -0.2062  0.7389
 2352SOL    HW218516   3.947   0.797   0.439  0.6315 -0.9171  0.4386
 2353SOL     OW18517   1.426   1.711   7.460  0.4815  0.2636  0.2801
 2353SOL    HW118518   1.410   1.737   7.369 -2.0582  1.0572  0.9686
 2353SOL    HW218519   1.417   1.616   7.466  1.2357  0.2765  1.6830
 2354SOL     OW18520   0.687   0.277   7.062  0.0319 -0.8703  0.2638
 2354SOL    HW118521   0.632   0.262   7.139 -0.8921  1.2810  0.0288
 2354SOL    HW218522   0.659   0.365   7.034  0.9290 -1.1618 -1.5466
 2355SOL     OW18523   2.734   1.559   1.277  0.1664 -0.2070 -0.3426
 2355SOL    HW118524   2.669   1.497   1.246  1.3534 -2.5182  1.7310
 2355SOL    HW218525   2.693   1.644   1.264 -3.5349 -1.5116  2.8779
 2356SOL     OW18526   0.459   0.926   8.403  0.6805 -0.2296  0.4993
 2356SOL    HW118527   0.365   0.928   8.421  0.2352  1.2436 -1.9445
 2356SOL    HW218528   0.467   0.850   8.344 -0.4538 -0.7821  1.0405
 2357SOL     OW18529   3.498   1.118   0.692 -0.1057 -0.5279 -0.9058
 2357SOL    HW118530   3.454   1.107   0.776 -0.5252  0.0690 -1.0485
 2357SOL    HW218531   3.578   1.159   0.725 -0.2929 -2.3319  1.7821
 2358SOL     OW18532   1.708   0.363   5.149  0.2885  0.2183  0.2797
 2358SOL    HW118533   1.615   0.352   5.129  0.3004  0.5538  0.0446
 2358SOL    HW218534   1.746   0.288   5.103 -2.4646 -0.5664 -0.7123
 2359SOL     OW18535   1.913   2.154   4.261  0.2294 -0.0013 -0.3511
 2359SOL    HW118536   1.818   2.170   4.267 -0.0198 -1.5293 -0.2647
 2359SOL    HW218537   1.947   2.233   4.303  2.6673 -1.7141  0.8473
 2360SOL     OW18538   1.959   0.891  13.709 -0.2256 -0.2426 -0.8946
 2360SOL    HW118539   1.932   0.918  13.621  0.0609  2.1178 -0.2612
 2360SOL    HW218540   1.983   0.978  13.739 -0.6852 -0.1159 -0.8845
 2361SOL     OW18541   4.449   3.771  11.717 -0.2627  0.5411 -0.6758
 2361SOL    HW118542   4.498   3.847  11.750  2.4978 -1.5160 -0.0961
 2361SOL    HW218543   4.495   3.776  11.634  1.5720  1.2149  0.3803
 2362SOL     OW18544   0.176   1.243   5.733 -0.3838  0.3952  0.1369
 2362SOL    HW118545   0.234   1.167   5.740  0.3863  1.0301  0.6723
 2362SOL    HW218546   0.233   1.318   5.718 -1.9901  1.5302 -0.3407
 2363SOL     OW18547   1.953   1.235   3.487 -0.3316 -0.2365 -0.0012
 2363SOL    HW118548   1.951   1.202   3.577 -0.3763 -0.4151 -0.0680
 2363SOL    HW218549   2.040   1.275   3.482  0.0484 -1.4008 -2.5072
 2364SOL     OW18550   1.907   1.724   5.150 -0.6030  0.3921 -0.2633
 2364SOL    HW118551   1.889   1.784   5.079 -2.1425 -1.5401 -1.5013
 2364SOL    HW218552   1.906   1.779   5.228 -1.8862  0.7509 -0.5437
 2365SOL     OW18553   4.163   1.029   3.973 -0.5863 -0.6512  0.2309
 2365SOL    HW118554   4.221   1.040   3.897 -2.1039  0.5226 -0.7565
 2365SOL    HW218555   4.179   1.110   4.021  1.7720 -1.1565  0.3082
 2366SOL     OW18556   3.569   3.882   2.645  0.5290 -0.2834  0.4064
 2366SOL    HW118557   3.512   3.952   2.612  1.0175  0.3438  0.8937
 2366SOL    HW218558   3.504   3.813   2.653  0.4436 -0.2293  0.1705
 2367SOL     OW18559   1.657   0.156   6.637  0.9293  0.9276  0.2219
 2367SOL    HW118560   1.721   0.227   6.643  1.8947  0.2453 -2.0318
 2367SOL    HW218561   1.587   0.194   6.691  1.6432  3.1092 -0.4181
 2368SOL     OW18562   2.583   0.172  17.552  0.6759  0.2092  0.3840
 2368SOL    HW118563   2.674   0.177  17.524  0.3384  0.2729 -0.6676
 2368SOL    HW218564   2.593   0.204  17.642  2.4755  0.4280  0.1074
 2369SOL     OW18565   0.687   3.438   1.974  0.1597 -0.2130 -0.3877
 2369SOL    HW118566   0.662   3.401   2.058 -0.7005 -1.3471 -1.1402
 2369SOL    HW218567   0.611   3.490   1.948  1.0366  0.7482 -1.0430
 2370SOL     OW18568   2.970   0.863   0.225 -0.6691  0.1958  0.5642
 2370SOL    HW118569   2.876   0.877   0.227 -0.9400 -2.0116  2.8801
 2370SOL    HW218570   3.006   0.948   0.251  0.3257  0.0138 -0.2169
 2371SOL     OW18571   1.887   2.441  12.627  0.1141 -0.1766 -0.4216
 2371SOL    HW118572   1.897   2.506  12.697 -1.2795  0.8981 -1.2333
 2371SOL    HW218573   1.814   2.479  12.578 -1.3242 -2.7797 -0.3592
 2372SOL     OW18574   1.478   1.623   4.414  0.6125 -0.1316  0.2362
 2372SOL    HW118575   1.554   1.574   4.384 -0.1350 -0.4949 -1.0468
 2372SOL    HW218576   1.481   1.698   4.354 -0.4460  0.1659  0.5466
 2373SOL     OW18577   2.803   0.270   6.890 -0.6115  0.0094  0.1976
 2373SOL    HW118578   2.864   0.239   6.957  0.0306  0.1482 -0.3259
 2373SOL    HW218579   2.868   0.270   6.820 -1.6623  1.4817 -0.7757
 2374SOL     OW18580   4.677   0.637   2.383  0.1803 -0.1436  0.0835
 2374SOL    HW118581   4.711   0.566   2.439  2.4987 -0.6989 -2.0337
 2374SOL    HW218582   0.037   0.685   2.366  0.1428 -0.0730  0.1043
 2375SOL     OW18583   3.268   0.257  15.064 -0.4528  0.5792 -0.1138
 2375SOL    HW118584   3.277   0.197  15.138  0.9296  0.8868 -0.0209
 2375SOL    HW218585   3.207   0.205  15.012 -1.6472  0.1551  1.6987
 2376SOL     OW18586   3.199   0.801   5.677 -0.1706 -0.1190  0.6970
 2376SOL    HW118587   3.130   0.802   5.743 -0.0585 -1.2177  0.8187
 2376SOL    HW218588   3.187   0.712   5.645 -0.3232  0.2969 -0.4176
 2377SOL     OW18589   3.868   3.434   9.302 -0.5769 -0.0328  0.3252
 2377SOL    HW118590   3.905   3.378   9.234  0.0522  0.8318 -0.0402
 2377SOL    HW218591   3.941   3.433   9.364 -0.0854  0.7791 -0.2362
 2378SOL     OW18592   2.981   3.973   1.893 -0.3129 -0.3982  0.1284
 2378SOL    HW118593   3.038   3.908   1.933  0.8217  0.8616  0.5592
 2378SOL    HW218594   3.040   3.994   1.820 -0.2653  0.7388  0.4964
 2379SOL     OW18595   3.243   3.289   0.612  0.3743 -0.3408  0.2471
 2379SOL    HW118596   3.310   3.357   0.614 -1.1492  1.1235  0.5252
 2379SOL    HW218597   3.300   3.212   0.611  2.5566  1.2960 -0.1833
 2380SOL     OW18598   3.389   3.429   3.729  0.5152 -0.2299 -0.0391
 2380SOL    HW118599   3.299   3.407   3.750  1.2621 -1.8895  1.4217
 2380SOL    HW218600   3.384   3.520   3.700  1.0599 -0.3252 -0.4410
 2381SOL     OW18601   2.889   1.714   0.342 -0.5234  0.2353 -0.4828
 2381SOL    HW118602   2.932   1.778   0.400 -0.8165 -0.9130  0.9992
 2381SOL    HW218603   2.916   1.629   0.377  1.0410  1.2472  0.8206
 2382SOL     OW18604   2.770   1.220   7.592  1.0650 -0.4185 -0.3866
 2382SOL    HW118605   2.734   1.277   7.524  1.6484  1.5683  1.0008
 2382SOL    HW218606   2.846   1.270   7.621  2.0089 -1.0065 -1.7986
 2383SOL     OW18607   3.464   3.940   3.076  0.1819  0.0006 -0.8093
 2383SOL    HW118608   3.379   3.897   3.081 -0.0743  0.5599 -0.3275
 2383SOL    HW218609   3.510   3.891   3.145  0.0271 -0.7555 -1.2416
 2384SOL     OW18610   2.404   2.431   8.029  0.1720 -0.0768 -0.8421
 2384SOL    HW118611   2.328   2.475   7.992  0.7803  1.2828 -0.4710
 2384SOL    HW218612   2.412   2.473   8.114  2.1439  1.4303 -1.7825
 2385SOL     OW18613   3.211   2.423   0.974  0.0632 -0.2809  0.2095
 2385SOL    HW118614   3.296   2.414   1.016  0.1332 -1.1874 -0.1229
 2385SOL    HW218615   3.212   2.340   0.925 -0.7720  0.6579 -1.3900
 2386SOL     OW18616   1.109   1.190   2.007 -0.1133 -0.0964  0.1001
 2386SOL    HW118617   1.159   1.221   2.083 -0.3788 -0.4865  0.4356
 2386SOL    HW218618   1.107   1.097   2.029  1.5127  0.3361  2.1214
 2387SOL     OW18619   0.028   2.088   3.109 -0.3703  0.0120  0.2732
 2387SOL    HW118620   0.058   2.066   3.021 -1.4953 -1.0705  0.1642
 2387SOL    HW218621   0.008   2.181   3.105 -2.0211 -0.4168 -1.2805
 2388SOL     OW18622   3.590   1.431   6.535  0.2933 -0.1387  0.4017
 2388SOL    HW118623   3.658   1.473   6.482  0.3467 -1.4122 -0.5601
 2388SOL    HW218624   3.512   1.455   6.484  0.0708  2.4896  1.9632
 2389SOL     OW18625   2.933   2.355   7.348 -0.2282 -0.2893 -0.2421
 2389SOL    HW118626   2.913   2.441   7.384  0.3466  0.7183 -2.3272
 2389SOL    HW218627   3.016   2.340   7.394  0.1181  1.2383 -0.3487
 2390SOL     OW18628   1.813   2.972   3.452 -0.4488  0.1566 -0.4271
 2390SOL    HW118629   1.775   3.031   3.387  3.6371 -0.0288 -2.9193
 2390SOL    HW218630   1.780   2.892   3.412  0.4414 -0.5074  0.1708
 2391SOL     OW18631   3.582   3.550  13.321 -0.8906  0.0949  0.0620
 2391SOL    HW118632   3.564   3.618  13.256  0.6201  0.1590 -0.2927
 2391SOL    HW218633   3.582   3.470  13.268  1.2581 -0.3986  0.7964
 2392SOL     OW18634   1.184   3.901   2.972 -0.4384  0.2841  0.1185
 2392SOL    HW118635   1.135   3.982   2.972  1.1108  1.2251 -0.3418
 2392SOL    HW218636   1.112   3.838   2.967  0.6875 -0.9152 -0.8864
 2393SOL     OW18637   2.473   3.001   2.378 -0.6424  0.5341 -0.1521
 2393SOL    HW118638   2.400   2.939   2.387 -0.9695  0.9371 -0.0007
 2393SOL    HW218639   2.531   2.981   2.451  0.6496 -1.0182 -1.6255
 2394SOL     OW18640   2.075   4.054  16.510  0.7858 -0.0131 -0.6729
 2394SOL    HW118641   2.128   4.128  16.540  1.3462 -0.2451 -1.0819
 2394SOL    HW218642   2.146   4.003  16.471 -0.0156 -1.6330  0.0052
 2395SOL     OW18643   1.009   1.096  16.356 -0.2335 -0.3440  0.0926
 2395SOL    HW118644   0.927   1.144  16.363 -0.2447 -0.3099 -0.2536
 2395SOL    HW218645   0.969   1.018  16.315 -0.2892  0.0971 -0.6958
 2396SOL     OW18646   3.360   1.394  11.508  0.5513  0.0959 -0.3952
 2396SOL    HW118647   3.441   1.395  11.457  0.3789  1.2657 -0.6496
 2396SOL    HW218648   3.370   1.325  11.574  0.9377 -0.2257 -0.7946
 2397SOL     OW18649   2.084   3.244   6.691 -0.2983  0.6333  0.0842
 2397SOL    HW118650   2.040   3.316   6.646 -1.6475 -0.3429 -0.1353
 2397SOL    HW218651   2.161   3.293   6.719 -0.0844  0.5477 -0.3619
 2398SOL     OW18652   0.815   2.180  15.812 -0.3875 -0.8033 -0.0453
 2398SOL    HW118653   0.720   2.166  15.809 -0.4656 -0.7586  2.2247
 2398SOL    HW218654   0.831   2.129  15.892  0.6387 -0.0932  0.1916
 2399SOL     OW18655   2.302   1.135   3.869  0.4947  0.3762 -0.2968
 2399SOL    HW118656   2.321   1.128   3.963  0.1287 -0.4672 -0.2892
 2399SOL    HW218657   2.384   1.143   3.821  0.3679  3.4776 -0.0158
 2400SOL     OW18658   2.046   0.278   4.373 -0.0108 -0.0048  0.0854
 2400SOL    HW118659   2.027   0.199   4.322 -1.1918  0.8502 -0.8081
 2400SOL    HW218660   1.974   0.338   4.351 -0.0437  0.7239  2.1757
 2401SOL     OW18661   2.834   1.706   9.871  0.2205 -0.5684 -0.2309
 2401SOL    HW118662   2.872   1.621   9.850  1.7569  0.2281 -0.7406
 2401SOL    HW218663   2.899   1.770   9.841  0.7129 -0.0158  2.0016
 2402SOL     OW18664   1.630   3.025   7.390 -0.5591  0.3550 -0.0078
 2402SOL    HW118665   1.664   3.112   7.412 -0.8377  0.3756  0.3257
 2402SOL    HW218666   1.632   2.988   7.478 -1.4667  0.4377  0.0484
 2403SOL     OW18667   4.080   3.215   2.471  0.6395  0.2839 -0.0109
 2403SOL    HW118668   4.019   3.253   2.534  1.3509  1.4960 -0.0479
 2403SOL    HW218669   4.093   3.125   2.501  2.8196  0.6289  0.1053
 2404SOL     OW18670   3.902   1.638   8.206  0.0110 -0.3147 -0.3224
 2404SOL    HW118671   3.855   1.712   8.244 -0.8277 -0.2736 -1.4488
 2404SOL    HW218672   3.984   1.685   8.189 -1.1732  2.1548  0.8222
 2405SOL     OW18673   1.615   1.680   9.430 -0.3502 -0.4153 -0.3371
 2405SOL    HW118674   1.533   1.632   9.423  0.2917 -1.4952 -0.4863
 2405SOL    HW218675   1.685   1.625   9.395 -0.8028 -1.4567  0.3880
 2406SOL     OW18676   4.023   4.677   4.411  0.3324 -0.1339 -0.1486
 2406SOL    HW118677   3.985   4.597   4.448 -0.0091 -0.2773 -0.8142
 2406SOL    HW218678   4.110   4.673   4.450  0.3841  1.0419 -0.1442
 2407SOL     OW18679   0.780   3.439   3.917 -0.1661 -0.0108 -0.2455
 2407SOL    HW118680   0.698   3.394   3.937  0.0284  0.3579  1.3799
 2407SOL    HW218681   0.773   3.443   3.822  0.0745 -2.7153 -0.3871
 2408SOL     OW18682   2.371   3.991  13.235  0.0876  0.9919 -0.7289
 2408SOL    HW118683   2.331   4.043  13.165  1.1490  1.9222 -0.6475
 2408SOL    HW218684   2.297   3.990  13.296 -0.4880 -0.4891 -1.4453
 2409SOL     OW18685   0.224   0.363   3.125  0.1172 -0.6866 -0.1504
 2409SOL    HW118686   0.255   0.441   3.171 -0.2368 -1.6609  1.7694
 2409SOL    HW218687   0.280   0.297   3.167 -0.9168 -1.4456  0.0311
 2410SOL     OW18688   2.565   3.319  15.140 -0.3259  0.1713  0.4225
 2410SOL    HW118689   2.632   3.351  15.200  0.2616  0.0158 -0.1529
 2410SOL    HW218690   2.604   3.331  15.053 -2.8483 -0.3954 -0.7824
 2411SOL     OW18691   2.939   0.470   4.417 -0.1645 -0.3395 -0.4406
 2411SOL    HW118692   3.025   0.454   4.455  0.2548  0.9906 -0.8349
 2411SOL    HW218693   2.942   0.412   4.341  0.2908  0.0520 -0.7186
 2412SOL     OW18694   1.135   1.204   2.527 -0.0292  0.4343 -0.4025
 2412SOL    HW118695   1.209   1.150   2.554  1.5647  0.4439 -4.7487
 2412SOL    HW218696   1.097   1.240   2.607  1.4193  0.7894  0.1390
 2413SOL     OW18697   4.393   3.144   2.024 -0.4254  0.4745  0.1735
 2413SOL    HW118698   4.426   3.196   1.951 -0.6188 -1.4618 -1.2602
 2413SOL    HW218699   4.474   3.103   2.054 -0.2241 -1.1087 -2.5325
 2414SOL     OW18700   3.808   3.165   6.349 -0.1552 -0.3679  0.1780
 2414SOL    HW118701   3.756   3.158   6.269  0.2287  0.1459 -0.1147
 2414SOL    HW218702   3.842   3.254   6.340 -1.9402  0.1626 -1.3290
 2415SOL     OW18703   4.629   3.751   3.607 -0.3573 -0.1750  0.5838
 2415SOL    HW118704   4.567   3.779   3.674 -0.5728  1.3302 -0.2456
 2415SOL    HW218705   4.582   3.747   3.525  1.2012 -0.3159 -0.3095
 2416SOL     OW18706   0.733   1.978   6.888  0.3890 -0.1547 -0.8671
 2416SOL    HW118707   0.757   1.948   6.801 -1.6523 -1.2964 -1.0420
 2416SOL    HW218708   0.817   2.018   6.909 -1.2466  2.4358  0.8318
 2417SOL     OW18709   4.691   1.755   4.488  0.0486  0.0392  0.3496
 2417SOL    HW118710   4.670   1.824   4.426  0.5727  0.1710  0.3187
 2417SOL    HW218711   4.605   1.713   4.500  0.7029 -1.4429 -0.2008
 2418SOL     OW18712   4.141   0.429  16.235 -0.0821  0.0423 -0.0654
 2418SOL    HW118713   4.123   0.452  16.143 -0.8706  1.5323  0.4518
 2418SOL    HW218714   4.056   0.408  16.273 -1.3485  4.0631 -0.5998
 2419SOL     OW18715   3.003   1.832   1.453  0.1848  0.1104  0.0241
 2419SOL    HW118716   2.992   1.748   1.408  2.4733  0.8024 -1.8633
 2419SOL    HW218717   2.956   1.883   1.387 -1.7693 -0.6022  0.8631
 2420SOL     OW18718   1.991   2.416   1.125 -0.0375  0.0688 -0.2024
 2420SOL    HW118719   1.908   2.452   1.155  0.3092 -0.1822  1.0585
 2420SOL    HW218720   2.038   2.412   1.208  0.3282  2.9721 -0.2758
 2421SOL     OW18721   1.774   4.146   0.267  0.0903  0.1182  0.7114
 2421SOL    HW118722   1.843   4.127   0.330 -0.2577 -0.2849  0.9754
 2421SOL    HW218723   1.750   4.235   0.291 -1.1026  0.1863 -0.7539
 2422SOL     OW18724   4.580   2.679  15.118  0.2482  0.3850 -0.2106
 2422SOL    HW118725   4.631   2.652  15.041 -1.5640 -0.1622 -1.2142
 2422SOL    HW218726   4.493   2.694  15.081  0.4008  1.5270 -0.1052
 2423SOL     OW18727   0.923   3.360   2.263 -0.3928  0.1103 -0.0193
 2423SOL    HW118728   0.869   3.380   2.187  0.2512  0.0069 -0.5054
 2423SOL    HW218729   0.946   3.446   2.298  1.1716  0.7191 -2.5530
 2424SOL     OW18730   3.877   3.535  16.874 -0.3132  0.3402 -0.0655
 2424SOL    HW118731   3.801   3.581  16.839 -2.2962  0.0956  3.8629
 2424SOL    HW218732   3.848   3.446  16.856 -1.1359  0.5235  0.3501
 2425SOL     OW18733   2.728   1.237   8.839  0.4486 -0.8071 -0.2238
 2425SOL    HW118734   2.757   1.173   8.774 -1.6375 -0.9314 -1.0191
 2425SOL    HW218735   2.755   1.183   8.913  0.9626  0.7032  0.6973
 2426SOL     OW18736   3.172   3.026   2.794  0.3886 -0.0141  0.1526
 2426SOL    HW118737   3.210   3.100   2.746  0.8474  0.8127  1.7804
 2426SOL    HW218738   3.213   3.038   2.880  2.9885  0.5221 -1.1515
 2427SOL     OW18739   2.072   2.971   7.495  0.4504 -0.0840  0.5044
 2427SOL    HW118740   1.999   2.991   7.555 -0.3642  1.3744 -0.9601
 2427SOL    HW218741   2.125   3.051   7.500 -1.2144  1.0389  0.3692
 2428SOL     OW18742   3.398   2.134   1.061  0.0437 -0.0582 -0.1676
 2428SOL    HW118743   3.479   2.170   1.097  1.2024 -1.3141 -1.4878
 2428SOL    HW218744   3.329   2.188   1.100  0.0985  0.1439 -0.3499
 2429SOL     OW18745   0.134   3.725   5.112  0.3803 -0.2247  0.5938
 2429SOL    HW118746   0.205   3.708   5.050  3.6177 -0.4194  4.3846
 2429SOL    HW218747   0.063   3.742   5.050  0.6623 -1.9620 -0.2194
 2430SOL     OW18748   3.211   0.615  11.692  0.3830  0.1304  0.8606
 2430SOL    HW118749   3.188   0.522  11.683 -3.2429  1.1116  0.0102
 2430SOL    HW218750   3.177   0.643  11.607 -0.6829  2.3747  2.0436
 2431SOL     OW18751   2.586   0.450   8.180  0.0502  0.2368  0.0346
 2431SOL    HW118752   2.627   0.396   8.247 -0.7064  1.5835  1.5880
 2431SOL    HW218753   2.609   0.395   8.105  0.2693  1.3700 -0.7342
 2432SOL     OW18754   2.729   1.968  12.275 -0.1279  0.1191  1.2061
 2432SOL    HW118755   2.650   2.022  12.283  0.1297  0.7712 -0.6230
 2432SOL    HW218756   2.703   1.877  12.283  0.5508 -0.1412  0.4278
 2433SOL     OW18757   3.946   1.967  10.681  0.2022  0.2672 -0.4924
 2433SOL    HW118758   3.975   1.993  10.594 -1.1602  3.6680  0.0819
 2433SOL    HW218759   3.913   2.052  10.710 -1.6551 -0.8237  0.5950
 2434SOL     OW18760   3.661   1.770   9.156 -0.1442  0.3562  0.1028
 2434SOL    HW118761   3.681   1.716   9.080 -1.1399 -2.4918  1.8700
 2434SOL    HW218762   3.686   1.850   9.109 -1.0209  0.0262 -0.9315
 2435SOL     OW18763   0.286   1.582   2.015  0.4219  0.1998  0.6790
 2435SOL    HW118764   0.250   1.596   1.928  1.8966  0.4839  0.1185
 2435SOL    HW218765   0.255   1.494   2.037  1.0909 -0.2652 -0.2109
 2436SOL     OW18766   0.741   0.834   5.492 -0.6933  0.4036 -0.6767
 2436SOL    HW118767   0.806   0.793   5.435 -0.9937 -2.6750  1.2223
 2436SOL    HW218768   0.673   0.767   5.495 -2.6512  2.4820  1.7245
 2437SOL     OW18769   4.273   0.588   5.429  0.0297  0.2729  0.0145
 2437SOL    HW118770   4.360   0.568   5.394  1.1135  1.9497  1.6850
 2437SOL    HW218771   4.228   0.504   5.431  0.7157 -0.0967 -0.2027
 2438SOL     OW18772   0.169   2.865  17.584 -0.0971 -0.0618 -0.4302
 2438SOL    HW118773   0.205   2.924  17.650 -1.1150  0.5297 -0.3960
 2438SOL    HW218774   0.177   2.919  17.506  1.8254 -0.4509 -0.5001
 2439SOL     OW18775   3.579   3.062   5.403 -0.0149  0.5285 -0.0264
 2439SOL    HW118776   3.494   3.026   5.429  0.6064 -1.0546 -0.2363
 2439SOL    HW218777   3.610   2.981   5.363  0.8261  0.9588 -0.2449
 2440SOL     OW18778   1.126   4.485  12.414  0.6367  0.5208 -0.1552
 2440SOL    HW118779   1.146   4.576  12.390 -1.8927  1.8544  2.7820
 2440SOL    HW218780   1.184   4.477  12.489 -0.3732 -0.7307  0.4856
 2441SOL     OW18781   2.526   0.561   4.170 -0.1214  0.2475  0.4775
 2441SOL    HW118782   2.612   0.579   4.208 -0.0146 -1.3746  0.9829
 2441SOL    HW218783   2.484   0.521   4.246 -0.6086 -1.7781 -0.8798
 2442SOL     OW18784   1.100   0.081   8.605 -0.4914 -0.2556  0.0342
 2442SOL    HW118785   1.062   0.168   8.614  1.2279  0.4867  0.0146
 2442SOL    HW218786   1.069   0.047   8.689 -0.6960  0.9133  0.4356
 2443SOL     OW18787   2.445   2.180  17.589  0.1390 -0.4186 -0.0743
 2443SOL    HW118788   2.395   2.203  17.511 -1.9522 -1.2308  1.0124
 2443SOL    HW218789   2.414   2.251  17.645 -0.4516 -1.6695  1.1812
 2444SOL     OW18790   3.763   1.166   6.836 -0.0337 -0.2052 -0.5594
 2444SOL    HW118791   3.727   1.149   6.923  0.5600  0.5996 -0.1653
 2444SOL    HW218792   3.708   1.240   6.812 -0.5829 -0.4672 -0.1284
 2445SOL     OW18793   2.830   0.935   4.325 -0.6223 -0.0739 -0.0355
 2445SOL    HW118794   2.829   0.894   4.412  1.0683 -1.6395 -0.7693
 2445SOL    HW218795   2.922   0.958   4.309 -0.8235  0.5311 -0.3105
 2446SOL     OW18796   0.893   0.479   5.214 -0.4695 -0.0520  0.2996
 2446SOL    HW118797   0.954   0.477   5.141 -0.3987  0.1845  0.3525
 2446SOL    HW218798   0.860   0.389   5.212 -1.2411  0.3206 -4.6796
 2447SOL     OW18799   2.852   3.948   6.908 -0.8578 -0.6150  0.8327
 2447SOL    HW118800   2.776   3.979   6.957  1.1795  1.3506  2.7393
 2447SOL    HW218801   2.927   3.994   6.946 -0.3273 -1.2726  0.5924
 2448SOL     OW18802   0.133   0.710   5.264  0.4251 -0.0311  0.4982
 2448SOL    HW118803   0.092   0.717   5.350 -2.0918 -0.0540 -0.6927
 2448SOL    HW218804   0.224   0.720   5.291  0.6931  2.1576 -1.2827
 2449SOL     OW18805   0.196   0.271  14.126 -0.2375 -0.1122 -0.5816
 2449SOL    HW118806   0.249   0.277  14.046  0.7248  1.2559  0.1678
 2449SOL    HW218807   0.246   0.311  14.197 -0.5109 -0.2445 -0.3164
 2450SOL     OW18808   0.637   1.249  15.670 -0.3309  0.3071 -0.3053
 2450SOL    HW118809   0.605   1.211  15.752 -3.0856 -1.5285 -2.1987
 2450SOL    HW218810   0.553   1.266  15.628 -0.9253 -0.2990  0.6449
 2451SOL     OW18811   1.119   2.632   2.157  0.3246  0.4047 -0.4925
 2451SOL    HW118812   1.035   2.639   2.113 -0.5704  0.1612  1.1592
 2451SOL    HW218813   1.122   2.722   2.190  2.8988  0.3856 -0.6443
 2452SOL     OW18814   1.203   4.368   5.671  0.6206 -0.3232 -0.1595
 2452SOL    HW118815   1.218   4.442   5.729  0.9336  2.4369 -3.7557
 2452SOL    HW218816   1.259   4.298   5.704 -0.9782 -0.9261  1.2557
 2453SOL     OW18817   3.198   0.402   4.491  0.1302 -0.1791 -0.3395
 2453SOL    HW118818   3.248   0.322   4.473  0.7199  0.0677  0.2160
 2453SOL    HW218819   3.213   0.411   4.585  0.7592  0.1105 -0.4721
 2454SOL     OW18820   4.221   1.328  14.342 -0.2617  0.0651  0.1831
 2454SOL    HW118821   4.295   1.385  14.323  1.4153 -2.2287 -0.2827
 2454SOL    HW218822   4.159   1.367  14.280  0.7110  1.3739  0.0310
 2455SOL     OW18823   4.633   3.095   4.444 -0.0048  0.0961 -0.5086
 2455SOL    HW118824   4.635   3.123   4.536  0.8683  0.6508 -0.6962
 2455SOL    HW218825   0.005   3.076   4.434  0.3490  0.6656  1.7671
 2456SOL     OW18826   1.795   1.779   7.080  0.0915  0.3639 -0.2850
 2456SOL    HW118827   1.751   1.721   7.142  0.0443  1.1043  0.3718
 2456SOL    HW218828   1.826   1.853   7.132  0.4499 -1.3446  1.9504
 2457SOL     OW18829   2.717   0.480  15.466 -0.6039 -0.1911 -0.3617
 2457SOL    HW118830   2.725   0.422  15.542 -1.2235 -1.2169 -1.0925
 2457SOL    HW218831   2.800   0.458  15.423 -1.5241 -1.1216 -1.6418
 2458SOL     OW18832   2.987   1.379   7.704 -0.2189 -0.5729 -0.0816
 2458SOL    HW118833   3.044   1.337   7.768  0.0696 -0.2272 -0.1153
 2458SOL    HW218834   3.056   1.397   7.641 -0.1068  4.0696  1.3542
 2459SOL     OW18835   1.121   1.897  11.558 -0.0842 -0.0933 -0.2379
 2459SOL    HW118836   1.177   1.891  11.481 -2.4372  1.9705 -2.1111
 2459SOL    HW218837   1.114   1.805  11.583  0.9733 -0.6210 -1.9051
 2460SOL     OW18838   2.948   1.624   2.057 -0.6258  0.2918  0.2698
 2460SOL    HW118839   2.905   1.552   2.011  0.7596 -0.0308 -0.5165
 2460SOL    HW218840   2.906   1.692   2.004 -3.8692  0.0595  2.5919
 2461SOL     OW18841   3.408   2.889  14.175 -0.5619 -0.0867  0.4320
 2461SOL    HW118842   3.461   2.862  14.249  1.6747 -0.6125 -1.3778
 2461SOL    HW218843   3.395   2.983  14.187  2.0582  0.5129 -1.5858
 2462SOL     OW18844   3.636   0.725   7.360  0.0734 -0.0574 -0.8653
 2462SOL    HW118845   3.609   0.727   7.452 -0.0920  0.6916 -0.9314
 2462SOL    HW218846   3.581   0.796   7.326  0.8254 -0.1662 -2.2793
 2463SOL     OW18847   0.664   0.065   1.362 -0.2622 -0.4511 -0.3113
 2463SOL    HW118848   0.583   0.052   1.410 -0.5051 -0.1878 -0.6448
 2463SOL    HW218849   0.629   0.126   1.297 -0.5538 -1.2772 -0.9184
 2464SOL     OW18850   1.891   0.289   3.088 -0.2315 -0.1774 -0.4423
 2464SOL    HW118851   1.966   0.238   3.055  0.7941  1.7719 -1.1695
 2464SOL    HW218852   1.894   0.258   3.178 -2.2849 -1.0653 -0.6985
 2465SOL     OW18853   4.628   3.928   7.173  0.2461  0.6261 -0.1683
 2465SOL    HW118854   4.690   3.957   7.106  3.4145  2.5908  3.5842
 2465SOL    HW218855   4.689   3.905   7.243 -0.0989  0.3223  0.0356
 2466SOL     OW18856   3.814   0.182   3.631 -0.0064  0.0326  0.1964
 2466SOL    HW118857   3.835   0.155   3.721 -0.2457  0.1890  0.3015
 2466SOL    HW218858   3.879   0.127   3.588 -1.6684 -1.9165  0.1975
 2467SOL     OW18859   2.485   2.814   5.025  0.1258  0.2119  0.7785
 2467SOL    HW118860   2.545   2.878   5.063 -0.9785  1.3256  0.6568
 2467SOL    HW218861   2.554   2.749   5.014  0.2246  0.6272 -1.1119
 2468SOL     OW18862   0.986   3.039   6.148  0.3624 -0.0291 -0.4324
 2468SOL    HW118863   0.981   2.962   6.206 -0.1320  0.6915  0.4945
 2468SOL    HW218864   0.892   3.054   6.145  0.3344 -0.2964 -0.8149
 2469SOL     OW18865   3.929   0.414  11.309  0.6342 -0.3766 -0.3548
 2469SOL    HW118866   3.872   0.473  11.359  0.7645 -0.7328  0.2238
 2469SOL    HW218867   3.915   0.443  11.219 -2.0451  0.5520  0.3504
 2470SOL     OW18868   2.609   4.520   6.163  0.6665  0.1307 -0.0938
 2470SOL    HW118869   2.578   4.474   6.085  0.8884  0.3751 -0.3247
 2470SOL    HW218870   2.614   4.610   6.130 -0.0030  0.7066  1.3661
 2471SOL     OW18871   3.679   1.167   8.973 -0.2108 -0.7027  0.2412
 2471SOL    HW118872   3.692   1.095   9.035  0.8558  0.0183  0.8490
 2471SOL    HW218873   3.772   1.185   8.960  0.1274 -2.1133  0.7359
 2472SOL     OW18874   0.771   4.198   6.972 -0.0305 -0.2970 -0.0342
 2472SOL    HW118875   0.732   4.246   6.899 -2.2476 -0.8506  0.8006
 2472SOL    HW218876   0.778   4.265   7.040  0.3144  0.2244 -0.5800
 2473SOL     OW18877   1.178   2.891   7.069  0.1298  0.6805  0.3743
 2473SOL    HW118878   1.117   2.864   7.139 -1.5656  0.0706 -1.3401
 2473SOL    HW218879   1.233   2.813   7.064 -0.7823  0.0311  0.4647
 2474SOL     OW18880   1.595   0.207   2.804  0.0098  0.2341 -0.3421
 2474SOL    HW118881   1.580   0.286   2.752  1.9469  1.0784  0.4003
 2474SOL    HW218882   1.686   0.180   2.794 -0.1162  0.1831 -1.3428
 2475SOL     OW18883   1.640   0.375  10.336  0.7285  0.4523  0.1798
 2475SOL    HW118884   1.585   0.373  10.258 -0.0277 -1.4917  0.7707
 2475SOL    HW218885   1.705   0.442  10.314 -3.7551  3.3531 -4.1058
 2476SOL     OW18886   0.687   3.285   8.661 -0.3937 -0.0895 -0.3950
 2476SOL    HW118887   0.723   3.370   8.635 -0.2656  0.1840  0.6718
 2476SOL    HW218888   0.598   3.304   8.690  0.6815  1.8424  1.6625
 2477SOL     OW18889   1.554   2.349  11.676 -0.1621 -0.2007 -0.0299
 2477SOL    HW118890   1.640   2.378  11.705 -0.6714  1.0952  0.1642
 2477SOL    HW218891   1.532   2.408  11.605  1.7488  0.1215 -0.3311
 2478SOL     OW18892   1.287   0.327   3.849 -0.0582 -0.1338  0.5680
 2478SOL    HW118893   1.225   0.290   3.787  0.7351 -0.7996  0.1734
 2478SOL    HW218894   1.311   0.250   3.901 -0.8960 -0.4603  0.4632
 2479SOL     OW18895   2.925   3.374   8.408  0.1211 -0.3700  0.4062
 2479SOL    HW118896   2.880   3.297   8.374 -1.1811  1.0507 -1.0947
 2479SOL    HW218897   3.005   3.373   8.354 -0.1402 -2.0112  0.0451
 2480SOL     OW18898   4.474   0.382  16.656  0.1286 -0.2365 -0.2589
 2480SOL    HW118899   4.464   0.316  16.588 -4.2358 -0.2828  0.4240
 2480SOL    HW218900   4.569   0.371  16.660 -0.0987 -2.5715 -1.5121
 2481SOL     OW18901   2.351   0.315   5.196 -0.2586  0.8013 -0.3682
 2481SOL    HW118902   2.444   0.315   5.218  0.2915 -1.4100 -2.5957
 2481SOL    HW218903   2.349   0.388   5.134 -0.6679  1.1416  0.0531
 2482SOL     OW18904   1.658   2.682   1.432  0.3881 -0.2267 -0.0790
 2482SOL    HW118905   1.668   2.769   1.471 -0.9840 -1.0762  2.1039
 2482SOL    HW218906   1.733   2.651   1.481  0.2411 -0.3695  0.0549
 2483SOL     OW18907   4.055   1.720   4.747 -0.1767  0.4399  0.4345
 2483SOL    HW118908   4.085   1.784   4.683 -0.4432 -1.1843 -1.3388
 2483SOL    HW218909   4.098   1.745   4.829  0.3395  2.2913 -0.3971
 2484SOL     OW18910   3.514   1.849   8.465  0.4375 -0.3685 -0.1823
 2484SOL    HW118911   3.438   1.895   8.499 -0.1708 -1.0762 -0.5846
 2484SOL    HW218912   3.493   1.759   8.489  1.7389 -1.0231 -1.5481
 2485SOL     OW18913   3.927   4.250  17.303 -0.2994  0.5105  0.0427
 2485SOL    HW118914   3.831   4.257  17.303 -0.4778 -2.0830  3.3839
 2485SOL    HW218915   3.934   4.161  17.336 -1.9968  1.0369  1.8698
 2486SOL     OW18916   4.244   4.557   9.445  0.5187 -0.0365 -0.6441
 2486SOL    HW118917   4.165   4.608   9.461 -1.0909 -2.4507 -0.8806
 2486SOL    HW218918   4.307   4.624   9.470 -1.6815  1.8945 -0.2989
 2487SOL     OW18919   0.991   1.104   8.667 -0.0067 -0.2471 -0.0037
 2487SOL    HW118920   1.082   1.128   8.683  0.7436 -2.9517 -0.2178
 2487SOL    HW218921   0.997   1.036   8.601  3.3443  1.7272 -1.7369
 2488SOL     OW18922   4.052   0.974  12.485  0.2536  0.3101 -0.0007
 2488SOL    HW118923   4.037   1.034  12.558 -0.8444  0.1122 -0.0602
 2488SOL    HW218924   4.141   1.001  12.463  0.4920 -0.4775  0.0077
 2489SOL     OW18925   4.049   4.450  15.465  0.2484 -0.0139  0.1185
 2489SOL    HW118926   3.990   4.505  15.517  1.0547 -1.2694  2.3784
 2489SOL    HW218927   4.136   4.475  15.496  1.6044 -1.4158 -2.5610
 2490SOL     OW18928   1.263   1.761  11.387 -0.3807  0.0852  0.4314
 2490SOL    HW118929   1.345   1.774  11.433 -0.8881 -0.4004  1.4655
 2490SOL    HW218930   1.295   1.750  11.297 -1.5422  1.9689 -0.1957
 2491SOL     OW18931   1.171   2.687   1.396 -0.5453 -0.3256  0.6908
 2491SOL    HW118932   1.142   2.714   1.309 -0.9288 -0.1182  0.8863
 2491SOL    HW218933   1.247   2.632   1.374 -0.6744 -0.1394 -0.2040
 2492SOL     OW18934   2.849   3.016   0.665  0.0942  0.1779 -0.5272
 2492SOL    HW118935   2.819   3.069   0.591 -2.4003  0.5700  0.7763
 2492SOL    HW218936   2.771   3.012   0.720  0.8249 -4.7475  0.1698
 2493SOL     OW18937   0.649   2.136   2.588  0.1055  0.0477  0.9586
 2493SOL    HW118938   0.581   2.200   2.607 -0.3327 -0.2148  0.2492
 2493SOL    HW218939   0.648   2.136   2.493  1.2496  0.0413  0.9399
 2494SOL     OW18940   2.125   3.883   5.471 -0.3924 -0.2301 -0.4494
 2494SOL    HW118941   2.073   3.803   5.463  0.0126 -0.4108 -1.2577
 2494SOL    HW218942   2.209   3.857   5.432 -0.1256  0.6592 -0.4602
 2495SOL     OW18943   4.697   2.395   4.674 -0.1270 -0.0564 -0.1997
 2495SOL    HW118944   4.630   2.374   4.739  0.9685  0.7411  1.1658
 2495SOL    HW218945   0.021   2.474   4.704  1.3148  0.2409 -3.1752
 2496SOL     OW18946   1.341   2.664  16.934  0.2465 -0.2053 -0.1468
 2496SOL    HW118947   1.354   2.667  16.839 -0.9067  1.9130 -0.2205
 2496SOL    HW218948   1.314   2.754  16.948 -0.5928 -0.1359 -2.1098
 2497SOL     OW18949   1.868   2.767  13.272 -0.3685 -0.3249  0.7103
 2497SOL    HW118950   1.822   2.801  13.195 -1.0659  0.0672  1.3038
 2497SOL    HW218951   1.942   2.725  13.228 -0.0887  1.0192 -0.1047
 2498SOL     OW18952   4.702   0.787   3.841  0.3306  0.4522  0.4034
 2498SOL    HW118953   4.618   0.744   3.822 -0.2128  1.8228 -0.3327
 2498SOL    HW218954   4.672   0.835   3.918  0.6733  1.0764  0.1442
 2499SOL     OW18955   4.284   1.525  14.003 -0.4393  0.0414 -0.0591
 2499SOL    HW118956   4.308   1.512  14.094 -0.4553 -0.0595 -0.0693
 2499SOL    HW218957   4.341   1.597  13.979 -1.0689  0.0953 -1.4446
 2500SOL     OW18958   4.251   4.027  12.566 -0.6592 -0.1721 -0.3514
 2500SOL    HW118959   4.266   4.059  12.478  0.3739  1.0439  0.2567
 2500SOL    HW218960   4.170   3.977  12.556 -0.5189 -0.4174 -0.2514
 2501SOL     OW18961   3.602   4.107   4.903 -0.1600 -0.0335 -0.1097
 2501SOL    HW118962   3.569   4.088   4.991 -0.3114  0.7987  0.0092
 2501SOL    HW218963   3.696   4.093   4.902 -0.0074  0.8991  1.0919
 2502SOL     OW18964   2.181   3.448   3.405  0.4456  0.1542 -0.6224
 2502SOL    HW118965   2.275   3.465   3.414  0.8464 -0.8591 -2.8497
 2502SOL    HW218966   2.169   3.424   3.313  0.7758  1.3012 -0.9680
 2503SOL     OW18967   3.515   3.638   9.998  0.2711 -0.4175 -0.2193
 2503SOL    HW118968   3.490   3.546  10.004 -1.9361  0.3786  2.6702
 2503SOL    HW218969   3.582   3.631   9.931  1.3418 -0.4819  0.8612
 2504SOL     OW18970   2.742   2.465   6.830  0.0321 -0.7353 -0.3185
 2504SOL    HW118971   2.730   2.415   6.911  1.7502  0.0290  0.4130
 2504SOL    HW218972   2.734   2.556   6.859  1.0799 -0.4004 -1.0740
 2505SOL     OW18973   2.527   2.124   2.156 -0.2907  0.1188  0.5639
 2505SOL    HW118974   2.492   2.094   2.240  0.0474  1.4073  1.1630
 2505SOL    HW218975   2.458   2.181   2.122  0.5107 -0.7714 -2.6001
 2506SOL     OW18976   3.101   2.358  10.198  0.4991 -0.2767  0.6699
 2506SOL    HW118977   3.138   2.327  10.281  0.8843 -1.5320  0.0284
 2506SOL    HW218978   3.071   2.279  10.154 -0.1067  0.3491 -0.0607
 2507SOL     OW18979   0.453   4.067   3.775  0.0560 -0.5380 -0.1358
 2507SOL    HW118980   0.481   4.132   3.839  1.2084 -1.1762 -0.0035
 2507SOL    HW218981   0.524   4.058   3.712 -0.4679 -0.2223 -0.7696
 2508SOL     OW18982   2.952   3.994   8.632 -0.1570 -0.1521  0.1468
 2508SOL    HW118983   2.925   3.990   8.724  0.1560  0.2672  0.2599
 2508SOL    HW218984   3.038   4.037   8.638  0.2782 -0.9813 -0.1776
 2509SOL     OW18985   0.988   0.177   6.797  0.2705 -0.1618 -0.2594
 2509SOL    HW118986   1.051   0.108   6.780  0.8286  0.1735  0.4907
 2509SOL    HW218987   0.926   0.130   6.853  0.6228 -0.9418 -0.5277
 2510SOL     OW18988   0.323   3.844  10.328  0.0123 -0.1992  0.3373
 2510SOL    HW118989   0.419   3.851  10.330 -0.2255  2.7778  0.7912
 2510SOL    HW218990   0.297   3.934  10.311 -2.6847 -0.7669  1.5925
 2511SOL     OW18991   1.393   0.372   5.068 -0.0192  0.2392  0.3796
 2511SOL    HW118992   1.325   0.382   5.135 -1.3779  0.1462 -0.9641
 2511SOL    HW218993   1.409   0.279   5.081 -2.8044 -0.0447  1.7384
 2512SOL     OW18994   1.351   4.449   1.444 -0.1709  0.4862 -0.0160
 2512SOL    HW118995   1.259   4.467   1.423 -0.1200  0.0587 -0.5954
 2512SOL    HW218996   1.383   4.417   1.360  1.1946 -1.3313  1.2016
 2513SOL     OW18997   2.461   4.612  12.934 -0.1543  0.2129  0.3822
 2513SOL    HW118998   2.550   4.579  12.922  0.0374 -0.2492  3.1249
 2513SOL    HW218999   2.450   4.633  12.841 -0.9812 -2.3215 -0.1079
 2514SOL     OW19000   1.614   4.082   4.861  0.2993 -0.1355  0.0313
 2514SOL    HW119001   1.704   4.112   4.876 -0.2627  2.2458 -1.3961
 2514SOL    HW219002   1.618   3.993   4.896  0.4932  0.7568  2.3147
 2515SOL     OW19003   1.459   2.177   1.458 -0.4212 -0.1098  0.6411
 2515SOL    HW119004   1.552   2.195   1.446 -0.7197 -0.0167 -1.5661
 2515SOL    HW219005   1.463   2.129   1.540 -1.9507 -0.8875  0.2693
 2516SOL     OW19006   3.949   2.301  10.278 -0.5088 -0.3580  0.3916
 2516SOL    HW119007   3.859   2.267  10.270 -0.0802 -1.6052  0.7860
 2516SOL    HW219008   3.981   2.305  10.188  1.3279  0.6584  1.0994
 2517SOL     OW19009   2.015   2.162   4.557  0.3809  0.2652 -0.2745
 2517SOL    HW119010   1.922   2.147   4.575  0.9702 -2.1015  0.7889
 2517SOL    HW219011   2.005   2.238   4.500 -0.1468  0.1542 -0.3256
 2518SOL     OW19012   1.227   3.840   5.105  0.3260  0.2687  0.1850
 2518SOL    HW119013   1.212   3.746   5.089 -0.0312  0.4162 -0.3450
 2518SOL    HW219014   1.298   3.838   5.169 -1.3968 -0.4821  2.0663
 2519SOL     OW19015   4.529   4.110   4.147 -0.0510  0.5484  0.0829
 2519SOL    HW119016   4.562   4.029   4.185 -0.1276  0.7799  0.6531
 2519SOL    HW219017   4.546   4.176   4.215 -0.2938  0.4433  0.2471
 2520SOL     OW19018   3.673   1.227   5.976 -0.4604  0.4020 -0.0282
 2520SOL    HW119019   3.691   1.213   6.069  2.1448 -0.2442 -0.6104
 2520SOL    HW219020   3.618   1.151   5.958 -1.1043  0.7681  0.3832
 2521SOL     OW19021   1.007   0.421   6.908 -0.2312 -0.3158 -0.1808
 2521SOL    HW119022   0.921   0.461   6.895 -0.4109 -0.2706  1.1590
 2521SOL    HW219023   1.001   0.343   6.854 -0.2045  0.4649 -1.3211
 2522SOL     OW19024   0.270   1.122   7.124 -0.3700  0.3096  0.1086
 2522SOL    HW119025   0.262   1.080   7.038  0.3530 -0.9852  0.6722
 2522SOL    HW219026   0.352   1.170   7.116 -0.3363  0.3563  0.7895
 2523SOL     OW19027   4.559   1.167  15.135  0.3371 -0.6023 -0.5746
 2523SOL    HW119028   4.510   1.160  15.053  0.0577 -0.9652 -0.3784
 2523SOL    HW219029   4.644   1.135  15.105  0.7705  1.0211 -1.0694
 2524SOL     OW19030   3.938   0.038  15.152 -0.2340  0.3329 -0.2261
 2524SOL    HW119031   4.008   4.693  15.155 -1.0365 -0.4445  1.0989
 2524SOL    HW219032   3.903   0.035  15.241 -2.4582  0.5639 -1.0949
 2525SOL     OW19033   1.725   1.635   3.321 -0.2073 -0.5011  0.1236
 2525SOL    HW119034   1.807   1.685   3.322 -1.2665  1.2568 -0.3539
 2525SOL    HW219035   1.735   1.591   3.405 -1.6493 -3.0055 -1.0114
 2526SOL     OW19036   2.209   2.201  12.088  0.4888  0.3922  0.1394
 2526SOL    HW119037   2.189   2.245  12.005 -0.0614 -0.6364 -0.2820
 2526SOL    HW219038   2.251   2.119  12.060  1.6456  1.0263  0.0162
 2527SOL     OW19039   1.622   1.906   6.162 -0.0549  0.5330  0.6194
 2527SOL    HW119040   1.619   1.811   6.163  0.9076  0.5001  0.7391
 2527SOL    HW219041   1.716   1.919   6.174  0.1872  1.5320 -2.1738
 2528SOL     OW19042   0.915   2.777  16.139  0.5642  0.3657 -0.2406
 2528SOL    HW119043   0.942   2.717  16.070 -0.1297  0.7410 -0.8293
 2528SOL    HW219044   0.993   2.762  16.194  0.3516 -0.8278 -0.2584
 2529SOL     OW19045   4.465   0.713   0.803  0.1245  0.4890 -0.3823
 2529SOL    HW119046   4.490   0.804   0.819 -0.1515  0.7067 -1.2200
 2529SOL    HW219047   4.385   0.719   0.751 -0.2543 -0.5949  0.0543
 2530SOL     OW19048   2.233   2.421  12.739 -0.0708  0.6637 -0.0792
 2530SOL    HW119049   2.283   2.502  12.744  2.2769 -1.0108  3.4277
 2530SOL    HW219050   2.195   2.425  12.827  1.1168 -1.2028  0.5162
 2531SOL     OW19051   3.886   1.621   6.678 -0.1149  0.3555 -0.4225
 2531SOL    HW119052   3.895   1.712   6.705 -0.8063  0.8749 -1.9400
 2531SOL    HW219053   3.792   1.617   6.658 -0.4394 -0.9903  1.3873
 2532SOL     OW19054   3.650   3.257  13.290 -0.5121  0.8175  0.7063
 2532SOL    HW119055   3.671   3.306  13.210 -0.6173  2.3359  1.5992
 2532SOL    HW219056   3.727   3.201  13.289 -0.9899  0.2075 -2.6593
 2533SOL     OW19057   4.670   4.019   4.718  0.6755 -0.1986 -0.4616
 2533SOL    HW119058   4.643   3.948   4.660  2.1428 -2.4905  1.6194
 2533SOL    HW219059   0.034   3.988   4.748 -0.6256 -2.8988  0.4475
 2534SOL     OW19060   2.633   3.464   1.192  1.0684  0.3689 -0.4930
 2534SOL    HW119061   2.594   3.395   1.245 -1.5424  0.9899 -1.5860
 2534SOL    HW219062   2.723   3.434   1.178  1.3358  1.1453 -0.4678
 2535SOL     OW19063   3.036   3.252   3.256  0.2580 -0.9197  0.4114
 2535SOL    HW119064   2.977   3.210   3.318 -0.0691 -0.4431  0.4271
 2535SOL    HW219065   3.044   3.337   3.298 -0.6985 -0.5359 -0.1848
 2536SOL     OW19066   2.134   1.462  10.259  0.2713 -0.5841  0.3945
 2536SOL    HW119067   2.039   1.475  10.255  0.3493  0.4279  1.7265
 2536SOL    HW219068   2.158   1.413  10.181  1.0339  1.4257 -0.6030
 2537SOL     OW19069   0.023   2.119   7.886 -0.1820 -0.2903  0.0969
 2537SOL    HW119070   0.068   2.199   7.915  0.1301 -0.6441  0.5769
 2537SOL    HW219071   0.079   2.056   7.931 -0.6493  0.6720  2.0211
 2538SOL     OW19072   2.738   3.570   2.993  0.1849 -0.2712  0.5633
 2538SOL    HW119073   2.746   3.485   3.036  0.7335  0.0170  1.0257
 2538SOL    HW219074   2.830   3.581   2.967 -0.4086  0.6138 -1.1728
 2539SOL     OW19075   0.397   1.757   3.795  0.1970  0.6651 -0.1968
 2539SOL    HW119076   0.485   1.780   3.824 -0.6609  1.3208  1.8742
 2539SOL    HW219077   0.355   1.751   3.881  0.8397 -0.3178  0.0542
 2540SOL     OW19078   0.849   3.228  14.711 -0.3861  0.4214 -0.3791
 2540SOL    HW119079   0.924   3.233  14.770 -1.6556  1.9998  1.0698
 2540SOL    HW219080   0.773   3.242  14.766  0.5654 -1.2252  1.3667
 2541SOL     OW19081   3.644   3.539   3.529  0.6580  0.0348 -0.3260
 2541SOL    HW119082   3.658   3.527   3.435  2.3724  1.7915 -0.2844
 2541SOL    HW219083   3.647   3.448   3.557  2.6185  0.6010  1.2629
 2542SOL     OW19084   4.285   4.062   4.353  0.2114 -0.3161  0.3007
 2542SOL    HW119085   4.269   4.115   4.275 -2.2787 -0.0810  0.9851
 2542SOL    HW219086   4.290   3.972   4.319 -0.3420 -0.7762  1.4493
 2543SOL     OW19087   3.272   0.375  10.630 -0.1978 -0.4045  0.0922
 2543SOL    HW119088   3.293   0.283  10.646 -1.0380 -0.7600 -0.8422
 2543SOL    HW219089   3.204   0.372  10.563 -0.9634  1.8087  0.7309
 2544SOL     OW19090   1.003   0.755   4.775 -0.7489  0.3625 -0.0146
 2544SOL    HW119091   1.016   0.847   4.755  1.7646  0.4379  2.0041
 2544SOL    HW219092   1.023   0.763   4.868 -0.4888 -1.1063  0.0518
 2545SOL     OW19093   3.983   3.639   3.817  0.3538 -0.5272 -0.0938
 2545SOL    HW119094   3.985   3.545   3.800  0.3814 -0.6252  0.4455
 2545SOL    HW219095   3.892   3.634   3.846  0.8198 -1.6899  1.1480
 2546SOL     OW19096   2.333   3.050   1.311 -0.3641  0.0687 -0.0143
 2546SOL    HW119097   2.314   2.957   1.324  2.5427 -0.3872  0.9142
 2546SOL    HW219098   2.400   3.039   1.244 -0.3927  1.4926 -0.2830
 2547SOL     OW19099   3.042   1.909   2.921  0.7075 -0.3549 -0.1750
 2547SOL    HW119100   2.997   1.992   2.934  0.4771 -0.6083  0.6433
 2547SOL    HW219101   3.131   1.934   2.896  0.6608 -0.0904 -0.0730
 2548SOL     OW19102   3.836   2.111   6.912 -0.2591 -0.2782 -0.4868
 2548SOL    HW119103   3.802   2.198   6.930 -0.3807 -0.6561  1.0681
 2548SOL    HW219104   3.814   2.070   6.995  0.2912 -1.4415 -0.9139
 2549SOL     OW19105   0.123   4.578   3.300 -0.0583  0.1412  0.2302
 2549SOL    HW119106   0.151   4.545   3.386  2.7846  0.4771 -0.5902
 2549SOL    HW219107   0.122   4.672   3.315 -1.2642  0.0519  0.7603
 2550SOL     OW19108   1.339   1.179   8.333 -0.1820 -0.0512  0.4033
 2550SOL    HW119109   1.399   1.223   8.393 -3.2821  1.5758  2.2999
 2550SOL    HW219110   1.265   1.240   8.337  0.8024  1.1775 -0.4416
 2551SOL     OW19111   0.055   3.784  15.363 -0.0977  0.6212 -0.5646
 2551SOL    HW119112   0.069   3.758  15.272 -1.1103  3.0704 -1.4394
 2551SOL    HW219113   0.031   3.875  15.344 -0.0012  0.5303 -1.1199
 2552SOL     OW19114   1.994   2.882  14.416 -0.3206  0.1501  0.3100
 2552SOL    HW119115   1.997   2.871  14.321  0.5876  2.0979  0.1156
 2552SOL    HW219116   1.980   2.975  14.434 -0.0213  0.4640 -1.1044
 2553SOL     OW19117   0.746   2.814   2.194 -0.6946  0.4380  0.2528
 2553SOL    HW119118   0.716   2.902   2.169 -0.3026  0.7032  0.7011
 2553SOL    HW219119   0.677   2.772   2.246 -0.4747 -0.0098  0.1791
 2554SOL     OW19120   4.519   4.279   7.056 -0.6087  0.1501 -0.1157
 2554SOL    HW119121   4.563   4.344   7.111  0.2122  0.2133 -0.8510
 2554SOL    HW219122   4.428   4.306   7.043 -0.6847  0.0869  0.2696
 2555SOL     OW19123   4.583   2.034  13.744 -0.3081  0.3268  0.2700
 2555SOL    HW119124   4.609   2.076  13.826 -0.3069 -1.8394  1.3820
 2555SOL    HW219125   4.573   1.943  13.772 -0.5265  1.8237  5.1194
 2556SOL     OW19126   3.457   2.583   4.934  0.3792  0.1187 -0.2689
 2556SOL    HW119127   3.393   2.557   5.000 -0.9423  3.0330 -0.4110
 2556SOL    HW219128   3.463   2.674   4.964  0.0641 -0.4274  1.4677
 2557SOL     OW19129   1.191   0.498   7.981  0.0573  0.6204 -0.2004
 2557SOL    HW119130   1.142   0.568   7.939  1.8564  2.4502  0.7371
 2557SOL    HW219131   1.205   0.537   8.067 -2.5712  1.8671 -0.3408
 2558SOL     OW19132   0.338   3.694   0.453  0.1569 -0.1343  0.3479
 2558SOL    HW119133   0.246   3.705   0.430  0.2399  1.8751  0.9267
 2558SOL    HW219134   0.365   3.785   0.467  0.7462 -0.4745  1.4274
 2559SOL     OW19135   1.866   1.070   6.144  0.0178 -0.0061 -0.2325
 2559SOL    HW119136   1.799   1.051   6.079  1.5013  2.0245 -2.3386
 2559SOL    HW219137   1.864   0.984   6.188 -1.0862 -0.1108 -0.4722
 2560SOL     OW19138   4.286   0.918   7.123  0.0191  0.9156  0.1540
 2560SOL    HW119139   4.285   0.971   7.043  1.2703 -1.9314 -1.7786
 2560SOL    HW219140   4.198   0.929   7.158  0.4230 -0.6023  1.6539
 2561SOL     OW19141   2.221   2.799   5.042  0.0356  0.0159 -0.7665
 2561SOL    HW119142   2.224   2.707   5.069 -0.4425  0.1202 -0.3525
 2561SOL    HW219143   2.316   2.806   5.034  0.1834 -0.9406  0.1049
 2562SOL     OW19144   0.750   0.683   2.404 -0.6846  0.6497  0.0269
 2562SOL    HW119145   0.721   0.592   2.408  0.6021  0.2684  0.7995
 2562SOL    HW219146   0.786   0.687   2.493  0.7180  0.2247 -0.5335
 2563SOL     OW19147   0.220   4.489   4.340 -0.0653  0.0206 -0.4960
 2563SOL    HW119148   0.234   4.413   4.284 -2.0878  0.1990 -1.2480
 2563SOL    HW219149   0.136   4.516   4.303  0.3797  0.3174 -1.3080
 2564SOL     OW19150   0.743   1.303   3.864  0.0345  0.3118  0.2658
 2564SOL    HW119151   0.680   1.354   3.813 -0.0499 -0.5656 -0.5256
 2564SOL    HW219152   0.736   1.217   3.820 -1.2433 -0.6262  2.3122
 2565SOL     OW19153   0.515   2.673   0.441  0.1388 -0.1969  0.5474
 2565SOL    HW119154   0.474   2.741   0.388 -1.2596 -1.2220  0.2974
 2565SOL    HW219155   0.438   2.617   0.450 -0.0436 -0.0619 -0.1823
 2566SOL     OW19156   2.690   1.790  17.460 -0.2435 -0.0739 -0.2642
 2566SOL    HW119157   2.634   1.859  17.497 -0.4017  0.2166 -1.0603
 2566SOL    HW219158   2.678   1.784  17.366  0.9158  0.3571 -0.4415
 2567SOL     OW19159   1.449   0.251  13.058  0.2108 -0.3222 -0.2977
 2567SOL    HW119160   1.376   0.198  13.090  0.2930  0.7250  1.5541
 2567SOL    HW219161   1.413   0.339  13.048 -2.5157 -1.1394  2.2683
 2568SOL     OW19162   4.653   0.144   2.191  0.1738  0.1952 -0.2529
 2568SOL    HW119163   4.641   0.200   2.268 -0.3628  0.2640 -0.3855
 2568SOL    HW219164   4.633   0.209   2.124 -0.6892 -0.9490 -1.1094
 2569SOL     OW19165   0.389   1.736   2.225 -1.0473  0.3041  0.5500
 2569SOL    HW119166   0.332   1.683   2.170  0.0209 -2.3509  2.0206
 2569SOL    HW219167   0.348   1.735   2.311  0.1403  0.6155  1.1218
 2570SOL     OW19168   4.201   4.041  10.509 -0.5087 -0.0938  0.2857
 2570SOL    HW119169   4.235   4.066  10.596  2.1724 -1.4394 -0.3751
 2570SOL    HW219170   4.194   4.130  10.475  3.4205  1.2255  2.9116
 2571SOL     OW19171   2.564   3.143  13.381  0.3189  0.3031  0.0600
 2571SOL    HW119172   2.529   3.205  13.316 -3.6590 -0.3350  1.5830
 2571SOL    HW219173   2.642   3.102  13.344  0.8527  0.2150  1.3070
 2572SOL     OW19174   0.606   3.323   7.284  0.9409 -0.0551  0.2678
 2572SOL    HW119175   0.560   3.260   7.228  0.1130  1.3651 -0.6534
 2572SOL    HW219176   0.694   3.286   7.288  0.5506 -0.8346  1.4767
 2573SOL     OW19177   4.721   1.455  16.292 -0.3764 -0.1310 -0.6001
 2573SOL    HW119178   4.647   1.437  16.350  0.6211 -0.1547  0.6611
 2573SOL    HW219179   0.055   1.506  16.352 -1.9365  1.2231 -0.3015
 2574SOL     OW19180   2.843   2.385  12.038  0.2984  0.2284 -0.2674
 2574SOL    HW119181   2.932   2.393  12.072  0.2825  0.1728 -0.2135
 2574SOL    HW219182   2.795   2.398  12.119 -0.5874  1.7560 -1.0399
 2575SOL     OW19183   3.347   1.595   3.900 -0.1964  0.0076 -0.0663
 2575SOL    HW119184   3.350   1.554   3.986  0.9898 -0.4440 -0.3186
 2575SOL    HW219185   3.251   1.602   3.894 -0.1738 -0.1173 -0.5788
 2576SOL     OW19186   4.673   0.662   5.763 -0.1925  0.0219 -0.2006
 2576SOL    HW119187   4.644   0.666   5.672 -1.2172  1.1350  0.1711
 2576SOL    HW219188   4.621   0.591   5.800 -2.0830  1.0086 -0.9464
 2577SOL     OW19189   0.471   2.585   4.029  0.4231  0.1623  0.0123
 2577SOL    HW119190   0.462   2.623   3.941 -0.3093 -1.4133 -0.5950
 2577SOL    HW219191   0.396   2.619   4.077 -0.5109  0.0567 -1.3965
 2578SOL     OW19192   1.806   2.286  13.855  0.0502  0.2855 -0.3516
 2578SOL    HW119193   1.727   2.304  13.804  0.6916  2.1617 -0.7156
 2578SOL    HW219194   1.876   2.279  13.789  0.6858 -1.4878  0.5149
 2579SOL     OW19195   4.046   1.492  12.257  0.5487  0.2812 -0.3712
 2579SOL    HW119196   4.054   1.414  12.203 -2.5226  0.5150 -1.1639
 2579SOL    HW219197   3.964   1.525  12.220  0.8434  1.1396 -0.2626
 2580SOL     OW19198   3.411   0.884   8.591 -0.2936  0.1887 -0.3923
 2580SOL    HW119199   3.484   0.932   8.551 -0.4766  1.5374  0.8804
 2580SOL    HW219200   3.458   0.871   8.674 -0.2615 -0.7047 -0.5574
 2581SOL     OW19201   0.910   2.454   2.507 -0.5766 -0.0428  0.0772
 2581SOL    HW119202   0.990   2.478   2.461 -1.6003  1.6183 -0.8461
 2581SOL    HW219203   0.912   2.359   2.521 -0.1694  0.2012  1.6085
 2582SOL     OW19204   3.001   1.074  11.388  0.2091 -0.1828  0.5870
 2582SOL    HW119205   2.940   1.063  11.461 -0.1846  1.0610  0.4370
 2582SOL    HW219206   3.007   1.169  11.399  0.1024 -0.1565  0.4296
 2583SOL     OW19207   2.533   1.577  11.418  0.0711  0.0265 -0.0293
 2583SOL    HW119208   2.491   1.630  11.486 -0.0037 -1.1144  0.8229
 2583SOL    HW219209   2.547   1.493  11.464  1.9397 -0.2014 -0.9983
 2584SOL     OW19210   2.366   1.094   4.187  0.1067  0.1702 -0.7561
 2584SOL    HW119211   2.356   1.108   4.282 -1.4773  1.4926 -1.1196
 2584SOL    HW219212   2.462   1.085   4.183  0.3603  3.2791 -1.4423
 2585SOL     OW19213   0.563   1.190  10.623 -0.3191 -0.1435 -0.2059
 2585SOL    HW119214   0.523   1.212  10.708 -1.2037  1.0616 -0.9417
 2585SOL    HW219215   0.587   1.099  10.641  1.4185  0.5287  0.8776
 2586SOL     OW19216   2.931   2.633   0.178  0.2986  0.3927  0.1286
 2586SOL    HW119217   3.010   2.652   0.128  0.8801 -0.5682  0.6773
 2586SOL    HW219218   2.971   2.571   0.239 -1.6965 -1.4191 -0.3738
 2587SOL     OW19219   4.173   4.625   3.350  0.0287 -0.2314 -0.0923
 2587SOL    HW119220   4.264   4.618   3.378  0.1824  1.4056 -0.1958
 2587SOL    HW219221   4.180   4.689   3.278 -1.6366 -1.6796 -1.5388
 2588SOL     OW19222   1.953   0.232   1.670 -0.1101  0.4718  0.2371
 2588SOL    HW119223   1.886   0.273   1.615 -0.0552 -2.8016 -2.2738
 2588SOL    HW219224   2.011   0.308   1.680 -0.0820  0.6534 -1.3370
 2589SOL     OW19225   0.199   4.323   2.130 -0.1946 -0.7078 -0.0758
 2589SOL    HW119226   0.284   4.309   2.089  1.0372 -0.1321  2.2885
 2589SOL    HW219227   0.174   4.414   2.113  1.1911 -0.5492 -1.2198
 2590SOL     OW19228   2.998   2.644   5.683 -0.3557 -0.2358  0.2716
 2590SOL    HW119229   3.087   2.627   5.715  0.7664 -0.1380 -2.7077
 2590SOL    HW219230   3.003   2.737   5.664  0.7661 -0.4221 -0.3643
 2591SOL     OW19231   2.573   4.178   2.120  0.1017  0.6562  0.0847
 2591SOL    HW119232   2.518   4.246   2.081 -1.4075 -1.4548 -1.4766
 2591SOL    HW219233   2.612   4.140   2.042 -0.2549 -0.3086  0.3795
 2592SOL     OW19234   0.188   0.729   6.765 -0.1313 -0.4317  0.1567
 2592SOL    HW119235   0.203   0.817   6.728  1.3212 -0.1689  1.3991
 2592SOL    HW219236   0.177   0.684   6.681  2.2146 -0.9940  0.1393
 2593SOL     OW19237   0.446   0.770   3.904 -0.0272  0.2621 -0.2598
 2593SOL    HW119238   0.495   0.851   3.917 -2.2757  1.0617  3.2416
 2593SOL    HW219239   0.425   0.753   3.996 -2.7148  1.0974 -0.7294
 2594SOL     OW19240   1.694   4.050  14.828  0.4109 -0.4485  0.1788
 2594SOL    HW119241   1.703   4.012  14.741 -1.4550  1.3137 -0.7832
 2594SOL    HW219242   1.603   4.078  14.817  1.2555  1.1840 -2.5980
 2595SOL     OW19243   0.542   1.447   5.899  0.0066  0.1602  0.5755
 2595SOL    HW119244   0.635   1.433   5.883 -0.0499  0.6369 -0.2109
 2595SOL    HW219245   0.538   1.543   5.901 -2.3460  0.0405  2.4072
 2596SOL     OW19246   0.254   2.396   3.133 -0.8840  0.3284  0.3427
 2596SOL    HW119247   0.163   2.380   3.108 -0.2404 -2.1028 -0.4806
 2596SOL    HW219248   0.243   2.490   3.115  1.6351  0.9663  2.1391
 2597SOL     OW19249   0.438   2.766   4.287  0.1937 -0.7135 -0.1255
 2597SOL    HW119250   0.465   2.856   4.267  0.2419 -0.4080  1.3327
 2597SOL    HW219251   0.352   2.758   4.244  0.8251 -0.5554 -1.4225
 2598SOL     OW19252   1.231   1.354   8.616 -0.3469 -0.2766  0.0016
 2598SOL    HW119253   1.183   1.379   8.695 -0.7217 -1.5276  0.1709
 2598SOL    HW219254   1.307   1.408   8.634  0.5811 -1.4496 -0.3873
 2599SOL     OW19255   4.220   1.587   6.037 -0.0589  0.2969  0.6237
 2599SOL    HW119256   4.156   1.558   5.971  0.0443  0.1099  0.6079
 2599SOL    HW219257   4.286   1.627   5.980  1.8952 -1.0527  1.9561
 2600SOL     OW19258   2.033   4.679   3.892  0.4968 -0.0999 -0.3665
 2600SOL    HW119259   2.033   4.638   3.979 -0.6135 -2.3405 -1.4220
 2600SOL    HW219260   1.958   0.015   3.906 -0.3117 -1.0169 -0.9591
 2601SOL     OW19261   1.559   1.237   7.484  0.2203 -0.3481  0.0272
 2601SOL    HW119262   1.624   1.195   7.427  0.2066  1.4765 -1.3390
 2601SOL    HW219263   1.565   1.175   7.556 -0.3058 -1.4647 -0.8962
 2602SOL     OW19264   1.737   2.627   0.471  0.0564  0.0260 -0.2068
 2602SOL    HW119265   1.711   2.537   0.451  5.0191 -0.7147 -3.5247
 2602SOL    HW219266   1.831   2.623   0.452 -0.2755  3.7119 -2.4274
 2603SOL     OW19267   1.610   0.849   5.119 -0.1295 -0.1498 -0.2688
 2603SOL    HW119268   1.519   0.874   5.133 -0.0041  0.3546 -0.3421
 2603SOL    HW219269   1.636   0.927   5.069 -1.6327  0.0857 -0.6887
 2604SOL     OW19270   1.374   2.416  16.142 -0.5503 -0.2409  0.5986
 2604SOL    HW119271   1.448   2.463  16.102 -1.2523  0.7910  0.5418
 2604SOL    HW219272   1.378   2.451  16.230  1.6343 -0.3738  0.5553
 2605SOL     OW19273   3.121   2.020   5.880 -0.9567  0.2614  0.2517
 2605SOL    HW119274   3.168   2.104   5.879 -2.3899  1.0663  0.5479
 2605SOL    HW219275   3.199   1.966   5.868  0.1747  1.3244  2.8775
 2606SOL     OW19276   1.757   1.460   4.543  0.2981  0.3172  0.1284
 2606SOL    HW119277   1.807   1.478   4.463  0.7425 -1.8235 -0.0765
 2606SOL    HW219278   1.781   1.534   4.599 -0.1291 -1.3679  2.5183
 2607SOL     OW19279   0.722   3.977   2.439 -0.3067 -0.2987  0.0866
 2607SOL    HW119280   0.710   4.047   2.375 -1.2140 -0.0060  0.5692
 2607SOL    HW219281   0.664   3.915   2.394 -2.1234  1.1322  0.4683
 2608SOL     OW19282   0.861   0.214   7.357 -0.7568 -0.5024 -0.8460
 2608SOL    HW119283   0.845   0.222   7.263 -1.2866 -0.6350 -0.7717
 2608SOL    HW219284   0.945   0.169   7.355 -0.9333 -0.9304  1.0752
 2609SOL     OW19285   3.248   3.414  12.697 -0.4076  0.3866  0.4019
 2609SOL    HW119286   3.310   3.430  12.768  0.6926 -0.5723 -0.3385
 2609SOL    HW219287   3.168   3.396  12.745 -0.4035 -1.1949 -0.1797
 2610SOL     OW19288   2.883   2.474   7.756 -0.6987 -0.5032 -0.4699
 2610SOL    HW119289   2.836   2.419   7.819 -0.7786 -0.7727 -0.7649
 2610SOL    HW219290   2.972   2.439   7.767 -0.7053 -0.6135 -0.7542
 2611SOL     OW19291   3.246   1.240   3.517  0.0273  0.0166  0.2722
 2611SOL    HW119292   3.207   1.154   3.533 -0.9129  0.4121  0.0594
 2611SOL    HW219293   3.171   1.294   3.542 -0.1285  0.2144 -0.6134
 2612SOL     OW19294   4.028   3.323   3.761 -0.6244 -0.9154 -0.4205
 2612SOL    HW119295   3.944   3.284   3.740 -0.5693 -1.1630 -0.1711
 2612SOL    HW219296   4.076   3.241   3.770  1.3260 -0.0167 -2.3509
 2613SOL     OW19297   1.663   3.046   0.369  0.1498  0.5571  0.2548
 2613SOL    HW119298   1.626   3.090   0.446  1.9295  2.7929 -0.1817
 2613SOL    HW219299   1.684   2.959   0.402 -2.8507 -0.3626 -0.2354
 2614SOL     OW19300   3.546   0.551   5.961  0.5453 -0.0381 -0.3696
 2614SOL    HW119301   3.574   0.568   5.871 -1.5098  1.2024 -0.7706
 2614SOL    HW219302   3.510   0.634   5.992 -1.1342 -0.1990 -1.8940
 2615SOL     OW19303   2.714   4.131   5.466  0.2251 -0.3106  0.5505
 2615SOL    HW119304   2.733   4.225   5.477  4.8916 -1.3523  1.6164
 2615SOL    HW219305   2.751   4.107   5.381 -1.4312 -2.1777  0.3585
 2616SOL     OW19306   2.802   0.268  12.307 -0.5688 -0.2270  0.0808
 2616SOL    HW119307   2.840   0.252  12.220 -1.9197 -0.7068 -0.4207
 2616SOL    HW219308   2.854   0.347  12.322  0.2007 -0.4148 -1.6384
 2617SOL     OW19309   2.173   4.630   5.328 -0.6040  0.6195 -1.0618
 2617SOL    HW119310   2.183   4.686   5.251  0.3834  2.6545  0.5370
 2617SOL    HW219311   2.147   4.703   5.385 -0.2509  0.5624 -0.8275
 2618SOL     OW19312   1.337   2.963  15.801  0.3108  0.2546  0.8602
 2618SOL    HW119313   1.374   2.969  15.713  0.5737 -2.7518  0.7769
 2618SOL    HW219314   1.252   3.006  15.793  1.4541  2.7488  2.0278
 2619SOL     OW19315   1.140   2.545   4.572 -0.2626 -0.2169 -0.1172
 2619SOL    HW119316   1.045   2.562   4.574 -0.2349 -0.1696  0.7497
 2619SOL    HW219317   1.148   2.516   4.481 -0.6134 -0.4944 -0.0626
 2620SOL     OW19318   1.732   4.453   4.346 -0.3700  0.2624 -0.4196
 2620SOL    HW119319   1.762   4.446   4.437  0.9118 -0.6534 -0.9061
 2620SOL    HW219320   1.740   4.362   4.317 -2.0717  0.4437 -1.3984
 2621SOL     OW19321   0.200   2.750  14.746  0.7882  0.0179 -0.0817
 2621SOL    HW119322   0.148   2.688  14.797  1.5189  0.4678  1.2260
 2621SOL    HW219323   0.188   2.727  14.655  0.2494 -1.7070  0.4398
 2622SOL     OW19324   2.111   0.927   1.708 -0.1521  0.6012 -0.3500
 2622SOL    HW119325   2.163   0.962   1.635 -0.0668  1.0557 -0.0686
 2622SOL    HW219326   2.168   0.860   1.747 -2.9260 -1.5599 -0.0477
 2623SOL     OW19327   0.834   3.728  12.663 -0.2147 -0.2036 -0.4248
 2623SOL    HW119328   0.881   3.811  12.671 -1.8695  0.7007 -0.0216
 2623SOL    HW219329   0.901   3.686  12.717 -0.9583 -1.3246 -0.3838
 2624SOL     OW19330   0.937   4.390   7.648  0.1086 -0.1465 -0.0960
 2624SOL    HW119331   0.851   4.367   7.614 -0.7972 -0.3247  2.3616
 2624SOL    HW219332   0.910   4.471   7.691  0.3038  0.3125 -0.8327
 2625SOL     OW19333   4.100   2.546   6.754 -0.1512 -0.3623 -0.3527
 2625SOL    HW119334   4.063   2.477   6.699 -0.1516 -0.7360  0.1205
 2625SOL    HW219335   4.128   2.493   6.828 -1.6755 -1.4872 -0.5707
 2626SOL     OW19336   2.596   3.664   6.001  0.2391  0.0062  0.4673
 2626SOL    HW119337   2.515   3.625   6.034 -0.3440  1.4468  0.7591
 2626SOL    HW219338   2.594   3.754   6.034 -1.6176  0.0038  0.3673
 2627SOL     OW19339   0.684   0.041   7.836  0.2706 -0.7904  0.7843
 2627SOL    HW119340   0.597   0.032   7.875 -0.6722  1.1451 -0.8521
 2627SOL    HW219341   0.718   0.129   7.852 -2.4736  0.4766 -0.2910
 2628SOL     OW19342   3.831   2.430   8.934 -0.0622  0.3466  0.2040
 2628SOL    HW119343   3.864   2.368   8.999  2.2022 -0.4827 -1.7115
 2628SOL    HW219344   3.815   2.371   8.860 -0.6085 -1.0949  1.4702
 2629SOL     OW19345   2.671   4.543  12.433  0.4171  0.5212  0.1915
 2629SOL    HW119346   2.765   4.539  12.417  0.5054 -0.9052  1.0809
 2629SOL    HW219347   2.677   4.545  12.529  1.0719 -2.2138  0.2237
 2630SOL     OW19348   1.579   4.585   5.838 -0.2170  0.1279 -0.1524
 2630SOL    HW119349   1.612   4.533   5.912 -0.0976 -0.0893 -0.3568
 2630SOL    HW219350   1.652   4.647   5.838  1.3136 -1.6998 -3.3379
 2631SOL     OW19351   1.956   1.375   4.273 -0.0114 -0.6356  0.5023
 2631SOL    HW119352   1.955   1.304   4.338 -3.1616 -2.3109 -1.3965
 2631SOL    HW219353   1.987   1.328   4.196  0.5684 -0.8128  0.8408
 2632SOL     OW19354   3.846   1.030   5.101 -0.6535  0.3960  0.1127
 2632SOL    HW119355   3.837   1.011   5.007  1.9305  1.4355 -0.3460
 2632SOL    HW219356   3.931   1.074   5.101  0.4230 -1.6929  2.3862
 2633SOL     OW19357   3.171   1.925   2.459  0.2383 -0.0807 -0.0156
 2633SOL    HW119358   3.239   1.937   2.393  0.6591  1.0872  0.6143
 2633SOL    HW219359   3.179   1.832   2.478 -0.0659  0.0286  0.6317
 2634SOL     OW19360   2.690   1.918   2.039 -0.2804  0.2242  0.3628
 2634SOL    HW119361   2.721   1.873   2.118 -0.6585  0.3996  0.6136
 2634SOL    HW219362   2.639   1.992   2.072 -0.1203  0.0632  0.9721
 2635SOL     OW19363   1.249   2.635  15.628  0.3354 -0.8634  0.0181
 2635SOL    HW119364   1.205   2.719  15.613 -1.4095 -1.7210  0.3910
 2635SOL    HW219365   1.195   2.575  15.679 -0.0173 -1.1332 -0.6771
 2636SOL     OW19366   1.068   0.830   2.531  0.0047  0.5952 -0.4816
 2636SOL    HW119367   1.133   0.765   2.504 -0.3728 -0.6795  1.7206
 2636SOL    HW219368   1.050   0.791   2.616 -1.1465 -0.1390 -1.0651
 2637SOL     OW19369   3.966   4.408   1.479 -0.5028 -0.6788 -0.4342
 2637SOL    HW119370   4.018   4.345   1.430 -0.7821 -1.2423 -0.0060
 2637SOL    HW219371   3.881   4.364   1.479  0.1636 -1.9703  2.8107
 2638SOL     OW19372   3.187   2.170   4.107  0.3850 -0.1227  0.6196
 2638SOL    HW119373   3.197   2.220   4.188  1.7614  1.3528 -0.4656
 2638SOL    HW219374   3.279   2.167   4.080 -0.3402 -0.9605 -1.7796
 2639SOL     OW19375   4.282   2.878   2.218  0.0066  0.3012  0.0831
 2639SOL    HW119376   4.229   2.827   2.280 -1.5724  1.3271 -0.4572
 2639SOL    HW219377   4.228   2.889   2.140 -0.2870 -0.2710  0.2040
 2640SOL     OW19378   0.787   4.632   7.609 -0.1927 -0.2532  0.2051
 2640SOL    HW119379   0.741   4.673   7.682  1.4720  0.0616  1.0789
 2640SOL    HW219380   0.876   4.664   7.623 -0.0362 -0.8264  0.5524
 2641SOL     OW19381   3.039   0.560   2.744 -0.2312  0.1097 -0.2252
 2641SOL    HW119382   3.129   0.585   2.765 -0.0563  1.2573 -2.3556
 2641SOL    HW219383   3.013   0.648   2.718 -0.2552 -0.4732 -2.1849
 2642SOL     OW19384   1.340   4.525   2.497  0.5046  0.3374 -0.0471
 2642SOL    HW119385   1.362   4.478   2.416 -1.7156  1.8341 -1.5146
 2642SOL    HW219386   1.425   4.569   2.502  1.2667 -1.0023 -0.9543
 2643SOL     OW19387   4.681   1.966  14.546  0.4559 -0.9879 -0.0705
 2643SOL    HW119388   0.053   1.988  14.550  0.1279  0.7484 -1.9916
 2643SOL    HW219389   4.675   1.940  14.638  1.1927 -0.8716  0.0117
 2644SOL     OW19390   2.859   3.628   0.920  0.3507 -0.1893 -0.3169
 2644SOL    HW119391   2.916   3.651   0.847  0.4325 -0.3095 -0.2898
 2644SOL    HW219392   2.791   3.696   0.921  1.4838  0.9498 -0.1869
 2645SOL     OW19393   2.367   2.456   7.259 -0.2540 -0.1532  0.2857
 2645SOL    HW119394   2.279   2.486   7.281  0.0995 -0.6732  2.4132
 2645SOL    HW219395   2.422   2.479   7.334  2.8036 -0.3184 -1.9328
 2646SOL     OW19396   4.288   1.300   2.368 -0.1537 -0.1320 -0.0912
 2646SOL    HW119397   4.328   1.254   2.294 -1.1673 -3.7839  1.6261
 2646SOL    HW219398   4.331   1.385   2.358 -0.2622 -0.0884 -0.2018
 2647SOL     OW19399   1.888   4.592   0.166  0.0129  0.7228 -0.2989
 2647SOL    HW119400   1.865   4.580   0.258  0.4323 -2.5407 -0.6527
 2647SOL    HW219401   1.808   4.557   0.128  0.1740  0.8945 -0.7885
 2648SOL     OW19402   4.654   1.158   3.791 -0.4580  0.3438  0.0976
 2648SOL    HW119403   4.720   1.178   3.724  0.5935  0.4090  1.1610
 2648SOL    HW219404   4.592   1.230   3.787  1.9525  2.3807 -0.8588
 2649SOL     OW19405   0.234   0.937   6.572  0.4490  0.3118 -0.1579
 2649SOL    HW119406   0.170   0.987   6.521 -1.3617 -1.3515  0.4691
 2649SOL    HW219407   0.301   0.928   6.504  1.3800 -2.3350  1.1116
 2650SOL     OW19408   3.025   4.487   4.567  0.3745 -0.3688 -0.5920
 2650SOL    HW119409   3.097   4.446   4.520  1.1415 -0.4339  0.6482
 2650SOL    HW219410   3.030   4.578   4.537 -1.6264 -0.2942 -0.6874
 2651SOL     OW19411   1.948   0.396   7.994  0.4729  0.0640 -0.3091
 2651SOL    HW119412   1.900   0.313   7.988  0.3445 -0.0172  1.8949
 2651SOL    HW219413   1.931   0.407   8.087 -1.3338  2.2736 -0.9183
 2652SOL     OW19414   2.244   0.773   9.403  0.4801  0.2703  0.3081
 2652SOL    HW119415   2.264   0.860   9.437  0.2707  1.2175 -1.9973
 2652SOL    HW219416   2.259   0.729   9.487  2.3177  1.3814  0.5622
 2653SOL     OW19417   1.326   3.925  11.953 -0.1248  0.1572 -0.5334
 2653SOL    HW119418   1.271   3.962  12.022  1.6031 -0.8113  1.3798
 2653SOL    HW219419   1.286   3.965  11.876 -1.0770 -0.1088 -0.1777
 2654SOL     OW19420   3.886   2.856  14.657 -0.3395  0.3188 -0.4710
 2654SOL    HW119421   3.841   2.939  14.667  1.3080  1.0823  0.5281
 2654SOL    HW219422   3.827   2.804  14.601 -2.1861  1.5414  0.3648
 2655SOL     OW19423   3.294   0.423  13.448  0.7398 -0.3948 -0.1578
 2655SOL    HW119424   3.224   0.360  13.460  2.1480 -2.2958 -1.9577
 2655SOL    HW219425   3.250   0.477  13.383 -0.8420 -0.1511  1.1270
 2656SOL     OW19426   3.128   2.241  13.823 -0.0435 -0.6563 -0.0365
 2656SOL    HW119427   3.115   2.147  13.817  2.8842 -1.0755  0.0520
 2656SOL    HW219428   3.052   2.277  13.869  0.0115  0.0423 -0.4807
 2657SOL     OW19429   3.503   0.222   7.111 -0.2199  0.0214  0.3010
 2657SOL    HW119430   3.598   0.235   7.115  0.2893 -3.5155 -0.4757
 2657SOL    HW219431   3.478   0.293   7.170  0.3969  1.1076 -0.7420
 2658SOL     OW19432   4.265   0.778   8.365 -0.2079 -0.4477 -0.1082
 2658SOL    HW119433   4.326   0.730   8.420 -0.3867 -0.2011  0.3029
 2658SOL    HW219434   4.238   0.852   8.419  1.7268 -0.1360  0.4403
 2659SOL     OW19435   3.909   0.010   0.295  0.2879  0.3569  0.7463
 2659SOL    HW119436   3.994   4.701   0.263  0.7358  1.2283  1.1210
 2659SOL    HW219437   3.931   0.015   0.388 -0.5738 -1.7610  1.0787
 2660SOL     OW19438   2.643   4.417   4.795  0.2849  0.0557 -0.1661
 2660SOL    HW119439   2.735   4.446   4.790  0.3220 -0.1844 -0.8989
 2660SOL    HW219440   2.641   4.392   4.887 -1.4162 -1.9810 -0.7535
 2661SOL     OW19441   1.162   2.702   7.750  0.1378 -0.1935 -0.3151
 2661SOL    HW119442   1.067   2.703   7.747 -0.0278 -2.8959  3.4441
 2661SOL    HW219443   1.166   2.609   7.727 -1.8249 -0.9150  2.2857
 2662SOL     OW19444   0.790   3.193  10.482 -0.1867 -0.5351 -0.2572
 2662SOL    HW119445   0.780   3.124  10.548 -1.6302  0.3354  0.4280
 2662SOL    HW219446   0.875   3.178  10.440 -0.3039 -1.8672 -0.0004
 2663SOL     OW19447   2.712   1.922  14.450 -0.3446  0.4435 -0.2437
 2663SOL    HW119448   2.677   1.910  14.362 -0.2708  0.0307 -0.2168
 2663SOL    HW219449   2.716   1.834  14.487  1.1429 -0.4168 -2.4785
 2664SOL     OW19450   2.758   0.411   8.473 -0.0270  0.2392  0.4255
 2664SOL    HW119451   2.724   0.500   8.463 -0.8218 -0.0666  0.4147
 2664SOL    HW219452   2.761   0.402   8.569  0.8468 -2.6031  0.1218
 2665SOL     OW19453   4.561   0.679   8.918  0.0657  0.2211 -0.4813
 2665SOL    HW119454   4.618   0.732   8.973  0.2830 -1.0535  0.5355
 2665SOL    HW219455   4.566   0.724   8.834 -0.3545 -0.0092 -0.6316
 2666SOL     OW19456   3.148   3.755   9.156 -0.3043 -0.3544  0.1665
 2666SOL    HW119457   3.240   3.745   9.179  0.0098  1.3844 -0.3974
 2666SOL    HW219458   3.119   3.663   9.161  2.7647 -1.4150 -1.7661
 2667SOL     OW19459   3.790   0.522   5.376 -0.1732  0.2836 -0.0406
 2667SOL    HW119460   3.798   0.599   5.320  2.4731 -0.2269 -0.3742
 2667SOL    HW219461   3.696   0.507   5.376 -0.2033  0.5782  2.6837
 2668SOL     OW19462   3.098   3.338   5.084 -0.1694 -0.2981 -0.1502
 2668SOL    HW119463   3.193   3.333   5.080 -0.2322  1.2622 -2.8982
 2668SOL    HW219464   3.069   3.267   5.141  1.9381 -0.4010  0.8033
 2669SOL     OW19465   4.633   3.392   6.500  0.2024 -0.8540 -0.8115
 2669SOL    HW119466   4.675   3.478   6.496 -0.0630 -0.6609  0.8319
 2669SOL    HW219467   4.685   3.358   6.573 -2.5659 -1.7246  0.7337
 2670SOL     OW19468   2.637   2.032   4.867  0.2073  0.2753  0.2985
 2670SOL    HW119469   2.642   1.967   4.797  0.5454  0.4387  0.1732
 2670SOL    HW219470   2.577   2.094   4.825 -0.6658  0.9259  2.5082
 2671SOL     OW19471   0.349   3.470  14.474 -0.0113  0.5591  0.3106
 2671SOL    HW119472   0.284   3.400  14.470 -0.7562  1.2488  0.3554
 2671SOL    HW219473   0.417   3.450  14.539 -0.7801 -1.9417  0.3431
 2672SOL     OW19474   3.173   2.028   5.545 -0.2144  0.5088  0.1539
 2672SOL    HW119475   3.249   1.984   5.508 -0.3729 -0.7839  1.3575
 2672SOL    HW219476   3.121   1.953   5.572 -0.1831  0.7113  0.7833
 2673SOL     OW19477   3.301   2.872   3.591  0.1389  0.1600  0.0936
 2673SOL    HW119478   3.264   2.889   3.678  0.5438 -2.4157  0.7539
 2673SOL    HW219479   3.263   2.944   3.541  1.1646  0.2863 -0.4973
 2674SOL     OW19480   1.338   1.212   1.369  0.5832  0.0117  0.9794
 2674SOL    HW119481   1.331   1.117   1.362  1.0562 -0.0365  1.1729
 2674SOL    HW219482   1.405   1.222   1.437  1.3856 -1.3293  0.3719
 2675SOL     OW19483   1.921   3.492  11.441 -0.2398 -0.2373  0.0101
 2675SOL    HW119484   2.008   3.512  11.474 -0.5710  0.4410  0.4772
 2675SOL    HW219485   1.903   3.558  11.374 -1.9589 -1.5164 -0.8023
 2676SOL     OW19486   0.926   3.063  14.991  0.1016  0.7158  0.2536
 2676SOL    HW119487   0.996   3.116  14.953  1.5585 -1.2168  0.1862
 2676SOL    HW219488   0.975   3.042  15.071  0.0018  1.3886  0.4859
 2677SOL     OW19489   1.972   1.785   8.755  0.0308  0.1121 -0.2059
 2677SOL    HW119490   1.897   1.819   8.804  1.2535 -0.7110  2.2061
 2677SOL    HW219491   2.051   1.826   8.790 -1.0697  1.2471  0.9073
 2678SOL     OW19492   4.574   2.060  10.433  1.0053  0.9117 -0.4130
 2678SOL    HW119493   4.648   2.093  10.484  2.2500  1.2232 -2.4209
 2678SOL    HW219494   4.503   2.123  10.448  1.3965  0.8484  1.6094
 2679SOL     OW19495   0.384   3.453   1.404 -0.3873 -0.4714  0.2584
 2679SOL    HW119496   0.384   3.548   1.405 -3.4726 -0.4778  1.1887
 2679SOL    HW219497   0.301   3.434   1.360 -0.0997  0.8368 -0.8512
 2680SOL     OW19498   0.275   3.301  11.640 -0.1386 -0.1339 -0.1237
 2680SOL    HW119499   0.264   3.252  11.558 -2.1992  0.5252 -0.2512
 2680SOL    HW219500   0.264   3.236  11.709 -3.0732 -1.4753 -1.8241
 2681SOL     OW19501   4.631   0.361   7.111  0.2151 -1.0327  0.0789
 2681SOL    HW119502   4.596   0.326   7.029 -1.1485 -1.4014  0.8202
 2681SOL    HW219503   4.706   0.411   7.078  1.3586 -2.0219  1.1462
 2682SOL     OW19504   0.237   0.716   1.785  0.2780  0.7220  0.2336
 2682SOL    HW119505   0.282   0.636   1.813 -0.0200  0.0595 -1.1585
 2682SOL    HW219506   0.226   0.689   1.693 -5.1470  1.8285  0.5729
 2683SOL     OW19507   0.846   3.740   5.450  0.0010 -0.3010  0.0751
 2683SOL    HW119508   0.909   3.806   5.421  1.0793 -0.7594  1.3920
 2683SOL    HW219509   0.814   3.778   5.532  0.5219 -1.2064  0.6844
 2684SOL     OW19510   2.581   0.056  14.012 -0.0673 -0.1319  0.5293
 2684SOL    HW119511   2.658   0.048  13.956 -0.2650  2.8900 -0.1604
 2684SOL    HW219512   2.565   4.685  14.029  3.0663 -1.0409 -1.5614
 2685SOL     OW19513   4.598   2.964   1.250  0.0994 -0.2732  0.1797
 2685SOL    HW119514   4.608   3.036   1.188 -0.0223 -0.8072 -0.4609
 2685SOL    HW219515   4.661   2.898   1.222  0.6229  1.0332 -1.7353
 2686SOL     OW19516   0.833   1.033   8.280 -0.5741 -0.0737 -0.6443
 2686SOL    HW119517   0.852   0.957   8.335  0.0523 -0.1200 -0.9226
 2686SOL    HW219518   0.766   0.992   8.227 -0.5162  1.1495 -1.6506
 2687SOL     OW19519   2.635   4.686   2.673  0.0857 -0.1558 -0.4025
 2687SOL    HW119520   2.546   4.664   2.701 -1.1078  3.3818 -1.4341
 2687SOL    HW219521   2.692   4.680   2.750 -0.4109 -0.8345 -0.0881
 2688SOL     OW19522   2.307   4.333   2.519  0.0569 -0.3149 -0.5844
 2688SOL    HW119523   2.273   4.334   2.429  0.4984 -2.5844 -0.7845
 2688SOL    HW219524   2.337   4.423   2.516 -1.3038  0.1287 -1.0363
 2689SOL     OW19525   0.548   3.545   7.427  0.6059  0.1704  0.2856
 2689SOL    HW119526   0.573   3.474   7.368 -2.3453 -0.6305  0.0005
 2689SOL    HW219527   0.607   3.607   7.385  1.6876 -0.8744  0.2776
 2690SOL     OW19528   4.314   0.926   4.600  0.1520 -0.1712  0.1152
 2690SOL    HW119529   4.249   0.904   4.667 -0.3731 -2.9268 -1.2982
 2690SOL    HW219530   4.393   0.952   4.647  0.5667  0.9242 -1.1434
 2691SOL     OW19531   0.965   3.886   9.301 -0.7487 -0.4818 -0.5311
 2691SOL    HW119532   0.920   3.964   9.270 -1.0843 -0.2131  0.6610
 2691SOL    HW219533   1.049   3.901   9.257  1.3926 -1.6125  3.1612
 2692SOL     OW19534   4.259   3.997   7.277 -0.8701 -0.2162 -0.0276
 2692SOL    HW119535   4.312   3.920   7.257  1.5569  1.9771 -2.2184
 2692SOL    HW219536   4.192   3.969   7.338  0.0741  0.6297  1.4076
 2693SOL     OW19537   2.191   0.619   4.838 -0.0236 -0.0631  0.2951
 2693SOL    HW119538   2.124   0.663   4.890  0.6492 -0.6394  1.6408
 2693SOL    HW219539   2.142   0.607   4.757 -0.1233 -1.7928  0.6016
 2694SOL     OW19540   3.666   1.096   9.263 -0.5132  0.1287  0.1081
 2694SOL    HW119541   3.633   1.061   9.346  0.8292 -1.5232 -0.0407
 2694SOL    HW219542   3.721   1.167   9.296 -1.5557  1.1692 -0.3921
 2695SOL     OW19543   0.662   0.696   3.589 -0.5408  0.3060 -0.2230
 2695SOL    HW119544   0.676   0.732   3.676  0.5372  0.9161 -0.6499
 2695SOL    HW219545   0.682   0.778   3.543  1.1753  0.7143  1.2532
 2696SOL     OW19546   3.600   2.719   8.433 -0.7305  0.0068 -0.2642
 2696SOL    HW119547   3.505   2.724   8.420 -1.0379  1.3239  2.4630
 2696SOL    HW219548   3.608   2.727   8.528 -0.9354 -1.2427 -0.1450
 2697SOL     OW19549   4.390   3.013  12.358 -0.0543 -0.9912 -0.1781
 2697SOL    HW119550   4.366   3.092  12.407  1.0464 -0.5178 -0.4159
 2697SOL    HW219551   4.465   2.984  12.411 -0.0896  1.4277  1.1580
 2698SOL     OW19552   2.940   3.103   7.573  0.1298  0.0924 -0.1411
 2698SOL    HW119553   2.945   3.047   7.651 -0.6223 -2.4613 -1.9571
 2698SOL    HW219554   3.003   3.175   7.578 -2.6229  2.6341 -2.0725
 2699SOL     OW19555   2.367   1.046   4.977  0.0062 -0.2529  0.7880
 2699SOL    HW119556   2.342   0.967   4.930  1.7846 -1.8106  2.4791
 2699SOL    HW219557   2.463   1.043   4.968 -0.1876 -0.4579 -1.1614
 2700SOL     OW19558   4.537   0.745   9.652 -0.0178 -0.2160  0.2450
 2700SOL    HW119559   4.547   0.819   9.592 -0.4656 -1.2617 -1.0988
 2700SOL    HW219560   4.606   0.768   9.714  0.3058 -3.1036  0.9618
 2701SOL     OW19561   0.351   0.953   1.873  0.1430  0.4121 -0.1862
 2701SOL    HW119562   0.312   0.867   1.856  0.0686  0.5559 -0.7582
 2701SOL    HW219563   0.274   1.009   1.882 -0.4461 -0.1517 -1.6349
 2702SOL     OW19564   3.475   4.493   7.218  0.3749 -0.4807  0.1812
 2702SOL    HW119565   3.392   4.500   7.266 -0.9707 -2.3235 -1.8376
 2702SOL    HW219566   3.532   4.436   7.269 -1.4365 -0.6213  2.0354
 2703SOL     OW19567   4.600   1.305   3.220 -0.1725  0.2411 -0.0422
 2703SOL    HW119568   4.586   1.332   3.129 -0.2441  2.4683  0.6265
 2703SOL    HW219569   4.606   1.211   3.206 -0.4172  0.3722 -1.1078
 2704SOL     OW19570   1.391   4.413   9.469  0.1860 -0.3009  0.3635
 2704SOL    HW119571   1.309   4.384   9.508 -1.1456 -0.0676 -2.2642
 2704SOL    HW219572   1.367   4.497   9.430 -0.4833 -0.3976  0.5723
 2705SOL     OW19573   4.123   2.270   7.183  0.4847  0.5123 -0.0826
 2705SOL    HW119574   4.164   2.233   7.105  1.2380 -0.0231  0.5669
 2705SOL    HW219575   4.136   2.361   7.156 -1.6659  0.4343 -1.3508
 2706SOL     OW19576   0.208   0.055   6.891  0.4197 -0.4185  0.2232
 2706SOL    HW119577   0.232   0.134   6.939  1.8310  0.3453 -1.7674
 2706SOL    HW219578   0.126   0.080   6.849  1.2540  1.1398 -0.4634
 2707SOL     OW19579   4.381   2.850   5.916  0.2950  0.0574 -0.0917
 2707SOL    HW119580   4.336   2.917   5.966  0.7807 -1.6986  2.7044
 2707SOL    HW219581   4.423   2.909   5.853  0.1939  0.6874  0.4317
 2708SOL     OW19582   1.421   0.026   6.902 -0.1093 -0.3943 -0.2755
 2708SOL    HW119583   1.493   4.705   6.947  0.0818 -0.1877 -0.3882
 2708SOL    HW219584   1.455   0.116   6.896 -1.6513  0.0463 -2.6170
 2709SOL     OW19585   0.488   1.829  12.729 -0.7655  0.6891 -0.1663
 2709SOL    HW119586   0.445   1.914  12.739 -2.1088  0.4142 -3.5837
 2709SOL    HW219587   0.446   1.780  12.799  1.3106 -1.3169 -0.2992
 2710SOL     OW19588   1.003   2.202   4.755  0.9576 -0.7291 -0.1927
 2710SOL    HW119589   0.921   2.205   4.805  0.8344 -0.9060 -0.3831
 2710SOL    HW219590   1.032   2.291   4.738 -0.0955 -0.2194  0.6953
 2711SOL     OW19591   3.586   1.327   7.005  0.4906  0.5783  0.6400
 2711SOL    HW119592   3.572   1.421   6.990 -3.0171  0.2875  2.0129
 2711SOL    HW219593   3.509   1.282   6.969 -1.0193  1.6111  2.5879
 2712SOL     OW19594   2.147   4.172  10.049  0.1590 -0.2621  0.2587
 2712SOL    HW119595   2.109   4.155  10.136 -0.2674  0.1633  0.1493
 2712SOL    HW219596   2.217   4.234  10.069 -1.5464  1.6879  0.1774
 2713SOL     OW19597   3.203   3.458   6.012  0.2069  0.3090  0.5888
 2713SOL    HW119598   3.175   3.375   5.973 -0.7532  1.1979 -0.5725
 2713SOL    HW219599   3.130   3.469   6.073  1.9317  1.0382  2.5333
 2714SOL     OW19600   1.886   1.175   7.083  0.1279 -0.5061  0.6842
 2714SOL    HW119601   1.980   1.189   7.069 -0.2444  1.2820  0.0025
 2714SOL    HW219602   1.864   1.251   7.136  0.8972  0.6579 -0.6405
 2715SOL     OW19603   1.894   0.726  16.266 -0.3787  0.0091 -0.3002
 2715SOL    HW119604   1.890   0.785  16.191 -2.1554 -0.0913 -0.2745
 2715SOL    HW219605   1.986   0.738  16.290 -1.4084  1.9709  2.6557
 2716SOL     OW19606   1.614   2.826   3.316 -0.0515  0.4726 -0.3677
 2716SOL    HW119607   1.619   2.858   3.226 -1.3518  1.8406  0.0481
 2716SOL    HW219608   1.535   2.875   3.339  0.5385  0.0576  2.5313
 2717SOL     OW19609   2.745   0.022   4.760  0.2393  0.6747 -0.3908
 2717SOL    HW119610   2.657   0.033   4.798  0.8693  0.7404  1.0689
 2717SOL    HW219611   2.773   4.671   4.816  0.8016  2.2417  1.3774
 2718SOL     OW19612   0.782   1.198  10.455  0.1569  0.6457 -0.2304
 2718SOL    HW119613   0.731   1.179  10.377 -0.7651 -0.1456  0.5671
 2718SOL    HW219614   0.715   1.196  10.524  0.9960  1.2836  0.6146
 2719SOL     OW19615   0.148   0.479   8.368  0.2570 -0.6408 -0.1096
 2719SOL    HW119616   0.131   0.490   8.462 -2.2850  0.6705 -0.7312
 2719SOL    HW219617   0.084   0.416   8.334  1.0312 -0.6634 -1.5351
 2720SOL     OW19618   2.518   2.036  11.985 -0.1067  0.2537 -0.6378
 2720SOL    HW119619   2.491   1.955  12.028 -0.2925  1.6797  1.9640
 2720SOL    HW219620   2.484   2.094  12.054  2.0937 -1.0135  1.5363
 2721SOL     OW19621   1.358   0.849  16.969  0.6212 -0.0789 -0.0957
 2721SOL    HW119622   1.366   0.919  17.034 -1.8913  0.4116 -0.3097
 2721SOL    HW219623   1.439   0.801  16.984 -0.6436 -1.3527  2.5782
 2722SOL     OW19624   0.183   3.134  11.424  0.0113  0.2094 -0.3867
 2722SOL    HW119625   0.151   3.185  11.350  0.0719  3.4089  1.8164
 2722SOL    HW219626   0.100   3.093  11.446  0.3213 -0.5933 -0.7141
 2723SOL     OW19627   3.900   1.102   2.798  0.0994 -0.3423 -0.4240
 2723SOL    HW119628   3.953   1.041   2.747  1.3751  2.0005 -1.9155
 2723SOL    HW219629   3.836   1.140   2.738 -1.1493 -0.9587  0.5141
 2724SOL     OW19630   3.214   2.567   8.956  0.3983 -0.1141 -0.2659
 2724SOL    HW119631   3.202   2.637   9.020  0.2726  0.3186 -0.7593
 2724SOL    HW219632   3.307   2.555   8.976  0.1231 -1.6338  0.0988
 2725SOL     OW19633   1.332   2.768  16.678 -0.3318  0.4027 -0.4651
 2725SOL    HW119634   1.278   2.733  16.607 -2.1376 -0.1532  1.1518
 2725SOL    HW219635   1.373   2.835  16.624  0.4178 -0.8280 -1.4045
 2726SOL     OW19636   0.553   4.157   9.050  0.5241  0.5246 -0.1410
 2726SOL    HW119637   0.542   4.106   9.130 -0.3033 -0.1639 -0.6940
 2726SOL    HW219638   0.558   4.244   9.089  0.9120  0.4191  0.0416
 2727SOL     OW19639   4.398   1.027   5.465 -0.1509  0.1984 -0.0944
 2727SOL    HW119640   4.364   1.033   5.376 -2.6785  1.3485  0.9356
 2727SOL    HW219641   4.462   1.099   5.462 -1.3881  1.2375 -1.2833
 2728SOL     OW19642   4.672   1.528   5.282 -0.5794  0.4169  0.5943
 2728SOL    HW119643   4.691   1.439   5.252  0.7621  0.3783  1.5840
 2728SOL    HW219644   0.022   1.545   5.343 -0.2515  0.0631  0.3059
 2729SOL     OW19645   1.532   4.245  10.005 -0.0329  0.3502  0.3132
 2729SOL    HW119646   1.494   4.333   9.992  0.1522  0.3614 -0.1486
 2729SOL    HW219647   1.456   4.199  10.041 -0.2352 -0.6066 -1.3536
 2730SOL     OW19648   0.452   2.449  17.143  0.0386 -0.2685 -0.3308
 2730SOL    HW119649   0.376   2.474  17.195  0.7735  0.0886  0.5654
 2730SOL    HW219650   0.408   2.388  17.084  1.1286 -0.6088 -0.7938
 2731SOL     OW19651   3.998   1.243   7.015 -0.0380 -0.6674 -0.1340
 2731SOL    HW119652   4.065   1.228   7.082 -0.7719  0.7348  0.9055
 2731SOL    HW219653   3.918   1.216   7.059 -0.7077  1.4195 -0.1210
 2732SOL     OW19654   2.960   0.619  15.711  0.0825 -0.0863  0.2159
 2732SOL    HW119655   2.880   0.595  15.665  1.3129 -1.0575 -1.4534
 2732SOL    HW219656   2.940   0.708  15.740  1.7169  0.4118 -0.1396
 2733SOL     OW19657   3.495   0.529   7.868  0.4595 -0.5729  0.5941
 2733SOL    HW119658   3.529   0.514   7.780 -2.1742 -0.1120 -0.4852
 2733SOL    HW219659   3.403   0.525   7.841  0.8987 -0.3906 -0.9324
 2734SOL     OW19660   2.359   2.448  15.987 -0.0866 -0.5627 -0.1987
 2734SOL    HW119661   2.340   2.371  15.934  0.6123 -0.2934 -0.8478
 2734SOL    HW219662   2.429   2.482  15.932  0.8339 -1.8468  0.1752
 2735SOL     OW19663   3.274   3.031   1.047 -0.0863  0.4004 -0.4658
 2735SOL    HW119664   3.272   3.082   0.967  2.1028  1.8050  0.3836
 2735SOL    HW219665   3.267   3.095   1.118 -2.4224  0.7344 -0.9952
 2736SOL     OW19666   0.179   0.443   6.232 -0.0551 -0.5865 -0.1776
 2736SOL    HW119667   0.102   0.498   6.248  0.6368  0.6042 -0.9518
 2736SOL    HW219668   0.224   0.445   6.317  1.5579 -1.4245 -1.0176
 2737SOL     OW19669   1.920   3.173   4.981  0.5778 -0.7596 -0.1655
 2737SOL    HW119670   1.840   3.216   5.009  0.8636 -1.5315  1.8300
 2737SOL    HW219671   1.947   3.130   5.063  0.0866 -0.4338  0.1656
 2738SOL     OW19672   2.721   3.633  13.007 -0.2131  0.0953  0.3953
 2738SOL    HW119673   2.774   3.698  13.053 -0.3703  0.0109  0.6921
 2738SOL    HW219674   2.733   3.555  13.062  1.2644  1.1098  1.4979
 2739SOL     OW19675   2.095   2.709   1.700 -0.1049 -0.0165 -0.7207
 2739SOL    HW119676   2.169   2.704   1.640  0.6528 -0.7784  0.2574
 2739SOL    HW219677   2.102   2.621   1.739  2.0398  1.2551  1.7478
 2740SOL     OW19678   2.989   2.637   3.241  0.6559 -0.2379  0.5088
 2740SOL    HW119679   3.067   2.611   3.290 -1.7553 -3.5847  2.6226
 2740SOL    HW219680   2.972   2.725   3.275  0.7990  0.9469 -2.5430
 2741SOL     OW19681   2.696   1.427   1.648  0.1504 -0.2610 -0.4768
 2741SOL    HW119682   2.696   1.358   1.581  0.3480 -0.9187  0.1983
 2741SOL    HW219683   2.616   1.403   1.695  0.6544  0.7782  0.9063
 2742SOL     OW19684   1.795   1.322   6.242  0.8862  0.7285 -0.1053
 2742SOL    HW119685   1.836   1.242   6.210 -0.7993 -0.1523 -0.0908
 2742SOL    HW219686   1.862   1.387   6.221  1.7586  0.1681  0.9780
 2743SOL     OW19687   0.022   2.833   8.656  0.0510 -0.5907  0.9815
 2743SOL    HW119688   0.006   2.899   8.589 -0.8793  1.0142  2.7720
 2743SOL    HW219689   0.004   2.748   8.616 -0.7897 -0.2230  0.5772
 2744SOL     OW19690   1.025   0.851   6.518  0.0968 -0.1769 -0.3161
 2744SOL    HW119691   1.064   0.861   6.431  0.3858 -1.4662 -0.3453
 2744SOL    HW219692   1.048   0.940   6.546 -0.3311  0.6214 -2.5106
 2745SOL     OW19693   1.483   1.605   8.102  0.3522  0.5614  0.5062
 2745SOL    HW119694   1.533   1.656   8.166  0.7544  1.5229 -0.5860
 2745SOL    HW219695   1.548   1.537   8.082 -1.7736 -1.6542  1.1391
 2746SOL     OW19696   4.107   3.143   1.275  0.0900 -0.0435 -0.1740
 2746SOL    HW119697   4.037   3.088   1.310 -1.5592 -0.4187 -4.0554
 2746SOL    HW219698   4.172   3.081   1.307  0.7544  0.5764 -0.3226
 2747SOL     OW19699   3.001   3.736   6.748  0.1452 -0.0204 -0.3588
 2747SOL    HW119700   3.022   3.660   6.802  1.8532  0.0610 -0.9178
 2747SOL    HW219701   3.037   3.806   6.802 -1.5862 -0.4905  1.4312
 2748SOL     OW19702   4.625   0.474  14.509 -0.3922 -0.0469  0.0898
 2748SOL    HW119703   4.664   0.533  14.573  1.5607 -3.0156  1.6598
 2748SOL    HW219704   4.530   0.482  14.515 -0.4237 -0.3721  0.0698
 2749SOL     OW19705   4.049   4.111   5.715  0.2194 -0.2231 -0.8784
 2749SOL    HW119706   4.078   4.200   5.730  1.2079 -0.7232  0.1510
 2749SOL    HW219707   4.101   4.060   5.776  1.3219 -0.2837 -1.8702
 2750SOL     OW19708   3.678   2.062   6.677 -0.2103  0.3417 -0.1260
 2750SOL    HW119709   3.669   2.079   6.771  2.0190  2.7481 -0.3552
 2750SOL    HW219710   3.688   2.151   6.643 -0.3089  1.2293  2.1739
 2751SOL     OW19711   3.710   4.007   1.029  0.1957 -0.3047 -0.3691
 2751SOL    HW119712   3.759   3.960   0.961 -0.9552  1.3513 -2.3420
 2751SOL    HW219713   3.782   4.045   1.080 -0.9399  1.4876 -0.0737
 2752SOL     OW19714   1.000   4.527   2.412  0.2861  0.4048  0.2983
 2752SOL    HW119715   0.935   4.544   2.345  0.9573  0.6673 -0.2901
 2752SOL    HW219716   1.067   4.484   2.358  1.5305  0.7539  1.5492
 2753SOL     OW19717   4.223   0.439   8.471 -0.0526 -0.3626  0.5024
 2753SOL    HW119718   4.208   0.357   8.517 -0.9499 -0.7485 -0.4695
 2753SOL    HW219719   4.132   0.462   8.451 -0.6709 -3.3603 -0.0892
 2754SOL     OW19720   0.921   2.023  15.605 -0.2150  0.2289  0.2860
 2754SOL    HW119721   0.846   2.037  15.546  1.9245  0.2190 -2.4106
 2754SOL    HW219722   0.898   2.063  15.688 -0.4472  3.1296 -1.1855
 2755SOL     OW19723   2.139   2.539   7.097 -0.0451  0.5036  0.4125
 2755SOL    HW119724   2.066   2.556   7.156 -1.5823  2.5565 -2.0437
 2755SOL    HW219725   2.095   2.477   7.039 -1.4889  2.6932 -0.8161
 2756SOL     OW19726   3.680   2.203   1.043 -0.8665 -0.1107 -0.4787
 2756SOL    HW119727   3.748   2.260   1.007 -0.7292  0.3649  0.5428
 2756SOL    HW219728   3.726   2.119   1.052  1.7628  1.1981 -1.8918
 2757SOL     OW19729   4.077   2.637   4.057  0.0584 -0.2824 -0.1207
 2757SOL    HW119730   4.068   2.628   3.962  0.6358 -2.1104 -0.0013
 2757SOL    HW219731   3.991   2.669   4.085 -0.4178 -0.5295 -1.2800
 2758SOL     OW19732   3.968   4.334   2.429 -0.8965 -0.3093 -0.2848
 2758SOL    HW119733   4.006   4.248   2.408 -0.7593 -1.0394  2.9404
 2758SOL    HW219734   3.941   4.331   2.521  0.2722 -0.0712  0.0726
 2759SOL     OW19735   1.382   4.324   6.328 -0.0579 -0.1562 -0.4210
 2759SOL    HW119736   1.296   4.353   6.361  0.8246  1.0143  0.8640
 2759SOL    HW219737   1.416   4.294   6.412  1.9319 -0.4101 -1.3368
 2760SOL     OW19738   0.370   0.207  13.349 -0.4513 -0.1842 -0.0114
 2760SOL    HW119739   0.421   0.155  13.287 -0.3338  1.3504 -1.2201
 2760SOL    HW219740   0.342   0.281  13.294 -2.4944 -0.0497  1.2025
 2761SOL     OW19741   3.830   2.215  10.817  0.0458  0.0473 -0.0546
 2761SOL    HW119742   3.836   2.308  10.797 -1.1786 -0.1200 -1.1769
 2761SOL    HW219743   3.749   2.190  10.773 -0.6445  1.6313  0.3329
 2762SOL     OW19744   2.714   1.731  17.208  0.1758  0.5969 -0.0742
 2762SOL    HW119745   2.809   1.729  17.210  0.1820  1.1767  0.1901
 2762SOL    HW219746   2.700   1.757  17.117  0.2098 -0.7466 -0.4738
 2763SOL     OW19747   2.257   1.188   6.643  0.2581 -0.2355  0.0340
 2763SOL    HW119748   2.304   1.151   6.568  0.6979 -1.0355  0.7101
 2763SOL    HW219749   2.219   1.111   6.686 -1.8837  0.4671 -0.5903
 2764SOL     OW19750   3.571   4.013   3.548  0.1554  0.3415  0.3542
 2764SOL    HW119751   3.496   4.042   3.600  0.1835  0.9429  0.0598
 2764SOL    HW219752   3.556   4.076   3.478 -1.2367 -1.4316 -0.9590
 2765SOL     OW19753   1.638   3.816   4.960  0.2149 -0.1654  1.0591
 2765SOL    HW119754   1.645   3.726   4.989  1.8178 -1.2399 -2.6334
 2765SOL    HW219755   1.579   3.849   5.027 -0.4385  0.0380  0.3882
 2766SOL     OW19756   3.258   2.566  11.418  0.2804 -0.1026 -0.2668
 2766SOL    HW119757   3.340   2.609  11.395  1.5997 -1.3697  2.1519
 2766SOL    HW219758   3.196   2.638  11.424 -0.5211 -0.6130 -2.1389
 2767SOL     OW19759   3.678   0.603   3.380  0.0461 -0.0591 -0.0465
 2767SOL    HW119760   3.652   0.519   3.341 -0.5505  0.5494 -0.9362
 2767SOL    HW219761   3.772   0.609   3.364  0.1032 -0.0387  0.2929
 2768SOL     OW19762   1.340   4.625   5.967  0.0623  0.1345 -0.3736
 2768SOL    HW119763   1.423   4.639   5.921 -1.0186 -0.8171 -2.6250
 2768SOL    HW219764   1.339   4.532   5.988 -0.8836 -0.4731 -3.1284
 2769SOL     OW19765   2.805   4.656  14.251 -0.1068 -0.4168  0.2310
 2769SOL    HW119766   2.874   4.720  14.233 -0.9541  0.6734  0.8559
 2769SOL    HW219767   2.739   0.001  14.266 -0.4037 -0.6563 -0.0194
 2770SOL     OW19768   1.673   4.439   6.045 -1.1869  0.3175 -0.1840
 2770SOL    HW119769   1.690   4.507   6.110  3.3253  1.5696 -2.7105
 2770SOL    HW219770   1.671   4.368   6.109 -1.4986  0.6632  0.1886
 2771SOL     OW19771   2.924   4.304   5.255  0.2886 -0.0606  0.8825
 2771SOL    HW119772   3.013   4.341   5.249 -0.1183  0.8407  0.3622
 2771SOL    HW219773   2.877   4.387   5.257 -0.7818 -0.6153 -1.8482
 2772SOL     OW19774   3.173   3.220  15.515 -0.2018 -0.2369  0.2804
 2772SOL    HW119775   3.252   3.221  15.461 -0.2992  2.6530  0.1909
 2772SOL    HW219776   3.125   3.147  15.474  1.4464 -1.1119 -0.0734
 2773SOL     OW19777   0.386   3.169   6.082  0.9823 -0.1227  0.6780
 2773SOL    HW119778   0.481   3.170   6.092  1.0167  1.1446  0.3064
 2773SOL    HW219779   0.379   3.265   6.078 -0.5201 -0.2020  1.7035
 2774SOL     OW19780   1.255   3.289   0.817 -0.1121 -0.4008  0.4540
 2774SOL    HW119781   1.221   3.376   0.836  1.9457  0.4123  0.4477
 2774SOL    HW219782   1.264   3.285   0.722  0.6801  1.6867  0.4471
 2775SOL     OW19783   3.925   1.296   1.482 -0.7208 -0.0994  0.4560
 2775SOL    HW119784   3.859   1.227   1.488 -1.6935  0.7421 -0.5832
 2775SOL    HW219785   3.979   1.286   1.560  0.8531  0.5874 -0.5617
 2776SOL     OW19786   3.720   0.075   8.005 -0.1688  0.3883  0.1734
 2776SOL    HW119787   3.743   0.140   8.071  1.7426 -1.4954  1.3407
 2776SOL    HW219788   3.665   0.010   8.049  0.4706 -0.1786  0.1198
 2777SOL     OW19789   3.139   1.657  15.651  0.1221 -0.2204  0.1019
 2777SOL    HW119790   3.185   1.701  15.579  1.4615  0.0081  1.0860
 2777SOL    HW219791   3.140   1.563  15.630 -1.6413  0.0881 -1.3082
 2778SOL     OW19792   3.800   4.452   5.979 -0.2884  0.1346 -0.1386
 2778SOL    HW119793   3.866   4.464   5.911 -1.2951  0.1186 -1.1174
 2778SOL    HW219794   3.862   4.481   6.046 -1.9632 -0.0744  1.5153
 2779SOL     OW19795   0.414   3.911  12.786 -0.3099 -0.2134  0.1041
 2779SOL    HW119796   0.395   3.978  12.720 -0.7596 -2.3444 -1.9570
 2779SOL    HW219797   0.480   3.862  12.737  0.6313  0.7282  0.4236
 2780SOL     OW19798   4.048   3.367   3.069 -0.4500 -0.1350  0.0911
 2780SOL    HW119799   4.134   3.386   3.030  0.7133 -1.7569  1.8482
 2780SOL    HW219800   4.007   3.308   3.006 -1.3955 -0.6522  1.1902
 2781SOL     OW19801   0.057   1.625   0.739  0.0038 -0.3169  0.7009
 2781SOL    HW119802   4.708   1.690   0.740  1.7287  1.6131 -1.6368
 2781SOL    HW219803   0.057   1.586   0.826  0.9262 -2.0408 -0.0699
 2782SOL     OW19804   0.573   3.624   9.772 -0.1690  0.0490  0.7769
 2782SOL    HW119805   0.602   3.586   9.854 -3.6429 -1.7771  1.1248
 2782SOL    HW219806   0.526   3.703   9.799 -0.1101  0.7173 -1.0799
 2783SOL     OW19807   4.242   0.505  16.762 -0.5816  0.2615 -0.1632
 2783SOL    HW119808   4.186   0.432  16.735  1.2304 -2.6275  3.7362
 2783SOL    HW219809   4.332   0.481  16.739 -0.3059  1.2776 -0.1310
 2784SOL     OW19810   3.627   4.372   4.986  0.1694  0.0517  0.0065
 2784SOL    HW119811   3.537   4.397   5.005 -1.3900 -2.8103 -3.6335
 2784SOL    HW219812   3.612   4.287   4.945 -0.6246  0.8194 -1.3225
 2785SOL     OW19813   3.445   0.115   0.601 -0.2561 -0.2238  0.7990
 2785SOL    HW119814   3.469   0.082   0.514  0.1693 -0.7757  1.1268
 2785SOL    HW219815   3.354   0.144   0.587  0.6402  2.5482  0.7181
 2786SOL     OW19816   3.052   2.380   6.265 -0.0583  0.0345 -0.0923
 2786SOL    HW119817   3.083   2.362   6.177  0.9584 -2.2113  0.7166
 2786SOL    HW219818   3.029   2.289   6.286 -0.6294 -0.0639 -1.1909
 2787SOL     OW19819   1.747   0.436   5.419  0.0990 -0.3179 -0.2990
 2787SOL    HW119820   1.754   0.389   5.336  0.7384  0.8265 -0.8794
 2787SOL    HW219821   1.681   0.500   5.395  1.1268  0.8305 -0.0324
 2788SOL     OW19822   2.681   2.603   7.208  0.6518  0.0018  0.2989
 2788SOL    HW119823   2.632   2.542   7.263  0.6880 -1.9601 -1.8670
 2788SOL    HW219824   2.619   2.675   7.196  2.6655  1.7833  0.5664
 2789SOL     OW19825   4.370   2.221   2.979 -0.2137 -0.0246 -0.0388
 2789SOL    HW119826   4.346   2.137   2.940  2.6497 -1.0531  0.4199
 2789SOL    HW219827   4.447   2.253   2.932 -1.1514  1.9611 -0.2255
 2790SOL     OW19828   3.522   3.099  13.956  0.1713 -0.4021 -0.3466
 2790SOL    HW119829   3.597   3.159  13.958 -1.5207  1.6589 -0.1306
 2790SOL    HW219830   3.470   3.138  14.026 -2.0401 -1.7090 -1.2909
 2791SOL     OW19831   2.026   4.643   7.960  0.0079  0.1848  0.2901
 2791SOL    HW119832   1.949   4.602   7.999  0.9604  0.5653  2.5876
 2791SOL    HW219833   2.077   4.639   8.041 -1.9101  0.8515  1.5368
 2792SOL     OW19834   3.023   0.069  10.357 -0.0201  0.5613 -0.0018
 2792SOL    HW119835   3.064   0.013  10.292  2.0452  0.5041  1.3109
 2792SOL    HW219836   3.083   0.048  10.429 -0.7611 -1.1708  0.0909
 2793SOL     OW19837   4.074   0.765   3.509 -0.1745  0.1939 -0.0077
 2793SOL    HW119838   4.153   0.711   3.510 -0.8027 -0.7433 -0.4976
 2793SOL    HW219839   4.026   0.752   3.427 -1.2164  2.1942  0.2967
 2794SOL     OW19840   4.358   4.027   6.167  0.0152  0.2022  0.1913
 2794SOL    HW119841   4.322   3.948   6.126 -1.0155  0.5889  0.3365
 2794SOL    HW219842   4.305   4.099   6.132  1.6396  1.9541  1.3390
 2795SOL     OW19843   4.516   0.779   5.562 -0.3825  0.3315  0.2267
 2795SOL    HW119844   4.435   0.730   5.577  0.4576 -0.8714  0.8403
 2795SOL    HW219845   4.482   0.851   5.508 -0.0892  0.3331  0.0474
 2796SOL     OW19846   2.052   0.264  11.913  0.1483  0.3601 -0.4717
 2796SOL    HW119847   2.031   0.296  11.826  2.4154 -0.8982 -1.4907
 2796SOL    HW219848   1.964   0.244  11.945  0.6200 -2.3640 -0.8188
 2797SOL     OW19849   1.181   1.880  16.642  0.5812 -0.1415  0.1784
 2797SOL    HW119850   1.094   1.903  16.674  0.9620 -0.8932  1.7260
 2797SOL    HW219851   1.222   1.825  16.708 -1.4181  0.0285  1.5697
 2798SOL     OW19852   3.184   2.035   6.724 -0.2803  0.0826 -0.1971
 2798SOL    HW119853   3.246   2.051   6.653  0.4289 -0.9773  0.1866
 2798SOL    HW219854   3.132   2.114   6.710 -0.0518 -0.0514 -1.7622
 2799SOL     OW19855   2.066   4.047   2.677  0.0388 -0.4866  0.0684
 2799SOL    HW119856   2.073   4.139   2.702 -3.1063  0.0691 -1.0137
 2799SOL    HW219857   2.146   4.039   2.625  0.2032  1.8062 -0.0114
 2800SOL     OW19858   4.021   4.540  15.981  0.0175  0.1949  0.4001
 2800SOL    HW119859   3.989   4.591  15.907 -0.7872  1.2102  1.4328
 2800SOL    HW219860   3.935   4.509  16.011 -0.2566  1.0542  0.5021
 2801SOL     OW19861   1.335   4.595   8.810 -0.1329  0.3223  0.1122
 2801SOL    HW119862   1.389   4.622   8.884  1.9183 -0.6133 -1.0364
 2801SOL    HW219863   1.251   4.636   8.832 -0.7394 -0.1496 -1.3239
 2802SOL     OW19864   0.295   3.585   3.962  0.1537  1.2699 -0.6292
 2802SOL    HW119865   0.350   3.577   4.040 -1.0648  0.0416  0.0928
 2802SOL    HW219866   0.355   3.540   3.903 -0.8242 -2.8684  1.5814
 2803SOL     OW19867   2.551   4.201   6.879  0.4632 -0.2628  0.3053
 2803SOL    HW119868   2.470   4.153   6.859  0.8198  0.1385 -2.0805
 2803SOL    HW219869   2.548   4.214   6.974  1.0401  1.9863  0.0210
 2804SOL     OW19870   0.842   2.655   0.335  0.2532 -0.4486 -0.3271
 2804SOL    HW119871   0.898   2.719   0.380  0.0003 -1.2247  1.0708
 2804SOL    HW219872   0.907   2.617   0.276 -0.7221 -0.0988 -1.6234
 2805SOL     OW19873   0.804   1.831  16.890  0.5812  0.0674  0.0166
 2805SOL    HW119874   0.747   1.856  16.963  0.7827  2.9890 -0.8491
 2805SOL    HW219875   0.746   1.845  16.816 -0.8771 -0.2101  1.1114
 2806SOL     OW19876   0.334   3.076   8.038  0.0986 -0.1922 -0.1038
 2806SOL    HW119877   0.325   2.986   8.070 -1.3366  0.0406  0.1179
 2806SOL    HW219878   0.275   3.089   7.964 -1.4023 -1.1660  0.9382
 2807SOL     OW19879   2.342   1.533   6.251  0.2123  0.1191  0.0868
 2807SOL    HW119880   2.431   1.498   6.257 -0.3626 -1.5044 -1.0211
 2807SOL    HW219881   2.320   1.532   6.345  0.5007  1.8554  0.1837
 2808SOL     OW19882   4.130   0.648  11.218 -0.5510 -0.3040  0.5153
 2808SOL    HW119883   4.091   0.580  11.272 -2.6078  0.4674 -0.0102
 2808SOL    HW219884   4.223   0.625  11.222 -0.0059  2.1683  1.7395
 2809SOL     OW19885   0.680   2.251  17.005 -0.2902 -0.0472 -0.4187
 2809SOL    HW119886   0.656   2.341  17.026  0.1018 -0.3213  1.1588
 2809SOL    HW219887   0.774   2.266  16.993 -0.0428 -1.5253 -0.3783
 2810SOL     OW19888   1.177   4.285   8.435 -0.1127 -0.0885  0.0156
 2810SOL    HW119889   1.183   4.200   8.479 -2.7328  0.0045  0.5431
 2810SOL    HW219890   1.104   4.275   8.374 -0.6770 -0.5624  0.7702
 2811SOL     OW19891   3.619   2.955   8.256 -0.2031  0.0425 -0.6610
 2811SOL    HW119892   3.603   2.919   8.168 -2.6055  0.0409 -0.2086
 2811SOL    HW219893   3.616   2.880   8.315  0.0032 -0.3442 -1.1392
 2812SOL     OW19894   4.375   1.518  14.271  0.4089  0.0126 -0.3162
 2812SOL    HW119895   4.446   1.577  14.244 -1.4127  1.9319 -1.0119
 2812SOL    HW219896   4.328   1.576  14.331 -2.0031 -2.1918 -0.0974
 2813SOL     OW19897   1.652   2.031   1.014 -0.3657 -0.3716 -0.1420
 2813SOL    HW119898   1.725   2.027   0.951 -0.4288  0.0649 -0.2426
 2813SOL    HW219899   1.692   2.063   1.094 -0.5971 -1.5785  0.4588
 2814SOL     OW19900   4.648   1.546  12.367 -0.1506 -0.3252 -0.0722
 2814SOL    HW119901   0.011   1.527  12.408 -1.2420 -0.4004  2.1289
 2814SOL    HW219902   4.599   1.524  12.446  0.1123 -1.7635 -0.3209
 2815SOL     OW19903   2.551   0.075   8.133  0.3533  0.2366 -0.0038
 2815SOL    HW119904   2.624   0.118   8.177  1.0162 -0.1960 -0.6776
 2815SOL    HW219905   2.608   0.024   8.074  1.2094  0.7449  0.3905
 2816SOL     OW19906   1.572   4.462   7.691  0.2971  0.6587 -0.0479
 2816SOL    HW119907   1.523   4.383   7.716  0.8009 -0.0052 -1.1543
 2816SOL    HW219908   1.633   4.428   7.625  0.0971 -0.4985  0.3516
 2817SOL     OW19909   1.023   3.119   2.141 -0.3882 -0.0517 -0.1651
 2817SOL    HW119910   0.977   3.196   2.175  0.0540  0.0564  0.1748
 2817SOL    HW219911   1.103   3.154   2.103 -1.4373  2.2845 -0.2670
 2818SOL     OW19912   4.147   2.826   8.477  0.4439  0.2999  0.2529
 2818SOL    HW119913   4.094   2.757   8.515  1.1847 -0.1563  0.4507
 2818SOL    HW219914   4.231   2.804   8.516  1.0097 -0.5907 -1.4933
 2819SOL     OW19915   0.559   3.466   3.408 -0.2075 -0.0962 -0.2237
 2819SOL    HW119916   0.542   3.412   3.330  2.6930 -1.8518  0.3553
 2819SOL    HW219917   0.505   3.544   3.397 -3.8361 -2.7511 -1.2714
 2820SOL     OW19918   0.139   4.585  12.424 -0.2313 -0.0699  0.0969
 2820SOL    HW119919   0.159   4.542  12.507  1.4108  0.0954 -0.2112
 2820SOL    HW219920   0.141   4.676  12.452  0.0652 -0.4927  1.4354
 2821SOL     OW19921   2.332   4.049  13.627 -0.1819 -0.0692  0.2956
 2821SOL    HW119922   2.250   3.999  13.628 -1.0033  1.2537 -0.6895
 2821SOL    HW219923   2.390   3.980  13.596  0.8877  1.1408 -0.4148
 2822SOL     OW19924   2.353   1.856   4.902 -0.8639  0.2714  0.4443
 2822SOL    HW119925   2.262   1.829   4.897 -1.2130  1.7168 -0.9948
 2822SOL    HW219926   2.395   1.777   4.868 -2.9844 -0.7280  0.1809
 2823SOL     OW19927   2.344   0.607   5.780  0.3897  0.0818  0.0420
 2823SOL    HW119928   2.266   0.604   5.724 -0.0417  0.2554  0.6283
 2823SOL    HW219929   2.366   0.514   5.782 -0.9391 -0.2590 -0.8155
 2824SOL     OW19930   4.437   4.407   8.386 -0.2052 -0.7865 -0.1209
 2824SOL    HW119931   4.406   4.496   8.402 -2.6555 -1.8468  0.9559
 2824SOL    HW219932   4.377   4.375   8.319 -0.7214  0.5812 -0.3061
 2825SOL     OW19933   2.961   3.084   0.993  0.6235  0.1530  0.5123
 2825SOL    HW119934   2.990   3.015   0.932  0.4935  1.0491 -0.5685
 2825SOL    HW219935   3.031   3.149   0.988  1.2441 -0.6032 -0.7894
 2826SOL     OW19936   1.441   2.620  13.567  0.5144 -0.5258  0.0764
 2826SOL    HW119937   1.386   2.613  13.489 -2.9347 -1.4912  2.6190
 2826SOL    HW219938   1.529   2.632  13.530 -0.2020  2.5515 -0.6165
 2827SOL     OW19939   2.055   1.855   9.957 -0.1834 -0.6138 -0.5267
 2827SOL    HW119940   2.116   1.892   9.894 -0.1179  0.2629  0.0493
 2827SOL    HW219941   2.122   1.853  10.026 -2.0104 -2.1000  1.2074
 2828SOL     OW19942   1.209   3.097   6.012  0.0846  0.6447 -0.0987
 2828SOL    HW119943   1.238   3.007   6.002 -1.3045  0.1739  0.0181
 2828SOL    HW219944   1.129   3.076   6.062 -0.8098  0.0036 -1.8040
 2829SOL     OW19945   1.664   1.208   2.688  0.3849 -0.1599  0.0257
 2829SOL    HW119946   1.697   1.160   2.764 -0.6607 -0.8323  0.0525
 2829SOL    HW219947   1.708   1.293   2.690 -1.4309  0.8029 -0.8641
 2830SOL     OW19948   3.868   3.781   6.662  0.7090 -0.5962  0.0882
 2830SOL    HW119949   3.947   3.750   6.617 -0.5563 -2.4452 -0.8621
 2830SOL    HW219950   3.880   3.723   6.738 -1.5180 -0.5264  0.4918
 2831SOL     OW19951   1.968   3.145  17.432  0.5803  0.0076  0.1690
 2831SOL    HW119952   1.987   3.095  17.512 -2.2191 -1.6250 -0.1992
 2831SOL    HW219953   1.903   3.205  17.469  2.0219  2.4442 -1.2747
 2832SOL     OW19954   2.817   1.222   8.383 -0.7335  0.1625  0.0090
 2832SOL    HW119955   2.825   1.317   8.371 -1.1289  0.2127  0.1523
 2832SOL    HW219956   2.724   1.216   8.405  0.0720  2.0165  3.8454
 2833SOL     OW19957   3.406   0.560   1.362 -0.2831 -0.0037 -0.2420
 2833SOL    HW119958   3.399   0.469   1.388  3.0043 -0.2399 -0.1515
 2833SOL    HW219959   3.469   0.594   1.425 -1.0028  0.1425  0.4048
 2834SOL     OW19960   0.187   1.131   1.727  0.1652  0.2781 -0.0848
 2834SOL    HW119961   0.191   1.069   1.654  1.5577  1.7356 -1.2393
 2834SOL    HW219962   0.094   1.143   1.747 -0.0716  1.6637 -2.0504
 2835SOL     OW19963   2.983   1.491   4.841  0.8362 -0.1925 -0.5561
 2835SOL    HW119964   3.020   1.579   4.853  2.1533 -1.1576  2.5743
 2835SOL    HW219965   2.992   1.454   4.929  0.8869  0.3744 -0.3189
 2836SOL     OW19966   2.622   2.395   9.033 -0.3393  0.1880 -0.3144
 2836SOL    HW119967   2.585   2.483   9.044  2.6477  1.2256  1.5634
 2836SOL    HW219968   2.634   2.371   9.125  3.6755 -0.5319 -1.0499
 2837SOL     OW19969   0.517   0.584   9.356  0.5217  0.1242 -0.2520
 2837SOL    HW119970   0.556   0.497   9.363  1.9570  0.6058 -2.3366
 2837SOL    HW219971   0.434   0.582   9.404 -0.0508 -0.3386 -1.2692
 2838SOL     OW19972   1.716   1.492   7.153 -0.1073 -0.2273 -0.1062
 2838SOL    HW119973   1.722   1.454   7.066 -1.0135 -0.0490 -0.2553
 2838SOL    HW219974   1.803   1.476   7.188  0.8817  0.1489 -2.4469
 2839SOL     OW19975   1.651   0.495   1.227  0.0015  0.4874  0.5607
 2839SOL    HW119976   1.568   0.541   1.211  0.4683  0.4964 -1.7997
 2839SOL    HW219977   1.697   0.525   1.149 -1.5004 -0.7333 -0.7928
 2840SOL     OW19978   3.820   2.726   4.048 -0.0877 -0.0168  0.2299
 2840SOL    HW119979   3.773   2.764   4.122  0.7776 -1.0264  1.2911
 2840SOL    HW219980   3.783   2.759   3.966  0.3970 -0.0717 -0.0124
 2841SOL     OW19981   4.425   3.360   3.740  0.0802 -0.7993 -0.3247
 2841SOL    HW119982   4.380   3.410   3.671 -0.4483 -0.8966 -0.0482
 2841SOL    HW219983   4.483   3.294   3.701  1.9067  0.1920  0.6935
 2842SOL     OW19984   4.050   0.673   4.504  0.4388 -0.5196  0.2896
 2842SOL    HW119985   3.993   0.666   4.580  0.3672  0.4776  0.3268
 2842SOL    HW219986   4.056   0.578   4.492  1.0634 -0.5368  0.7174
 2843SOL     OW19987   4.665   2.872   9.075  0.3027 -0.6306 -0.2542
 2843SOL    HW119988   0.039   2.878   9.070  0.2759 -1.3123 -1.5764
 2843SOL    HW219989   4.650   2.960   9.040  0.3129 -0.2402  0.7141
 2844SOL     OW19990   1.560   1.832   7.848  0.1110  0.0569 -0.3738
 2844SOL    HW119991   1.632   1.895   7.847  0.9092 -0.7996  1.9287
 2844SOL    HW219992   1.515   1.866   7.925  1.8187  0.0521  0.6369
 2845SOL     OW19993   4.132   4.163   5.230  0.1325  0.4715 -0.0937
 2845SOL    HW119994   4.167   4.200   5.150  0.8815  0.9459  0.4577
 2845SOL    HW219995   4.214   4.140   5.273  0.4809  1.8624 -0.0246
 2846SOL     OW19996   3.314   0.557   0.076  0.3294  0.0755  0.4071
 2846SOL    HW119997   3.234   0.596   0.041 -0.2550 -2.9142 -1.5959
 2846SOL    HW219998   3.283   0.561   0.167 -1.7505  0.2243 -0.3191
 2847SOL     OW19999   4.504   4.277   3.004 -0.1151  0.5099  0.2403
 2847SOL    HW120000   4.585   4.328   2.996 -0.1802  0.3541 -1.4333
 2847SOL    HW220001   4.455   4.329   2.940  1.7083  0.3763 -1.2804
 2848SOL     OW20002   0.819   3.546  12.427  0.1990 -0.4366  0.5505
 2848SOL    HW120003   0.730   3.547  12.393  0.8898 -0.5342 -1.2631
 2848SOL    HW220004   0.818   3.634  12.464  0.0330 -0.8168  1.4630
 2849SOL     OW20005   1.555   0.603   5.320  0.0743  0.5696 -0.3407
 2849SOL    HW120006   1.460   0.614   5.320  0.1200  1.0012  1.7592
 2849SOL    HW220007   1.581   0.684   5.277  1.1391  0.4985  0.1594
 2850SOL     OW20008   1.433   3.145   1.838 -0.1200  0.0163  0.2402
 2850SOL    HW120009   1.493   3.217   1.859 -1.6422  1.5374 -0.6003
 2850SOL    HW220010   1.487   3.077   1.798  0.4687  1.5606 -1.6030
 2851SOL     OW20011   3.702   3.021  14.177 -0.3457  0.7586 -0.6914
 2851SOL    HW120012   3.621   3.031  14.127 -1.1435  2.0830  0.8666
 2851SOL    HW220013   3.675   3.003  14.267 -0.2654 -1.0322 -1.0273
 2852SOL     OW20014   1.377   3.682  16.451  0.6472  0.3194  0.4802
 2852SOL    HW120015   1.429   3.752  16.413  2.8662 -2.2221 -1.0975
 2852SOL    HW220016   1.399   3.599  16.409 -0.6733  1.2229 -1.9887
 2853SOL     OW20017   3.975   4.416   7.349 -0.1783 -0.2690  0.1622
 2853SOL    HW120018   3.931   4.343   7.305 -0.5998 -0.7218  1.3447
 2853SOL    HW220019   3.928   4.494   7.319  0.8014  0.4186  0.4084
 2854SOL     OW20020   0.408   0.768  14.804 -0.0531 -0.0932  0.2078
 2854SOL    HW120021   0.364   0.720  14.735  0.3895 -0.3653  0.1178
 2854SOL    HW220022   0.499   0.772  14.776 -0.6673  1.5889 -1.5243
 2855SOL     OW20023   0.957   0.522   4.071  0.4393  0.8201 -0.1334
 2855SOL    HW120024   0.946   0.481   4.157  5.2108  1.1854  0.6976
 2855SOL    HW220025   0.866   0.535   4.046  0.9796  1.5876 -1.7383
 2856SOL     OW20026   4.710   2.045   6.234 -0.6211  0.2502 -0.2268
 2856SOL    HW120027   0.054   1.988   6.194 -0.8526 -0.6905  0.7273
 2856SOL    HW220028   4.624   2.018   6.203 -0.3790  1.4304 -1.9579
 2857SOL     OW20029   2.673   1.560   7.637  0.2972 -0.0722 -0.3489
 2857SOL    HW120030   2.601   1.597   7.687  0.2640 -0.8417  0.1770
 2857SOL    HW220031   2.742   1.552   7.703  0.2985  0.5992 -0.2743
 2858SOL     OW20032   1.380   0.070   2.895 -0.0939  0.0753 -0.5521
 2858SOL    HW120033   1.298   0.094   2.851 -1.9962 -1.5356  2.1077
 2858SOL    HW220034   1.446   0.123   2.851  0.7250  0.6380  1.3582
 2859SOL     OW20035   1.774   1.800   5.600 -0.6241 -0.1548 -0.4086
 2859SOL    HW120036   1.727   1.718   5.585  1.1327 -1.3041  0.3262
 2859SOL    HW220037   1.693   1.851   5.595 -0.7967 -0.0934  2.6108
 2860SOL     OW20038   1.674   4.349  14.537 -0.2839  0.2341 -0.2346
 2860SOL    HW120039   1.722   4.267  14.538 -0.7357 -0.0504 -1.2991
 2860SOL    HW220040   1.717   4.399  14.467  0.2316 -0.9032 -0.7179
 2861SOL     OW20041   1.294   3.691   3.969 -0.5164 -0.0914  0.6224
 2861SOL    HW120042   1.287   3.612   4.023 -1.6702 -1.1760 -1.1362
 2861SOL    HW220043   1.359   3.670   3.902 -1.9854  0.0784 -0.8286
 2862SOL     OW20044   3.470   2.718   0.053 -0.2079  0.1047 -0.4108
 2862SOL    HW120045   3.504   2.653   0.113  1.4598 -0.0525 -1.5382
 2862SOL    HW220046   3.542   2.717  17.679 -0.3369  0.1549 -0.5607
 2863SOL     OW20047   3.845   1.992   7.179 -0.0308 -0.2688 -0.6284
 2863SOL    HW120048   3.771   2.010   7.237  0.9673 -0.6387  0.7673
 2863SOL    HW220049   3.922   2.012   7.232 -0.1044  0.2201 -0.7081
 2864SOL     OW20050   3.007   3.754   1.642  0.5442  0.1056 -0.3838
 2864SOL    HW120051   2.961   3.753   1.726  0.7167 -0.0704 -0.2913
 2864SOL    HW220052   3.047   3.667   1.643 -0.4283 -0.3622 -2.5103
 2865SOL     OW20053   0.228   4.059   3.916 -0.1282 -0.0261 -0.1740
 2865SOL    HW120054   0.293   4.049   3.847  1.3890  3.3077  0.8169
 2865SOL    HW220055   0.150   4.060   3.860  1.0627  0.0714 -1.8355
 2866SOL     OW20056   2.988   1.524   1.647 -0.4953 -0.0194 -0.1228
 2866SOL    HW120057   2.978   1.578   1.569 -0.1833 -0.1013 -0.2207
 2866SOL    HW220058   2.899   1.509   1.680 -0.4935 -0.1345 -0.1699
 2867SOL     OW20059   0.259   2.796   5.476 -0.1680 -0.5918 -0.4305
 2867SOL    HW120060   0.264   2.805   5.381  0.7832 -0.9915 -0.4234
 2867SOL    HW220061   0.354   2.793   5.488 -0.3587 -1.5192  0.7997
 2868SOL     OW20062   1.638   1.210  14.197  0.3334  0.0203  0.2487
 2868SOL    HW120063   1.569   1.265  14.158 -0.0388 -0.6488 -0.0456
 2868SOL    HW220064   1.655   1.256  14.279 -1.2481  0.6656  0.2282
 2869SOL     OW20065   2.268   4.174   1.815  0.2938 -0.0848  0.4227
 2869SOL    HW120066   2.229   4.262   1.810  0.5037  0.0211  0.6586
 2869SOL    HW220067   2.361   4.189   1.831  0.5201  1.8135 -2.5626
 2870SOL     OW20068   3.570   4.373  12.872 -0.6226  0.2076  0.4855
 2870SOL    HW120069   3.583   4.320  12.952 -0.6310  0.1972  0.4800
 2870SOL    HW220070   3.478   4.346  12.864 -1.3441  2.4432  1.4134
 2871SOL     OW20071   1.939   2.714  16.084  0.2123 -0.0718  0.0378
 2871SOL    HW120072   2.014   2.656  16.070  0.7804  0.5686  0.4241
 2871SOL    HW220073   1.979   2.781  16.140 -1.0108 -0.7657  1.7528
 2872SOL     OW20074   2.684   1.743  13.472 -0.1198  0.3819 -0.2752
 2872SOL    HW120075   2.744   1.692  13.526 -0.1307  1.1309  0.4372
 2872SOL    HW220076   2.744   1.755  13.398  0.2738  0.5362  0.0709
 2873SOL     OW20077   0.879   3.776   4.182 -0.1993  1.1006  0.4755
 2873SOL    HW120078   0.800   3.742   4.141 -1.7632  3.5244  1.4865
 2873SOL    HW220079   0.871   3.727   4.264  0.4677 -2.3188 -1.5221
 2874SOL     OW20080   3.677   1.557  13.099 -0.1811 -0.5632 -0.9842
 2874SOL    HW120081   3.600   1.613  13.104  2.5982  3.2740 -1.6926
 2874SOL    HW220082   3.721   1.613  13.036  1.0181  2.1226  2.2807
 2875SOL     OW20083   4.444   0.086   2.482 -0.3145  0.2751  0.1897
 2875SOL    HW120084   4.469   0.176   2.463  0.7997  0.0513  0.5383
 2875SOL    HW220085   4.531   0.050   2.503 -0.3662  1.4987  2.5561
 2876SOL     OW20086   3.378   4.086   2.518  0.0978  0.2342  0.0247
 2876SOL    HW120087   3.401   4.088   2.425 -1.4855 -1.9561 -0.4142
 2876SOL    HW220088   3.411   4.170   2.549 -1.4706 -0.3102  3.2201
 2877SOL     OW20089   0.731   1.696   6.577 -0.4146 -0.0958  0.0761
 2877SOL    HW120090   0.665   1.681   6.645 -0.9096  3.4717  0.4156
 2877SOL    HW220091   0.806   1.648   6.611 -0.4388  0.3828  0.8143
 2878SOL     OW20092   4.646   2.377   2.477 -0.0207  0.0118 -0.5713
 2878SOL    HW120093   4.643   2.286   2.506 -0.4006  0.3228  0.3562
 2878SOL    HW220094   4.713   2.371   2.409  1.8895 -0.1570  1.3102
 2879SOL     OW20095   0.539   1.105  15.351 -0.1332 -0.0315  0.0460
 2879SOL    HW120096   0.466   1.080  15.408  0.5327 -2.1555 -0.0215
 2879SOL    HW220097   0.600   1.143  15.414 -1.0763  3.0217 -0.8660
 2880SOL     OW20098   0.221   3.032   8.967  0.3755 -0.1369  0.1541
 2880SOL    HW120099   0.242   2.999   8.880  0.6153  1.7883 -0.5224
 2880SOL    HW220100   0.209   3.124   8.944  0.8899 -0.5546 -1.7485
 2881SOL     OW20101   1.455   0.654   6.449  0.5355 -0.3204  0.2850
 2881SOL    HW120102   1.364   0.628   6.436  0.5183  0.4153 -0.9629
 2881SOL    HW220103   1.432   0.742   6.479 -0.3742 -0.8213  1.0674
 2882SOL     OW20104   2.471   2.136   9.744 -0.0777 -0.1690 -0.0808
 2882SOL    HW120105   2.526   2.172   9.674  1.8476 -0.6929  1.1809
 2882SOL    HW220106   2.396   2.194   9.738  0.8778  0.9270 -1.5053
 2883SOL     OW20107   1.128   2.610   3.877 -0.0874 -0.7151 -0.1719
 2883SOL    HW120108   1.096   2.557   3.804 -2.8514  0.4586  0.1900
 2883SOL    HW220109   1.050   2.649   3.916 -2.1895 -1.9321 -3.1377
 2884SOL     OW20110   4.662   3.302  12.272 -0.4595 -0.0027 -0.1289
 2884SOL    HW120111   4.641   3.289  12.364  0.4846  0.1966  0.1183
 2884SOL    HW220112   4.597   3.365  12.242  0.8979  1.4770  0.0474
 2885SOL     OW20113   0.176   1.605   1.733  0.7669  0.8971 -0.1326
 2885SOL    HW120114   0.089   1.573   1.713  0.6517  1.2762 -0.2443
 2885SOL    HW220115   0.155   1.697   1.717 -2.2195  0.3679  0.8963
 2886SOL     OW20116   0.455   4.289   2.060  0.0031 -0.0671 -0.2905
 2886SOL    HW120117   0.461   4.194   2.053 -0.1707 -0.1354  0.5205
 2886SOL    HW220118   0.549   4.304   2.072 -0.0876  0.1361  0.1610
 2887SOL     OW20119   1.227   3.210   5.546  0.1250 -0.5444  0.1922
 2887SOL    HW120120   1.191   3.293   5.514 -0.3657 -1.1417 -0.7620
 2887SOL    HW220121   1.247   3.228   5.638  0.4955  0.5177 -0.0973
 2888SOL     OW20122   2.856   4.289   4.623 -0.0045  0.7154  0.8318
 2888SOL    HW120123   2.909   4.368   4.618  0.1868  0.6240  1.4107
 2888SOL    HW220124   2.925   4.225   4.642 -0.5514  0.2533  1.2895
 2889SOL     OW20125   0.882   0.907  10.148  0.0678  0.0696 -0.3478
 2889SOL    HW120126   0.850   0.817  10.157  0.4707 -0.0442 -0.0531
 2889SOL    HW220127   0.812   0.946  10.201  1.1297  0.2432  0.9280
 2890SOL     OW20128   0.333   3.256  13.023  0.3523  0.1528 -0.3748
 2890SOL    HW120129   0.387   3.179  13.005 -1.1596 -1.1088  0.4643
 2890SOL    HW220130   0.246   3.242  12.985 -0.3453  1.3404  0.7659
 2891SOL     OW20131   2.690   1.684   3.130  0.4412 -0.2669  0.6347
 2891SOL    HW120132   2.725   1.614   3.185  3.0153  0.0629 -0.5817
 2891SOL    HW220133   2.613   1.704   3.184  0.4742  0.6766  0.3343
 2892SOL     OW20134   3.925   0.290   8.961  0.0188  0.0239 -0.4245
 2892SOL    HW120135   3.838   0.322   8.982  0.0632 -0.0097 -0.1887
 2892SOL    HW220136   3.960   0.364   8.912  1.1838 -0.0360  0.3049
 2893SOL     OW20137   1.929   0.388   4.047  0.7506 -0.2246 -0.4159
 2893SOL    HW120138   2.020   0.360   4.047  0.5306 -0.9019  2.2653
 2893SOL    HW220139   1.937   0.467   3.994  1.5550  1.4285  2.1974
 2894SOL     OW20140   3.427   0.803   7.948 -0.0039 -0.0825 -0.2207
 2894SOL    HW120141   3.387   0.807   7.861 -0.7058 -1.5369  0.0513
 2894SOL    HW220142   3.482   0.724   7.944  0.1276 -0.1110  2.1956
 2895SOL     OW20143   1.437   2.074  11.425  0.3307  0.3864  0.0740
 2895SOL    HW120144   1.525   2.101  11.400  0.3145  0.1710 -0.2231
 2895SOL    HW220145   1.456   2.014  11.497  0.1797  1.0313  0.6412
 2896SOL     OW20146   0.724   1.628   0.757  0.2102  0.3891 -0.6856
 2896SOL    HW120147   0.790   1.592   0.815  0.3601  1.0226 -0.4582
 2896SOL    HW220148   0.646   1.588   0.795  0.2804 -0.0981 -1.0518
 2897SOL     OW20149   1.015   3.765   6.885  0.0804  0.3192 -0.4133
 2897SOL    HW120150   0.948   3.833   6.878  2.3665  2.7565  1.2941
 2897SOL    HW220151   1.029   3.743   6.793  1.3129  0.2734 -0.2110
 2898SOL     OW20152   2.115   3.588   6.397  0.0029 -0.0662 -0.0946
 2898SOL    HW120153   2.203   3.611   6.366  0.6308 -0.7328  1.1715
 2898SOL    HW220154   2.116   3.495   6.374 -0.1532  0.0270 -0.4692
 2899SOL     OW20155   0.987   2.421   3.722  0.4297 -0.3468 -0.1980
 2899SOL    HW120156   0.986   2.354   3.791 -3.0250  0.2454  0.3113
 2899SOL    HW220157   1.018   2.365   3.651  0.2992  0.0021 -0.5293
 2900SOL     OW20158   4.521   4.475  10.464  0.1286 -0.2732  0.5343
 2900SOL    HW120159   4.547   4.429  10.384 -2.3581 -1.0490  0.1696
 2900SOL    HW220160   4.568   4.559  10.457  3.1284 -2.0683 -0.9913
 2901SOL     OW20161   0.115   2.169   2.829  0.3161  0.4958  0.1989
 2901SOL    HW120162   0.188   2.108   2.835 -0.6066 -0.6976 -0.8135
 2901SOL    HW220163   0.158   2.255   2.838 -0.8447  1.0323  0.5928
 2902SOL     OW20164   1.105   1.535  15.655  0.0648 -0.0281  0.3497
 2902SOL    HW120165   1.147   1.486  15.584 -1.2265  0.6571 -0.8746
 2902SOL    HW220166   1.026   1.556  15.605 -0.1278  1.9724  1.4523
 2903SOL     OW20167   1.769   0.629   4.721 -0.1451 -0.4807 -0.3786
 2903SOL    HW120168   1.680   0.611   4.689 -0.2326 -0.6047 -0.0685
 2903SOL    HW220169   1.757   0.617   4.815 -1.2066  4.7282  0.1392
 2904SOL     OW20170   1.798   2.045   6.718  0.6716  0.1281 -0.0517
 2904SOL    HW120171   1.752   2.039   6.802 -0.0392  1.3045 -0.3578
 2904SOL    HW220172   1.862   2.115   6.728  1.2102 -0.4365  0.4425
 2905SOL     OW20173   2.134   3.085   1.496 -0.0523 -0.6026  0.1122
 2905SOL    HW120174   2.196   3.095   1.424 -0.5540  1.9572  0.0299
 2905SOL    HW220175   2.073   3.023   1.458 -0.1887  0.0616 -0.7581
 2906SOL     OW20176   2.459   3.628  10.335 -0.1069 -0.3172 -0.3987
 2906SOL    HW120177   2.497   3.641  10.423  0.3891  0.6851 -0.7585
 2906SOL    HW220178   2.508   3.555  10.300 -0.4301 -1.2313  1.0380
 2907SOL     OW20179   2.403   2.534   0.604  0.7906  0.3929  1.0488
 2907SOL    HW120180   2.373   2.588   0.677  0.3213  1.7270 -0.1430
 2907SOL    HW220181   2.496   2.550   0.615  0.9056  1.2683 -1.2152
 2908SOL     OW20182   0.314   3.168   6.383  0.1179 -0.1383  0.4696
 2908SOL    HW120183   0.338   3.255   6.414 -0.5803  0.5111 -0.8068
 2908SOL    HW220184   0.327   3.165   6.288  0.8087 -0.0215  0.5604
 2909SOL     OW20185   0.454   3.271   0.023 -0.1754 -0.3541  0.1340
 2909SOL    HW120186   0.516   3.340   0.000 -0.7065  0.3342  0.7826
 2909SOL    HW220187   0.396   3.315   0.085 -0.4691  1.9476 -1.7819
 2910SOL     OW20188   1.723   0.881   2.636 -0.3704 -0.1610  0.3264
 2910SOL    HW120189   1.703   0.837   2.719  2.7197 -2.6269 -0.2205
 2910SOL    HW220190   1.730   0.806   2.577  0.7150  0.5061 -0.3950
 2911SOL     OW20191   4.389   4.449   4.983 -0.1753 -0.0071  0.7665
 2911SOL    HW120192   4.484   4.445   4.968 -0.0841 -2.7426  2.0796
 2911SOL    HW220193   4.370   4.524   4.926 -0.4196 -0.2500  0.5262
 2912SOL     OW20194   3.913   1.467  14.785  0.0350 -0.1334 -0.0296
 2912SOL    HW120195   3.887   1.375  14.797  0.0204 -0.2222 -0.7125
 2912SOL    HW220196   3.836   1.517  14.810 -0.2672 -1.2919  1.3745
 2913SOL     OW20197   1.066   2.254   0.949 -0.5810 -0.3332 -0.0717
 2913SOL    HW120198   1.154   2.253   0.912 -0.7602  0.3796 -0.5143
 2913SOL    HW220199   1.073   2.296   1.035  0.4147  0.1510 -0.3881
 2914SOL     OW20200   0.040   4.019   3.713 -0.0554 -0.5557 -0.2100
 2914SOL    HW120201   0.046   3.924   3.723  1.5530 -0.2544  1.6658
 2914SOL    HW220202   0.110   4.040   3.651 -1.6263  1.2417 -1.3748
 2915SOL     OW20203   3.874   1.754   7.797 -0.0318  0.2038  0.6571
 2915SOL    HW120204   3.819   1.829   7.775 -2.8392 -1.0843  3.3555
 2915SOL    HW220205   3.919   1.791   7.873 -0.7938  1.4928  0.4848
 2916SOL     OW20206   4.174   3.648   7.842 -0.1640 -0.3079 -0.1124
 2916SOL    HW120207   4.095   3.608   7.806 -1.2895  1.7892  0.0472
 2916SOL    HW220208   4.169   3.623   7.934 -1.8267 -0.2555 -0.2003
 2917SOL     OW20209   3.568   0.331   3.304  0.0372 -0.1728 -0.8516
 2917SOL    HW120210   3.603   0.366   3.222  0.1318 -0.1750 -0.8129
 2917SOL    HW220211   3.614   0.246   3.308  1.4979  0.6683  0.4456
 2918SOL     OW20212   4.702   4.709   2.528 -0.1332 -0.4034 -0.0618
 2918SOL    HW120213   4.684   4.634   2.471  0.4435  0.3903 -1.3066
 2918SOL    HW220214   4.706   4.673   2.617 -0.3957 -1.7799 -0.5913
 2919SOL     OW20215   1.773   3.392   4.726 -0.3890 -0.2294 -0.1807
 2919SOL    HW120216   1.844   3.453   4.743  0.3881 -0.7422 -1.5918
 2919SOL    HW220217   1.804   3.313   4.770 -0.2721  0.5932  1.2190
 2920SOL     OW20218   2.345   2.076   0.779 -0.0171  0.8412  0.4828
 2920SOL    HW120219   2.435   2.097   0.752  0.4620 -0.3561  1.1200
 2920SOL    HW220220   2.309   2.164   0.784  2.4079  1.7272  2.5127
 2921SOL     OW20221   3.652   0.296  17.209  0.2011 -0.4654  0.3668
 2921SOL    HW120222   3.589   0.302  17.281  0.2158  0.2075  0.3234
 2921SOL    HW220223   3.660   0.201  17.202 -1.0381 -0.3286 -2.6758
 2922SOL     OW20224   2.771   1.977   1.305  0.2938  0.0468 -0.0400
 2922SOL    HW120225   2.678   1.998   1.311 -0.2490 -2.3287  0.0378
 2922SOL    HW220226   2.761   1.888   1.271  2.2799  0.5863 -1.9999
 2923SOL     OW20227   1.588   2.719   5.126  0.3015  0.4562  0.3020
 2923SOL    HW120228   1.538   2.637   5.123 -0.7646  1.0881  0.4967
 2923SOL    HW220229   1.629   2.719   5.039 -0.3512 -0.5618 -0.0163
 2924SOL     OW20230   3.775   1.865   8.350 -0.4750  0.1929 -0.2600
 2924SOL    HW120231   3.683   1.871   8.325  0.2564  2.6407 -2.3170
 2924SOL    HW220232   3.774   1.852   8.445 -0.0300 -0.0452 -0.2817
 2925SOL     OW20233   1.707   0.920   4.750 -1.0242 -0.0885  0.2657
 2925SOL    HW120234   1.652   0.955   4.680 -1.1857 -1.2102 -0.1604
 2925SOL    HW220235   1.739   0.836   4.717  1.8340  0.4845  1.5691
 2926SOL     OW20236   3.340   3.236  17.298  0.1063  0.3259  0.1467
 2926SOL    HW120237   3.394   3.278  17.366  2.2857 -3.9955  1.0992
 2926SOL    HW220238   3.262   3.213  17.348 -0.5947  0.2130 -1.0266
 2927SOL     OW20239   3.246   2.432   3.834  0.2336 -0.1707 -0.4517
 2927SOL    HW120240   3.321   2.402   3.783  0.8453 -2.1725  1.6038
 2927SOL    HW220241   3.186   2.357   3.830 -0.3081  0.1252  2.5410
 2928SOL     OW20242   0.722   1.555   7.217  0.2239 -0.1594 -0.2703
 2928SOL    HW120243   0.639   1.546   7.170  0.8624  0.7000 -1.5494
 2928SOL    HW220244   0.694   1.517   7.300 -0.7242  0.3585 -0.3509
 2929SOL     OW20245   0.551   0.474   9.069 -0.6043 -0.5386  0.0173
 2929SOL    HW120246   0.601   0.406   9.022  0.6506  0.4414 -0.0517
 2929SOL    HW220247   0.475   0.428   9.104 -0.3051 -3.0539 -2.5691
 2930SOL     OW20248   0.317   2.177   6.946  0.9756  0.1677 -0.2874
 2930SOL    HW120249   0.404   2.180   6.987 -0.2915  1.5073  2.3148
 2930SOL    HW220250   0.333   2.212   6.859  2.4834 -1.7838 -0.8048
 2931SOL     OW20251   0.867   4.375   1.175  0.2273 -0.2882 -0.5949
 2931SOL    HW120252   0.817   4.294   1.179 -1.6619  0.8987 -0.3343
 2931SOL    HW220253   0.794   4.437   1.185 -0.0423 -0.2611 -2.7338
 2932SOL     OW20254   3.161   2.841   1.848  0.0778 -0.0603 -1.3210
 2932SOL    HW120255   3.149   2.819   1.941  1.4102  2.1023 -0.6542
 2932SOL    HW220256   3.196   2.929   1.861 -4.5104  1.4714  0.8141
 2933SOL     OW20257   1.354   0.935   5.199  0.0440  0.4553 -0.0077
 2933SOL    HW120258   1.264   0.944   5.230  0.4121  0.0425  1.1809
 2933SOL    HW220259   1.402   0.970   5.274 -2.5728 -2.6535  3.1439
 2934SOL     OW20260   3.097   0.326  10.416 -0.0439 -0.2006 -0.1575
 2934SOL    HW120261   3.018   0.353  10.463  1.0102  1.6007  0.5874
 2934SOL    HW220262   3.059   0.251  10.371 -0.7227 -0.1167  0.2902
 2935SOL     OW20263   0.761   1.391  15.488  0.7436 -0.0937  0.2030
 2935SOL    HW120264   0.741   1.386  15.582 -1.7772 -3.7094 -0.5557
 2935SOL    HW220265   0.744   1.300  15.467  1.2925 -0.0301 -0.5181
 2936SOL     OW20266   0.813   0.878  12.044  0.5353  0.3766  0.1756
 2936SOL    HW120267   0.778   0.951  11.994 -0.2358  0.3108  0.6198
 2936SOL    HW220268   0.745   0.813  12.023  0.7942  0.2467 -0.2607
 2937SOL     OW20269   1.203   1.799  13.109 -0.5116 -0.1122 -0.2070
 2937SOL    HW120270   1.205   1.709  13.142 -0.7160  0.2051  0.6778
 2937SOL    HW220271   1.204   1.790  13.014  1.4058  1.6475 -0.3707
 2938SOL     OW20272   1.260   0.914   8.239 -0.2742  0.4698 -0.5713
 2938SOL    HW120273   1.307   0.995   8.257  1.3569 -0.6430  0.1568
 2938SOL    HW220274   1.247   0.922   8.144 -2.7883 -1.7465 -0.4157
 2939SOL     OW20275   2.533   4.151   1.736  0.0458  0.3399 -0.0536
 2939SOL    HW120276   2.621   4.122   1.760 -0.3383  1.2412  2.4292
 2939SOL    HW220277   2.533   4.131   1.643  0.9662 -0.2311  0.0635
 2940SOL     OW20278   1.494   1.790   3.715  0.0601 -1.2223 -0.2257
 2940SOL    HW120279   1.485   1.696   3.731  2.8463 -1.4190  0.0968
 2940SOL    HW220280   1.501   1.831   3.801 -2.1383  2.5482 -1.8381
 2941SOL     OW20281   2.664   0.377   5.701  0.3928  0.2110 -0.1527
 2941SOL    HW120282   2.587   0.320   5.712 -0.5314  0.7805 -3.6679
 2941SOL    HW220283   2.671   0.434   5.778 -0.9085 -1.3459  1.1196
 2942SOL     OW20284   1.073   1.365  13.323 -0.1884  0.2764  0.3725
 2942SOL    HW120285   0.994   1.419  13.321 -0.1579  0.3140  0.2306
 2942SOL    HW220286   1.049   1.308  13.251 -1.0137  1.7017 -0.4881
 2943SOL     OW20287   2.674   0.064   6.008  0.9670  0.4110  0.7800
 2943SOL    HW120288   2.655   0.043   5.916  0.6944  1.6090  0.5670
 2943SOL    HW220289   2.747   0.127   6.012  0.3805  1.1770 -0.6203
 2944SOL     OW20290   0.979   1.872  12.643 -0.4065 -0.1747  0.0138
 2944SOL    HW120291   0.896   1.825  12.633 -0.4839 -0.3415  1.5503
 2944SOL    HW220292   0.975   1.931  12.568  1.1172  1.1092  0.9387
 2945SOL     OW20293   0.295   4.488  14.863  0.3309  0.7818 -0.3724
 2945SOL    HW120294   0.317   4.519  14.951 -2.2663 -1.9744  1.2615
 2945SOL    HW220295   0.292   4.392  14.867 -1.0490  0.8435 -0.0157
 2946SOL     OW20296   3.055   2.800   4.047 -0.6029 -0.5584  0.3877
 2946SOL    HW120297   2.992   2.835   4.111  1.0089  0.8715  1.1834
 2946SOL    HW220298   3.135   2.815   4.097  1.1190  1.1199 -2.9213
 2947SOL     OW20299   1.795   3.461   3.975 -0.0821 -0.2792  0.4654
 2947SOL    HW120300   1.737   3.397   3.932  0.6056 -0.6483  0.0896
 2947SOL    HW220301   1.877   3.453   3.927 -0.5096  1.8461 -0.6125
 2948SOL     OW20302   3.891   3.748   4.124 -0.1834 -0.3204 -0.4198
 2948SOL    HW120303   3.856   3.816   4.067  1.9036  1.8492  0.9107
 2948SOL    HW220304   3.804   3.713   4.147 -1.5338  2.8032 -0.7707
 2949SOL     OW20305   3.537   2.758  13.958  0.3578  0.0230  0.1327
 2949SOL    HW120306   3.578   2.704  14.025 -0.7190  0.1360  0.8833
 2949SOL    HW220307   3.489   2.824  14.008  0.3935 -0.3445  0.6564
 2950SOL     OW20308   3.895   0.123   3.894  0.2365 -0.5756  0.1073
 2950SOL    HW120309   3.966   0.076   3.851 -0.4308  0.0443 -1.6861
 2950SOL    HW220310   3.914   0.098   3.984 -4.5240  0.3878  1.3911
 2951SOL     OW20311   4.210   4.254   7.044 -0.7355 -0.3120 -0.1297
 2951SOL    HW120312   4.235   4.167   7.076 -0.7056 -0.8980 -1.7345
 2951SOL    HW220313   4.130   4.227   6.999 -1.1232  0.9441 -0.1862
 2952SOL     OW20314   2.067   4.351   2.720  0.0708  0.6184 -0.7426
 2952SOL    HW120315   1.981   4.335   2.680 -0.8223  0.5995  1.1886
 2952SOL    HW220316   2.103   4.420   2.665 -0.1135  0.1897 -1.4092
 2953SOL     OW20317   3.262   2.727  16.016 -0.3323 -0.4649  0.0097
 2953SOL    HW120318   3.205   2.700  16.088 -2.3502  1.3657 -0.8960
 2953SOL    HW220319   3.202   2.775  15.958  0.0911 -1.3877 -1.1901
 2954SOL     OW20320   3.878   0.287   1.543 -0.2722  0.3965 -0.1619
 2954SOL    HW120321   3.931   0.328   1.475  1.5113 -0.4072  0.7511
 2954SOL    HW220322   3.851   0.360   1.598  1.9167  1.1191 -0.0425
 2955SOL     OW20323   1.946   1.710   1.106 -0.2959  0.0357  0.3272
 2955SOL    HW120324   1.929   1.775   1.174 -2.1387  0.2255 -0.3003
 2955SOL    HW220325   1.943   1.769   1.030  0.8728 -2.2190 -1.4535
 2956SOL     OW20326   4.504   1.938  10.667  0.3682  0.1000  0.1543
 2956SOL    HW120327   4.429   1.886  10.639  0.9815  0.4876 -2.1958
 2956SOL    HW220328   4.535   1.951  10.578 -2.0072  2.3399 -0.3478
 2957SOL     OW20329   4.566   4.476  13.373  0.8366  0.1822  0.2184
 2957SOL    HW120330   4.509   4.485  13.297  1.8095 -1.7888 -0.7460
 2957SOL    HW220331   4.524   4.400  13.412  0.7161  0.8623  1.4340
 2958SOL     OW20332   1.498   3.964  13.855  0.0285  0.4946  0.2291
 2958SOL    HW120333   1.448   3.890  13.889 -0.6183 -0.4608 -2.8209
 2958SOL    HW220334   1.471   4.021  13.927  0.5092  0.7584  0.1991
 2959SOL     OW20335   3.596   1.559  11.431  0.0727  0.0235 -0.5041
 2959SOL    HW120336   3.561   1.649  11.427  3.3798  1.3949  1.0556
 2959SOL    HW220337   3.615   1.540  11.523  0.4576  0.0741 -0.5733
 2960SOL     OW20338   3.137   0.729   4.848 -0.3311  0.2766  0.5242
 2960SOL    HW120339   3.145   0.802   4.909  0.9643  0.5081  0.0693
 2960SOL    HW220340   3.098   0.761   4.766  0.0426  2.2989  1.1403
 2961SOL     OW20341   0.171   0.055   4.376 -0.2436  0.7147 -0.1863
 2961SOL    HW120342   0.218   4.715   4.319  2.7925  0.4210  2.6303
 2961SOL    HW220343   0.207   0.137   4.341 -1.7762  2.7881  3.1545
 2962SOL     OW20344   2.444   3.098   7.203  0.9755  0.1525  0.1615
 2962SOL    HW120345   2.423   3.185   7.168 -0.0447  0.2446  0.9804
 2962SOL    HW220346   2.388   3.107   7.280 -0.8467 -2.3261 -0.8722
 2963SOL     OW20347   0.898   3.210   3.651 -0.2312  0.1022 -0.5437
 2963SOL    HW120348   0.820   3.265   3.646 -0.6784 -0.3808  1.0611
 2963SOL    HW220349   0.969   3.270   3.629 -0.9863  0.3939 -2.1657
 2964SOL     OW20350   2.969   3.615  16.518  0.4924 -0.1780  0.0368
 2964SOL    HW120351   2.941   3.665  16.595 -1.1225 -0.1203 -0.6032
 2964SOL    HW220352   2.908   3.542  16.519  0.3758 -0.0914 -0.5636
 2965SOL     OW20353   1.630   3.911   6.946  0.2659 -0.2338 -0.1967
 2965SOL    HW120354   1.632   3.832   6.891  1.0142 -1.1326  1.1268
 2965SOL    HW220355   1.707   3.957   6.913 -0.4697  0.9183 -0.3063
 2966SOL     OW20356   3.613   4.242   2.451  0.2170  0.1986 -0.1071
 2966SOL    HW120357   3.663   4.164   2.477  1.0985  0.1194 -2.0964
 2966SOL    HW220358   3.679   4.300   2.415  0.4664 -0.4606 -0.7132
 2967SOL     OW20359   3.848   4.704  15.423  0.6117  0.5536  0.8561
 2967SOL    HW120360   3.786   4.639  15.456 -0.6914  1.9857  1.2239
 2967SOL    HW220361   3.859   0.030  15.506 -0.7841  1.2784  0.6209
 2968SOL     OW20362   1.433   0.972   1.452  0.5098 -0.2213 -0.1455
 2968SOL    HW120363   1.492   0.996   1.523 -0.7141  0.6944  0.5534
 2968SOL    HW220364   1.351   0.956   1.498  0.2720 -0.2128 -0.5670
 2969SOL     OW20365   1.701   2.384   4.582  0.0050 -0.1308 -0.4374
 2969SOL    HW120366   1.745   2.299   4.573  1.0840  0.0293  3.3510
 2969SOL    HW220367   1.735   2.402   4.669 -1.9023  0.7397  0.1376
 2970SOL     OW20368   1.048   1.301   3.779 -0.0744 -0.6091 -0.7258
 2970SOL    HW120369   1.098   1.296   3.698 -0.4601  0.8895 -1.0628
 2970SOL    HW220370   0.960   1.290   3.743  0.1117  0.3881 -1.4868
 2971SOL     OW20371   4.097   0.731   2.297 -0.3677  0.6144 -0.0140
 2971SOL    HW120372   4.162   0.663   2.282 -0.6475  0.5094 -0.7472
 2971SOL    HW220373   4.126   0.769   2.380 -0.6113 -1.0705  0.8327
 2972SOL     OW20374   0.372   2.765   3.308 -0.1640  0.0162 -0.7871
 2972SOL    HW120375   0.323   2.683   3.313  1.4612 -0.8488  1.0121
 2972SOL    HW220376   0.459   2.730   3.326 -0.5623 -0.7388 -0.3230
 2973SOL     OW20377   0.493   0.726   8.161 -0.2397  0.8262  0.3322
 2973SOL    HW120378   0.514   0.645   8.208 -1.0715 -0.9231 -2.3228
 2973SOL    HW220379   0.409   0.705   8.121 -0.7730  2.4808  0.5977
 2974SOL     OW20380   1.535   4.689  17.629 -0.2585  0.2017  0.5227
 2974SOL    HW120381   1.512   0.012   0.022  0.6632  1.1842  0.2413
 2974SOL    HW220382   1.455   4.640  17.611  0.9016 -1.7685  0.6793
 2975SOL     OW20383   4.710   1.948   1.153  0.4672 -0.9567  0.1578
 2975SOL    HW120384   4.670   2.028   1.188  0.7060 -0.6676 -0.2276
 2975SOL    HW220385   0.074   1.984   1.129  0.3567 -1.2342 -0.6509
 2976SOL     OW20386   1.236   3.897   8.758  0.0133 -0.6962 -0.2099
 2976SOL    HW120387   1.296   3.932   8.824 -0.0420 -0.9524 -0.0243
 2976SOL    HW220388   1.149   3.908   8.798  0.3774  0.7181  0.2091
 2977SOL     OW20389   3.738   1.472   4.923 -0.0750  0.1958 -0.0053
 2977SOL    HW120390   3.704   1.411   4.988  1.1131  2.0561  2.3622
 2977SOL    HW220391   3.653   1.495   4.886 -0.0547 -0.0081 -0.1817
 2978SOL     OW20392   4.613   4.575   7.069  0.4383 -0.0779 -0.1224
 2978SOL    HW120393   4.661   4.630   7.006  1.7784 -1.2517 -0.1306
 2978SOL    HW220394   4.619   4.628   7.149  0.4166 -2.9427  1.7796
 2979SOL     OW20395   0.128   1.061   4.304 -0.0268  0.2406 -0.7830
 2979SOL    HW120396   0.094   1.143   4.340  0.1224 -0.5665  1.2201
 2979SOL    HW220397   0.068   0.997   4.342  1.1179 -0.4197 -0.1201
 2980SOL     OW20398   0.171   0.048  10.706  0.4636  0.2154 -0.5207
 2980SOL    HW120399   0.109   0.076  10.639  0.1938 -0.5806 -0.6083
 2980SOL    HW220400   0.143   4.679  10.715  1.0224  0.0234 -0.7264
 2981SOL     OW20401   2.751   3.103  10.252  0.1829  0.8748  0.4870
 2981SOL    HW120402   2.764   3.135  10.341  0.1007  0.5407  0.6192
 2981SOL    HW220403   2.726   3.013  10.275 -1.5465  0.6060 -2.4441
 2982SOL     OW20404   2.749   4.044   9.509 -0.2170 -0.1234 -0.2551
 2982SOL    HW120405   2.796   4.113   9.556 -2.3299  1.4198 -0.4297
 2982SOL    HW220406   2.754   4.068   9.417 -1.0924  1.7673  0.1922
 2983SOL     OW20407   0.541   3.884   4.400  0.1122 -0.0468 -0.1088
 2983SOL    HW120408   0.549   3.815   4.466  0.4979 -0.3606 -0.4821
 2983SOL    HW220409   0.462   3.927   4.433  0.2195  0.3558 -0.3831
 2984SOL     OW20410   3.551   0.878   9.122 -0.5393 -0.1827  0.3192
 2984SOL    HW120411   3.578   0.960   9.164  0.7555 -1.5083  2.0990
 2984SOL    HW220412   3.620   0.822   9.159 -0.4347  0.4212  1.0395
 2985SOL     OW20413   3.667   0.781   0.328 -0.5347 -0.2700 -0.3401
 2985SOL    HW120414   3.597   0.770   0.392 -0.0266 -0.0209  0.2587
 2985SOL    HW220415   3.742   0.796   0.387  0.2984  1.1114 -1.7604
 2986SOL     OW20416   4.570   3.368   7.146  0.2622 -0.6306 -0.1815
 2986SOL    HW120417   4.643   3.405   7.097  0.6388 -0.3481  0.5973
 2986SOL    HW220418   4.575   3.414   7.229 -2.5135 -0.7123  0.0062
 2987SOL     OW20419   1.218   0.113   7.104 -0.3895  0.1550  0.2983
 2987SOL    HW120420   1.225   0.039   7.164  1.9878  0.2703  0.1503
 2987SOL    HW220421   1.206   0.074   7.017  1.6298  1.8979 -0.7719
 2988SOL     OW20422   2.486   0.402  14.059 -0.5753  0.4575  0.4433
 2988SOL    HW120423   2.417   0.457  14.097 -1.3128 -0.7479  0.8478
 2988SOL    HW220424   2.561   0.456  14.083 -0.2986 -0.1826  0.9985
 2989SOL     OW20425   0.316   3.455  13.974  0.1206 -0.0892  0.4609
 2989SOL    HW120426   0.372   3.412  14.039 -0.8941 -2.0111  0.0802
 2989SOL    HW220427   0.378   3.464  13.901 -0.0924 -1.4644  0.1082
 2990SOL     OW20428   1.730   1.271   1.591  0.0155 -0.4894  0.2182
 2990SOL    HW120429   1.738   1.327   1.668  0.6118 -2.0434  1.2732
 2990SOL    HW220430   1.814   1.227   1.584  0.6400  0.6811  0.3586
 2991SOL     OW20431   0.109   1.992  12.967  0.1457 -0.0548  0.9412
 2991SOL    HW120432   0.086   1.994  13.060 -0.1456 -3.1050  0.9360
 2991SOL    HW220433   0.115   2.087  12.958  1.2226 -0.2522 -0.4132
 2992SOL     OW20434   3.154   0.986   6.224  0.3827 -0.1966 -0.0528
 2992SOL    HW120435   3.220   0.920   6.247 -0.9540 -0.4633  2.9675
 2992SOL    HW220436   3.185   1.012   6.137 -0.2128 -0.2913 -0.2920
 2993SOL     OW20437   1.394   1.016   2.283  0.4245  0.3106 -0.3656
 2993SOL    HW120438   1.456   1.086   2.264 -1.2595  1.9864  0.3426
 2993SOL    HW220439   1.371   1.030   2.374  0.4933  1.1247 -0.4742
 2994SOL     OW20440   4.564   2.207   4.508  0.4472  0.1718 -0.3637
 2994SOL    HW120441   4.645   2.243   4.543 -0.5700  1.5733  0.5608
 2994SOL    HW220442   4.505   2.281   4.495 -0.1147  0.1075  1.8207
 2995SOL     OW20443   2.792   1.471   6.722 -0.5075  0.3503 -0.1396
 2995SOL    HW120444   2.867   1.433   6.677 -1.2077 -2.0041  0.6616
 2995SOL    HW220445   2.762   1.529   6.652  2.5483  0.8184 -1.0551
 2996SOL     OW20446   2.642   4.526  17.134 -0.0944 -0.4760  0.4345
 2996SOL    HW120447   2.565   4.468  17.139 -0.8379  0.4617 -0.0802
 2996SOL    HW220448   2.702   4.468  17.180 -1.0283 -0.5143  1.6035
 2997SOL     OW20449   1.909   4.220  13.995 -0.6336  0.0827  0.0609
 2997SOL    HW120450   1.992   4.262  13.975 -0.5322  0.1155  0.5593
 2997SOL    HW220451   1.904   4.238  14.089 -0.5202  0.7018 -0.0537
 2998SOL     OW20452   3.370   3.461   6.227 -0.0721  0.3402 -0.5903
 2998SOL    HW120453   3.447   3.510   6.199 -0.6050  1.4656 -0.0563
 2998SOL    HW220454   3.323   3.458   6.144  1.3927 -0.4854 -1.4074
 2999SOL     OW20455   2.521   0.383  13.560  0.4702  0.1637  0.9501
 2999SOL    HW120456   2.531   0.316  13.628 -2.4721 -0.2284  1.0268
 2999SOL    HW220457   2.449   0.349  13.506 -1.4529  3.5147  1.4261
 3000SOL     OW20458   3.159   0.218   7.910  0.1173  0.2456 -0.4279
 3000SOL    HW120459   3.123   0.200   7.998 -1.1748  2.2233 -0.5430
 3000SOL    HW220460   3.253   0.228   7.923 -0.0151  1.3452 -0.3056
 3001SOL     OW20461   0.237   4.530   6.729  0.2208  0.0647  0.4857
 3001SOL    HW120462   0.267   4.592   6.662 -0.5625 -1.0472 -0.9031
 3001SOL    HW220463   0.227   4.591   6.801 -1.0363 -0.4895  0.7873
 3002SOL     OW20464   0.620   3.786   0.989 -0.5227  0.0542  0.2173
 3002SOL    HW120465   0.544   3.749   1.033 -1.5155  0.3429 -1.2624
 3002SOL    HW220466   0.611   3.879   1.006 -1.4633 -0.1660  0.9122
 3003SOL     OW20467   2.494   4.363   3.953 -0.1653  0.2692 -0.7061
 3003SOL    HW120468   2.405   4.338   3.978 -0.4105  1.5200 -0.3632
 3003SOL    HW220469   2.546   4.347   4.032 -0.7350  1.0649 -0.1789
 3004SOL     OW20470   0.584   2.013  16.094 -0.1046  0.1322 -0.4385
 3004SOL    HW120471   0.535   2.035  16.173  0.1930  2.5529 -0.9301
 3004SOL    HW220472   0.633   1.932  16.109 -0.9846  0.1539  2.4336
 3005SOL     OW20473   4.051   4.254   4.465 -0.0435  0.0781  0.2740
 3005SOL    HW120474   3.972   4.260   4.411 -1.0598  0.3552  1.7828
 3005SOL    HW220475   4.066   4.161   4.454 -1.7478 -0.2617  0.8278
 3006SOL     OW20476   3.919   3.805   7.992  0.4002 -0.1153  0.0222
 3006SOL    HW120477   3.907   3.777   8.082  3.5207 -1.4235  0.0384
 3006SOL    HW220478   3.912   3.722   7.945  0.5532 -0.2450  0.2330
 3007SOL     OW20479   2.242   1.038   8.042 -0.3545  0.2110  0.4790
 3007SOL    HW120480   2.319   1.029   7.985 -1.7846 -1.0556 -1.2703
 3007SOL    HW220481   2.280   0.990   8.115 -1.8716 -1.1774  0.3780
 3008SOL     OW20482   3.802   3.581  15.474  0.1840 -0.1024 -0.0205
 3008SOL    HW120483   3.856   3.505  15.453  0.1544  0.2840 -1.5088
 3008SOL    HW220484   3.827   3.638  15.401  0.9569 -1.0979 -0.5339
 3009SOL     OW20485   4.540   1.015  15.516  0.3348  0.0675  0.5043
 3009SOL    HW120486   4.543   0.932  15.564 -0.2302  0.0841  0.5731
 3009SOL    HW220487   4.486   0.983  15.444 -0.5789  0.0760  1.1822
 3010SOL     OW20488   2.743   0.358   0.592 -0.1878  0.0495 -0.2524
 3010SOL    HW120489   2.668   0.314   0.553  1.0978  0.5600 -3.3289
 3010SOL    HW220490   2.717   0.391   0.677 -1.8332 -0.7162 -0.4695
 3011SOL     OW20491   1.750   3.650   3.670 -0.0675 -0.0819 -0.2267
 3011SOL    HW120492   1.765   3.557   3.652 -0.9638 -0.2616 -0.0570
 3011SOL    HW220493   1.675   3.636   3.728  0.8424  0.6285  1.1142
 3012SOL     OW20494   4.562   3.820  14.984 -0.8601 -0.3341  0.5196
 3012SOL    HW120495   4.639   3.874  15.000 -1.9827  1.5389 -0.3986
 3012SOL    HW220496   4.492   3.884  14.975 -0.3561  0.1153 -0.3265
 3013SOL     OW20497   0.681   3.756   5.230 -0.4407 -0.4400 -0.7255
 3013SOL    HW120498   0.726   3.823   5.179 -1.4955 -0.2104 -1.3677
 3013SOL    HW220499   0.720   3.759   5.318 -1.1884  1.1433 -0.4355
 3014SOL     OW20500   1.810   3.974   2.773 -0.1611 -0.4704 -0.0077
 3014SOL    HW120501   1.893   4.006   2.738  0.4504  0.0471  1.8703
 3014SOL    HW220502   1.744   4.042   2.756 -1.3176 -1.2275  1.4333
 3015SOL     OW20503   0.891   0.360   7.658  0.1683  0.2695 -0.0556
 3015SOL    HW120504   0.931   0.285   7.613  0.1668  0.1646  0.1184
 3015SOL    HW220505   0.937   0.429   7.610  0.7509 -1.9071 -2.6981
 3016SOL     OW20506   3.164   4.556  14.420 -0.1311 -0.3245  0.9514
 3016SOL    HW120507   3.189   4.474  14.376  1.5875  0.1822  0.9607
 3016SOL    HW220508   3.167   4.628  14.357  0.4239 -0.0240  1.3211
 3017SOL     OW20509   1.870   0.693   1.571 -0.0736  0.2817 -0.8207
 3017SOL    HW120510   1.909   0.765   1.521 -1.4978  1.7816  0.2451
 3017SOL    HW220511   1.784   0.729   1.589 -0.5530 -1.3468  0.1469
 3018SOL     OW20512   3.892   1.333   7.878 -0.2063  0.2599  0.3509
 3018SOL    HW120513   3.822   1.380   7.922 -1.5213 -1.3790  0.0183
 3018SOL    HW220514   3.854   1.246   7.870 -1.4542  0.5867  2.9643
 3019SOL     OW20515   2.612   2.386   5.295  0.0095 -0.1280 -0.7342
 3019SOL    HW120516   2.636   2.479   5.300 -0.3788 -0.0825  0.3118
 3019SOL    HW220517   2.692   2.342   5.325 -2.4071 -3.1727  1.2568
 3020SOL     OW20518   0.410   3.565   1.101 -0.2072 -0.2928  0.3867
 3020SOL    HW120519   0.477   3.527   1.158  2.9175  2.0854 -1.7271
 3020SOL    HW220520   0.394   3.489   1.046 -0.3847  0.0936 -0.0993
 3021SOL     OW20521   4.064   0.862  17.261  0.4587 -0.1587 -0.5485
 3021SOL    HW120522   4.123   0.894  17.193 -2.3746 -1.0743 -3.4021
 3021SOL    HW220523   4.032   0.946  17.294 -1.2605 -1.9099  2.2889
 3022SOL     OW20524   1.102   2.884  14.748 -0.3373 -0.1056 -0.4703
 3022SOL    HW120525   1.106   2.831  14.668 -1.2560  0.9392 -1.2174
 3022SOL    HW220526   1.023   2.847  14.788  1.2454 -0.4201  2.3463
 3023SOL     OW20527   2.511   3.896  14.692 -0.2286 -0.0089  0.0370
 3023SOL    HW120528   2.435   3.933  14.647  0.0496 -0.3958 -0.7421
 3023SOL    HW220529   2.551   3.851  14.617 -0.0823 -0.0622  0.1464
 3024SOL     OW20530   1.209   4.691   3.565 -0.1979  0.4390 -0.2166
 3024SOL    HW120531   1.212   4.615   3.508 -1.1470  0.1412  0.1278
 3024SOL    HW220532   1.298   4.690   3.599 -1.0907  0.0294  2.1607
 3025SOL     OW20533   0.934   2.908   1.804 -0.2045  0.5219  0.1557
 3025SOL    HW120534   0.981   2.885   1.724 -0.7317  2.6211 -0.7612
 3025SOL    HW220535   0.855   2.866   1.772  0.6725 -0.8709 -0.1819
 3026SOL     OW20536   2.100   0.388   1.908  0.5557 -0.9087 -0.0690
 3026SOL    HW120537   2.046   0.445   1.853  0.8957  1.9585  2.5814
 3026SOL    HW220538   2.179   0.438   1.892 -0.1955  0.1275 -0.5097
 3027SOL     OW20539   1.509   1.341   2.348  0.0415  0.1897  0.3490
 3027SOL    HW120540   1.592   1.294   2.354  0.0665 -0.1133 -2.2961
 3027SOL    HW220541   1.484   1.358   2.439  0.3260 -1.5274  0.7410
 3028SOL     OW20542   0.451   0.350   5.033 -0.0528 -0.0302 -0.8901
 3028SOL    HW120543   0.509   0.422   5.057 -0.0979 -0.6497  1.0633
 3028SOL    HW220544   0.365   0.384   5.057 -0.4220 -1.2058 -0.5595
 3029SOL     OW20545   0.887   3.347   7.551 -0.9074  0.3490 -0.4210
 3029SOL    HW120546   0.828   3.274   7.531 -3.5895  1.6043  2.9876
 3029SOL    HW220547   0.964   3.294   7.575 -0.4046  1.3375  0.1227
 3030SOL     OW20548   1.893   0.207  13.113 -0.0713 -0.0769  0.0508
 3030SOL    HW120549   1.898   0.221  13.018  0.8899 -2.5191 -0.2415
 3030SOL    HW220550   1.954   0.137  13.135  1.7043  0.6604 -2.4915
 3031SOL     OW20551   1.522   0.531   7.324 -0.1089  0.5313 -0.2690
 3031SOL    HW120552   1.504   0.558   7.234 -0.6191  0.7382 -0.1050
 3031SOL    HW220553   1.601   0.480   7.308  0.9565  1.5849  1.5275
 3032SOL     OW20554   0.209   0.536   7.729 -0.3139  0.5196  0.0915
 3032SOL    HW120555   0.268   0.575   7.664  0.9250 -0.0615  0.8676
 3032SOL    HW220556   0.146   0.485   7.678  0.4177  0.8701 -1.1804
 3033SOL     OW20557   1.027   0.446   6.145 -0.6741  0.2575  0.1770
 3033SOL    HW120558   0.995   0.537   6.145  1.5686  1.0425  3.4564
 3033SOL    HW220559   0.966   0.413   6.212  0.6691 -1.0673  0.7389
 3034SOL     OW20560   2.617   1.204   6.493  0.3715 -0.0230  0.3498
 3034SOL    HW120561   2.552   1.141   6.461  0.9683  0.3168 -1.5412
 3034SOL    HW220562   2.664   1.217   6.410  0.9340 -2.5593  0.2838
 3035SOL     OW20563   4.357   1.765   3.945  0.3403 -0.4423 -0.9820
 3035SOL    HW120564   4.425   1.812   3.897 -1.5573  2.0657 -1.1790
 3035SOL    HW220565   4.388   1.779   4.034 -1.0992  0.8751 -0.6830
 3036SOL     OW20566   3.772   0.875  17.253  0.0315 -0.1110 -0.1286
 3036SOL    HW120567   3.701   0.917  17.204 -1.1813 -0.2962  1.4588
 3036SOL    HW220568   3.837   0.945  17.246  2.0911 -1.8292  1.7105
 3037SOL     OW20569   3.383   4.022   2.262 -0.0544  0.1571  0.1182
 3037SOL    HW120570   3.353   4.101   2.217  2.5374  0.5350 -0.9427
 3037SOL    HW220571   3.464   3.996   2.219 -1.1256 -2.3990 -0.3638
 3038SOL     OW20572   2.504   0.510   7.710 -0.2839  0.3485 -0.7734
 3038SOL    HW120573   2.455   0.428   7.721  0.2695 -0.1411 -1.9040
 3038SOL    HW220574   2.437   0.577   7.705 -0.9756 -0.4590 -2.2078
 3039SOL     OW20575   2.662   3.700  10.648 -0.4093 -0.5714 -0.4558
 3039SOL    HW120576   2.741   3.650  10.665 -1.0752 -1.7920 -0.8908
 3039SOL    HW220577   2.595   3.632  10.662 -0.1391 -0.6530  0.3778
 3040SOL     OW20578   3.495   2.749   4.371 -0.2484 -0.1115 -0.0562
 3040SOL    HW120579   3.520   2.774   4.460 -2.2276 -0.5439  0.6279
 3040SOL    HW220580   3.579   2.758   4.326 -0.5238  0.4908 -0.4588
 3041SOL     OW20581   3.830   0.274   7.747 -0.3594  0.3314  0.6822
 3041SOL    HW120582   3.754   0.294   7.693 -1.9608  0.4249  2.9743
 3041SOL    HW220583   3.806   0.199   7.801  0.5960  0.9539  1.9639
 3042SOL     OW20584   4.016   0.758   1.162  0.0601 -0.0878  0.0075
 3042SOL    HW120585   3.954   0.829   1.181  1.3600  0.9170  0.5207
 3042SOL    HW220586   3.974   0.686   1.210 -1.5768  0.6662 -0.2763
 3043SOL     OW20587   1.354   3.025   0.229  0.1708 -0.9355  0.1080
 3043SOL    HW120588   1.374   2.939   0.193  4.3178 -0.8649  2.1601
 3043SOL    HW220589   1.438   3.043   0.273 -0.2938  1.3257  0.0881
 3044SOL     OW20590   0.536   3.201   7.633 -0.2102 -0.2201  0.3127
 3044SOL    HW120591   0.554   3.183   7.726  1.4101 -2.1282 -0.3690
 3044SOL    HW220592   0.588   3.280   7.623 -0.5446  0.1882  1.7696
 3045SOL     OW20593   3.615   2.437  11.338 -0.0873 -0.1016 -0.2975
 3045SOL    HW120594   3.637   2.528  11.360 -1.2812 -0.1475  1.1327
 3045SOL    HW220595   3.677   2.417  11.269  1.1481 -4.3405  2.0479
 3046SOL     OW20596   0.158   4.415   0.753  0.0042  0.0027  0.2832
 3046SOL    HW120597   0.240   4.414   0.703 -0.3366  2.3712 -0.3073
 3046SOL    HW220598   0.095   4.459   0.696 -0.6830 -1.6849 -0.2492
 3047SOL     OW20599   1.653   4.607   3.236  0.0377  0.0747 -0.5542
 3047SOL    HW120600   1.622   4.657   3.312 -1.4576 -4.4495  1.8231
 3047SOL    HW220601   1.746   4.624   3.248  0.5659 -2.1489 -1.5340
 3048SOL     OW20602   1.742   2.256  10.466 -0.1784 -0.2293  0.3844
 3048SOL    HW120603   1.721   2.165  10.484  0.0447 -0.6331 -1.4235
 3048SOL    HW220604   1.694   2.273  10.385 -0.5437 -0.7723  0.4885
 3049SOL     OW20605   2.575   1.094   4.525  0.3878  0.3930 -0.4063
 3049SOL    HW120606   2.616   1.025   4.474 -2.0637 -3.4273  2.8427
 3049SOL    HW220607   2.482   1.087   4.502  0.4213 -1.8858  0.1743
 3050SOL     OW20608   1.031   1.690   2.522 -0.1712  0.4602 -0.4257
 3050SOL    HW120609   1.077   1.606   2.521 -2.3879 -0.7771  1.0303
 3050SOL    HW220610   1.102   1.750   2.543  0.4432 -0.7987  1.1584
 3051SOL     OW20611   2.943   1.111   2.803 -0.4414  0.6280 -0.4215
 3051SOL    HW120612   2.898   1.141   2.725  1.5936  1.7500 -1.1371
 3051SOL    HW220613   3.031   1.090   2.773 -0.6513  0.5614 -0.9851
 3052SOL     OW20614   1.330   1.993  16.349  0.6877 -0.4913  0.4963
 3052SOL    HW120615   1.251   2.033  16.384  2.0799  0.6743  2.3198
 3052SOL    HW220616   1.309   1.900  16.350 -0.4229 -0.2398  0.9670
 3053SOL     OW20617   3.770   3.992   6.849 -0.0094 -0.1938  0.2065
 3053SOL    HW120618   3.778   3.928   6.778 -0.4886  2.1970 -2.0034
 3053SOL    HW220619   3.694   3.962   6.899 -0.0461  0.7496  0.7151
 3054SOL     OW20620   3.046   3.904   0.926 -0.0533 -0.1174 -0.5269
 3054SOL    HW120621   2.968   3.947   0.892  1.9017  1.7707 -2.6160
 3054SOL    HW220622   3.058   3.925   1.018 -1.9598  1.2349 -0.5935
 3055SOL     OW20623   0.916   0.616   3.140 -0.7313  0.3279  0.2816
 3055SOL    HW120624   0.939   0.574   3.223 -2.1854  2.9412  2.0001
 3055SOL    HW220625   0.846   0.560   3.105  0.2211  0.0964 -1.2773
 3056SOL     OW20626   0.369   1.141   5.344 -0.4727 -0.0945 -0.0512
 3056SOL    HW120627   0.350   1.067   5.287 -2.3868 -1.8137  2.8074
 3056SOL    HW220628   0.430   1.095   5.401  0.1627  1.2098  0.3363
 3057SOL     OW20629   3.230   3.095   1.816 -0.2753  0.1869 -0.2626
 3057SOL    HW120630   3.273   3.166   1.768  0.9055  0.3064  0.9949
 3057SOL    HW220631   3.139   3.125   1.804 -0.3380  0.1619  0.1608
 3058SOL     OW20632   1.190   3.960   7.005  0.0396 -0.0277  0.1225
 3058SOL    HW120633   1.127   4.007   7.059 -2.5345 -1.2047 -1.8775
 3058SOL    HW220634   1.130   3.904   6.955 -1.4255  1.1079  0.6244
 3059SOL     OW20635   3.504   2.846   0.724 -0.2209 -0.5947 -0.0238
 3059SOL    HW120636   3.478   2.755   0.735 -1.9196  0.2272  2.6545
 3059SOL    HW220637   3.594   2.836   0.692 -1.3363  0.0958 -3.3599
 3060SOL     OW20638   0.109   3.494   7.775 -0.3154 -0.1236 -0.0259
 3060SOL    HW120639   0.081   3.575   7.734  0.3782 -0.0194 -0.3035
 3060SOL    HW220640   0.196   3.489   7.733 -0.3187 -1.9742  0.1867
 3061SOL     OW20641   2.167   1.099  10.552  0.6066  0.4897  0.8085
 3061SOL    HW120642   2.215   1.101  10.634  2.8529  0.1823 -0.5116
 3061SOL    HW220643   2.106   1.031  10.579 -0.3211  1.5016  1.2845
 3062SOL     OW20644   3.871   0.388  13.465 -0.0421  0.3238  0.1424
 3062SOL    HW120645   3.779   0.367  13.446 -0.6349 -0.2402  3.6270
 3062SOL    HW220646   3.894   0.296  13.479  1.0391  0.7499  1.0828
 3063SOL     OW20647   1.771   0.312   4.540  0.4424  0.0159  0.1646
 3063SOL    HW120648   1.776   0.362   4.458 -3.4610 -1.2243 -0.8353
 3063SOL    HW220649   1.742   0.226   4.509 -0.3789 -0.1885  1.4719
 3064SOL     OW20650   0.248   2.003   0.842 -0.1438  0.2334 -0.2105
 3064SOL    HW120651   0.186   2.074   0.825  0.9075  1.1232 -0.3349
 3064SOL    HW220652   0.328   2.052   0.861 -0.0343 -1.1343  2.9366
 3065SOL     OW20653   3.295   3.230   7.115  0.4532 -0.2253  0.7377
 3065SOL    HW120654   3.387   3.249   7.133  0.1687  1.7723  0.0498
 3065SOL    HW220655   3.242   3.255   7.190 -1.7854 -0.4235 -0.7552
 3066SOL     OW20656   4.644   4.164  10.453 -0.3724 -0.0546  0.2598
 3066SOL    HW120657   4.682   4.078  10.438 -0.5690  0.3425 -2.5788
 3066SOL    HW220658   4.611   4.173  10.363 -1.2505 -0.7174  0.5174
 3067SOL     OW20659   2.499   1.803   7.424 -0.2349 -0.1439 -0.1293
 3067SOL    HW120660   2.406   1.785   7.436 -0.3024 -1.1781 -2.1303
 3067SOL    HW220661   2.530   1.713   7.411  0.2122  0.1607 -1.2109
 3068SOL     OW20662   4.226   1.729  12.772 -0.1726 -0.2437 -1.0081
 3068SOL    HW120663   4.311   1.687  12.783 -0.4373 -0.2199  1.2268
 3068SOL    HW220664   4.208   1.714  12.679 -0.5925 -0.1184 -0.9491
 3069SOL     OW20665   2.881   3.705   2.612  0.5411  0.4144  0.2194
 3069SOL    HW120666   2.960   3.757   2.621 -0.1331  1.2217  1.5871
 3069SOL    HW220667   2.870   3.666   2.699 -2.6390  0.8410  0.0221
 3070SOL     OW20668   2.611   1.881   6.303 -0.5357  0.1269 -0.5737
 3070SOL    HW120669   2.570   1.861   6.387  1.7860 -3.2293 -0.2446
 3070SOL    HW220670   2.548   1.916   6.240 -0.9629  0.5307  0.0789
 3071SOL     OW20671   2.539   1.245   7.063 -0.1053 -0.2692 -0.1758
 3071SOL    HW120672   2.565   1.154   7.074  0.6029 -0.3542 -2.5398
 3071SOL    HW220673   2.533   1.246   6.967 -0.2887 -2.7169 -0.1725
 3072SOL     OW20674   0.174   2.588   3.680  0.2656  0.1185  0.3322
 3072SOL    HW120675   0.119   2.653   3.725  0.9812 -0.2324  1.7086
 3072SOL    HW220676   0.132   2.508   3.712 -1.0772  0.8220  0.3446
 3073SOL     OW20677   0.952   0.120  15.765 -0.3963  0.2168 -0.1862
 3073SOL    HW120678   0.862   0.122  15.731 -0.1018  0.6344 -0.9238
 3073SOL    HW220679   0.959   0.028  15.789  0.2921  0.9758  2.5038
 3074SOL     OW20680   0.153   2.763  14.264  0.0721  0.1599 -0.2960
 3074SOL    HW120681   0.061   2.764  14.238 -0.3014 -1.0929  0.9565
 3074SOL    HW220682   0.202   2.785  14.185  2.3510  1.5385  1.5169
 3075SOL     OW20683   1.080   2.178  15.382  0.2404 -0.1274 -0.1065
 3075SOL    HW120684   1.077   2.232  15.461  2.1309  0.8973 -0.7211
 3075SOL    HW220685   1.007   2.121  15.405  0.7073 -1.0166 -0.8475
 3076SOL     OW20686   3.393   4.611   4.120 -0.2215 -0.3304  0.1289
 3076SOL    HW120687   3.298   4.620   4.120 -0.0814  1.0436 -0.9985
 3076SOL    HW220688   3.404   4.547   4.050  0.2045 -0.1808  0.0629
 3077SOL     OW20689   1.534   2.626   4.746 -0.5022 -0.3633  0.2781
 3077SOL    HW120690   1.529   2.537   4.782  0.8291 -1.0680 -1.2655
 3077SOL    HW220691   1.619   2.654   4.781 -0.7404 -1.3508  1.6594
 3078SOL     OW20692   4.486   0.356   7.907 -0.1757 -0.4268  0.1543
 3078SOL    HW120693   4.438   0.436   7.931  0.8542 -0.0559  0.9648
 3078SOL    HW220694   4.423   0.290   7.879 -0.3607 -0.0810 -0.2467
 3079SOL     OW20695   3.508   1.288   6.285  0.4544 -0.0391  0.1338
 3079SOL    HW120696   3.473   1.206   6.320 -0.6601 -0.0717 -1.0572
 3079SOL    HW220697   3.435   1.345   6.313  0.7880 -0.5251  2.0207
 3080SOL     OW20698   1.334   4.523   3.383 -0.0146 -0.3088  0.1682
 3080SOL    HW120699   1.331   4.569   3.299 -0.3770  0.9421  0.8839
 3080SOL    HW220700   1.381   4.444   3.355 -1.3108 -1.1256  0.2776
 3081SOL     OW20701   4.679   4.300   9.392  0.6815 -0.6777 -0.1854
 3081SOL    HW120702   0.039   4.268   9.354  0.1246 -4.7764  2.0621
 3081SOL    HW220703   4.715   4.380   9.430  0.9201 -0.7648 -0.2289
 3082SOL     OW20704   2.273   1.352   8.818 -0.1182 -0.6994 -0.0988
 3082SOL    HW120705   2.194   1.391   8.782 -0.7460 -1.3975  0.5097
 3082SOL    HW220706   2.231   1.288   8.876  1.7504 -2.4261 -0.6293
 3083SOL     OW20707   4.362   0.576  14.421 -0.6750 -0.1050 -0.4629
 3083SOL    HW120708   4.318   0.498  14.455 -1.3919  0.5211  0.0424
 3083SOL    HW220709   4.319   0.647  14.469 -0.9458 -0.1740 -0.6059
 3084SOL     OW20710   1.654   0.088   4.373 -0.1165 -0.0621  0.0157
 3084SOL    HW120711   1.625   0.051   4.457  0.2110 -0.3840 -0.0143
 3084SOL    HW220712   1.577   0.142   4.357  1.0047  1.5371 -0.0098
 3085SOL     OW20713   1.992   0.391  14.021 -0.0213  0.1536  0.4576
 3085SOL    HW120714   1.916   0.334  14.008 -0.3763  0.8123 -0.3649
 3085SOL    HW220715   2.048   0.375  13.945  0.9334 -1.6943  1.5408
 3086SOL     OW20716   0.654   3.406   6.176 -0.1513  0.0844  0.1391
 3086SOL    HW120717   0.609   3.488   6.190 -2.3562 -0.8020 -1.8057
 3086SOL    HW220718   0.659   3.386   6.083  0.6113 -3.2712  0.8823
 3087SOL     OW20719   4.085   0.831  11.468  0.2973 -1.0174 -0.1090
 3087SOL    HW120720   4.154   0.798  11.411  0.8069 -0.8860  0.4252
 3087SOL    HW220721   4.008   0.792  11.428  0.1533 -1.3581  0.4983
 3088SOL     OW20722   2.239   1.379  12.507 -0.3986 -0.3651 -0.2624
 3088SOL    HW120723   2.229   1.470  12.536  0.8299 -1.0962  2.4202
 3088SOL    HW220724   2.244   1.330  12.589  1.8932 -0.2033 -0.2957
 3089SOL     OW20725   2.466   0.863   1.923  0.0803 -0.8643  0.0373
 3089SOL    HW120726   2.455   0.856   1.828 -0.1174  1.8321 -0.1319
 3089SOL    HW220727   2.476   0.771   1.947  0.2902 -0.6976  0.5777
 3090SOL     OW20728   1.074   0.301   2.579 -0.2406  0.1701 -0.6377
 3090SOL    HW120729   1.020   0.303   2.501 -0.9213  1.9674 -0.1254
 3090SOL    HW220730   1.027   0.255   2.648 -1.0994  0.0350 -1.3269
 3091SOL     OW20731   2.989   4.047   8.903 -0.2493  0.0858 -0.2428
 3091SOL    HW120732   2.972   3.981   8.970 -1.6372 -0.7157 -1.3933
 3091SOL    HW220733   3.073   4.090   8.918 -0.4155  0.1411  0.5339
 3092SOL     OW20734   1.863   1.497  15.242  0.3252 -0.2405  0.3759
 3092SOL    HW120735   1.806   1.551  15.186  2.6952 -1.5238 -3.2705
 3092SOL    HW220736   1.941   1.479  15.189  0.5261  0.2679  0.5022
 3093SOL     OW20737   2.256   3.761  13.062 -0.1273 -0.1913 -0.1599
 3093SOL    HW120738   2.261   3.846  13.105  3.9559 -1.9204  2.7194
 3093SOL    HW220739   2.277   3.773  12.970 -2.9004  0.1229 -0.7748
 3094SOL     OW20740   2.790   2.869   1.389 -0.0940 -0.2046 -0.0523
 3094SOL    HW120741   2.857   2.935   1.407 -0.8003  0.5775 -0.2632
 3094SOL    HW220742   2.830   2.791   1.427 -0.3859  0.5692  1.9053
 3095SOL     OW20743   0.424   2.307   6.334 -0.6419 -0.0091 -0.2463
 3095SOL    HW120744   0.375   2.339   6.409  0.8088  1.5310  0.0461
 3095SOL    HW220745   0.422   2.212   6.350  0.8331  0.1896  1.0748
 3096SOL     OW20746   3.708   1.144   1.645  0.3244  0.9091  0.1846
 3096SOL    HW120747   3.715   1.135   1.740 -0.4251 -1.1856  0.0409
 3096SOL    HW220748   3.638   1.207   1.632 -1.0249 -0.4591  0.8173
 3097SOL     OW20749   0.411   1.189  13.221 -0.8828  0.0320  0.3452
 3097SOL    HW120750   0.362   1.113  13.251  0.2622 -0.5055  0.8538
 3097SOL    HW220751   0.340   1.253  13.213 -1.3726 -0.6694 -0.9103
 3098SOL     OW20752   2.900   0.739   8.275  0.8532 -0.0729  0.1515
 3098SOL    HW120753   2.887   0.819   8.224 -0.0069 -0.0934  0.3301
 3098SOL    HW220754   2.974   0.762   8.331  1.4298 -0.8048 -0.3144
 3099SOL     OW20755   3.001   0.475  12.278 -0.1064  0.3478  0.5198
 3099SOL    HW120756   3.070   0.529  12.315 -0.0657 -1.0668  2.5259
 3099SOL    HW220757   3.033   0.457  12.190  2.4474 -0.1376  1.5607
 3100SOL     OW20758   0.113   3.972   6.999  0.1063 -0.0574  0.2498
 3100SOL    HW120759   0.156   4.050   6.963  1.1301 -1.2954 -1.2487
 3100SOL    HW220760   0.179   3.908   6.972  0.3426  1.0576 -1.8936
 3101SOL     OW20761   4.340   3.289   9.773  0.3692 -0.5870 -0.5283
 3101SOL    HW120762   4.420   3.263   9.726  0.0111 -0.8817 -0.9824
 3101SOL    HW220763   4.334   3.215   9.833  0.2437 -1.1516 -1.2325
 3102SOL     OW20764   2.259   2.826   8.605  0.0727 -0.0370  0.0496
 3102SOL    HW120765   2.241   2.889   8.535  0.1467  1.2758  1.2159
 3102SOL    HW220766   2.172   2.785   8.603  0.8025 -1.5891  0.4772
 3103SOL     OW20767   3.166   2.569   2.258  0.1857  0.4130 -0.2524
 3103SOL    HW120768   3.128   2.482   2.245 -0.5436  0.7787 -0.5729
 3103SOL    HW220769   3.134   2.611   2.338 -1.2831 -1.1719 -0.0059
 3104SOL     OW20770   3.805   3.502  16.257 -0.3491  0.0373  0.2716
 3104SOL    HW120771   3.860   3.471  16.328  1.5306 -0.1029 -1.2344
 3104SOL    HW220772   3.794   3.422  16.205 -0.6427 -0.0158  0.4143
 3105SOL     OW20773   0.125   2.369   0.621  0.5495  0.0040  0.2916
 3105SOL    HW120774   0.204   2.414   0.592  0.8015 -0.0777  0.8644
 3105SOL    HW220775   0.110   2.323   0.538  2.7586  0.1767 -0.1873
 3106SOL     OW20776   4.171   1.568  14.822 -0.1355  0.2075 -0.4011
 3106SOL    HW120777   4.094   1.522  14.789 -1.0817  0.3234  1.5898
 3106SOL    HW220778   4.188   1.528  14.908  0.7660  1.8601  0.1785
 3107SOL     OW20779   1.735   2.674   1.038  0.0945 -0.4727  0.0918
 3107SOL    HW120780   1.654   2.632   1.007 -1.8961  4.5275 -1.5725
 3107SOL    HW220781   1.765   2.725   0.962  0.8523 -1.4740 -0.2813
 3108SOL     OW20782   0.206   2.708  12.622  0.1249  0.0575 -0.0815
 3108SOL    HW120783   0.157   2.646  12.568  0.1431 -0.8458  0.9348
 3108SOL    HW220784   0.285   2.721  12.570  0.0679  2.8294  0.5458
 3109SOL     OW20785   1.381   3.436   9.967  0.4222 -0.3878  0.0051
 3109SOL    HW120786   1.467   3.466   9.938  0.2158 -1.5098 -1.7599
 3109SOL    HW220787   1.330   3.517   9.962 -0.5407 -0.8379  2.7501
 3110SOL     OW20788   0.640   0.127  14.767  0.2007  0.1388  0.4078
 3110SOL    HW120789   0.568   0.161  14.821 -0.8212  0.1403 -0.9627
 3110SOL    HW220790   0.703   0.199  14.764 -0.6992  0.8197 -1.9629
 3111SOL     OW20791   3.627   4.469   6.263  0.6077  0.3293  0.2141
 3111SOL    HW120792   3.622   4.537   6.330 -2.0555  0.3789 -0.0380
 3111SOL    HW220793   3.714   4.434   6.280 -0.4391 -1.5810  1.6574
 3112SOL     OW20794   1.757   2.083  12.928 -0.1703 -0.0636  0.8045
 3112SOL    HW120795   1.717   2.169  12.935 -2.1519 -0.8124 -1.4361
 3112SOL    HW220796   1.751   2.043  13.015  0.3890 -0.4723  0.6538
 3113SOL     OW20797   0.137   4.589   5.815  0.2606 -0.4076  0.0538
 3113SOL    HW120798   0.058   4.545   5.846  1.0404 -1.8012  0.0573
 3113SOL    HW220799   0.138   4.570   5.721  0.7651 -1.1120  0.1981
 3114SOL     OW20800   2.249   0.064   5.121  1.0920  0.1481 -0.2511
 3114SOL    HW120801   2.288   0.151   5.125 -1.0283  0.9700  2.5341
 3114SOL    HW220802   2.315   0.010   5.077  0.0711 -1.0282 -0.3250
 3115SOL     OW20803   0.910   2.434  17.119 -0.7455 -0.1027 -0.2286
 3115SOL    HW120804   0.953   2.462  17.038 -2.2133 -1.1440 -1.3793
 3115SOL    HW220805   0.926   2.506  17.179 -1.9943  0.8780 -1.0867
 3116SOL     OW20806   4.602   3.780   4.569 -0.0449 -0.1487  0.3701
 3116SOL    HW120807   4.581   3.692   4.602 -1.1188  0.1492  0.4642
 3116SOL    HW220808   4.586   3.779   4.475  0.5528  0.1484  0.2649
 3117SOL     OW20809   0.885   1.608  13.096 -0.3206 -0.6100  0.6602
 3117SOL    HW120810   0.972   1.617  13.135 -0.0739 -1.5561  0.3327
 3117SOL    HW220811   0.830   1.659  13.155  0.0301  0.5977 -0.0568
 3118SOL     OW20812   0.908   2.269  11.026  0.0473  0.1674 -0.0311
 3118SOL    HW120813   0.830   2.247  10.974  0.6079 -0.7923 -0.4646
 3118SOL    HW220814   0.898   2.364  11.034 -0.9514  0.0634  0.0057
 3119SOL     OW20815   0.660   2.179   7.499 -0.0781  0.1978  0.2045
 3119SOL    HW120816   0.634   2.208   7.586 -0.3914  1.5830 -0.3503
 3119SOL    HW220817   0.617   2.241   7.440  0.3854 -0.0425 -0.3940
 3120SOL     OW20818   3.176   0.358   5.737 -0.7090  0.3925  0.0110
 3120SOL    HW120819   3.122   0.437   5.726 -0.9427 -0.1968 -2.9699
 3120SOL    HW220820   3.174   0.351   5.833 -0.5660 -2.0986 -0.1778
 3121SOL     OW20821   3.948   1.392   7.338  0.0716  0.1825 -0.6763
 3121SOL    HW120822   3.941   1.357   7.427  1.7440  1.3168 -0.0949
 3121SOL    HW220823   3.893   1.327   7.294 -2.8469  2.6190 -0.6435
 3122SOL     OW20824   1.775   2.561   4.355  0.0927  0.3815  0.3839
 3122SOL    HW120825   1.759   2.516   4.438 -2.4613 -0.2681 -0.4439
 3122SOL    HW220826   1.685   2.590   4.339  0.2394 -0.2848 -1.6666
 3123SOL     OW20827   3.222   0.349   7.631  0.7623  0.2119  0.0896
 3123SOL    HW120828   3.207   0.443   7.643 -2.2616 -0.4781  1.8330
 3123SOL    HW220829   3.197   0.325   7.720  0.0825  3.2229  0.7198
 3124SOL     OW20830   4.053   0.091   2.339  0.3368 -0.3270  0.2295
 3124SOL    HW120831   4.084   0.176   2.306  2.8489 -1.9231 -1.5147
 3124SOL    HW220832   4.101   0.024   2.291 -0.7375 -0.1662 -1.0578
 3125SOL     OW20833   1.315   3.222   9.852 -0.0673  0.6969  0.3483
 3125SOL    HW120834   1.360   3.288   9.904  1.4779  0.0526 -0.1778
 3125SOL    HW220835   1.234   3.270   9.834 -0.3719 -0.7984 -2.2172
 3126SOL     OW20836   0.199   3.939   7.823 -0.0286  0.0711  0.4555
 3126SOL    HW120837   0.221   3.936   7.916  0.0518  0.9676  0.4621
 3126SOL    HW220838   0.106   3.921   7.836 -0.0890 -0.1698 -0.3028
 3127SOL     OW20839   0.467   0.567  12.596 -0.1908  0.1187  0.1574
 3127SOL    HW120840   0.528   0.498  12.572 -0.2637  0.8958 -2.3499
 3127SOL    HW220841   0.477   0.613  12.512  2.7043 -0.4778  0.1923
 3128SOL     OW20842   2.164   0.047   8.653  0.0587 -0.0860 -0.3462
 3128SOL    HW120843   2.096   0.005   8.600 -1.0669  2.1438 -0.6762
 3128SOL    HW220844   2.169   4.706   8.725 -1.7556 -0.4206 -0.5049
 3129SOL     OW20845   3.566   4.663   2.025  0.3115  0.0982 -0.8488
 3129SOL    HW120846   3.606   4.702   1.948  1.2258 -0.9067 -0.8970
 3129SOL    HW220847   3.476   4.641   2.000  0.2341  1.1781 -1.4868
 3130SOL     OW20848   1.717   3.623   5.786 -0.4917  0.1515  0.1626
 3130SOL    HW120849   1.632   3.666   5.801 -0.0996  1.1807 -0.5562
 3130SOL    HW220850   1.736   3.573   5.865 -3.2403 -1.4316 -0.1917
 3131SOL     OW20851   3.237   1.958   1.449  0.1968  0.3252 -0.3545
 3131SOL    HW120852   3.294   1.901   1.397 -1.1277  0.4057 -1.8913
 3131SOL    HW220853   3.153   1.911   1.447  0.2159  0.3066 -0.7225
 3132SOL     OW20854   2.926   2.751  10.196  0.1222 -0.3375 -0.8419
 3132SOL    HW120855   2.891   2.678  10.145 -1.0201 -1.6977  1.8695
 3132SOL    HW220856   2.849   2.782  10.245  0.3177 -1.5574  0.2365
 3133SOL     OW20857   3.729   1.699  10.555  0.0880 -0.1431 -0.1011
 3133SOL    HW120858   3.639   1.667  10.562  0.1234 -0.2602 -0.1711
 3133SOL    HW220859   3.750   1.696  10.462 -1.6618  3.1673 -0.6085
 3134SOL     OW20860   4.153   1.231   3.680  0.0320  0.1368 -0.1817
 3134SOL    HW120861   4.092   1.176   3.632  1.7906 -3.9128  2.2199
 3134SOL    HW220862   4.235   1.197   3.645  0.5312 -0.3719  1.4660
 3135SOL     OW20863   4.360   4.396   9.036  0.0355  0.9918 -0.1668
 3135SOL    HW120864   4.342   4.310   9.075  1.9892  0.8359  0.3915
 3135SOL    HW220865   4.442   4.425   9.074  1.4377  0.0186 -2.4303
 3136SOL     OW20866   3.773   3.461   3.891  0.4080 -0.4036  0.2250
 3136SOL    HW120867   3.809   3.452   3.980 -1.7008 -0.5491  1.0587
 3136SOL    HW220868   3.691   3.507   3.905  0.6173 -0.2446  0.9297
 3137SOL     OW20869   0.186   1.324  13.157 -0.9611  0.0020  0.1077
 3137SOL    HW120870   0.100   1.328  13.199  0.4490  0.2152  2.9777
 3137SOL    HW220871   0.150   1.301  13.071 -0.1962 -1.5424  0.1962
 3138SOL     OW20872   4.134   1.628  15.656 -0.2131 -0.2479  0.0615
 3138SOL    HW120873   4.177   1.704  15.695  1.5927 -0.5938 -1.2402
 3138SOL    HW220874   4.118   1.669  15.571 -2.5299  0.4460  0.8411
 3139SOL     OW20875   3.047   4.507   7.481 -0.1414  0.3049  0.3541
 3139SOL    HW120876   2.997   4.588   7.494 -1.9396 -0.5973 -0.9151
 3139SOL    HW220877   2.981   4.442   7.457  1.4818 -1.9129  2.0025
 3140SOL     OW20878   1.504   1.517   2.886 -0.0887 -0.1245  0.1415
 3140SOL    HW120879   1.583   1.512   2.832  1.3780  0.4076  2.2633
 3140SOL    HW220880   1.482   1.424   2.884  1.4970 -0.5155  0.9448
 3141SOL     OW20881   0.705   4.336   1.927 -0.0187  0.3218 -0.5288
 3141SOL    HW120882   0.716   4.429   1.944  2.5269 -0.1551  0.4109
 3141SOL    HW220883   0.790   4.300   1.954 -0.2355  0.4808  0.3417
 3142SOL     OW20884   1.727   3.396  13.941  0.3015 -0.0635  0.4358
 3142SOL    HW120885   1.716   3.440  13.856  1.5510  2.1324  1.4182
 3142SOL    HW220886   1.642   3.416  13.979 -0.3075  0.8521 -1.3792
 3143SOL     OW20887   0.984   3.430   3.489  0.2413 -0.1986  0.2168
 3143SOL    HW120888   0.999   3.520   3.459 -1.4672  0.8937  2.6968
 3143SOL    HW220889   0.952   3.394   3.406 -0.8734  1.0896  0.0943
 3144SOL     OW20890   0.287   0.973  10.125 -0.5422 -0.1202  0.5217
 3144SOL    HW120891   0.354   1.019  10.176  0.3674 -1.5427  0.6192
 3144SOL    HW220892   0.210   0.982  10.180 -0.7319  0.1624  0.2114
 3145SOL     OW20893   3.705   4.257   0.824 -0.0528 -0.0916  0.0981
 3145SOL    HW120894   3.796   4.280   0.806 -0.7678  2.1941 -0.5616
 3145SOL    HW220895   3.686   4.316   0.897  0.0849  0.8507 -0.6307
 3146SOL     OW20896   2.229   3.288   0.899 -0.2681 -0.0505 -0.4252
 3146SOL    HW120897   2.217   3.373   0.941 -1.8990 -0.4279 -0.1072
 3146SOL    HW220898   2.165   3.311   0.832  1.0689  1.5922 -1.1388
 3147SOL     OW20899   3.739   1.272   7.203 -0.4279  0.3241  0.2605
 3147SOL    HW120900   3.714   1.180   7.191  3.7805 -0.7533 -0.1707
 3147SOL    HW220901   3.678   1.306   7.137 -1.5856  3.7800  3.0763
 3148SOL     OW20902   0.349   1.928   7.413 -0.0107 -0.0784  0.1982
 3148SOL    HW120903   0.300   2.005   7.386  0.5941 -0.1622 -1.1306
 3148SOL    HW220904   0.284   1.858   7.415  0.9829 -1.0057  0.0573
 3149SOL     OW20905   1.234   2.647   2.807 -0.6952  0.5520 -0.1434
 3149SOL    HW120906   1.307   2.641   2.745 -1.7829  0.5541 -1.4220
 3149SOL    HW220907   1.217   2.553   2.815 -0.7342  0.5050 -0.7458
 3150SOL     OW20908   0.229   0.737   7.319  0.2271  0.2804  0.0270
 3150SOL    HW120909   0.251   0.669   7.256 -2.6027  1.1395 -1.8632
 3150SOL    HW220910   0.135   0.726   7.303  0.4872 -1.5881 -0.2583
 3151SOL     OW20911   2.471   1.505   3.458 -0.5164 -0.1829 -0.6585
 3151SOL    HW120912   2.491   1.596   3.436  0.5800  0.0413  1.1842
 3151SOL    HW220913   2.540   1.456   3.413 -0.6971  1.5398 -2.7752
 3152SOL     OW20914   2.353   1.118   5.900  0.4153  0.2604 -0.2323
 3152SOL    HW120915   2.350   1.152   5.811  2.0027 -2.8992 -1.4766
 3152SOL    HW220916   2.266   1.079   5.903 -0.4824  2.3039  0.6170
 3153SOL     OW20917   1.066   2.069   8.057 -0.1325  0.0342  0.2565
 3153SOL    HW120918   1.142   2.107   8.013 -0.6938 -0.4514 -1.1580
 3153SOL    HW220919   0.997   2.135   8.050  0.2115  0.0517 -3.0199
 3154SOL     OW20920   4.314   0.710   8.767 -0.3883 -0.0316 -0.0844
 3154SOL    HW120921   4.336   0.672   8.852 -0.6253 -3.4655 -1.5390
 3154SOL    HW220922   4.320   0.804   8.779  1.6865 -0.1861  0.1786
 3155SOL     OW20923   1.623   4.433  15.380 -0.0881 -0.1615 -0.6662
 3155SOL    HW120924   1.690   4.484  15.426 -0.2288 -1.3728  0.8656
 3155SOL    HW220925   1.572   4.396  15.452  0.2822  0.2982 -0.1678
 3156SOL     OW20926   0.335   1.844   0.646  0.1047  0.0029  0.0734
 3156SOL    HW120927   0.278   1.878   0.715  1.2799  0.6092  0.7463
 3156SOL    HW220928   0.420   1.871   0.681  0.0596  0.3774 -0.1058
 3157SOL     OW20929   1.918   1.982   3.791 -0.5483 -0.1412 -0.2453
 3157SOL    HW120930   1.976   1.996   3.717  0.8453 -0.7426  0.7277
 3157SOL    HW220931   1.950   2.020   3.873  2.2254 -0.9590 -0.9543
 3158SOL     OW20932   3.100   1.343  11.374 -0.3844  0.1469  0.2931
 3158SOL    HW120933   3.189   1.361  11.404  0.8586 -0.3298 -3.1488
 3158SOL    HW220934   3.110   1.380  11.287 -4.6412 -0.5199 -0.4575
 3159SOL     OW20935   3.281   2.493   4.692  0.1255  0.3047  0.1803
 3159SOL    HW120936   3.198   2.474   4.735 -0.2111 -0.3852 -0.7661
 3159SOL    HW220937   3.341   2.517   4.763 -1.0367 -0.0768  1.2891
 3160SOL     OW20938   0.059   2.871  17.122 -0.4279  0.7275  0.3696
 3160SOL    HW120939   0.018   2.821  17.051  1.7861  0.4230 -0.6855
 3160SOL    HW220940   0.145   2.897  17.090  0.5934 -1.3414  1.4438
 3161SOL     OW20941   2.790   1.478  13.138 -0.3055  0.4688 -0.6600
 3161SOL    HW120942   2.709   1.489  13.188 -0.1869 -0.4894 -0.2542
 3161SOL    HW220943   2.758   1.480  13.048  0.1153 -0.8412 -0.8434
 3162SOL     OW20944   4.058   0.534  17.590  0.3015 -0.3578 -0.0805
 3162SOL    HW120945   4.098   0.613  17.627  0.6293 -0.5015 -0.1228
 3162SOL    HW220946   3.997   0.493  17.652  0.2937 -1.8945 -1.1086
 3163SOL     OW20947   4.312   4.357   6.410 -0.5596  0.7816  0.3802
 3163SOL    HW120948   4.243   4.302   6.446  0.9869 -1.8578 -0.7235
 3163SOL    HW220949   4.261   4.435   6.386 -1.7572 -0.3559 -0.7341
 3164SOL     OW20950   1.078   3.279  14.866 -0.2755  0.5338  0.1244
 3164SOL    HW120951   1.099   3.303  14.776  1.0400 -2.1755 -0.2648
 3164SOL    HW220952   1.162   3.294  14.909 -0.5118 -0.4140  0.9131
 3165SOL     OW20953   4.520   2.826  14.151  0.2849 -0.3902  0.6788
 3165SOL    HW120954   4.586   2.891  14.177  0.8323  0.0404 -1.7893
 3165SOL    HW220955   4.565   2.812  14.068 -1.2049  2.3575 -0.6031
 3166SOL     OW20956   2.030   2.373   8.177  0.0546 -0.3351 -0.3615
 3166SOL    HW120957   1.938   2.394   8.195  0.6742  2.0139 -0.0035
 3166SOL    HW220958   2.069   2.459   8.164  1.2651 -0.6608  1.1021
 3167SOL     OW20959   4.339   3.878   7.899  0.1406 -0.2549 -0.2935
 3167SOL    HW120960   4.364   3.854   7.988 -1.2867 -1.8839 -0.3319
 3167SOL    HW220961   4.306   3.792   7.872 -0.2216 -0.6355  1.3871
 3168SOL     OW20962   4.641   2.947  12.491  0.3618 -0.2240 -0.4419
 3168SOL    HW120963   0.009   2.957  12.461  0.2787  1.2005 -0.2011
 3168SOL    HW220964   4.665   2.913  12.577  1.7299  3.1195  0.4705
 3169SOL     OW20965   4.435   2.842   4.176 -0.3097 -0.2781 -0.0546
 3169SOL    HW120966   4.516   2.850   4.226 -1.3712 -1.7121  1.8921
 3169SOL    HW220967   4.445   2.909   4.109 -0.4288 -1.5238 -1.3088
 3170SOL     OW20968   3.571   1.995  15.069  0.2439 -0.0963 -0.1792
 3170SOL    HW120969   3.578   2.077  15.118 -2.2499  0.8807 -1.4596
 3170SOL    HW220970   3.651   1.954  15.101 -1.4817 -2.8605  0.5963
 3171SOL     OW20971   1.972   2.864   5.812  0.4422 -0.4737  0.0508
 3171SOL    HW120972   1.999   2.910   5.891 -0.3277  0.2696 -0.1193
 3171SOL    HW220973   1.908   2.921   5.769 -1.1142 -1.6778  0.7675
 3172SOL     OW20974   1.679   1.011   5.946  0.1520  0.0661  0.6636
 3172SOL    HW120975   1.636   0.951   5.885  1.8384 -1.5692  1.1197
 3172SOL    HW220976   1.605   1.065   5.974  0.5798  0.1466  1.6188
 3173SOL     OW20977   3.741   0.517  13.216  0.0195 -0.1448 -0.3882
 3173SOL    HW120978   3.648   0.541  13.212  0.7248  2.9352  1.2633
 3173SOL    HW220979   3.772   0.594  13.263 -0.2278  0.4262 -1.1529
 3174SOL     OW20980   4.320   4.506   3.684 -0.1665 -0.4716  0.0731
 3174SOL    HW120981   4.388   4.574   3.680 -0.3759 -0.3363 -1.0450
 3174SOL    HW220982   4.329   4.460   3.601 -1.4773  1.3435 -1.0544
 3175SOL     OW20983   4.098   4.221   6.540 -0.1771  0.4069  0.4400
 3175SOL    HW120984   4.137   4.146   6.585 -0.8248  0.7752  1.5926
 3175SOL    HW220985   4.016   4.179   6.514  0.4338  0.0910 -1.0134
 3176SOL     OW20986   2.432   1.841  11.180 -0.6065  0.2678  0.3398
 3176SOL    HW120987   2.385   1.815  11.101  1.2623  3.3219 -1.7776
 3176SOL    HW220988   2.508   1.884  11.140 -0.7369  0.5355  0.3738
 3177SOL     OW20989   1.644   3.439   7.961 -0.0187  0.4419 -0.2874
 3177SOL    HW120990   1.700   3.367   7.992  0.7961  0.7511 -1.0467
 3177SOL    HW220991   1.722   3.489   7.937  1.2238 -0.2559  2.2366
 3178SOL     OW20992   1.763   3.259   0.609 -0.6278  0.1834 -0.2835
 3178SOL    HW120993   1.737   3.332   0.665 -0.6946 -1.1276  1.3979
 3178SOL    HW220994   1.681   3.221   0.578 -1.4813  2.0680 -0.3526
 3179SOL     OW20995   0.171   3.228   9.767  0.3049  0.0402  0.3783
 3179SOL    HW120996   0.239   3.294   9.782  0.3863 -0.6377  3.0063
 3179SOL    HW220997   0.210   3.180   9.693 -0.6241 -0.1152 -0.0062
 3180SOL     OW20998   1.536   4.543   1.631  0.0327 -0.1160  0.6465
 3180SOL    HW120999   1.471   4.533   1.561  0.0714 -0.0705  0.6048
 3180SOL    HW221000   1.480   4.528   1.707 -0.6401 -1.0271 -0.0235
 3181SOL     OW21001   2.117   2.049   0.420 -0.1099  0.1452  0.1913
 3181SOL    HW121002   2.147   2.004   0.499  0.9510  0.5492  0.0173
 3181SOL    HW221003   2.194   2.044   0.364 -0.0691  1.9524  0.0910
 3182SOL     OW21004   1.032   3.848  17.305  0.0517  0.1236  0.3774
 3182SOL    HW121005   1.027   3.918  17.241 -1.1182 -1.4127 -1.2056
 3182SOL    HW221006   1.111   3.798  17.285 -0.1862  0.3432 -1.0923
 3183SOL     OW21007   1.343   0.266   4.617  0.7791  0.4580  0.0931
 3183SOL    HW121008   1.267   0.237   4.567  0.9458 -4.6853  2.7702
 3183SOL    HW221009   1.359   0.197   4.682 -4.4745 -2.1421 -1.3770
 3184SOL     OW21010   0.065   2.198   0.833 -0.3868  0.0563  0.2554
 3184SOL    HW121011   0.076   2.271   0.772 -1.3607  1.7012  2.0310
 3184SOL    HW221012   0.083   2.245   0.914 -1.2376 -0.2310  0.6061
 3185SOL     OW21013   3.197   1.582   7.372 -1.1818  0.2411  0.4582
 3185SOL    HW121014   3.287   1.614   7.360 -0.4107 -1.3831  1.7077
 3185SOL    HW221015   3.175   1.545   7.287  0.7162  1.0235 -0.3806
 3186SOL     OW21016   4.424   1.671   0.242  1.0733  0.2666 -0.3005
 3186SOL    HW121017   4.417   1.745   0.302  1.7138 -0.3893  0.5689
 3186SOL    HW221018   4.515   1.689   0.220  1.5104 -1.7423 -0.0710
 3187SOL     OW21019   2.725   1.992   2.346 -0.7201 -0.5359 -0.1842
 3187SOL    HW121020   2.814   1.993   2.381 -1.2468  1.1995  1.1466
 3187SOL    HW221021   2.709   2.087   2.345  2.8471  0.0824  0.3555
 3188SOL     OW21022   1.251   3.537  14.729 -0.2323 -0.1645  0.5385
 3188SOL    HW121023   1.204   3.608  14.774 -1.0702  0.1293 -0.8241
 3188SOL    HW221024   1.285   3.487  14.804 -0.9647 -2.2193 -0.4951
 3189SOL     OW21025   0.474   2.848  15.180 -0.6388 -0.1169  0.4375
 3189SOL    HW121026   0.415   2.778  15.208  2.2472 -2.3299  0.9700
 3189SOL    HW221027   0.422   2.899  15.118  0.9170  0.5190 -0.3445
 3190SOL     OW21028   1.908   2.511   6.925  0.0263 -0.1427  0.4328
 3190SOL    HW121029   1.947   2.513   6.838  0.3391 -0.5087  0.5673
 3190SOL    HW221030   1.910   2.601   6.957  0.7499  0.3231 -0.9368
 3191SOL     OW21031   1.723   2.825   2.939 -0.1299  0.2827 -0.6393
 3191SOL    HW121032   1.726   2.920   2.927 -0.5006  0.7617  3.1371
 3191SOL    HW221033   1.639   2.831   2.985  0.6293  0.1469  0.7391
 3192SOL     OW21034   4.699   1.862   3.502  0.0736  0.3953  0.2082
 3192SOL    HW121035   0.032   1.866   3.581 -1.2837  0.0428  1.1700
 3192SOL    HW221036   4.628   1.801   3.520  0.0013  0.4173 -0.0066
 3193SOL     OW21037   3.298   0.736  15.057  0.0292 -0.2053 -0.1932
 3193SOL    HW121038   3.221   0.750  15.003 -0.8326 -1.3548  0.7332
 3193SOL    HW221039   3.315   0.642  15.053  0.0653 -0.2329  0.5173
 3194SOL     OW21040   3.782   2.315   2.993  0.4186 -0.3688 -0.0563
 3194SOL    HW121041   3.821   2.244   2.942  3.2573  1.4152 -0.3935
 3194SOL    HW221042   3.688   2.303   2.989  0.5523 -0.6139 -2.4318
 3195SOL     OW21043   2.490   2.032   1.236 -0.3937 -0.1447 -0.7056
 3195SOL    HW121044   2.434   1.954   1.232 -0.6943 -0.0878  2.5534
 3195SOL    HW221045   2.419   2.094   1.255 -1.1494 -0.9415 -0.9046
 3196SOL     OW21046   0.009   2.137   8.563  0.2413  0.1161 -0.2746
 3196SOL    HW121047   4.643   2.111   8.592  0.0331 -0.3238 -1.2735
 3196SOL    HW221048   0.033   2.201   8.629 -0.4372 -0.7819  0.8357
 3197SOL     OW21049   3.451   2.722  14.418  0.2785  0.5307  0.1474
 3197SOL    HW121050   3.386   2.655  14.393  0.4858  0.2131  0.4550
 3197SOL    HW221051   3.400   2.767  14.486  0.4852 -1.1412  1.4133
 3198SOL     OW21052   0.075   3.462  10.154  0.3499  0.1561  0.4310
 3198SOL    HW121053   0.147   3.525  10.152 -2.1354  2.9364 -1.9072
 3198SOL    HW221054   0.069   3.443  10.248  1.8000  2.1293  0.9183
 3199SOL     OW21055   0.212   0.665   1.517  0.4233 -0.0491 -0.0639
 3199SOL    HW121056   0.241   0.577   1.493  0.2271 -0.4064  1.0268
 3199SOL    HW221057   0.142   0.678   1.454 -0.0989 -1.0387  0.3087
 3200SOL     OW21058   4.651   0.334  10.750 -0.4812 -0.2941  0.1305
 3200SOL    HW121059   4.626   0.383  10.672  0.6501  0.4532  0.2495
 3200SOL    HW221060   4.670   0.248  10.714 -0.4244  0.2723 -1.1773
 3201SOL     OW21061   2.635   4.656   0.175 -0.1516 -0.1798  0.3931
 3201SOL    HW121062   2.706   4.630   0.116 -0.4802 -1.3619  0.5208
 3201SOL    HW221063   2.678   4.662   0.261  0.2473  0.7688  0.1376
 3202SOL     OW21064   4.360   3.799   2.794  0.8380  0.2835 -0.5712
 3202SOL    HW121065   4.265   3.785   2.790  0.3586  3.7425 -0.6354
 3202SOL    HW221066   4.373   3.867   2.860 -1.7103  1.4225 -1.2295
 3203SOL     OW21067   3.923   3.157   2.916 -0.2072  0.3245  0.0151
 3203SOL    HW121068   3.996   3.095   2.911  0.3563  0.8919  1.1304
 3203SOL    HW221069   3.854   3.109   2.962 -0.8517  0.6194 -0.6477
 3204SOL     OW21070   2.066   4.064   5.948 -0.2835 -0.2093 -0.2725
 3204SOL    HW121071   2.157   4.046   5.970  0.3223  3.0619 -0.1907
 3204SOL    HW221072   2.064   4.035   5.857 -0.8492 -1.5991  0.1725
 3205SOL     OW21073   0.110   2.040   5.529  0.2932 -0.1783 -0.1226
 3205SOL    HW121074   0.120   2.131   5.558  0.2182  0.2893 -1.5402
 3205SOL    HW221075   0.193   2.027   5.484  1.0181 -1.0632  1.4873
 3206SOL     OW21076   0.846   4.147   9.805 -0.0776  0.6602  0.4228
 3206SOL    HW121077   0.879   4.076   9.860 -0.8279 -0.4977 -0.6204
 3206SOL    HW221078   0.888   4.119   9.723 -2.1973 -1.1771 -0.0182
 3207SOL     OW21079   2.314   3.492   4.709 -0.1023  0.1393  0.0796
 3207SOL    HW121080   2.248   3.493   4.639  1.8037  1.2688 -1.7191
 3207SOL    HW221081   2.376   3.428   4.673  0.6473  1.1888 -0.5015
 3208SOL     OW21082   2.850   4.533   4.938 -0.5132 -0.0197  0.0894
 3208SOL    HW121083   2.934   4.576   4.922 -0.7776  0.9201  1.2521
 3208SOL    HW221084   2.854   4.531   5.033 -0.6820 -0.0984  0.0945
 3209SOL     OW21085   4.710   0.126  10.497  0.7599 -0.3218 -0.0832
 3209SOL    HW121086   4.707   0.187  10.423 -1.4571 -0.8598 -0.4323
 3209SOL    HW221087   4.721   0.051  10.439  0.2215 -1.1521  0.8914
 3210SOL     OW21088   1.929   0.729   2.288 -0.1718  0.4667 -0.8125
 3210SOL    HW121089   1.864   0.698   2.225  1.1313 -0.1135 -1.8818
 3210SOL    HW221090   2.007   0.696   2.243 -0.0490 -1.4615  0.8036
 3211SOL     OW21091   3.488   4.151  10.108 -0.4934  0.1441  0.0539
 3211SOL    HW121092   3.511   4.078  10.050 -1.1782  2.5410 -3.2232
 3211SOL    HW221093   3.468   4.105  10.189 -0.4258 -0.1983 -0.1214
 3212SOL     OW21094   4.010   2.365   4.690  0.1500  0.0089 -0.1250
 3212SOL    HW121095   4.063   2.409   4.624  2.1572  0.1493  1.5770
 3212SOL    HW221096   4.024   2.427   4.761  0.4383 -1.7754  1.3778
 3213SOL     OW21097   2.617   2.179  13.180  0.2656  0.4024  0.2888
 3213SOL    HW121098   2.576   2.246  13.236 -2.4075  0.1955 -1.4483
 3213SOL    HW221099   2.548   2.113  13.174  1.4437 -0.8667  0.7983
 3214SOL     OW21100   1.569   0.213   3.181 -0.0238 -0.3449 -0.2831
 3214SOL    HW121101   1.629   0.149   3.141  0.6239  1.7470 -2.7036
 3214SOL    HW221102   1.498   0.193   3.119 -1.0497  2.9044 -0.1157
 3215SOL     OW21103   2.612   1.504   4.071 -0.0591 -0.4164 -0.5081
 3215SOL    HW121104   2.517   1.492   4.070 -0.3828  2.1104  1.6427
 3215SOL    HW221105   2.637   1.451   4.146  0.4893 -0.0200 -0.4144
 3216SOL     OW21106   1.797   3.016   3.731 -1.0385 -0.2668 -0.5579
 3216SOL    HW121107   1.797   2.999   3.637  2.3648 -0.3803 -0.5414
 3216SOL    HW221108   1.821   2.929   3.764  1.4314  1.0943  1.2431
 3217SOL     OW21109   0.752   2.258   9.081 -0.3608 -0.3595  0.6268
 3217SOL    HW121110   0.805   2.218   9.151  3.5125  4.1225  0.2753
 3217SOL    HW221111   0.702   2.326   9.125 -0.5711  0.6300 -1.1449
 3218SOL     OW21112   4.005   4.107   6.896 -0.1709 -0.0254  0.1480
 3218SOL    HW121113   4.058   4.037   6.933 -0.4998 -0.0308  0.6198
 3218SOL    HW221114   3.922   4.059   6.884  0.0592 -0.2073 -0.6861
 3219SOL     OW21115   0.177   4.155   8.321  0.4366  0.4413  0.6876
 3219SOL    HW121116   0.095   4.146   8.369 -0.1974  1.1509 -0.2727
 3219SOL    HW221117   0.194   4.249   8.316  0.0680  0.4515 -0.3110
 3220SOL     OW21118   0.979   2.255   6.787 -0.1597  0.5626 -0.6250
 3220SOL    HW121119   0.938   2.231   6.704 -0.4854  0.2836 -0.3810
 3220SOL    HW221120   1.054   2.196   6.794 -2.3598 -1.9860  0.9480
 3221SOL     OW21121   3.094   3.138   4.833  0.0133 -0.2974  0.6225
 3221SOL    HW121122   3.063   3.219   4.792 -0.0560  1.1224  3.4420
 3221SOL    HW221123   3.186   3.160   4.844  0.3581 -1.2608 -0.3421
 3222SOL     OW21124   4.694   4.216   4.357 -0.7926  0.1226  0.1128
 3222SOL    HW121125   0.031   4.266   4.300  0.0546  0.6610  1.4559
 3222SOL    HW221126   4.679   4.274   4.432  2.0304  1.9308 -0.7198
 3223SOL     OW21127   0.768   3.037  12.314  0.1665  0.1784  0.0301
 3223SOL    HW121128   0.847   3.089  12.319 -0.5936  1.3792 -0.5891
 3223SOL    HW221129   0.712   3.095  12.365 -1.2363  0.2983 -1.6563
 3224SOL     OW21130   1.540   3.936   8.643  0.0397  0.0030 -0.4073
 3224SOL    HW121131   1.467   3.912   8.699  1.3092 -2.0668  0.3619
 3224SOL    HW221132   1.603   3.866   8.662  1.3907  2.0685  2.7757
 3225SOL     OW21133   3.974   3.750   1.774  0.4454  1.3545  0.4983
 3225SOL    HW121134   3.886   3.752   1.814 -0.4888 -0.0196 -1.4782
 3225SOL    HW221135   4.014   3.689   1.836 -2.3950 -0.5372  0.5245
 3226SOL     OW21136   1.503   2.899   2.144  0.1084  0.2676  0.3901
 3226SOL    HW121137   1.458   2.914   2.061 -1.5546  0.0096  1.2429
 3226SOL    HW221138   1.445   2.953   2.197  2.1130  3.2666 -0.4990
 3227SOL     OW21139   0.622   0.442   5.402 -0.5811  0.6190 -0.0421
 3227SOL    HW121140   0.586   0.354   5.416 -0.8143  0.5805 -0.9069
 3227SOL    HW221141   0.693   0.411   5.346 -0.7698 -2.0161  1.1787
 3228SOL     OW21142   0.802   2.966   6.892 -0.2392  0.4630  0.0999
 3228SOL    HW121143   0.879   2.914   6.871 -1.1788  0.0292 -2.2405
 3228SOL    HW221144   0.774   2.980   6.802 -1.4545  2.1230  0.7428
 3229SOL     OW21145   2.017   1.662  14.426 -0.2459  0.1445 -0.3945
 3229SOL    HW121146   1.956   1.709  14.483  1.3947  2.4737 -0.5574
 3229SOL    HW221147   1.956   1.598  14.388  0.0595 -0.3759 -0.0058
 3230SOL     OW21148   1.857   0.435   2.073 -0.4397  0.5329 -0.1819
 3230SOL    HW121149   1.935   0.419   2.019 -0.2300  0.0798  0.2557
 3230SOL    HW221150   1.843   0.529   2.082  0.5918  0.6875 -0.0956
 3231SOL     OW21151   2.450   2.585  14.636  0.0911  0.4584  0.1500
 3231SOL    HW121152   2.542   2.606  14.621  0.1826 -0.6674 -0.8340
 3231SOL    HW221153   2.461   2.562  14.728  0.1138  2.3448  0.6138
 3232SOL     OW21154   1.129   4.279   7.331  0.4093 -0.0118 -0.1096
 3232SOL    HW121155   1.187   4.278   7.255  1.3005 -3.6583  0.6429
 3232SOL    HW221156   1.040   4.297   7.301  0.3053 -1.1985 -0.5287
 3233SOL     OW21157   1.103   2.207   9.847 -0.4745 -0.4677  0.0527
 3233SOL    HW121158   1.154   2.162   9.914  1.0674  1.4243  0.1360
 3233SOL    HW221159   1.044   2.251   9.907  0.1119  0.0776  0.2336
 3234SOL     OW21160   1.799   4.031  16.245 -0.1933 -0.5965  0.2477
 3234SOL    HW121161   1.743   3.987  16.181 -0.2266  1.0410 -0.8430
 3234SOL    HW221162   1.873   4.056  16.191 -1.0704  1.0679 -0.2173
 3235SOL     OW21163   2.532   4.305   9.704 -0.2082  0.2589  0.0486
 3235SOL    HW121164   2.469   4.289   9.775 -2.6954  1.0383 -1.9615
 3235SOL    HW221165   2.471   4.321   9.632 -0.7704  0.9401  0.6733
 3236SOL     OW21166   0.721   0.315   5.750  0.2955  0.3828 -0.5332
 3236SOL    HW121167   0.801   0.365   5.766  0.8293 -0.2497 -1.2057
 3236SOL    HW221168   0.656   0.381   5.773 -0.0151  1.2260 -3.8223
 3237SOL     OW21169   2.312   1.831  11.441  0.0949  0.1094  0.7184
 3237SOL    HW121170   2.346   1.847  11.353 -1.0596  0.0084  0.2589
 3237SOL    HW221171   2.268   1.749  11.421 -0.5329  0.6628 -0.1954
 3238SOL     OW21172   3.268   2.708  16.937 -0.0769  0.9699  0.4996
 3238SOL    HW121173   3.357   2.681  16.913 -0.4680  0.2603 -0.1479
 3238SOL    HW221174   3.251   2.787  16.887 -0.9707 -0.5428 -1.5922
 3239SOL     OW21175   4.690   3.400   4.143 -0.3658 -0.1420 -0.1564
 3239SOL    HW121176   4.721   3.486   4.114  3.5126 -1.3355  0.4449
 3239SOL    HW221177   4.656   3.426   4.228 -1.2202 -0.5178 -0.3832
 3240SOL     OW21178   3.948   0.131  13.466 -0.0238 -0.4254  0.5524
 3240SOL    HW121179   3.921   0.056  13.413 -0.2199  1.0661 -1.4713
 3240SOL    HW221180   4.036   0.115  13.498  0.7316  0.9393 -0.8258
 3241SOL     OW21181   3.789   0.806   8.469  0.8084  0.3553  0.3482
 3241SOL    HW121182   3.879   0.835   8.483  0.4230  0.8122  1.8423
 3241SOL    HW221183   3.738   0.882   8.494  0.7281  0.7901 -1.1414
 3242SOL     OW21184   4.560   2.430   7.884  0.2250 -0.0919 -0.5633
 3242SOL    HW121185   4.490   2.481   7.925  0.4988  1.2174 -1.6808
 3242SOL    HW221186   4.515   2.347   7.866  0.9661 -0.6433  0.1751
 3243SOL     OW21187   1.369   1.787   3.469  0.1635  0.1884 -0.6057
 3243SOL    HW121188   1.445   1.797   3.413  1.2451 -2.3953  0.3673
 3243SOL    HW221189   1.412   1.781   3.554 -0.3126  0.5082 -0.3434
 3244SOL     OW21190   3.626   1.682   4.536  0.1066  0.0562  0.5282
 3244SOL    HW121191   3.671   1.762   4.509 -0.9508  1.0712  1.7387
 3244SOL    HW221192   3.585   1.652   4.455 -0.4477  0.7263  0.5571
 3245SOL     OW21193   2.254   3.213   8.320 -0.8953 -0.2410 -0.5790
 3245SOL    HW121194   2.231   3.289   8.266  1.3225  0.6615 -0.2551
 3245SOL    HW221195   2.274   3.250   8.406  2.5201  1.1044 -1.9289
 3246SOL     OW21196   1.008   2.097  11.694  0.3981  0.0059 -0.3766
 3246SOL    HW121197   1.045   2.056  11.615  0.8687  2.2934 -1.3514
 3246SOL    HW221198   1.090   2.127  11.732  0.0178 -0.2603  0.6398
 3247SOL     OW21199   3.451   1.315   3.685  0.2172  0.4722 -0.1097
 3247SOL    HW121200   3.528   1.318   3.627  0.1907 -0.7863 -0.2117
 3247SOL    HW221201   3.387   1.303   3.615 -0.5005 -1.1086  0.8145
 3248SOL     OW21202   0.698   4.185   3.303 -0.5106  0.0688  0.3256
 3248SOL    HW121203   0.650   4.110   3.338 -0.8857  0.6318  1.0252
 3248SOL    HW221204   0.784   4.151   3.279 -0.2919  1.1495 -0.4170
 3249SOL     OW21205   2.517   3.498  14.579 -0.3018  0.0844 -0.3049
 3249SOL    HW121206   2.521   3.593  14.572  2.4688  0.1732  2.4823
 3249SOL    HW221207   2.472   3.495  14.664 -0.7781 -1.0510 -0.5857
 3250SOL     OW21208   1.547   1.544   7.798  0.0049 -0.2885 -0.5834
 3250SOL    HW121209   1.549   1.637   7.822 -1.9214 -0.4883  0.3736
 3250SOL    HW221210   1.568   1.495   7.877 -0.2417  1.5041  0.6108
 3251SOL     OW21211   0.906   2.100   6.549 -0.4200 -0.7129  0.0759
 3251SOL    HW121212   0.828   2.050   6.573  0.6114 -0.8883  3.0490
 3251SOL    HW221213   0.881   2.101   6.457 -1.3277  0.5532  0.3384
 3252SOL     OW21214   1.790   1.165   8.854  0.8215  0.3800  0.1937
 3252SOL    HW121215   1.715   1.224   8.867  1.5173  1.4099 -0.4535
 3252SOL    HW221216   1.770   1.091   8.912 -0.4221 -0.2873 -1.0686
 3253SOL     OW21217   1.500   4.257   5.911 -0.3359  0.0664  0.5581
 3253SOL    HW121218   1.530   4.166   5.906 -0.2433  0.2375 -2.3520
 3253SOL    HW221219   1.583   4.298   5.936 -0.7012  1.0846  0.0934
 3254SOL     OW21220   0.417   4.302   9.762  0.5045 -0.2760 -0.0581
 3254SOL    HW121221   0.341   4.278   9.708  0.5854 -1.5933  0.4080
 3254SOL    HW221222   0.446   4.378   9.712 -0.7871  0.1916 -0.1040
 3255SOL     OW21223   0.885   1.740   0.987  0.4341  0.2918  0.0673
 3255SOL    HW121224   0.901   1.757   1.079  1.7854 -3.3359  0.5000
 3255SOL    HW221225   0.952   1.675   0.967 -0.1579 -0.2714 -0.0586
 3256SOL     OW21226   0.025   1.048   7.570  0.0779 -0.5019 -0.1319
 3256SOL    HW121227   0.077   1.022   7.646  1.3145 -1.1142 -1.1711
 3256SOL    HW221228   0.077   1.033   7.491 -1.3478 -3.4671 -0.5424
 3257SOL     OW21229   0.520   3.850   8.525  0.1752  0.0020 -0.1623
 3257SOL    HW121230   0.514   3.797   8.605  0.2818  3.5751  2.2048
 3257SOL    HW221231   0.495   3.938   8.554 -2.4518 -0.6996 -0.3129
 3258SOL     OW21232   0.157   2.714   0.835 -1.1101 -0.0273  0.5159
 3258SOL    HW121233   0.249   2.732   0.854 -1.6610  1.5378  1.7311
 3258SOL    HW221234   0.160   2.725   0.740  0.1669  0.8281  0.6497
 3259SOL     OW21235   4.699   4.536   6.656  0.2387 -0.0508 -0.7858
 3259SOL    HW121236   4.688   4.610   6.715 -3.2685 -1.0584 -0.1128
 3259SOL    HW221237   0.072   4.522   6.647 -0.2264 -2.6858 -1.7752
 3260SOL     OW21238   2.128   2.501  12.975 -0.5533  0.3511 -0.5453
 3260SOL    HW121239   2.128   2.569  13.042 -2.9710  0.8490 -1.0514
 3260SOL    HW221240   2.058   2.542  12.924  0.9952 -0.6257 -3.4526
 3261SOL     OW21241   0.659   3.451   8.004  0.0811 -0.6584  0.0278
 3261SOL    HW121242   0.738   3.404   8.031  0.4884 -0.7249 -1.2699
 3261SOL    HW221243   0.659   3.446   7.909  1.5623  1.3473 -0.0671
 3262SOL     OW21244   3.102   2.187  14.771 -0.3358  0.2208  0.3601
 3262SOL    HW121245   3.085   2.133  14.694  0.0227 -1.1448  1.2297
 3262SOL    HW221246   3.194   2.207  14.752 -0.9600  1.8127 -0.9648
 3263SOL     OW21247   2.449   0.201   9.567  0.3131 -0.3544  0.0975
 3263SOL    HW121248   2.355   0.195   9.550  0.3128 -2.2451  0.8108
 3263SOL    HW221249   2.461   0.296   9.568 -0.3474 -0.2329 -2.1516
 3264SOL     OW21250   0.605   3.978   6.099  0.4365  1.0968 -0.4521
 3264SOL    HW121251   0.515   4.003   6.081  0.4866  0.2974 -1.7949
 3264SOL    HW221252   0.609   3.968   6.194  1.3319 -0.9180 -0.7012
 3265SOL     OW21253   2.159   2.538   4.883 -0.7229 -0.0533 -0.1276
 3265SOL    HW121254   2.188   2.518   4.972  0.6405 -3.3268 -1.3088
 3265SOL    HW221255   2.175   2.458   4.833 -2.7837 -0.5761  0.0308
 3266SOL     OW21256   0.577   1.843   9.440 -0.2138 -0.0425 -0.2967
 3266SOL    HW121257   0.592   1.777   9.508 -0.7872  0.2652  0.1210
 3266SOL    HW221258   0.665   1.854   9.403 -0.4886  1.0146 -0.6466
 3267SOL     OW21259   3.689   1.023   7.113 -0.2751  0.4773  0.0850
 3267SOL    HW121260   3.693   0.953   7.047 -0.3131  0.2252  0.3487
 3267SOL    HW221261   3.610   0.998   7.162 -1.7325  2.1409 -1.3936
 3268SOL     OW21262   1.127   3.505  17.624  0.3492 -0.6558 -0.9791
 3268SOL    HW121263   1.034   3.517  17.604  0.0951 -1.3305 -0.2015
 3268SOL    HW221264   1.150   3.597  17.637  0.2974 -0.5440 -1.6501
 3269SOL     OW21265   1.796   0.121   8.438 -0.2564  0.0365  0.5803
 3269SOL    HW121266   1.837   0.117   8.352  0.5994 -1.2922  1.0515
 3269SOL    HW221267   1.803   0.032   8.473  0.4337  0.1104  0.6222
 3270SOL     OW21268   3.469   0.038   3.822 -0.3945 -0.1637  0.0209
 3270SOL    HW121269   3.530   4.687   3.835 -0.5234 -0.2456  0.1612
 3270SOL    HW221270   3.508   0.077   3.743  2.0399 -2.2915  0.1663
 3271SOL     OW21271   1.495   4.318   4.999 -0.4268 -0.0247  0.2729
 3271SOL    HW121272   1.498   4.294   5.091 -0.8888  1.9324  0.8060
 3271SOL    HW221273   1.546   4.247   4.959 -2.1804 -0.1997 -1.6356
 3272SOL     OW21274   3.138   3.096   8.023 -0.2102 -0.4999  0.2566
 3272SOL    HW121275   3.192   3.089   7.945 -0.2703  2.4707 -0.0454
 3272SOL    HW221276   3.052   3.111   7.982 -0.5393  0.1101  1.1720
 3273SOL     OW21277   2.141   4.469   3.364 -0.1742 -0.1716  0.4858
 3273SOL    HW121278   2.093   4.422   3.432  0.8797 -1.8163  0.0641
 3273SOL    HW221279   2.188   4.402   3.315 -1.4312 -0.7625  0.0953
 3274SOL     OW21280   1.452   2.926  11.888 -0.0371  0.1252 -0.2600
 3274SOL    HW121281   1.471   3.010  11.848 -1.7927 -0.1927 -1.7338
 3274SOL    HW221282   1.423   2.951  11.976 -3.1608  0.0289 -1.2857
 3275SOL     OW21283   4.108   4.212  10.297  0.9126 -0.1851 -0.4137
 3275SOL    HW121284   4.021   4.247  10.278  0.0778 -1.4375  1.0865
 3275SOL    HW221285   4.156   4.255  10.226  1.0539 -1.0917 -0.8727
 3276SOL     OW21286   1.755   2.887   2.005  0.2739  0.7137  0.2783
 3276SOL    HW121287   1.665   2.913   2.025 -0.3499 -0.6993 -0.7000
 3276SOL    HW221288   1.744   2.792   2.014 -1.4385  0.7888 -1.0071
 3277SOL     OW21289   1.352   3.411   6.308  0.1549 -0.3591 -0.1674
 3277SOL    HW121290   1.263   3.448   6.304 -0.6554 -2.3355 -0.1931
 3277SOL    HW221291   1.377   3.409   6.216  1.6541 -0.0614  0.2422
 3278SOL     OW21292   1.917   1.330   8.046 -0.2127  0.8015  0.0848
 3278SOL    HW121293   1.997   1.369   8.012  1.0531 -1.5856  0.3926
 3278SOL    HW221294   1.945   1.242   8.024 -0.3704  0.6430  0.5068
 3279SOL     OW21295   3.146   0.376   6.027  0.1009  0.1135 -0.3331
 3279SOL    HW121296   3.079   0.343   6.086  1.5261 -1.7415  0.2544
 3279SOL    HW221297   3.224   0.328   6.053 -0.3148 -1.0696 -1.2232
 3280SOL     OW21298   4.091   0.877  11.726 -0.1573  0.6765  0.1428
 3280SOL    HW121299   4.086   0.894  11.632  3.6038  3.3576  0.4546
 3280SOL    HW221300   3.999   0.866  11.750 -0.2414 -1.0074 -0.9791
 3281SOL     OW21301   2.324   0.191   7.969 -0.3543 -0.5161  0.2510
 3281SOL    HW121302   2.266   0.234   8.032  0.2300 -2.3179  2.0163
 3281SOL    HW221303   2.388   0.150   8.028  1.8613  1.4925 -0.7367
 3282SOL     OW21304   0.031   1.800   5.066 -0.3206  0.0385  0.7295
 3282SOL    HW121305   0.039   1.884   5.110  0.7811  0.6584 -0.6634
 3282SOL    HW221306   4.662   1.805   5.034  0.0930 -0.2527 -0.5062
 3283SOL     OW21307   2.737   1.727   4.839 -0.4012 -0.1212  0.4561
 3283SOL    HW121308   2.758   1.633   4.841  0.1073 -0.0125  0.3289
 3283SOL    HW221309   2.678   1.748   4.767  0.2389  1.0075  0.2518
 3284SOL     OW21310   4.259   4.224   8.683  0.9844  0.0847  0.3069
 3284SOL    HW121311   4.345   4.183   8.672  1.1166  0.5714 -0.5563
 3284SOL    HW221312   4.280   4.311   8.716 -1.6074  0.8719 -0.1180
 3285SOL     OW21313   3.542   2.672   7.815  0.2114 -0.0572  0.1344
 3285SOL    HW121314   3.589   2.691   7.733 -0.2538 -0.2887 -0.1886
 3285SOL    HW221315   3.616   2.644   7.868  1.3804 -0.2904 -1.6318
 3286SOL     OW21316   4.653   4.446   7.480  0.2551  0.6165 -0.0490
 3286SOL    HW121317   4.637   4.359   7.516 -2.0032  0.6445 -0.9518
 3286SOL    HW221318   4.567   4.474   7.448 -0.2166  1.2317  1.7253
 3287SOL     OW21319   3.808   4.216   8.015  0.4094 -0.5540  0.5498
 3287SOL    HW121320   3.792   4.309   8.029 -0.5959 -0.2003 -2.9573
 3287SOL    HW221321   3.881   4.214   7.953 -1.0023 -3.6766 -1.0533
 3288SOL     OW21322   1.415   1.412   6.220 -0.1211 -1.0848  0.2680
 3288SOL    HW121323   1.334   1.453   6.250  0.4740  0.7341 -0.5772
 3288SOL    HW221324   1.476   1.472   6.262  1.5761 -1.2230 -1.9864
 3289SOL     OW21325   3.465   0.225  15.594 -0.2896  0.7918 -0.4456
 3289SOL    HW121326   3.479   0.318  15.613  0.1005  0.6742 -0.1687
 3289SOL    HW221327   3.380   0.208  15.636  0.8227 -0.6967  1.1773
 3290SOL     OW21328   3.209   1.010   5.465 -0.5210 -0.3150  0.3737
 3290SOL    HW121329   3.203   0.919   5.496 -1.8181 -0.1854  0.5109
 3290SOL    HW221330   3.234   1.054   5.546  1.2901 -3.5371  1.5816
 3291SOL     OW21331   1.688   3.661   6.833 -0.3138 -0.3143  0.1580
 3291SOL    HW121332   1.763   3.642   6.888 -0.7028 -1.4055  0.3039
 3291SOL    HW221333   1.660   3.575   6.802 -0.0869  0.0290 -1.0221
 3292SOL     OW21334   2.092   3.822  10.944 -0.4101  0.1195  0.5472
 3292SOL    HW121335   2.100   3.853  10.854 -1.0506 -1.3248 -0.0131
 3292SOL    HW221336   2.136   3.889  10.996  0.0247  0.2786 -0.0314
 3293SOL     OW21337   4.553   4.362  11.490  0.0401  0.4490  0.7580
 3293SOL    HW121338   4.508   4.351  11.406 -0.2801  0.5647  0.9150
 3293SOL    HW221339   4.615   4.429  11.462  1.2612 -0.2808  1.7470
 3294SOL     OW21340   2.221   3.375  13.412 -0.6683 -0.0146  0.5443
 3294SOL    HW121341   2.128   3.365  13.395 -0.3334  1.0966 -1.9363
 3294SOL    HW221342   2.256   3.341  13.329  0.1439  2.3608 -0.0908
 3295SOL     OW21343   2.079   1.434   1.437 -0.1593  0.1077 -0.5065
 3295SOL    HW121344   2.083   1.525   1.467 -0.5705 -0.2239  0.5386
 3295SOL    HW221345   2.132   1.432   1.357  0.7639  0.9393  0.0827
 3296SOL     OW21346   0.038   1.744   8.137  0.0796  0.0795  0.2079
 3296SOL    HW121347   0.054   1.823   8.188 -1.6458  0.5902 -0.0301
 3296SOL    HW221348   0.078   1.671   8.186  0.2836 -0.9117 -1.4361
 3297SOL     OW21349   3.919   2.411   0.612 -0.5966 -0.1568  0.0207
 3297SOL    HW121350   3.835   2.429   0.570 -0.2499  1.5669  0.0438
 3297SOL    HW221351   3.957   2.383   0.528  0.8288 -1.2447  1.0320
 3298SOL     OW21352   2.707   2.318   9.941 -0.0255 -0.2382 -0.1922
 3298SOL    HW121353   2.783   2.359   9.983 -1.4813  1.8016  0.4310
 3298SOL    HW221354   2.651   2.393   9.922 -0.1067 -1.0278 -3.0928
 3299SOL     OW21355   4.051   3.583   6.585  0.9084 -0.0794  0.3040
 3299SOL    HW121356   4.083   3.505   6.629 -1.4124 -0.3623  1.4520
 3299SOL    HW221357   4.036   3.551   6.496 -1.3687  0.8903  0.3361
 3300SOL     OW21358   4.001   4.224  12.899 -0.3888  0.1325  0.1920
 3300SOL    HW121359   4.021   4.139  12.859 -0.2960  0.9234 -1.4507
 3300SOL    HW221360   4.081   4.267  12.870 -1.3693  1.1293 -1.0561
 3301SOL     OW21361   1.725   0.361   1.529 -0.6590  0.5282  0.8488
 3301SOL    HW121362   1.772   0.433   1.488  0.3388 -0.7731 -0.3140
 3301SOL    HW221363   1.701   0.402   1.612 -0.4425 -2.7339  2.5354
 3302SOL     OW21364   0.629   1.559   3.976  0.8467  0.5611  0.0924
 3302SOL    HW121365   0.667   1.479   3.939 -1.0307  0.1567 -0.9989
 3302SOL    HW221366   0.553   1.519   4.018 -0.0899  0.9331 -1.2383
 3303SOL     OW21367   2.491   1.787   4.210  0.0619 -0.4993  0.0820
 3303SOL    HW121368   2.531   1.861   4.256  0.5154 -0.6819 -0.0205
 3303SOL    HW221369   2.557   1.750   4.151  1.8665 -0.0900  1.8504
 3304SOL     OW21370   0.222   2.455  17.447  0.9523  0.2273  0.4104
 3304SOL    HW121371   0.129   2.447  17.426  0.7635  0.1599  1.2947
 3304SOL    HW221372   0.229   2.540  17.402 -2.0977 -1.0121 -2.3938
 3305SOL     OW21373   0.176   0.035   4.046 -0.5851 -0.5848 -0.0379
 3305SOL    HW121374   0.194   4.667   4.017  3.1503 -0.0729  0.6230
 3305SOL    HW221375   0.091   0.024   4.088 -1.4957  1.5996 -1.3513
 3306SOL     OW21376   2.814   4.382   6.318 -0.1561  0.4805 -0.7207
 3306SOL    HW121377   2.759   4.424   6.252  1.6820  1.2045 -1.7950
 3306SOL    HW221378   2.741   4.347   6.370 -0.7888  0.3530 -1.6922
 3307SOL     OW21379   1.212   0.183  13.169 -0.3274  0.6377  0.1892
 3307SOL    HW121380   1.178   0.273  13.171 -0.3410  0.6052  1.5695
 3307SOL    HW221381   1.244   0.162  13.256 -1.8188  0.5913  0.7391
 3308SOL     OW21382   1.954   1.595  16.977  0.4234  0.1218  0.0513
 3308SOL    HW121383   1.881   1.657  16.983  1.6351  1.4369  1.2733
 3308SOL    HW221384   1.965   1.614  16.884  0.6063 -1.2534 -0.2073
 3309SOL     OW21385   2.350   3.547   3.031 -0.2378  0.3042  0.4283
 3309SOL    HW121386   2.413   3.476   3.015 -1.2158 -0.6080  0.6438
 3309SOL    HW221387   2.350   3.592   2.947  1.7659  0.9163  0.7443
 3310SOL     OW21388   0.137   3.184  17.356 -1.0078 -0.6242  0.0042
 3310SOL    HW121389   0.221   3.212  17.393 -0.6370  0.3474 -1.5517
 3310SOL    HW221390   0.147   3.197  17.262 -1.0808 -0.0593  0.0756
 3311SOL     OW21391   0.882   0.739   5.256 -0.0802  0.2597 -0.0632
 3311SOL    HW121392   0.843   0.769   5.174  2.3080  0.9011 -0.9871
 3311SOL    HW221393   0.893   0.645   5.246  2.8746  0.5809  0.2214
 3312SOL     OW21394   3.140   0.806   7.122  0.1581 -0.3653  0.3450
 3312SOL    HW121395   3.166   0.775   7.208  0.3712 -1.9502 -0.2923
 3312SOL    HW221396   3.053   0.837   7.146 -0.6891 -0.9745 -1.8940
 3313SOL     OW21397   2.703   2.885   5.811 -0.4301 -0.2793  0.2992
 3313SOL    HW121398   2.690   2.845   5.725  1.7436 -1.2350  0.4286
 3313SOL    HW221399   2.773   2.948   5.794 -0.8291  0.4723  1.4754
 3314SOL     OW21400   1.551   3.199  12.010  0.1174  0.1117 -0.3618
 3314SOL    HW121401   1.574   3.239  12.094  0.0963 -0.6026 -0.0141
 3314SOL    HW221402   1.457   3.219  12.006 -0.5922 -3.5248 -1.4630
 3315SOL     OW21403   2.685   0.738  15.412 -0.1212 -0.8041 -0.2283
 3315SOL    HW121404   2.673   0.767  15.322  0.1412  0.2529  0.0683
 3315SOL    HW221405   2.716   0.648  15.407 -0.5071 -1.0745  2.0327
 3316SOL     OW21406   2.661   2.595   4.998 -0.3421 -0.4187 -0.2249
 3316SOL    HW121407   2.652   2.553   4.912 -0.7983  0.1232 -0.4445
 3316SOL    HW221408   2.711   2.524   5.038  1.8323  0.8818 -0.6723
 3317SOL     OW21409   2.627   1.778   1.175  0.0068  0.1729  0.0856
 3317SOL    HW121410   2.638   1.769   1.080  0.1243 -0.4728  0.1606
 3317SOL    HW221411   2.533   1.789   1.190  0.0799 -0.7402  1.1882
 3318SOL     OW21412   2.538   2.521   1.476  0.7640 -0.1565  0.1890
 3318SOL    HW121413   2.593   2.536   1.399 -1.6445 -0.2944 -1.5471
 3318SOL    HW221414   2.590   2.460   1.529  1.1249  0.2515  0.2977
 3319SOL     OW21415   2.274   0.016   1.720 -0.6794 -0.0617 -0.6204
 3319SOL    HW121416   2.181   0.021   1.698 -1.2841  0.6940  2.0046
 3319SOL    HW221417   2.303   4.713   1.633  0.3585  2.1163 -0.9032
 3320SOL     OW21418   1.137   4.635  12.090  0.1680  0.2300 -0.3129
 3320SOL    HW121419   1.165   4.577  12.020  0.5996 -0.5283  0.4914
 3320SOL    HW221420   1.223   4.654  12.127  1.0438  0.3103 -2.3801
 3321SOL     OW21421   2.995   1.943   1.700 -0.1790 -0.2032 -0.1408
 3321SOL    HW121422   2.982   1.904   1.614 -0.6151 -0.6954  0.1444
 3321SOL    HW221423   3.087   1.969   1.700  0.1147 -1.2398  0.6322
 3322SOL     OW21424   2.444   1.576   5.146 -0.2467 -0.1434 -0.1370
 3322SOL    HW121425   2.502   1.524   5.091 -0.8979 -1.5191  0.4710
 3322SOL    HW221426   2.402   1.633   5.082  0.6343 -0.7781 -1.2840
 3323SOL     OW21427   2.087   4.663   2.740  0.0412 -0.4136  0.3980
 3323SOL    HW121428   2.070   0.036   2.742 -1.4144 -0.6807  0.7057
 3323SOL    HW221429   2.058   4.629   2.825 -0.6214 -2.0840 -0.5080
 3324SOL     OW21430   1.187   3.375   5.214 -0.0647 -0.5594 -0.4503
 3324SOL    HW121431   1.128   3.393   5.287 -1.0959 -0.0485 -1.3942
 3324SOL    HW221432   1.192   3.280   5.220  1.2270 -0.6204 -2.3702
 3325SOL     OW21433   0.077   4.124  15.123  0.7757  0.3134  0.1124
 3325SOL    HW121434   0.112   4.188  15.061 -3.0084  1.8614 -0.4549
 3325SOL    HW221435   0.061   4.047  15.067 -2.5284 -0.3426  1.9856
 3326SOL     OW21436   4.358   4.354   5.358  0.5428  0.5109  0.0960
 3326SOL    HW121437   4.446   4.391   5.349  1.6678 -2.7554 -2.3376
 3326SOL    HW221438   4.308   4.428   5.324  1.9008  0.7916 -1.2837
 3327SOL     OW21439   4.550   2.231  11.142 -0.1437 -0.1327  0.1418
 3327SOL    HW121440   4.490   2.157  11.151  0.7059 -0.7430  0.7913
 3327SOL    HW221441   4.512   2.277  11.217  0.7713  0.0120  0.5173
 3328SOL     OW21442   1.839   2.779  15.489  0.0629  0.0660 -0.6303
 3328SOL    HW121443   1.927   2.777  15.528 -0.6209 -0.0250  0.8959
 3328SOL    HW221444   1.784   2.796  15.565 -0.5953  0.5156 -1.2166
 3329SOL     OW21445   2.505   3.178   4.106  0.1937 -0.3866 -0.1711
 3329SOL    HW121446   2.555   3.215   4.033  2.5676  0.0081  1.6645
 3329SOL    HW221447   2.523   3.085   4.093 -0.4402 -0.5803  0.3934
 3330SOL     OW21448   2.892   0.114   8.610 -0.6033  0.0900 -0.4100
 3330SOL    HW121449   2.845   0.196   8.628 -0.9078 -0.0477 -0.5933
 3330SOL    HW221450   2.976   0.129   8.654 -2.0196 -0.3050  2.3823
 3331SOL     OW21451   0.521   0.006   4.727 -0.2223  0.1752  0.3580
 3331SOL    HW121452   0.489   0.096   4.728  1.3066  0.7764 -2.2883
 3331SOL    HW221453   0.533   4.716   4.632 -0.1137  0.3971  0.3442
 3332SOL     OW21454   3.944   2.527   9.917 -0.9017 -0.2006 -0.1779
 3332SOL    HW121455   3.897   2.610   9.924  0.4409  0.5555  0.0067
 3332SOL    HW221456   3.994   2.525   9.999  0.2335  0.1755 -0.8685
 3333SOL     OW21457   0.002   1.419  10.868  0.1821  0.4008  0.0417
 3333SOL    HW121458   4.641   1.374  10.853 -0.0117  0.9700 -0.5828
 3333SOL    HW221459   4.702   1.484  10.935 -1.4048 -0.6559  0.5583
 3334SOL     OW21460   2.901   0.622  12.543  0.4998 -0.3145 -0.0283
 3334SOL    HW121461   2.905   0.647  12.451  0.8649 -1.3107 -0.2738
 3334SOL    HW221462   2.949   0.540  12.542  2.0667  0.5987  1.0486
 3335SOL     OW21463   1.957   1.663   6.399  0.2674 -0.0188  0.2957
 3335SOL    HW121464   1.998   1.622   6.475 -1.8611 -1.1421  0.8597
 3335SOL    HW221465   1.948   1.757   6.417 -1.9611 -0.3616  1.0134
 3336SOL     OW21466   2.683   1.696   1.643 -0.0283 -0.6223 -0.2882
 3336SOL    HW121467   2.735   1.734   1.714 -1.5081 -1.2056  1.1018
 3336SOL    HW221468   2.678   1.600   1.647 -0.8584 -0.5078  1.4502
 3337SOL     OW21469   1.555   2.091   5.366  0.4423 -0.2810  0.8197
 3337SOL    HW121470   1.622   2.055   5.309  0.7213  0.0306  0.9510
 3337SOL    HW221471   1.551   2.182   5.337 -0.6357  0.0240  1.9056
 3338SOL     OW21472   0.376   3.350   4.899 -0.1822 -0.3892 -0.4656
 3338SOL    HW121473   0.360   3.433   4.855  1.6476  0.1824 -0.0468
 3338SOL    HW221474   0.323   3.286   4.852 -1.4243  0.8617 -0.7621
 3339SOL     OW21475   3.255   3.418  10.090  0.1839  0.0416  0.3487
 3339SOL    HW121476   3.331   3.367  10.060  0.2834 -0.8744  2.1452
 3339SOL    HW221477   3.229   3.453  10.005 -3.3838 -1.5369  0.7979
 3340SOL     OW21478   1.224   2.216  11.526 -0.0388  0.5177 -0.6953
 3340SOL    HW121479   1.287   2.155  11.488  1.6451  3.2697 -2.4078
 3340SOL    HW221480   1.251   2.231  11.617  1.4360  2.0604 -1.3731
 3341SOL     OW21481   3.314   1.103  17.420 -0.2219  0.0100 -0.1889
 3341SOL    HW121482   3.336   1.071  17.508  0.4481  0.4938 -0.1791
 3341SOL    HW221483   3.386   1.163  17.399  1.9941 -2.4733  0.3989
 3342SOL     OW21484   1.977   2.366   3.461 -0.1733 -0.0268  0.2461
 3342SOL    HW121485   1.916   2.296   3.437  0.6609 -0.5457 -0.3720
 3342SOL    HW221486   2.018   2.329   3.540  0.0574 -0.4366 -0.0623
 3343SOL     OW21487   3.639   4.241  13.113 -0.4454 -0.2343  0.1280
 3343SOL    HW121488   3.557   4.216  13.071  0.0579 -0.8296 -0.5050
 3343SOL    HW221489   3.649   4.183  13.189  1.1377  0.4344  0.4358
 3344SOL     OW21490   0.810   3.227  17.654  0.1382  0.0378 -0.1773
 3344SOL    HW121491   0.834   3.310  17.612  0.9642 -0.9392 -1.6173
 3344SOL    HW221492   0.899   3.193  17.656  0.5000  1.1574  2.8202
 3345SOL     OW21493   0.848   1.492  13.623  0.3619  0.2140 -0.3202
 3345SOL    HW121494   0.835   1.446  13.540  0.0682 -1.5672  0.7025
 3345SOL    HW221495   0.884   1.572  13.586  1.5618 -1.3208 -2.4282
 3346SOL     OW21496   1.277   2.201   0.741 -0.3265 -0.3972 -0.2100
 3346SOL    HW121497   1.223   2.216   0.663  0.3262  0.9418 -0.4030
 3346SOL    HW221498   1.324   2.122   0.715  1.6866 -0.0842  2.5141
 3347SOL     OW21499   3.111   1.148  17.247  0.2870 -0.5512  0.3415
 3347SOL    HW121500   3.175   1.155  17.318  0.3245  1.0580  0.1571
 3347SOL    HW221501   3.024   1.152  17.288  0.7516 -0.6180  1.3526
 3348SOL     OW21502   2.323   2.988   9.744 -0.0212  0.0262  0.1009
 3348SOL    HW121503   2.361   2.971   9.830 -2.2706  1.9305  1.4912
 3348SOL    HW221504   2.232   2.993   9.776 -0.2304 -1.3137 -0.3092
 3349SOL     OW21505   2.542   4.085   4.511  0.1901  0.0508 -0.0418
 3349SOL    HW121506   2.541   4.080   4.416  0.6030 -1.2442  0.0051
 3349SOL    HW221507   2.476   4.152   4.527 -0.0903 -0.1773 -0.2410
 3350SOL     OW21508   1.304   0.338   2.092 -0.0849 -0.1846  0.1793
 3350SOL    HW121509   1.343   0.251   2.103 -1.1229 -0.9145 -1.8953
 3350SOL    HW221510   1.384   0.391   2.095 -0.2778  0.0463  1.4400
 3351SOL     OW21511   2.135   0.892   5.610 -0.0681  0.1889  0.1497
 3351SOL    HW121512   2.111   0.806   5.574  1.6610  0.2824 -1.2383
 3351SOL    HW221513   2.109   0.898   5.702 -1.7738  1.7197 -0.4252
 3352SOL     OW21514   1.054   4.452  14.463 -0.7122  0.0129 -0.2577
 3352SOL    HW121515   1.115   4.522  14.442  0.1240  0.2406  2.9097
 3352SOL    HW221516   1.026   4.489  14.547  0.9826 -2.5897  1.4725
 3353SOL     OW21517   2.550   3.558   2.352 -0.4857  0.6414 -0.0934
 3353SOL    HW121518   2.587   3.628   2.405  0.4840  0.9398 -1.1711
 3353SOL    HW221519   2.486   3.607   2.300 -0.7147 -0.5433 -0.9144
 3354SOL     OW21520   3.223   4.256   1.492 -0.2380 -0.8018  0.3525
 3354SOL    HW121521   3.167   4.247   1.569  0.0032  2.0749  0.8539
 3354SOL    HW221522   3.166   4.258   1.415  1.4030 -1.8894 -0.8991
 3355SOL     OW21523   4.192   0.424   4.966 -0.1319 -0.2960  0.0295
 3355SOL    HW121524   4.143   0.471   4.898  0.2646 -0.1877 -0.1847
 3355SOL    HW221525   4.165   0.461   5.050  1.5156  1.4428 -0.1968
 3356SOL     OW21526   0.520   2.886   5.549 -0.3434 -0.3276 -0.1379
 3356SOL    HW121527   0.491   2.940   5.476 -0.4270 -1.2484 -0.7791
 3356SOL    HW221528   0.614   2.877   5.532 -0.5559 -3.0130  0.1045
 3357SOL     OW21529   0.155   4.257  14.635  0.5041  0.1619  0.1415
 3357SOL    HW121530   0.250   4.254  14.620  0.8686  2.7982  2.0353
 3357SOL    HW221531   0.147   4.200  14.712 -0.5033 -0.7322 -0.6276
 3358SOL     OW21532   2.129   0.471   7.021 -0.5498  0.1358  0.5012
 3358SOL    HW121533   2.133   0.534   6.949  0.3028 -0.6006 -0.0879
 3358SOL    HW221534   2.177   0.394   6.992 -1.4877 -0.3661  0.2685
 3359SOL     OW21535   2.559   1.297   8.422  0.2840 -0.7121  0.3691
 3359SOL    HW121536   2.472   1.263   8.401  0.5108 -0.6625 -0.6396
 3359SOL    HW221537   2.552   1.311   8.517  0.9472 -1.7574  0.5764
 3360SOL     OW21538   1.466   1.927  17.548 -0.0837  0.0667 -0.3403
 3360SOL    HW121539   1.394   1.870  17.575 -0.2445  1.0819  1.4050
 3360SOL    HW221540   1.421   2.010  17.531  1.2502  0.8779  0.0920
 3361SOL     OW21541   3.704   3.753  17.545  0.0044 -0.4525 -0.3843
 3361SOL    HW121542   3.697   3.845  17.571  0.4253 -0.8953  1.3648
 3361SOL    HW221543   3.800   3.755  17.538  0.0197 -0.6855 -0.2463
 3362SOL     OW21544   2.183   2.599   6.025 -0.3526 -1.1467  0.1466
 3362SOL    HW121545   2.216   2.673   5.974 -0.0004 -0.7467  0.9600
 3362SOL    HW221546   2.254   2.536   6.011  2.2003  1.8946 -0.7807
 3363SOL     OW21547   0.941   0.296   2.323  0.0024 -0.3237  0.2606
 3363SOL    HW121548   1.001   0.349   2.271  1.3518 -2.6251 -0.5172
 3363SOL    HW221549   0.891   0.239   2.264 -0.1119  1.1024 -1.0268
 3364SOL     OW21550   2.538   3.033   5.205 -0.0818  0.3031 -0.5517
 3364SOL    HW121551   2.590   3.103   5.245 -0.4994 -0.3042  1.0396
 3364SOL    HW221552   2.494   3.001   5.283  1.6523 -2.3779 -0.6631
 3365SOL     OW21553   1.119   3.205  17.293 -0.1830 -0.1818  0.0709
 3365SOL    HW121554   1.145   3.286  17.247  2.6665 -0.9413  0.3052
 3365SOL    HW221555   1.186   3.201  17.361  0.2777  0.5726 -0.3292
 3366SOL     OW21556   2.220   0.204   3.924 -0.6433 -0.4276 -0.1647
 3366SOL    HW121557   2.177   0.120   3.909 -0.4657 -0.6322  0.4967
 3366SOL    HW221558   2.296   0.192   3.867 -1.0617  0.1222 -0.8306
 3367SOL     OW21559   2.751   4.614   7.959  0.4593  0.3297  0.2191
 3367SOL    HW121560   2.801   4.601   8.039  0.7545 -1.6159 -0.2661
 3367SOL    HW221561   2.815   4.660   7.905 -0.5779  1.4171 -0.0830
 3368SOL     OW21562   1.714   2.337  10.719 -0.0635 -0.0283  0.2772
 3368SOL    HW121563   1.664   2.279  10.777 -1.2725  0.3530 -0.3759
 3368SOL    HW221564   1.673   2.319  10.635 -1.8512 -0.1466  1.1637
 3369SOL     OW21565   2.720   2.813  14.060  0.6905 -0.2031  0.6059
 3369SOL    HW121566   2.720   2.907  14.037 -0.2210 -0.6158 -1.1091
 3369SOL    HW221567   2.814   2.802  14.050  0.5497  1.1378 -2.3009
 3370SOL     OW21568   1.941   1.893   5.367  0.3539  0.2607  0.4292
 3370SOL    HW121569   1.890   1.960   5.322 -1.0493 -0.0219  1.5963
 3370SOL    HW221570   1.890   1.871   5.445  0.5084 -2.4217 -0.2272
 3371SOL     OW21571   1.499   3.660  14.744 -0.6287 -0.1100  0.3692
 3371SOL    HW121572   1.429   3.598  14.761 -0.8093 -0.4251 -1.5311
 3371SOL    HW221573   1.563   3.592  14.722 -0.0067  0.1500  1.3850
 3372SOL     OW21574   2.884   1.766   8.559 -0.1696  0.0187  0.1067
 3372SOL    HW121575   2.858   1.835   8.621 -0.1325  1.3331 -1.3225
 3372SOL    HW221576   2.846   1.685   8.592  0.9670 -0.8766 -0.7495
 3373SOL     OW21577   0.044   4.568   8.781  0.2933  0.3126  0.4789
 3373SOL    HW121578   4.717   4.613   8.850 -0.9223  2.4650 -1.8017
 3373SOL    HW221579   4.699   4.566   8.712  1.1227  0.6728 -0.3268
 3374SOL     OW21580   2.950   3.049   7.053  0.0653 -0.4157  0.7614
 3374SOL    HW121581   2.961   3.060   7.148 -0.6583  1.0821  0.6680
 3374SOL    HW221582   2.855   3.041   7.062 -0.2733  1.0454 -1.4629
 3375SOL     OW21583   0.608   2.438   9.188 -0.2944  0.2979  0.1818
 3375SOL    HW121584   0.598   2.528   9.220 -2.6578 -0.2687  1.0052
 3375SOL    HW221585   0.594   2.398   9.274 -2.1196 -1.1058 -0.7818
 3376SOL     OW21586   0.284   1.097  17.220 -0.1551  0.9709  0.6835
 3376SOL    HW121587   0.254   1.186  17.201 -0.1014  1.1089  1.2295
 3376SOL    HW221588   0.211   1.065  17.274  0.5815 -1.4736  0.2092
 3377SOL     OW21589   3.325   3.752   3.372  0.4087 -0.5367  0.1781
 3377SOL    HW121590   3.406   3.803   3.370  0.6219 -0.8408  1.1656
 3377SOL    HW221591   3.268   3.823   3.342  0.4951  0.1523  1.6731
 3378SOL     OW21592   0.955   0.080   3.209 -0.8450  0.3720 -0.4156
 3378SOL    HW121593   0.874   0.103   3.254 -1.1981 -2.6380  0.4781
 3378SOL    HW221594   1.024   0.104   3.271 -1.1815  1.4620 -0.4610
 3379SOL     OW21595   2.320   3.219  16.941 -0.1389  0.7299  0.0407
 3379SOL    HW121596   2.415   3.209  16.931  0.1468  3.2543  0.2997
 3379SOL    HW221597   2.310   3.160  17.015 -0.3450 -0.7739 -1.1928
 3380SOL     OW21598   2.767   0.396   5.017  0.5734 -0.2180 -0.2848
 3380SOL    HW121599   2.751   0.351   4.934 -3.1076  2.2195 -0.9086
 3380SOL    HW221600   2.715   0.475   5.001 -0.7182 -1.5432 -2.6352
 3381SOL     OW21601   0.064   3.968   2.920 -0.1488  0.4793 -0.2573
 3381SOL    HW121602   0.120   4.027   2.870 -0.1450  0.2959 -0.4687
 3381SOL    HW221603   0.046   3.899   2.856 -1.0977  0.7763 -0.3029
 3382SOL     OW21604   3.051   0.110   6.411 -0.5077 -0.5365  0.2205
 3382SOL    HW121605   3.031   0.030   6.460  0.8758  0.1715  1.9660
 3382SOL    HW221606   3.134   0.132   6.455 -1.0030  1.4606  0.1874
 3383SOL     OW21607   2.125   0.567   6.486 -0.2176 -0.8492 -0.1342
 3383SOL    HW121608   2.109   0.641   6.428  0.9915 -0.3345  0.1976
 3383SOL    HW221609   2.203   0.595   6.533 -0.3705 -0.5466 -0.0565
 3384SOL     OW21610   4.175   1.600   2.798 -0.0417  0.2944  0.1160
 3384SOL    HW121611   4.110   1.620   2.864  0.1851  3.9200 -0.7673
 3384SOL    HW221612   4.141   1.522   2.754 -0.2231  1.5441 -1.9669
 3385SOL     OW21613   1.901   1.840   0.874  0.0546  0.4517 -0.0941
 3385SOL    HW121614   1.938   1.929   0.873 -0.8059  0.8038 -0.2860
 3385SOL    HW221615   1.896   1.809   0.784 -0.2253  0.6777 -0.1559
 3386SOL     OW21616   4.292   0.025   7.192  0.1444 -0.1376  0.2233
 3386SOL    HW121617   4.309   0.077   7.271 -0.9063 -0.4938  0.6839
 3386SOL    HW221618   4.196   0.036   7.193 -0.0575 -1.8345 -0.3519
 3387SOL     OW21619   4.626   0.276   3.430 -0.0529  0.0046 -0.1126
 3387SOL    HW121620   4.620   0.185   3.459  2.9740  0.4686  1.9800
 3387SOL    HW221621   4.566   0.323   3.488 -2.1110 -0.2117 -2.0708
 3388SOL     OW21622   2.141   4.030  11.103  0.0491  0.2732 -0.6357
 3388SOL    HW121623   2.085   3.977  11.161  1.1244  0.0739  0.2168
 3388SOL    HW221624   2.221   4.038  11.154 -0.1682  1.7238 -0.5130
 3389SOL     OW21625   0.908   3.343   8.066 -0.2802  0.1084  0.3757
 3389SOL    HW121626   0.986   3.399   8.061  1.0661 -2.2609 -4.4759
 3389SOL    HW221627   0.941   3.254   8.053 -0.6312  0.2067 -1.1211
 3390SOL     OW21628   1.354   1.333   3.691  0.1498  0.1970  0.3023
 3390SOL    HW121629   1.334   1.242   3.714 -0.8255 -0.0383 -1.4646
 3390SOL    HW221630   1.284   1.357   3.630  1.5174  1.7903 -0.6270
 3391SOL     OW21631   4.187   1.723   6.413  0.4112  0.2280 -0.0853
 3391SOL    HW121632   4.274   1.735   6.452  0.2749 -0.3509  0.3991
 3391SOL    HW221633   4.188   1.627   6.421  2.7737  0.1507 -1.5061
 3392SOL     OW21634   2.768   3.558   4.136  0.5415  0.0930  0.5584
 3392SOL    HW121635   2.832   3.521   4.197 -0.2966 -0.5820  1.0284
 3392SOL    HW221636   2.696   3.576   4.196 -1.0184 -2.0391 -0.6546
 3393SOL     OW21637   0.076   1.938  10.698  0.6315  0.1450  0.1890
 3393SOL    HW121638   0.052   2.030  10.690  1.6019  0.2582 -1.5027
 3393SOL    HW221639   0.014   1.911  10.766 -1.4224 -1.4425 -2.2797
 3394SOL     OW21640   3.832   1.894   2.692 -0.0611  0.1940  0.2063
 3394SOL    HW121641   3.751   1.942   2.704 -0.0653 -0.1849  1.7081
 3394SOL    HW221642   3.811   1.826   2.627 -0.1733 -0.9248  1.4024
 3395SOL     OW21643   3.770   1.220   6.230 -0.2008 -0.0410 -0.4225
 3395SOL    HW121644   3.738   1.144   6.279 -0.3448 -0.4419 -1.1457
 3395SOL    HW221645   3.713   1.288   6.266 -0.4813 -1.0082  1.0171
 3396SOL     OW21646   0.136   0.878   6.117  0.2025  0.3315 -0.2759
 3396SOL    HW121647   0.230   0.891   6.127 -0.4808  2.1681  3.5213
 3396SOL    HW221648   0.125   0.814   6.046 -2.8600  2.1246 -1.4390
 3397SOL     OW21649   4.514   1.020   9.418  0.5015  0.4225 -0.0410
 3397SOL    HW121650   4.608   1.039   9.427  0.9848 -0.1818 -3.5463
 3397SOL    HW221651   4.490   1.022   9.510  1.4235 -0.1141  0.2156
 3398SOL     OW21652   1.114   3.670   7.799 -0.5816  0.3114 -0.4374
 3398SOL    HW121653   1.136   3.648   7.709 -0.2026  2.4556 -0.8697
 3398SOL    HW221654   1.020   3.686   7.802 -0.4052  1.3678 -0.3695
 3399SOL     OW21655   3.224   2.620  10.142  0.1124  0.1176 -0.6996
 3399SOL    HW121656   3.189   2.535  10.168 -2.0220  1.7290  1.6035
 3399SOL    HW221657   3.237   2.589  10.052 -1.3026 -0.5645 -0.6658
 3400SOL     OW21658   2.671   2.479   8.166 -0.4255  0.4863  0.4147
 3400SOL    HW121659   2.744   2.537   8.147 -1.1691  1.7997  1.6269
 3400SOL    HW221660   2.596   2.539   8.162 -0.4494  0.3386 -1.3579
 3401SOL     OW21661   2.045   2.304   0.452 -0.0802 -0.0009  0.5046
 3401SOL    HW121662   1.987   2.296   0.376  0.4090 -0.0130  0.1322
 3401SOL    HW221663   2.076   2.215   0.438  0.4349  0.3182 -0.3704
 3402SOL     OW21664   0.673   2.563   4.252  0.1505  0.7299  0.2031
 3402SOL    HW121665   0.605   2.615   4.296  0.4469  0.6393  0.7730
 3402SOL    HW221666   0.633   2.539   4.169  0.4541  0.3494  0.1706
 3403SOL     OW21667   1.336   4.216  14.471  0.3881  0.2123  0.0826
 3403SOL    HW121668   1.344   4.280  14.401 -0.8099  0.6637  0.3600
 3403SOL    HW221669   1.378   4.266  14.541  3.9684  0.0297 -1.9413
 3404SOL     OW21670   3.368   2.923   9.651  0.1681 -0.0215  0.4235
 3404SOL    HW121671   3.314   2.940   9.574  1.5693  0.5171 -0.4314
 3404SOL    HW221672   3.437   2.870   9.611  2.2307  3.6149 -0.7522
 3405SOL     OW21673   2.870   1.987  17.050  0.4781  0.6280 -0.6799
 3405SOL    HW121674   2.811   1.926  17.005 -1.3153  0.8374  1.4226
 3405SOL    HW221675   2.812   2.018  17.119 -0.6183  1.6656 -2.0548
 3406SOL     OW21676   0.209   1.568  12.769  1.4365 -0.1128 -0.1494
 3406SOL    HW121677   0.299   1.558  12.800  1.0537 -1.6953  0.4586
 3406SOL    HW221678   0.202   1.663  12.768  1.5459 -0.1034  0.0639
 3407SOL     OW21679   3.079   3.354   9.604 -0.0870  0.5109 -0.4115
 3407SOL    HW121680   3.031   3.417   9.551  0.1579 -0.2867 -1.5909
 3407SOL    HW221681   3.069   3.388   9.693 -0.2675 -2.0173  0.5229
 3408SOL     OW21682   2.659   2.597   4.551 -0.1960 -0.5935 -0.1694
 3408SOL    HW121683   2.706   2.656   4.492 -0.9248  0.5492  0.4096
 3408SOL    HW221684   2.655   2.652   4.629 -0.9633  0.3121 -0.8451
 3409SOL     OW21685   3.447   3.149   2.805  0.3859  0.7860  0.2753
 3409SOL    HW121686   3.527   3.101   2.783 -0.6691 -0.8449  0.0293
 3409SOL    HW221687   3.440   3.150   2.900  2.5087 -0.0172  0.4442
 3410SOL     OW21688   4.492   2.673   6.851 -0.0591 -0.0463  0.2172
 3410SOL    HW121689   4.485   2.699   6.759 -0.1316  0.3708  0.3417
 3410SOL    HW221690   4.514   2.580   6.845 -1.1468 -0.2574 -0.4084
 3411SOL     OW21691   2.973   4.407   7.996 -0.1493  0.1501  0.2771
 3411SOL    HW121692   3.009   4.472   7.935  0.9622  0.1931  0.9874
 3411SOL    HW221693   2.937   4.460   8.067  4.3274 -0.8704  3.3068
 3412SOL     OW21694   3.825   1.233   2.592  0.6948 -0.1300  0.7045
 3412SOL    HW121695   3.838   1.271   2.506 -2.1162  0.6350  0.6149
 3412SOL    HW221696   3.773   1.302   2.633 -0.4675 -0.7731  0.3180
 3413SOL     OW21697   2.581   0.155  16.984 -0.3506 -0.0832  0.2158
 3413SOL    HW121698   2.523   0.225  17.014 -0.3552  0.1126 -0.2410
 3413SOL    HW221699   2.576   0.172  16.890 -0.2422 -0.5580  0.1225
 3414SOL     OW21700   1.487   1.532  14.599  0.6169  0.1411  0.9173
 3414SOL    HW121701   1.474   1.588  14.675 -0.2577 -0.1248  0.9582
 3414SOL    HW221702   1.496   1.443  14.635 -1.2311 -0.5198 -0.2517
 3415SOL     OW21703   1.740   1.224   2.429  0.1920  0.4129  0.2379
 3415SOL    HW121704   1.743   1.202   2.522  1.0835  2.1501  0.6229
 3415SOL    HW221705   1.720   1.140   2.386  0.4893  0.4592  0.0079
 3416SOL     OW21706   0.097   3.079   3.732  0.1123  0.1999  0.0358
 3416SOL    HW121707   0.037   3.142   3.772 -0.9548  1.1033 -2.9960
 3416SOL    HW221708   0.130   3.119   3.652  0.8328  0.0907  0.2807
 3417SOL     OW21709   2.298   2.746   2.015 -0.4429  0.3118  0.5130
 3417SOL    HW121710   2.316   2.833   1.980  1.1640 -0.4956 -0.6604
 3417SOL    HW221711   2.204   2.741   2.031 -0.4549 -0.0414  0.3351
 3418SOL     OW21712   2.631   1.697   6.982 -0.0781  0.3012 -0.1430
 3418SOL    HW121713   2.646   1.603   6.988  0.7923  0.3945 -0.8994
 3418SOL    HW221714   2.662   1.728   7.067 -4.3823 -0.9151  1.8749
 3419SOL     OW21715   4.671   4.623  11.405  0.0553 -0.5302  0.4107
 3419SOL    HW121716   0.032   4.597  11.446 -0.4832 -3.1414 -0.1720
 3419SOL    HW221717   4.696   4.624  11.313  0.0606 -0.2509  0.4159
 3420SOL     OW21718   1.782   3.931  10.640  0.3756 -0.6863  0.2449
 3420SOL    HW121719   1.797   3.901  10.730 -1.5529  0.5276  0.9455
 3420SOL    HW221720   1.856   3.992  10.640  0.8374 -1.2234  1.4332
 3421SOL     OW21721   2.724   0.191  12.571  0.2580 -0.1921  0.4980
 3421SOL    HW121722   2.630   0.197  12.553  0.7589 -0.1084 -2.1423
 3421SOL    HW221723   2.755   0.234  12.491 -2.6738 -1.9298 -1.6175
 3422SOL     OW21724   1.217   2.097   2.999  0.4056  0.1681 -0.8308
 3422SOL    HW121725   1.222   2.057   2.912  0.0601  0.9166 -1.1954
 3422SOL    HW221726   1.121   2.097   3.004  0.3986 -1.7750 -0.8538
 3423SOL     OW21727   3.050   2.542   2.960  0.2986 -1.3742 -0.2294
 3423SOL    HW121728   3.041   2.568   3.051  0.0013  0.4908 -0.7708
 3423SOL    HW221729   2.976   2.580   2.912  0.8880  0.4739  0.3034
 3424SOL     OW21730   0.851   4.030   2.924  0.2291  0.3447  0.1691
 3424SOL    HW121731   0.807   4.007   2.841 -1.2918 -1.2218  1.4098
 3424SOL    HW221732   0.916   4.090   2.887 -0.7095  0.6923 -0.9369
 3425SOL     OW21733   0.766   3.780   8.277 -0.1241 -0.1992 -0.0517
 3425SOL    HW121734   0.786   3.872   8.261  1.0378 -0.1304  1.8496
 3425SOL    HW221735   0.846   3.760   8.325 -0.4739  0.9013  0.9840
 3426SOL     OW21736   1.899   3.209   4.471 -0.5281  0.5317 -0.1453
 3426SOL    HW121737   1.964   3.188   4.538 -0.8259 -0.3049 -0.1215
 3426SOL    HW221738   1.944   3.199   4.387  2.3982 -4.4362  2.0502
 3427SOL     OW21739   0.081   2.990  11.149  0.0424 -0.3831 -0.5166
 3427SOL    HW121740   0.107   3.082  11.157  0.3504 -0.6496  1.6149
 3427SOL    HW221741   0.157   2.953  11.106  0.3997  0.3034 -0.4760
 3428SOL     OW21742   3.167   4.008   6.565 -0.0950 -0.3303  0.3630
 3428SOL    HW121743   3.086   3.963   6.543  0.3539 -1.4527  1.0231
 3428SOL    HW221744   3.131   4.097   6.572 -0.3100 -0.1375 -3.2146
 3429SOL     OW21745   1.746   0.848   6.245 -0.0731  0.4407 -0.1667
 3429SOL    HW121746   1.708   0.774   6.197 -2.3427  0.1307  2.1457
 3429SOL    HW221747   1.676   0.889   6.295  0.6490  1.1001  0.3064
 3430SOL     OW21748   1.387   2.864  16.187  0.2565 -0.0569 -0.4935
 3430SOL    HW121749   1.470   2.868  16.139 -1.0750  0.1330 -2.7481
 3430SOL    HW221750   1.415   2.890  16.275  0.3452 -1.1814 -0.1840
 3431SOL     OW21751   1.572   0.183   3.680 -0.1632 -0.3149 -0.4873
 3431SOL    HW121752   1.573   0.138   3.765 -0.7267  1.2048  0.3362
 3431SOL    HW221753   1.478   0.201   3.672 -0.1351 -0.0755 -0.2802
 3432SOL     OW21754   4.589   2.474   8.171  0.1776 -0.0088  0.4197
 3432SOL    HW121755   4.602   2.380   8.173  4.4059  0.5517 -0.7859
 3432SOL    HW221756   4.498   2.481   8.199  0.5544  0.4501  1.5506
 3433SOL     OW21757   4.536   2.201  16.155 -0.1563  0.0501 -0.0308
 3433SOL    HW121758   4.453   2.218  16.112 -1.0254  0.1780  1.6945
 3433SOL    HW221759   4.551   2.287  16.193  0.6694 -0.8488  1.7149
 3434SOL     OW21760   1.227   3.878   3.367  0.6644  0.1223  0.2129
 3434SOL    HW121761   1.289   3.951   3.376  0.7863  0.0152  0.2297
 3434SOL    HW221762   1.243   3.842   3.454  1.3838 -0.3444 -0.1192
 3435SOL     OW21763   4.316   1.046   1.557 -0.9561 -0.0571  0.8504
 3435SOL    HW121764   4.255   1.071   1.626 -0.9541 -0.2788  0.9346
 3435SOL    HW221765   4.271   1.071   1.476  0.8492 -1.0801 -0.4873
 3436SOL     OW21766   2.516   3.380  14.310 -0.5198  0.1629 -0.4598
 3436SOL    HW121767   2.529   3.474  14.306  0.2934  0.0906  0.6927
 3436SOL    HW221768   2.512   3.371  14.406  1.5479 -2.0814 -0.5848
 3437SOL     OW21769   1.880   0.390   7.144  0.3268  0.0116 -0.1557
 3437SOL    HW121770   1.970   0.389   7.110 -0.5549  3.0972 -2.5725
 3437SOL    HW221771   1.841   0.435   7.069 -0.0468 -0.3371 -0.1743
 3438SOL     OW21772   1.653   0.078   3.440 -0.0573  0.1442 -0.3973
 3438SOL    HW121773   1.635   0.142   3.372 -1.0752 -0.1197 -0.3878
 3438SOL    HW221774   1.607   0.127   3.509 -0.8448  1.2700 -1.7234
 3439SOL     OW21775   0.066   2.610   7.175 -0.0362 -0.4211  0.1057
 3439SOL    HW121776   4.718   2.556   7.215  0.2961 -0.5947  0.4466
 3439SOL    HW221777   0.015   2.690   7.165 -0.0667 -0.5126 -0.4574
 3440SOL     OW21778   4.412   3.514   4.123  0.3427 -0.0222  0.6223
 3440SOL    HW121779   4.437   3.497   4.214  2.0972 -2.0388 -0.2464
 3440SOL    HW221780   4.341   3.577   4.130  2.1756  2.0503  0.7351
 3441SOL     OW21781   3.997   1.712  15.449 -1.0955 -0.2108 -0.5111
 3441SOL    HW121782   3.924   1.655  15.422 -1.0316  0.2281 -1.6036
 3441SOL    HW221783   3.959   1.799  15.438 -1.1988 -0.0168  1.3649
 3442SOL     OW21784   2.419   3.588   5.069 -0.0315 -0.3876  0.6603
 3442SOL    HW121785   2.462   3.611   5.152  2.0495  1.7044 -1.0211
 3442SOL    HW221786   2.494   3.580   5.010 -0.3092 -0.3296  0.3003
 3443SOL     OW21787   0.815   1.929   3.741  0.5452 -0.1238 -0.0908
 3443SOL    HW121788   0.822   2.021   3.713 -1.7055 -1.0375 -3.6111
 3443SOL    HW221789   0.840   1.888   3.658 -0.2363  1.0802 -0.9237
 3444SOL     OW21790   3.541   2.149  11.013  0.3735 -0.2670 -0.8952
 3444SOL    HW121791   3.478   2.181  10.948  0.4579  0.9711 -0.3713
 3444SOL    HW221792   3.497   2.183  11.091 -0.6255  0.1469 -1.6347
 3445SOL     OW21793   0.385   0.932  10.988  0.4395 -0.6134  0.1024
 3445SOL    HW121794   0.433   0.925  11.071  2.7127 -0.5737 -1.1936
 3445SOL    HW221795   0.410   0.855  10.938 -1.1526 -0.2116 -1.3158
 3446SOL     OW21796   0.656   2.391   3.877 -0.7248 -0.0036  0.0223
 3446SOL    HW121797   0.675   2.447   3.803 -0.1438  0.5704  0.6143
 3446SOL    HW221798   0.594   2.444   3.927 -0.3659 -1.2464  1.8206
 3447SOL     OW21799   3.867   4.127   1.915 -0.4123 -0.1537  0.1858
 3447SOL    HW121800   3.897   4.082   1.994  2.6570 -1.9789 -2.0008
 3447SOL    HW221801   3.775   4.102   1.921 -1.3574  2.8430 -1.7422
 3448SOL     OW21802   4.671   3.621   7.283  0.0284  0.1866 -0.4065
 3448SOL    HW121803   0.023   3.581   7.329 -0.0496  1.6412  0.9981
 3448SOL    HW221804   4.677   3.705   7.329 -0.2601  0.3968 -0.7578
 3449SOL     OW21805   0.351   1.913   7.856  0.3694  0.1694 -0.1483
 3449SOL    HW121806   0.298   1.836   7.872  0.9036  0.4370  2.9419
 3449SOL    HW221807   0.359   1.912   7.761 -0.8110 -1.5813 -0.2295
 3450SOL     OW21808   4.596   1.939  11.912  0.0970 -0.6830  0.0955
 3450SOL    HW121809   4.546   1.858  11.905  0.4518 -0.8346 -0.6748
 3450SOL    HW221810   4.594   1.941  12.008  2.3172  1.9335  0.1013
 3451SOL     OW21811   0.855   3.330   3.268  0.7355 -0.5460  0.3180
 3451SOL    HW121812   0.836   3.289   3.184 -1.6782  1.5056 -0.1161
 3451SOL    HW221813   0.788   3.290   3.323  0.0744  1.3788  0.9301
 3452SOL     OW21814   4.587   2.464   2.173 -0.0207  0.4608  0.3105
 3452SOL    HW121815   4.543   2.462   2.088 -2.1776  2.1952  1.3949
 3452SOL    HW221816   4.641   2.540   2.153  2.4478 -1.4305 -0.1966
 3453SOL     OW21817   4.134   2.658   5.226  0.2661  0.3778  0.3842
 3453SOL    HW121818   4.226   2.676   5.243  0.2467  1.5915 -0.7858
 3453SOL    HW221819   4.087   2.737   5.199  1.1533  0.3082 -1.3536
 3454SOL     OW21820   1.757   1.792   3.983 -0.5545  0.2565  0.6769
 3454SOL    HW121821   1.847   1.757   3.987 -0.5515 -0.0471 -2.2113
 3454SOL    HW221822   1.766   1.878   3.942  2.5882 -0.1076  0.5315
 3455SOL     OW21823   0.445   4.565   5.200  0.0396  0.7615 -0.7340
 3455SOL    HW121824   0.462   4.513   5.121  1.6842 -2.5295  1.7916
 3455SOL    HW221825   0.510   4.633   5.183 -0.1459  0.7603 -1.4536
 3456SOL     OW21826   3.818   0.652   1.894 -0.0863  0.2353  0.0251
 3456SOL    HW121827   3.817   0.621   1.984  1.3036  2.0805  0.6720
 3456SOL    HW221828   3.735   0.696   1.876 -0.5846 -0.7307 -0.0455
 3457SOL     OW21829   3.031   4.225   6.576 -0.1465  0.1726  0.0525
 3457SOL    HW121830   3.052   4.304   6.626 -0.9326  1.0406 -0.9864
 3457SOL    HW221831   2.953   4.199   6.625 -0.4989  2.0834  0.5209
 3458SOL     OW21832   1.986   3.775   3.674  0.1781 -0.2802 -0.6939
 3458SOL    HW121833   1.976   3.807   3.585 -0.0014  0.4219 -0.4299
 3458SOL    HW221834   1.899   3.744   3.700 -1.2714  3.2221 -1.2648
 3459SOL     OW21835   0.239   4.191   3.168 -0.1250 -0.5063 -0.3808
 3459SOL    HW121836   0.230   4.216   3.077  1.3123  2.2436  0.2544
 3459SOL    HW221837   0.297   4.115   3.161 -0.5865 -1.0910  1.8374
 3460SOL     OW21838   4.452   4.310  13.067 -0.6106  0.4908 -0.9116
 3460SOL    HW121839   4.538   4.352  13.079 -0.0593 -1.2439  1.2364
 3460SOL    HW221840   4.386   4.379  13.061 -0.3293  0.4899 -4.1639
 3461SOL     OW21841   2.085   0.953   4.451  0.2355 -0.9182 -0.1035
 3461SOL    HW121842   2.173   0.920   4.433 -0.9052 -2.7285 -2.2613
 3461SOL    HW221843   2.043   0.882   4.402 -0.2903 -0.5543 -0.1792
 3462SOL     OW21844   3.588   1.651   4.249  0.2905 -0.2384 -0.1912
 3462SOL    HW121845   3.628   1.676   4.166  0.2205 -0.7329 -0.3757
 3462SOL    HW221846   3.495   1.666   4.230  0.2056  0.6644  0.9376
 3463SOL     OW21847   1.560   2.431   2.757  0.0541  0.3633 -0.2773
 3463SOL    HW121848   1.488   2.386   2.801  1.7049 -0.8716  1.1415
 3463SOL    HW221849   1.632   2.423   2.819 -0.6526  0.9959  0.6430
 3464SOL     OW21850   3.974   0.686   8.203 -0.2536 -0.4860  0.0630
 3464SOL    HW121851   4.019   0.603   8.189  0.5234  0.1635 -1.3260
 3464SOL    HW221852   4.034   0.754   8.170  1.4349 -0.4639  3.1767
 3465SOL     OW21853   2.128   4.666   2.466 -0.6022  0.0796  0.1157
 3465SOL    HW121854   2.056   4.632   2.412 -0.6874 -1.7237  1.3576
 3465SOL    HW221855   2.104   4.640   2.555  0.7040 -0.1338  0.4002
 3466SOL     OW21856   2.286   4.057   8.460  0.2036 -0.0779  0.3627
 3466SOL    HW121857   2.366   4.102   8.434 -1.2102  2.0868 -0.2073
 3466SOL    HW221858   2.228   4.074   8.386 -1.0807  0.0203  1.3844
 3467SOL     OW21859   2.497   2.522   5.608 -0.3726 -0.4398 -0.0823
 3467SOL    HW121860   2.499   2.471   5.689  1.4490 -0.7761 -0.3465
 3467SOL    HW221861   2.418   2.569   5.635  1.1523  1.1941  1.5708
 3468SOL     OW21862   3.060   1.933   2.180  0.7356  0.7069 -0.0013
 3468SOL    HW121863   3.059   1.890   2.095 -0.0471 -2.1985  1.4838
 3468SOL    HW221864   3.066   1.858   2.238  0.3044  0.4932 -0.2403
 3469SOL     OW21865   2.852   4.174   0.295 -0.7432 -0.0062  0.0742
 3469SOL    HW121866   2.927   4.133   0.336  0.3484 -0.4599 -2.3875
 3469SOL    HW221867   2.860   4.125   0.214 -2.5153 -0.1302 -0.0372
 3470SOL     OW21868   3.696   2.529   0.505  0.3299 -0.0290 -0.2792
 3470SOL    HW121869   3.637   2.548   0.432 -0.9009 -1.2620  0.3958
 3470SOL    HW221870   3.728   2.617   0.526  0.6363  0.3549 -2.3319
 3471SOL     OW21871   1.358   4.721  17.190  0.3581 -0.1712 -0.2846
 3471SOL    HW121872   1.444   4.682  17.173  0.8147  0.1810  1.2074
 3471SOL    HW221873   1.306   4.640  17.194 -0.5299  0.4201  0.0765
 3472SOL     OW21874   2.206   4.422  12.926  0.4483  0.2793  0.0666
 3472SOL    HW121875   2.228   4.449  12.837  0.4602  1.4890  0.4454
 3472SOL    HW221876   2.289   4.381  12.951 -0.2591 -1.0687  0.2307
 3473SOL     OW21877   3.422   3.130  15.364  0.0213 -0.4032 -0.1912
 3473SOL    HW121878   3.489   3.178  15.317  1.2902 -1.4837  0.5073
 3473SOL    HW221879   3.443   3.043  15.330 -0.4696 -0.2541 -0.8828
 3474SOL     OW21880   3.846   4.515   3.624  0.3913 -0.1784 -0.0109
 3474SOL    HW121881   3.841   4.424   3.594  0.4054  0.4857 -2.0428
 3474SOL    HW221882   3.762   4.537   3.582 -0.7888  1.2962  3.1560
 3475SOL     OW21883   3.837   3.746   2.682 -0.2915  0.8239  0.4331
 3475SOL    HW121884   3.881   3.830   2.699  1.3869  0.3815 -1.7115
 3475SOL    HW221885   3.744   3.764   2.691 -0.4175  0.0889  0.5547
 3476SOL     OW21886   1.445   2.290   4.471  0.0295 -0.2066 -0.0774
 3476SOL    HW121887   1.441   2.218   4.533  1.1349 -1.0198 -0.9411
 3476SOL    HW221888   1.473   2.369   4.517  0.9722 -0.3081 -0.4655
 3477SOL     OW21889   1.111   0.268  15.551  0.0390 -0.4695  0.1329
 3477SOL    HW121890   1.044   0.255  15.618 -0.2751  1.2454  0.1664
 3477SOL    HW221891   1.143   0.179  15.535  1.5607  0.0075  0.4506
 3478SOL     OW21892   2.706   1.629  15.212 -0.3668 -0.0744 -0.7788
 3478SOL    HW121893   2.746   1.591  15.291  0.7465 -0.2802 -1.4449
 3478SOL    HW221894   2.740   1.566  15.149  3.3854 -0.4231  1.5836
 3479SOL     OW21895   2.430   4.506   8.055  0.6848 -0.2170  0.1761
 3479SOL    HW121896   2.401   4.591   8.089  1.9238 -0.0480  0.8121
 3479SOL    HW221897   2.350   4.478   8.010  0.6321 -3.2282  2.1410
 3480SOL     OW21898   0.860   2.257   8.009  0.2748 -0.2753 -0.5510
 3480SOL    HW121899   0.837   2.177   7.960 -1.3487 -0.6484  0.7996
 3480SOL    HW221900   0.780   2.294   8.046  0.8911  0.5575 -0.0617
 3481SOL     OW21901   3.443   0.120  17.662  0.6821 -0.0363  0.4326
 3481SOL    HW121902   3.358   0.086   0.001  1.2269 -1.3891  0.4687
 3481SOL    HW221903   3.449   0.205   0.017  0.2508 -0.5460  1.5023
 3482SOL     OW21904   1.517   2.570   4.228  0.3084  0.4494  0.6731
 3482SOL    HW121905   1.421   2.579   4.228  0.0517 -2.3935  0.2827
 3482SOL    HW221906   1.534   2.613   4.144 -2.0770  1.0090  0.4608
 3483SOL     OW21907   2.618   3.827   5.171  0.3249  0.1870  0.1818
 3483SOL    HW121908   2.689   3.763   5.170  0.3815  0.2464  0.3260
 3483SOL    HW221909   2.591   3.825   5.080  0.3692 -1.1214  0.1993
 3484SOL     OW21910   4.574   4.472  14.788 -0.0161  0.1455 -0.8492
 3484SOL    HW121911   4.603   4.383  14.810 -0.5852 -0.1108 -1.1208
 3484SOL    HW221912   4.645   4.530  14.815 -0.9603  1.7046 -1.7463
 3485SOL     OW21913   0.313   0.549   3.322 -0.0968  0.7654  0.0156
 3485SOL    HW121914   0.343   0.501   3.399  1.2074  1.9446  0.2517
 3485SOL    HW221915   0.272   0.616   3.377 -0.9582  0.7849 -0.6493
 3486SOL     OW21916   3.409   3.992  13.219 -0.0558 -0.2244  0.0540
 3486SOL    HW121917   3.493   4.023  13.252 -0.0598  0.6513 -0.7717
 3486SOL    HW221918   3.417   4.047  13.141  2.0847 -0.4443  0.1097
 3487SOL     OW21919   3.004   3.003   4.249 -0.3123  0.1568 -0.2460
 3487SOL    HW121920   3.014   3.098   4.241  1.4219 -0.0657 -0.8165
 3487SOL    HW221921   3.013   2.991   4.343 -0.1230 -0.5912 -0.3571
 3488SOL     OW21922   2.145   4.679   0.296  0.0822 -0.4648  0.3167
 3488SOL    HW121923   2.125   0.042   0.334 -0.8852  0.1208 -1.4969
 3488SOL    HW221924   2.061   4.634   0.287 -0.0556 -0.3264  0.9793
 3489SOL     OW21925   3.813   1.295   5.736 -0.4048 -0.2533  0.0966
 3489SOL    HW121926   3.889   1.339   5.774 -0.2520 -1.4100  1.1439
 3489SOL    HW221927   3.780   1.265   5.821 -2.0282  0.6672 -0.2192
 3490SOL     OW21928   0.244   2.225   2.087  0.3705  0.0645 -0.3382
 3490SOL    HW121929   0.199   2.163   2.030  0.1271 -1.3971  1.4616
 3490SOL    HW221930   0.299   2.161   2.132  1.0574 -0.4293 -1.8858
 3491SOL     OW21931   0.187   2.997  12.383  0.4143  0.5654  0.6951
 3491SOL    HW121932   0.205   3.077  12.334  1.7128 -2.0576 -3.0851
 3491SOL    HW221933   0.261   2.940  12.361 -1.5657 -1.6014 -0.3975
 3492SOL     OW21934   2.451   3.121   2.727  0.7017 -0.5137 -0.3539
 3492SOL    HW121935   2.386   3.057   2.758  0.2706 -0.0387 -0.2816
 3492SOL    HW221936   2.523   3.062   2.706 -0.5846 -1.7837 -1.2814
 3493SOL     OW21937   1.023   3.061   6.693  0.3019 -0.4644  1.1506
 3493SOL    HW121938   1.049   2.997   6.759 -0.4015 -0.9720  0.9381
 3493SOL    HW221939   1.110   3.074   6.654  0.0464 -1.1940  0.3283
 3494SOL     OW21940   0.921   0.448   0.859 -0.0275 -0.6587  0.6298
 3494SOL    HW121941   0.827   0.438   0.869 -0.3767  1.2613 -0.7756
 3494SOL    HW221942   0.957   0.428   0.946 -1.2104 -1.4647  0.9239
 3495SOL     OW21943   0.339   3.643   7.941 -0.1238 -0.0019  0.3624
 3495SOL    HW121944   0.386   3.696   8.005  0.6274 -0.3241  0.0758
 3495SOL    HW221945   0.380   3.664   7.858 -1.0493 -1.9508 -0.6051
 3496SOL     OW21946   1.022   1.663   5.476 -0.7838 -0.5096  0.3567
 3496SOL    HW121947   0.985   1.726   5.414  3.1323  2.1907  0.8042
 3496SOL    HW221948   0.945   1.624   5.519 -0.1726 -0.3297  1.6157
 3497SOL     OW21949   4.201   1.810   4.435  0.2113  0.2470  0.1177
 3497SOL    HW121950   4.187   1.904   4.430 -0.5337  0.0631 -1.3459
 3497SOL    HW221951   4.117   1.790   4.392  0.0956  1.6694 -0.3091
 3498SOL     OW21952   3.315   0.203   1.884 -0.0407  0.1551  0.5178
 3498SOL    HW121953   3.304   0.151   1.804 -2.1090  1.0360  0.2042
 3498SOL    HW221954   3.410   0.205   1.883 -0.0189 -0.5655  1.1304
 3499SOL     OW21955   2.523   2.376   3.091 -0.3749  0.1328 -0.2806
 3499SOL    HW121956   2.435   2.401   3.118 -0.5884  1.7148 -2.4215
 3499SOL    HW221957   2.510   2.281   3.090  2.2115 -0.2249 -0.3499
 3500SOL     OW21958   1.190   2.132  15.132 -0.0957  0.0712  0.0310
 3500SOL    HW121959   1.267   2.189  15.138 -0.4196  0.7846 -3.0044
 3500SOL    HW221960   1.145   2.149  15.215 -0.2402  2.4458 -0.5152
 3501SOL     OW21961   0.132   1.921   2.661  0.3215  0.1629 -0.1487
 3501SOL    HW121962   0.119   1.841   2.712 -0.1522  0.0073 -0.5074
 3501SOL    HW221963   0.057   1.978   2.682 -0.3242 -0.3685 -0.9992
 3502SOL     OW21964   1.854   3.656   4.442  0.2665  0.4548 -0.4924
 3502SOL    HW121965   1.823   3.672   4.353  0.0782 -0.0719 -0.5217
 3502SOL    HW221966   1.837   3.740   4.484 -0.9552  0.5052 -1.0794
 3503SOL     OW21967   3.030   0.895   7.408 -0.2717  0.2187 -0.5230
 3503SOL    HW121968   2.945   0.922   7.443  0.1062  1.7542 -0.7990
 3503SOL    HW221969   3.062   0.980   7.379 -0.1281  0.2883 -0.1583
 3504SOL     OW21970   0.113   0.938   9.896 -0.1552  0.0787  0.4682
 3504SOL    HW121971   0.025   0.972   9.912 -0.4146 -0.0619 -0.6563
 3504SOL    HW221972   0.135   0.923   9.988 -0.4667 -2.2391  0.1533
 3505SOL     OW21973   4.266   0.399   9.886 -0.3078  1.0023 -0.4518
 3505SOL    HW121974   4.266   0.395   9.981  0.0367 -1.5930 -0.5691
 3505SOL    HW221975   4.359   0.424   9.878  0.1878 -0.6149  0.2175
 3506SOL     OW21976   1.709   0.749   2.875 -0.2928 -0.4953  0.2275
 3506SOL    HW121977   1.640   0.695   2.836  0.8974  0.6627 -3.5031
 3506SOL    HW221978   1.733   0.686   2.942  0.2829 -0.9510 -0.4010
 3507SOL     OW21979   4.384   2.405   3.337  0.1054 -0.4789 -0.3656
 3507SOL    HW121980   4.363   2.497   3.349 -0.0828 -0.2915 -2.0847
 3507SOL    HW221981   4.478   2.407   3.358  0.1906 -0.9876 -0.6761
 3508SOL     OW21982   3.924   4.357   5.281 -0.2150  0.0596 -0.1475
 3508SOL    HW121983   3.889   4.396   5.201  1.4773  1.5497 -0.1553
 3508SOL    HW221984   3.998   4.302   5.255  1.1347  1.3013  1.0484
 3509SOL     OW21985   4.445   3.958   5.761  0.5608 -0.6181  0.2688
 3509SOL    HW121986   4.492   3.899   5.819  0.3163 -2.1374 -1.0853
 3509SOL    HW221987   4.427   3.902   5.686 -0.2088  2.0047 -1.4957
 3510SOL     OW21988   0.499   4.023   5.529  0.6059 -0.1419  0.3688
 3510SOL    HW121989   0.455   4.107   5.518  0.3557 -0.6058 -2.1612
 3510SOL    HW221990   0.430   3.967   5.567 -0.2250  0.1180 -0.7674
 3511SOL     OW21991   3.053   2.577   5.376 -0.2482 -0.3213  0.5360
 3511SOL    HW121992   3.014   2.526   5.306  1.9261 -0.8194 -0.3220
 3511SOL    HW221993   3.020   2.539   5.457 -0.6122  2.2194  1.5902
 3512SOL     OW21994   3.762   0.040  16.138 -0.5222 -0.4025  0.3782
 3512SOL    HW121995   3.717   0.041  16.222  0.3404 -1.4231  0.8560
 3512SOL    HW221996   3.846   0.084  16.154 -0.2031 -0.7627 -0.2678
 3513SOL     OW21997   3.790   1.885  15.193  0.2637  0.1152 -0.1090
 3513SOL    HW121998   3.813   1.792  15.186 -2.3640 -0.6080  0.6996
 3513SOL    HW221999   3.818   1.898  15.283 -1.6224 -0.3125  0.5404
 3514SOL     OW22000   0.448   2.904   7.571  0.0654 -0.5029 -0.2957
 3514SOL    HW122001   0.419   2.989   7.604 -2.4950 -1.9079  1.0743
 3514SOL    HW222002   0.456   2.933   7.479 -0.1712  0.3027 -0.0672
 3515SOL     OW22003   0.344   1.246   8.536  0.5234 -0.0210 -0.0222
 3515SOL    HW122004   0.324   1.152   8.530  1.5669 -0.0624 -2.9236
 3515SOL    HW222005   0.380   1.251   8.625  3.1100  1.1114 -1.1290
 3516SOL     OW22006   3.508   0.095   1.287 -0.2356  0.2452  0.5222
 3516SOL    HW122007   3.505   0.153   1.211  0.3603  1.4604  1.4357
 3516SOL    HW222008   3.430   0.110   1.341  0.0383  0.3345  0.8937
 3517SOL     OW22009   4.262   4.307   5.653  0.4288 -0.3865  0.2417
 3517SOL    HW122010   4.219   4.373   5.598  0.1825 -0.5876  0.1917
 3517SOL    HW222011   4.338   4.275   5.604  0.1857  0.9181 -0.9969
 3518SOL     OW22012   0.302   1.523   2.999 -0.4540 -0.2884 -0.0454
 3518SOL    HW122013   0.334   1.433   2.997 -0.9299 -0.4275 -0.9542
 3518SOL    HW222014   0.298   1.536   3.094  2.0101 -2.8444  0.4155
 3519SOL     OW22015   4.240   1.431   6.546 -0.0177 -0.5972  0.5478
 3519SOL    HW122016   4.170   1.431   6.611 -1.5490  1.5935 -1.1396
 3519SOL    HW222017   4.311   1.398   6.602  1.9262 -0.8397 -2.0582
 3520SOL     OW22018   3.625   3.893  10.039 -0.3073 -0.4100  0.1626
 3520SOL    HW122019   3.583   3.807  10.051  0.1668 -0.6867 -0.1426
 3520SOL    HW222020   3.679   3.898  10.118  2.1143 -0.6913 -1.4687
 3521SOL     OW22021   1.300   4.084   8.255  0.3663  0.4497 -0.2318
 3521SOL    HW122022   1.257   4.028   8.321  1.3841 -0.3361 -0.2294
 3521SOL    HW222023   1.235   4.077   8.185 -0.5189  2.7728  0.3636
 3522SOL     OW22024   1.334   0.719   8.426  0.9953  0.1142 -0.3012
 3522SOL    HW122025   1.309   0.788   8.364  0.2400 -1.1156 -1.3652
 3522SOL    HW222026   1.352   0.775   8.501  0.7571  1.2742 -1.1152
 3523SOL     OW22027   0.229   1.386   9.641  0.4299  0.1971 -0.1875
 3523SOL    HW122028   0.236   1.292   9.657 -0.4740  0.2111  0.2721
 3523SOL    HW222029   0.290   1.401   9.569  0.7986 -0.5891 -0.0415
 3524SOL     OW22030   3.082   0.375   3.899 -0.3878 -0.7217  0.1999
 3524SOL    HW122031   3.003   0.400   3.947 -0.3175 -1.3420  0.6414
 3524SOL    HW222032   3.124   0.455   3.868 -2.0579  0.7414  1.6837
 3525SOL     OW22033   0.955   4.488   0.163  0.2630  0.4307  0.8808
 3525SOL    HW122034   0.904   4.519   0.088  1.3793  0.8246  0.2829
 3525SOL    HW222035   0.910   4.409   0.192 -0.8994  0.0068 -2.1209
 3526SOL     OW22036   0.372   4.619   3.188 -0.5355  0.0130 -0.7045
 3526SOL    HW122037   0.282   4.590   3.200 -0.0184 -2.1705 -2.0689
 3526SOL    HW222038   0.421   4.543   3.155 -1.0748 -0.1945 -1.0147
 3527SOL     OW22039   2.443   3.725  16.456  0.0063 -0.1025  0.0374
 3527SOL    HW122040   2.383   3.797  16.435 -1.3039 -0.6208  1.9175
 3527SOL    HW222041   2.525   3.773  16.446 -0.4860  0.4753 -1.2799
 3528SOL     OW22042   2.889   3.165   3.934  0.5160  0.7022 -0.3771
 3528SOL    HW122043   2.893   3.252   3.895 -2.3069  0.5074 -1.0538
 3528SOL    HW222044   2.932   3.190   4.016 -2.7260 -0.7986  1.7842
 3529SOL     OW22045   4.423   1.809   4.237 -0.1478 -0.4334  0.1623
 3529SOL    HW122046   4.482   1.868   4.284  0.4160 -2.7788  2.4291
 3529SOL    HW222047   4.344   1.842   4.280 -1.2278 -0.6844 -1.6366
 3530SOL     OW22048   2.413   0.618   8.343  0.8251 -0.2153  0.0739
 3530SOL    HW122049   2.496   0.644   8.384  0.6351  0.6789 -0.1129
 3530SOL    HW222050   2.457   0.569   8.273 -1.0124 -0.2779 -1.0519
 3531SOL     OW22051   1.999   3.795   3.226  0.1126  0.2825  0.0811
 3531SOL    HW122052   1.996   3.719   3.168  1.1681  0.3425 -0.0577
 3531SOL    HW222053   1.941   3.854   3.178 -0.1818 -1.2772 -1.4435
 3532SOL     OW22054   1.721   3.189   5.280  0.7217 -0.3503  0.1703
 3532SOL    HW122055   1.626   3.195   5.291  1.1039 -0.5971  3.3907
 3532SOL    HW222056   1.733   3.095   5.288 -0.5832 -0.2994  2.7612
 3533SOL     OW22057   1.076   4.639   8.866  0.0906 -0.0829 -0.2504
 3533SOL    HW122058   1.048   4.564   8.919 -0.4352 -1.1574 -2.0644
 3533SOL    HW222059   0.989   4.679   8.863  0.6792  1.2104 -0.2969
 3534SOL     OW22060   2.693   3.541  14.928  0.3766  0.0355  0.6160
 3534SOL    HW122061   2.669   3.618  14.979  1.6081  0.4972  0.4859
 3534SOL    HW222062   2.608   3.528  14.884  0.0576  3.6053  0.2044
 3535SOL     OW22063   3.061   3.513  16.054 -0.0257 -0.2504 -0.6649
 3535SOL    HW122064   3.129   3.537  15.991  0.7678  1.5904  0.8983
 3535SOL    HW222065   2.980   3.522  16.003 -0.4908  0.1045  0.1435
 3536SOL     OW22066   1.829   1.347   8.396  0.3849  0.3393  0.0148
 3536SOL    HW122067   1.888   1.419   8.378  0.3931  0.4257  0.3862
 3536SOL    HW222068   1.870   1.314   8.476 -0.0830 -0.2245  0.0240
 3537SOL     OW22069   2.587   3.785   1.581 -0.5996  0.6105  0.0562
 3537SOL    HW122070   2.516   3.795   1.518 -0.6850  1.4509  0.2920
 3537SOL    HW222071   2.639   3.711   1.549 -2.0514 -0.7565  0.8750
 3538SOL     OW22072   3.688   2.447  15.744 -0.1384 -0.1294  0.0934
 3538SOL    HW122073   3.732   2.532  15.744 -1.9062  0.7974  1.3971
 3538SOL    HW222074   3.750   2.394  15.694  0.6008 -0.4043  1.2916
 3539SOL     OW22075   1.612   0.848   0.871  0.2101  1.3332  0.7837
 3539SOL    HW122076   1.593   0.886   0.785  2.2248 -0.4355 -0.4413
 3539SOL    HW222077   1.650   0.924   0.914  1.1439  2.2091 -1.5539
 3540SOL     OW22078   3.765   0.033   6.105  0.2663 -0.0544 -0.4552
 3540SOL    HW122079   3.688   4.705   6.132  0.2071  2.1693  3.4652
 3540SOL    HW222080   3.736   0.064   6.020 -0.0971 -0.0346 -0.3228
 3541SOL     OW22081   0.247   1.808   4.015 -0.1545  0.1195  0.3288
 3541SOL    HW122082   0.192   1.797   4.093 -0.0838  0.6080  0.4479
 3541SOL    HW222083   0.276   1.897   4.034 -0.7970  0.7386 -1.5840
 3542SOL     OW22084   1.728   3.152   9.596 -0.8094  0.0823 -0.3826
 3542SOL    HW122085   1.669   3.227   9.608 -1.0726 -0.4530  1.5573
 3542SOL    HW222086   1.809   3.188   9.631 -0.4402 -1.1149  0.0001
 3543SOL     OW22087   3.313   4.401   3.455  0.4510 -0.2100 -0.3028
 3543SOL    HW122088   3.348   4.422   3.368 -0.8013 -0.8794 -0.9635
 3543SOL    HW222089   3.314   4.490   3.489  1.2018 -0.2635 -0.1734
 3544SOL     OW22090   1.348   2.842   9.976  0.5479  0.5521 -0.1898
 3544SOL    HW122091   1.365   2.823   9.884 -2.1310  0.0013 -0.5749
 3544SOL    HW222092   1.359   2.765  10.031  2.7524  1.1033  0.1519
 3545SOL     OW22093   4.108   0.075   5.867  0.0570 -0.0392 -0.2122
 3545SOL    HW122094   4.135   0.027   5.789 -0.6418  0.3957 -0.7256
 3545SOL    HW222095   4.142   0.162   5.846 -0.5976  0.2612 -0.0422
 3546SOL     OW22096   3.995   1.061   5.977  0.3145 -0.1994 -0.2700
 3546SOL    HW122097   3.946   1.034   5.899  2.3884 -3.0993 -0.5754
 3546SOL    HW222098   3.939   1.031   6.048 -0.3918 -2.1755 -1.6720
 3547SOL     OW22099   0.778   2.938   7.875 -0.3418 -0.0146 -0.4580
 3547SOL    HW122100   0.726   3.018   7.874 -0.1820  0.0770 -1.6297
 3547SOL    HW222101   0.770   2.909   7.965  0.0428  0.9320 -0.1215
 3548SOL     OW22102   1.182   2.924  17.685  0.1501  0.1051 -0.1712
 3548SOL    HW122103   1.217   2.860   0.058  1.1340 -1.2169 -2.1325
 3548SOL    HW222104   1.180   2.990   0.065 -0.6304 -1.0395  0.9166
 3549SOL     OW22105   4.200   2.710   7.012  0.2468  0.2447 -0.5156
 3549SOL    HW122106   4.289   2.684   6.990 -0.8909 -0.5939 -4.2085
 3549SOL    HW222107   4.156   2.665   6.940  0.9308  0.4569 -1.0585
 3550SOL     OW22108   0.430   2.472   4.821 -0.2956 -0.4248  0.2399
 3550SOL    HW122109   0.392   2.556   4.847 -0.7423 -1.7720  3.9838
 3550SOL    HW222110   0.461   2.437   4.904  1.4521 -2.2094 -1.1688
 3551SOL     OW22111   1.990   1.509   9.033  0.5117  0.6468  0.3347
 3551SOL    HW122112   1.946   1.527   9.116 -1.4393 -0.5910 -0.4294
 3551SOL    HW222113   2.079   1.512   9.069 -0.7416  0.2982  3.5451
 3552SOL     OW22114   0.612   0.955  10.684 -0.3192 -0.4928  0.6851
 3552SOL    HW122115   0.554   0.881  10.668  0.8393 -1.3354  0.4010
 3552SOL    HW222116   0.696   0.918  10.656 -0.6293 -2.0064  1.7654
 3553SOL     OW22117   3.466   3.114   2.292 -0.0005 -0.0243  0.1344
 3553SOL    HW122118   3.522   3.037   2.285  0.3287  0.0331  2.4494
 3553SOL    HW222119   3.413   3.111   2.212 -0.9992  1.9168  0.7265
 3554SOL     OW22120   3.403   1.799  14.999  1.0977  0.1766  0.3380
 3554SOL    HW122121   3.472   1.856  15.033 -0.1903  2.1517 -0.3531
 3554SOL    HW222122   3.329   1.857  14.979  0.7510 -0.0169  1.0430
 3555SOL     OW22123   1.446   2.829   3.650  0.1648  0.2443 -0.4982
 3555SOL    HW122124   1.361   2.811   3.690  0.7205 -0.1059  0.5503
 3555SOL    HW222125   1.432   2.911   3.603  2.0194  0.2092 -1.1117
 3556SOL     OW22126   0.884   0.481   7.291 -0.2763 -0.3580 -0.1027
 3556SOL    HW122127   0.878   0.510   7.382 -1.0520  0.5202 -0.4266
 3556SOL    HW222128   0.837   0.398   7.294 -2.3873  0.9802  3.4818
 3557SOL     OW22129   1.383   2.319   9.526 -0.4814 -0.1054 -0.5760
 3557SOL    HW122130   1.292   2.297   9.546 -0.4942 -0.5506 -1.1334
 3557SOL    HW222131   1.418   2.242   9.481 -1.2169 -0.8675  0.1506
 3558SOL     OW22132   3.102   0.105   3.075 -0.0209  0.0648  0.7102
 3558SOL    HW122133   3.100   0.180   3.135  0.1729  0.9687 -0.4064
 3558SOL    HW222134   3.135   0.151   2.997 -1.6628  1.8664  1.0629
 3559SOL     OW22135   2.111   2.843  15.708  0.2939  0.1559 -0.0245
 3559SOL    HW122136   2.130   2.843  15.802 -3.5579  1.6850  0.7567
 3559SOL    HW222137   2.056   2.921  15.699 -0.8736 -0.6040  0.5414
 3560SOL     OW22138   3.945   2.970   6.059 -0.1820 -0.2462  0.5957
 3560SOL    HW122139   3.996   3.009   6.130  1.6377 -0.4763 -0.6006
 3560SOL    HW222140   3.859   3.009   6.077 -0.3734 -0.5890  0.4089
 3561SOL     OW22141   1.706   1.702  17.469  0.4791 -0.2781 -0.5279
 3561SOL    HW122142   1.761   1.640  17.516 -0.6000 -1.2979 -0.5989
 3561SOL    HW222143   1.660   1.737  17.545  0.4302 -3.7992  1.0715
 3562SOL     OW22144   4.484   3.608   3.876  0.1834  1.3570 -0.0200
 3562SOL    HW122145   4.450   3.530   3.834  3.6433  0.0495 -0.4077
 3562SOL    HW222146   4.477   3.588   3.969  4.1241 -1.7092 -0.3603
 3563SOL     OW22147   3.500   0.262  12.234  0.4625  0.6366  0.2786
 3563SOL    HW122148   3.516   0.180  12.188 -1.9181 -1.5424  3.3780
 3563SOL    HW222149   3.510   0.234  12.324  3.0541  0.4790 -0.0640
 3564SOL     OW22150   4.321   3.905   1.518 -0.4321 -0.0058  0.0523
 3564SOL    HW122151   4.376   3.839   1.476  0.8506  0.4157  1.0680
 3564SOL    HW222152   4.256   3.846   1.556 -0.1476 -0.2451  0.1715
 3565SOL     OW22153   1.098   0.150   2.933  0.1159 -0.2604 -0.2890
 3565SOL    HW122154   1.048   0.131   2.854  1.9005 -2.0576 -1.0032
 3565SOL    HW222155   1.033   0.165   3.001 -0.9944 -0.9142 -1.2212
 3566SOL     OW22156   0.448   3.616   5.499  0.0974 -0.1515  0.0261
 3566SOL    HW122157   0.509   3.625   5.573 -0.9863  0.3012  0.8583
 3566SOL    HW222158   0.369   3.640   5.547  0.5739  0.9564  0.2649
 3567SOL     OW22159   1.686   1.007   7.702 -0.5375 -0.6230  0.5031
 3567SOL    HW122160   1.728   0.976   7.783 -0.4335  0.5058  0.8824
 3567SOL    HW222161   1.696   0.925   7.653  0.9967 -0.8789  1.2152
 3568SOL     OW22162   3.755   1.248   3.905 -0.2755  0.3449 -0.0138
 3568SOL    HW122163   3.706   1.322   3.869 -2.0764 -1.4919 -1.3168
 3568SOL    HW222164   3.846   1.276   3.897  0.0385 -0.3720  1.0229
 3569SOL     OW22165   3.912   4.364   4.994  0.5432  0.3392  0.4057
 3569SOL    HW122166   3.942   4.365   4.903  0.6321 -0.9079  0.4172
 3569SOL    HW222167   3.817   4.368   4.982  0.4968 -1.2803  0.2287
 3570SOL     OW22168   4.295   2.746   4.484 -0.2237 -0.4032  0.0240
 3570SOL    HW122169   4.265   2.836   4.470  0.7754 -0.9712 -5.5526
 3570SOL    HW222170   4.301   2.702   4.400  1.0199 -1.0822  0.4745
 3571SOL     OW22171   1.342   1.428  16.936  0.0926 -0.0219 -0.5711
 3571SOL    HW122172   1.336   1.454  17.028  0.8249  0.8946 -0.7835
 3571SOL    HW222173   1.386   1.344  16.945  0.3443  0.1177 -0.5090
 3572SOL     OW22174   1.586   3.770   7.915  0.3873 -0.0728 -0.4552
 3572SOL    HW122175   1.520   3.786   7.847  1.5571  0.8713 -1.3732
 3572SOL    HW222176   1.656   3.735   7.860  2.1545  3.3857 -0.4433
 3573SOL     OW22177   2.596   1.651   0.920  0.0573 -0.0543  0.4821
 3573SOL    HW122178   2.683   1.613   0.909 -0.1570 -1.0407  2.2467
 3573SOL    HW222179   2.551   1.603   0.851  1.7914 -1.5870  0.4131
 3574SOL     OW22180   2.775   2.542   3.581  0.1164  0.9222 -0.2960
 3574SOL    HW122181   2.702   2.548   3.519 -0.1658  0.1930 -0.0367
 3574SOL    HW222182   2.839   2.601   3.541 -1.4239  0.4864 -3.3941
 3575SOL     OW22183   1.195   3.472   8.165 -0.4051  0.3681  0.0920
 3575SOL    HW122184   1.211   3.495   8.257 -2.8448  0.1158  0.5696
 3575SOL    HW222185   1.159   3.550   8.124 -1.7653  0.7180  1.9694
 3576SOL     OW22186   4.253   1.993  15.921 -0.0916  0.0488 -0.0431
 3576SOL    HW122187   4.225   1.912  15.964  1.6603 -0.6058 -0.1305
 3576SOL    HW222188   4.266   1.969  15.830 -2.0638  0.1431 -0.3455
 3577SOL     OW22189   3.011   0.313   4.199  0.0742  0.3538 -0.6114
 3577SOL    HW122190   3.072   0.241   4.214  2.5372  2.6258  0.2879
 3577SOL    HW222191   3.031   0.334   4.108  2.7347 -0.6763 -0.2560
 3578SOL     OW22192   0.364   3.777   2.107 -0.1714 -0.5601 -0.2333
 3578SOL    HW122193   0.367   3.722   2.029 -2.4558  0.5879 -1.1194
 3578SOL    HW222194   0.273   3.791   2.134 -0.7416 -0.0140 -2.4940
 3579SOL     OW22195   4.548   3.639   1.703  0.5698 -0.0478  0.4119
 3579SOL    HW122196   4.460   3.644   1.741  0.0372 -0.0028 -0.7991
 3579SOL    HW222197   4.558   3.734   1.712  1.3644 -0.0646 -0.3208
 3580SOL     OW22198   3.146   3.721   1.949 -0.0700  0.3194 -0.0830
 3580SOL    HW122199   3.203   3.648   1.975 -0.5219 -0.0884 -0.2403
 3580SOL    HW222200   3.081   3.714   2.019  0.4755 -1.4329  0.2550
 3581SOL     OW22201   2.970   2.882  15.774  0.3956  0.1875  0.0898
 3581SOL    HW122202   2.918   2.896  15.695  0.2335  0.7289  0.2955
 3581SOL    HW222203   2.923   2.807  15.809 -0.1869 -0.0013 -1.1160
 3582SOL     OW22204   0.204   1.125   2.588  0.9541  0.2993  0.2404
 3582SOL    HW122205   0.265   1.177   2.536 -1.4491  2.7984 -0.1156
 3582SOL    HW222206   0.248   1.040   2.596  2.9929  1.6423  3.3618
 3583SOL     OW22207   3.355   3.506   8.102  0.1290  0.2325 -0.4560
 3583SOL    HW122208   3.357   3.600   8.120  1.6378 -0.1726  1.5155
 3583SOL    HW222209   3.385   3.473   8.187 -0.4157  0.9311  0.0103
 3584SOL     OW22210   3.408   0.216   5.401 -0.2864  0.6959  0.2056
 3584SOL    HW122211   3.355   0.152   5.353 -0.5176  0.5734  0.6261
 3584SOL    HW222212   3.485   0.235   5.347 -0.0207  0.1726  0.3990
 3585SOL     OW22213   3.524   0.116   4.233 -0.0170 -0.3801  0.3225
 3585SOL    HW122214   3.487   0.196   4.194  0.3478 -0.0266  0.7076
 3585SOL    HW222215   3.466   0.042   4.213  1.5169 -0.7397 -2.8886
 3586SOL     OW22216   0.815   2.389   3.064  0.0697 -0.0436 -0.2663
 3586SOL    HW122217   0.825   2.350   2.977 -0.8172 -1.2707  0.1844
 3586SOL    HW222218   0.720   2.401   3.061  0.2804  2.0590  1.3070
 3587SOL     OW22219   3.423   2.804  16.641  0.3432 -0.0767 -0.4240
 3587SOL    HW122220   3.468   2.750  16.705 -0.4597 -1.2319 -0.8172
 3587SOL    HW222221   3.407   2.886  16.687  1.0220 -0.4545  0.4764
 3588SOL     OW22222   0.494   3.302   9.593 -0.2663  0.1357 -0.0121
 3588SOL    HW122223   0.448   3.221   9.572 -1.4901  0.8911 -0.1896
 3588SOL    HW222224   0.524   3.290   9.684 -0.1410  2.8561  0.2954
 3589SOL     OW22225   3.095   1.422   5.575  0.1821 -0.3183 -0.3029
 3589SOL    HW122226   3.001   1.429   5.591  0.5711  1.4138  1.2244
 3589SOL    HW222227   3.127   1.362   5.642 -0.2943  0.1554  0.3413
 3590SOL     OW22228   1.334   3.108   7.069  0.2558  0.4767  0.2335
 3590SOL    HW122229   1.360   3.128   6.979  0.6831 -0.0827  0.2277
 3590SOL    HW222230   1.265   3.043   7.054 -1.9799  2.8258  0.4799
 3591SOL     OW22231   4.065   0.572   6.843  0.5021  0.1630 -0.4266
 3591SOL    HW122232   4.132   0.570   6.911  0.1117  0.4150 -0.0407
 3591SOL    HW222233   4.090   0.493   6.794 -1.8167 -0.8809  0.0963
 3592SOL     OW22234   3.404   2.316   1.921 -0.4720 -0.1786 -0.5754
 3592SOL    HW122235   3.363   2.387   1.972 -0.7721 -0.1816 -0.8180
 3592SOL    HW222236   3.440   2.257   1.987  0.4072  0.5512 -0.3885
 3593SOL     OW22237   2.450   4.035   0.619  0.1534 -0.0647  0.1150
 3593SOL    HW122238   2.511   4.050   0.546  0.9306  0.5172  0.8864
 3593SOL    HW222239   2.479   3.958   0.667 -0.1122 -1.0545 -1.3249
 3594SOL     OW22240   0.729   3.063  13.581 -0.3004 -0.2338  0.2008
 3594SOL    HW122241   0.776   2.990  13.540 -0.6565 -0.2183 -0.2310
 3594SOL    HW222242   0.736   3.136  13.520  1.7388 -1.2530 -0.7832
 3595SOL     OW22243   0.627   3.158   8.242  0.7540  0.1971  0.0885
 3595SOL    HW122244   0.650   3.241   8.284  1.9060 -0.3290  0.4836
 3595SOL    HW222245   0.544   3.141   8.286  0.1586  0.2897 -0.9934
 3596SOL     OW22246   0.408   3.740   8.902  0.2328  0.3267 -0.2163
 3596SOL    HW122247   0.465   3.763   8.975 -1.0388 -0.4252  0.9838
 3596SOL    HW222248   0.364   3.824   8.889  1.4425  0.8073 -1.3085
 3597SOL     OW22249   1.813   2.330   6.083  0.6861 -0.0442  0.7801
 3597SOL    HW122250   1.728   2.287   6.091 -0.5354  2.4337  1.1289
 3597SOL    HW222251   1.818   2.375   6.167 -1.7555 -0.4445  1.1335
 3598SOL     OW22252   0.240   3.087   5.569  0.0851  0.3854 -0.3642
 3598SOL    HW122253   0.226   2.993   5.572 -0.4797  0.5172  1.1784
 3598SOL    HW222254   0.325   3.089   5.525 -0.9897  3.7633 -2.3138
 3599SOL     OW22255   0.191   3.947  13.009 -0.1352  0.5116 -0.4936
 3599SOL    HW122256   0.167   4.022  12.954  0.5042  0.3845 -0.9495
 3599SOL    HW222257   0.151   3.972  13.092 -1.2102 -0.0708 -0.8457
 3600SOL     OW22258   4.682   0.366  15.353 -0.7271 -0.5535  0.3133
 3600SOL    HW122259   0.013   0.417  15.291 -0.2564 -1.5141 -0.0869
 3600SOL    HW222260   4.604   0.416  15.376  0.4964  1.0582  0.8862
 3601SOL     OW22261   0.857   2.014   7.559 -0.2741  0.3930  0.4093
 3601SOL    HW122262   0.790   2.081   7.541 -0.2904 -0.0468 -1.2152
 3601SOL    HW222263   0.823   1.961   7.631 -0.2453  0.1306  0.2294
 3602SOL     OW22264   3.259   3.174  15.773  0.0636 -0.1034  0.4412
 3602SOL    HW122265   3.334   3.143  15.722 -0.3130 -0.8944  0.3706
 3602SOL    HW222266   3.201   3.200  15.701  0.7499  0.0739 -0.0551
 3603SOL     OW22267   1.119   2.487  14.769  0.6265 -0.1378  0.0865
 3603SOL    HW122268   1.199   2.540  14.779 -0.3472  1.5224 -1.0498
 3603SOL    HW222269   1.151   2.402  14.740 -1.2135 -1.2060  1.2359
 3604SOL     OW22270   1.385   0.573   3.820  0.1958 -0.4885 -0.7877
 3604SOL    HW122271   1.334   0.624   3.882 -1.1621 -0.3703 -1.9976
 3604SOL    HW222272   1.354   0.485   3.840 -1.1835  0.1576 -0.0887
 3605SOL     OW22273   3.580   3.531   3.132 -0.3286  0.1847 -0.0443
 3605SOL    HW122274   3.570   3.536   3.037  1.0349 -2.1336 -0.2971
 3605SOL    HW222275   3.492   3.500   3.153 -0.7499  2.5258  1.5919
 3606SOL     OW22276   4.228   3.661   2.538  0.1668 -0.6525 -0.1570
 3606SOL    HW122277   4.247   3.617   2.621  2.0864  1.2077  0.3805
 3606SOL    HW222278   4.141   3.623   2.526 -1.3698  2.5050  1.0340
 3607SOL     OW22279   1.676   3.122   7.854  0.3044 -0.4805 -0.7457
 3607SOL    HW122280   1.620   3.085   7.922 -0.6847 -0.1117 -1.3547
 3607SOL    HW222281   1.632   3.205   7.837  2.0961  0.7060  0.4217
 3608SOL     OW22282   0.079   0.635   4.527  0.2943 -0.1259 -0.3488
 3608SOL    HW122283   0.042   0.676   4.448  0.3305  0.6477  0.0331
 3608SOL    HW222284   0.009   0.652   4.590  1.7971  1.2020  0.9679
 3609SOL     OW22285   1.150   0.501  11.562 -0.1501  0.4845 -0.2279
 3609SOL    HW122286   1.238   0.523  11.534  0.2763 -0.7262  0.1678
 3609SOL    HW222287   1.145   0.411  11.529 -0.8266  1.0666 -1.7038
 3610SOL     OW22288   0.204   0.201   8.879 -0.0625 -0.5741 -0.3012
 3610SOL    HW122289   0.296   0.218   8.861 -0.1990  1.3835  0.8862
 3610SOL    HW222290   0.159   0.204   8.794 -1.7871 -0.3441  0.6173
 3611SOL     OW22291   3.728   2.867  15.956  0.1526 -0.1206  0.7226
 3611SOL    HW122292   3.678   2.943  15.927  0.3695  0.0112  0.6954
 3611SOL    HW222293   3.668   2.814  16.009  0.2240 -2.6027 -1.6299
 3612SOL     OW22294   4.006   4.040   0.136 -0.5143  0.1436 -0.2417
 3612SOL    HW122295   4.079   4.043   0.198  1.2581  1.2499 -2.3780
 3612SOL    HW222296   3.984   4.130   0.110  2.0254  0.7354 -0.4262
 3613SOL     OW22297   1.135   3.655   4.491 -0.7595  0.2831 -0.0200
 3613SOL    HW122298   1.212   3.702   4.458 -0.6263  0.3049  0.3125
 3613SOL    HW222299   1.128   3.594   4.419  0.4249  0.1420 -0.0241
 3614SOL     OW22300   4.526   1.627   4.759  0.0021 -0.9116  0.0502
 3614SOL    HW122301   4.543   1.701   4.817 -0.1270 -0.2213 -0.7904
 3614SOL    HW222302   4.463   1.571   4.804  1.2095 -0.3350  2.4264
 3615SOL     OW22303   2.977   0.997  15.332 -0.4342  0.0284  0.1439
 3615SOL    HW122304   2.915   1.025  15.264  2.7878  1.0127 -2.4051
 3615SOL    HW222305   3.021   1.078  15.355 -1.4991  0.6637 -0.0346
 3616SOL     OW22306   0.206   0.293   4.198  0.0322 -0.0181  0.2384
 3616SOL    HW122307   0.123   0.319   4.159  0.6209  0.8622 -0.4583
 3616SOL    HW222308   0.255   0.375   4.208 -1.3191  0.7172  0.7078
 3617SOL     OW22309   4.456   0.947  15.269  0.7269  0.0615  0.2607
 3617SOL    HW122310   4.368   0.982  15.287  0.4866 -0.2354 -0.3330
 3617SOL    HW222311   4.493   1.015  15.212  1.4344  0.0842  0.7488
 3618SOL     OW22312   1.982   1.121   4.063  0.0603 -0.2581  0.5953
 3618SOL    HW122313   1.973   1.033   4.026  1.0073 -0.0575 -0.0977
 3618SOL    HW222314   2.054   1.167   4.020  0.0425 -1.3398 -0.5683
 3619SOL     OW22315   4.702   3.403  10.416 -0.4683 -0.2236 -0.2939
 3619SOL    HW122316   4.616   3.429  10.381 -0.2063  0.9908 -0.0513
 3619SOL    HW222317   4.687   3.435  10.505 -1.7425 -0.0124 -0.5817
 3620SOL     OW22318   4.421   0.560   2.404  0.2000 -0.0847  0.6871
 3620SOL    HW122319   4.506   0.603   2.405  0.0055  0.3434 -1.9427
 3620SOL    HW222320   4.401   0.580   2.312 -0.2637 -3.3478  0.0934
 3621SOL     OW22321   1.494   0.449   8.224 -0.1114 -0.6362 -0.3781
 3621SOL    HW122322   1.424   0.458   8.160 -0.7927  2.8418  0.8597
 3621SOL    HW222323   1.571   0.457   8.168  0.6661 -2.0228  0.4724
 3622SOL     OW22324   2.358   2.458  13.087 -0.0160  0.0441 -0.6575
 3622SOL    HW122325   2.386   2.533  13.033 -0.5779  0.4291 -0.4147
 3622SOL    HW222326   2.268   2.451  13.056 -0.8569 -0.5023  1.9126
 3623SOL     OW22327   3.032   0.200   7.036 -0.3869  0.4415  0.1205
 3623SOL    HW122328   3.050   0.250   7.116  1.4075 -1.1637  0.7072
 3623SOL    HW222329   3.112   0.148   7.031 -1.4561 -1.3254  1.5553
 3624SOL     OW22330   0.266   4.720   3.742  0.5832  0.1923  0.0973
 3624SOL    HW122331   0.345   4.688   3.786  1.3078 -0.2506 -1.5212
 3624SOL    HW222332   0.211   4.715   3.821  0.0489 -0.0088 -0.2867
 3625SOL     OW22333   1.556   3.727   3.453  0.0693 -0.4768  0.1375
 3625SOL    HW122334   1.644   3.707   3.486  0.1439 -1.4298 -0.6305
 3625SOL    HW222335   1.551   3.823   3.452 -0.2001 -0.5094 -2.3447
 3626SOL     OW22336   1.146   1.991   2.149  0.4022 -0.6104 -0.9137
 3626SOL    HW122337   1.231   2.035   2.148 -0.2104  0.5754  0.1004
 3626SOL    HW222338   1.169   1.909   2.105  2.4042  0.1174 -1.2095
 3627SOL     OW22339   0.988   2.909   4.487 -0.6106 -0.3853 -0.1374
 3627SOL    HW122340   0.983   2.838   4.551 -2.4465  0.3765  0.5779
 3627SOL    HW222341   1.057   2.873   4.433  0.2373 -0.9595  1.3254
 3628SOL     OW22342   3.071   2.978   5.073  0.0747  0.1269 -0.1223
 3628SOL    HW122343   3.137   3.039   5.108  0.8335 -1.4771  1.2558
 3628SOL    HW222344   3.043   3.024   4.994 -2.1748 -0.1862  0.4899
 3629SOL     OW22345   3.428   1.606   8.537 -0.0423 -0.1259 -0.3990
 3629SOL    HW122346   3.451   1.516   8.516  1.1215  0.0674  0.0546
 3629SOL    HW222347   3.415   1.591   8.631  1.4112  1.7483  0.1011
 3630SOL     OW22348   2.009   4.599   2.993 -0.0248  0.6052  0.3065
 3630SOL    HW122349   2.012   4.626   3.085 -0.7914  0.8007  0.2666
 3630SOL    HW222350   1.926   4.552   2.989 -0.1613  0.8766  0.0112
 3631SOL     OW22351   1.473   1.172   8.046  0.7894  0.5203 -0.2504
 3631SOL    HW122352   1.538   1.114   8.084 -0.2742 -0.2737  0.3450
 3631SOL    HW222353   1.419   1.195   8.122 -0.7554 -0.6431 -1.0091
 3632SOL     OW22354   2.314   0.149   2.455 -0.0887  0.0762  0.6988
 3632SOL    HW122355   2.250   0.078   2.461 -0.9248  0.8604  1.1738
 3632SOL    HW222356   2.253   0.214   2.491 -1.8697 -1.3719  0.3300
 3633SOL     OW22357   3.427   0.221  17.331  1.0231  0.1899 -0.6284
 3633SOL    HW122358   3.353   0.170  17.363 -0.3282  2.1736 -0.6229
 3633SOL    HW222359   3.482   0.233  17.409 -0.1674  0.9882  0.0923
 3634SOL     OW22360   4.346   4.509   6.690  0.5196 -0.5794  0.3175
 3634SOL    HW122361   4.421   4.453   6.667  0.6725  0.7294 -2.3867
 3634SOL    HW222362   4.366   4.546   6.775  1.5201 -2.8657  1.0892
 3635SOL     OW22363   3.787   2.420   4.006  0.2971  0.3349  0.2586
 3635SOL    HW122364   3.789   2.513   4.029  0.0369 -0.2474  2.6009
 3635SOL    HW222365   3.712   2.420   3.946  0.6451 -1.7991 -0.1849
 3636SOL     OW22366   1.571   0.571  12.982 -0.4488 -0.0555  0.1309
 3636SOL    HW122367   1.496   0.513  12.969 -0.9787  0.8042 -0.6508
 3636SOL    HW222368   1.536   0.649  13.026 -0.1783 -0.4552  1.0506
 3637SOL     OW22369   2.091   3.829   4.014 -0.1223  0.0549 -0.3103
 3637SOL    HW122370   2.134   3.886   3.950  2.1036 -1.0005  0.2524
 3637SOL    HW222371   2.135   3.749   3.985 -1.1498 -1.2397  1.7109
 3638SOL     OW22372   1.487   3.442   6.042 -0.0594 -0.0288  0.4596
 3638SOL    HW122373   1.529   3.357   6.035  0.1509  0.3502 -2.6687
 3638SOL    HW222374   1.565   3.488   6.071  0.1806 -0.8829  1.1578
 3639SOL     OW22375   2.512   3.469   6.608 -0.6560 -0.5454 -0.0850
 3639SOL    HW122376   2.564   3.436   6.535  0.2854 -3.3171  1.8092
 3639SOL    HW222377   2.574   3.459   6.681  0.0688 -0.8930 -0.7583
 3640SOL     OW22378   0.558   3.621   3.039  0.2846  0.4648  0.2031
 3640SOL    HW122379   0.549   3.527   3.054 -2.7805  0.7376 -0.0170
 3640SOL    HW222380   0.607   3.644   3.118 -0.7533  0.0913  0.9446
 3641SOL     OW22381   3.394   0.496  15.060 -0.6368  0.2737 -0.3379
 3641SOL    HW122382   3.464   0.448  15.017 -0.4355 -1.2828  1.7046
 3641SOL    HW222383   3.341   0.417  15.072  0.8166 -0.5330  0.7435
 3642SOL     OW22384   0.988   4.153   6.662  0.2212 -0.2565 -0.1940
 3642SOL    HW122385   0.970   4.242   6.632  0.4128 -0.4027 -0.7454
 3642SOL    HW222386   1.081   4.143   6.679  0.6478  3.2665 -0.3549
 3643SOL     OW22387   4.565   2.755   6.583 -0.6981  0.1676  0.4894
 3643SOL    HW122388   4.539   2.847   6.588 -1.0079  0.1289 -0.3136
 3643SOL    HW222389   4.500   2.708   6.531  0.5192  0.1391 -1.0239
 3644SOL     OW22390   1.583   4.369   5.660 -0.2978 -0.3625  0.3765
 3644SOL    HW122391   1.582   4.463   5.677  0.5071 -0.1370 -0.7620
 3644SOL    HW222392   1.548   4.348   5.746 -3.5231 -0.1843 -0.8916
 3645SOL     OW22393   2.510   2.872   7.784 -0.3893  0.5168 -0.4765
 3645SOL    HW122394   2.527   2.778   7.787 -1.3231  0.3998  0.8079
 3645SOL    HW222395   2.599   2.908   7.787  0.3482 -1.2925 -0.5069
 3646SOL     OW22396   3.130   3.823   7.642  0.0047 -0.0032  0.3261
 3646SOL    HW122397   3.198   3.809   7.709  1.3205 -1.4786 -1.3201
 3646SOL    HW222398   3.164   3.895   7.589  1.2280  0.9480  2.4040
 3647SOL     OW22399   3.081   2.134   4.898 -0.2158 -0.2931 -0.1431
 3647SOL    HW122400   3.166   2.094   4.882  0.0468 -0.6017  2.0644
 3647SOL    HW222401   3.045   2.143   4.810 -1.0922  2.3401  0.4652
 3648SOL     OW22402   3.765   3.641  13.996 -1.0680 -0.0107 -0.0878
 3648SOL    HW122403   3.759   3.583  13.920 -0.2908  0.6081 -0.6269
 3648SOL    HW222404   3.732   3.722  13.955 -2.3875 -0.3270  0.3638
 3649SOL     OW22405   4.425   3.611  13.276 -0.0957 -0.0628  0.0216
 3649SOL    HW122406   4.456   3.701  13.273  1.7900 -0.8200 -2.8481
 3649SOL    HW222407   4.503   3.571  13.315 -0.9761 -0.1630  1.6672
 3650SOL     OW22408   3.340   4.344   2.684  0.0406  0.0108  0.6261
 3650SOL    HW122409   3.257   4.359   2.730 -1.3863 -2.4012 -1.1478
 3650SOL    HW222410   3.334   4.397   2.605  1.2505 -0.5678  0.1520
 3651SOL     OW22411   3.055   0.536   2.295  0.5961 -0.7966 -0.1941
 3651SOL    HW122412   2.979   0.538   2.237  1.0910 -1.5366 -0.8571
 3651SOL    HW222413   3.010   0.524   2.379 -0.0989 -2.1638 -0.7562
 3652SOL     OW22414   3.562   2.029  11.312  0.2504 -0.2109  0.3954
 3652SOL    HW122415   3.639   2.071  11.274  0.5583 -0.2771  0.9411
 3652SOL    HW222416   3.495   2.095  11.292  1.2980  0.8291  0.3793
 3653SOL     OW22417   2.381   4.634   2.771 -0.3126  0.6861  0.0059
 3653SOL    HW122418   2.288   4.631   2.748 -1.1155 -0.4485  3.4029
 3653SOL    HW222419   2.369   4.598   2.860 -2.7874 -1.3888 -1.1531
 3654SOL     OW22420   2.577   1.486   8.161 -0.8482 -0.1704 -0.0410
 3654SOL    HW122421   2.597   1.437   8.241 -0.8937 -0.0728  0.0293
 3654SOL    HW222422   2.658   1.529   8.134 -0.4498 -0.9419 -0.0889
 3655SOL     OW22423   1.129   0.421   5.864  0.0963 -0.1470 -0.1191
 3655SOL    HW122424   1.111   0.386   5.951 -0.0737 -1.1369 -0.5466
 3655SOL    HW222425   1.051   0.476   5.860 -0.2241 -0.6090 -0.1685
 3656SOL     OW22426   2.572   2.044   2.738  0.0463 -0.0295  0.0376
 3656SOL    HW122427   2.604   1.955   2.721 -1.8087 -0.7437  0.2115
 3656SOL    HW222428   2.482   2.016   2.720 -0.0953 -0.3278  1.2444
 3657SOL     OW22429   4.632   1.487  14.160 -0.2095  0.2318 -0.4429
 3657SOL    HW122430   4.720   1.448  14.162 -1.2369 -1.9635  1.0848
 3657SOL    HW222431   4.648   1.578  14.184  1.1299  0.0440 -0.6070
 3658SOL     OW22432   0.780   0.182   4.533  0.1417 -0.2370  0.3265
 3658SOL    HW122433   0.761   0.172   4.627 -1.1368  1.3619  0.2303
 3658SOL    HW222434   0.854   0.242   4.542 -0.3301  0.5569 -1.3383
 3659SOL     OW22435   2.887   4.202  16.179  0.1237 -0.1733  0.1268
 3659SOL    HW122436   2.921   4.291  16.182 -2.0919  0.6876 -0.2105
 3659SOL    HW222437   2.874   4.171  16.269  0.9942 -0.1308  0.2654
 3660SOL     OW22438   4.394   1.371  12.811 -0.1357 -0.3577  0.0872
 3660SOL    HW122439   4.305   1.402  12.826  0.3707  0.8871  0.5329
 3660SOL    HW222440   4.423   1.321  12.887  0.4029 -0.1251  0.0354
 3661SOL     OW22441   0.576   3.575   4.582  0.0594 -0.0086 -0.6768
 3661SOL    HW122442   0.487   3.575   4.618  0.0730 -0.6409 -0.6529
 3661SOL    HW222443   0.584   3.480   4.584 -1.6943 -0.1313  1.3568
 3662SOL     OW22444   0.984   0.439  10.830 -0.2951  0.6033  0.0959
 3662SOL    HW122445   0.939   0.364  10.792  0.4730  0.1873  0.0221
 3662SOL    HW222446   0.899   0.481  10.844 -1.4193 -2.3892  2.2784
 3663SOL     OW22447   1.282   0.628   5.243 -0.1361  0.5873 -0.1818
 3663SOL    HW122448   1.272   0.716   5.206  3.3635  1.8659  1.9256
 3663SOL    HW222449   1.224   0.577   5.187  0.4004  0.0761 -0.2732
 3664SOL     OW22450   0.580   4.531   1.170  0.1467 -0.2494  0.3215
 3664SOL    HW122451   0.622   4.615   1.186  0.3445 -0.2287 -0.3217
 3664SOL    HW222452   0.488   4.555   1.180  0.2120 -0.0218  0.3636
 3665SOL     OW22453   0.508   4.252   8.482  0.0295 -0.5134 -0.5807
 3665SOL    HW122454   0.521   4.204   8.563  0.6867 -0.9233 -0.9259
 3665SOL    HW222455   0.419   4.283   8.498  0.1552 -0.6576  0.4033
 3666SOL     OW22456   4.178   0.993   3.098  0.5569 -0.1497  0.0363
 3666SOL    HW122457   4.215   0.985   3.010  0.4574 -0.7793  0.0573
 3666SOL    HW222458   4.205   1.078   3.133  0.8582 -0.0824 -0.3479
 3667SOL     OW22459   0.521   3.028   9.337  0.1163  0.0546 -0.9352
 3667SOL    HW122460   0.550   3.104   9.286 -1.5694  0.5728 -1.1282
 3667SOL    HW222461   0.428   3.050   9.327 -0.0904  0.6021  2.2194
 3668SOL     OW22462   0.820   1.151  12.941 -0.1209 -0.4376 -0.2745
 3668SOL    HW122463   0.742   1.106  12.976 -0.1455 -0.1829 -0.0070
 3668SOL    HW222464   0.845   1.091  12.870  1.0217  1.9096 -1.8521
 3669SOL     OW22465   1.325   1.033   3.698  0.1348  0.0507 -0.4822
 3669SOL    HW122466   1.390   0.974   3.738 -0.2507 -0.6112 -0.8370
 3669SOL    HW222467   1.337   1.023   3.604  0.2742 -1.9265 -0.2609
 3670SOL     OW22468   3.355   4.540   8.266 -0.3043 -0.0666  0.2937
 3670SOL    HW122469   3.304   4.459   8.266  1.5302 -1.2190 -0.9438
 3670SOL    HW222470   3.339   4.593   8.345 -0.5630  0.4668 -0.1134
 3671SOL     OW22471   2.609   1.512   5.527 -0.1273  0.1495  0.0104
 3671SOL    HW122472   2.682   1.573   5.528 -0.1148  0.1120  0.9916
 3671SOL    HW222473   2.532   1.569   5.525 -0.3677 -0.1433  0.8448
 3672SOL     OW22474   3.722   2.071   2.410  0.0293 -0.6303 -0.1470
 3672SOL    HW122475   3.796   2.073   2.471 -1.4649 -0.0546  1.6641
 3672SOL    HW222476   3.772   2.043   2.333  0.2230  0.5586 -0.4559
 3673SOL     OW22477   3.937   0.452   3.521 -0.2033  0.2648 -0.2372
 3673SOL    HW122478   3.940   0.380   3.459  2.1475 -0.8393  1.1577
 3673SOL    HW222479   3.976   0.527   3.476  0.7674 -1.1437 -1.7082
 3674SOL     OW22480   4.372   3.827   3.783  0.6734  0.4956 -0.0060
 3674SOL    HW122481   4.403   3.749   3.830  1.2986 -0.7866 -2.5532
 3674SOL    HW222482   4.411   3.896   3.837 -1.0328  0.7270  0.9154
 3675SOL     OW22483   4.503   0.177   1.567  0.3621  0.2600  0.0481
 3675SOL    HW122484   4.523   0.148   1.656 -1.4359 -3.7077 -0.8134
 3675SOL    HW222485   4.483   0.086   1.542  2.3096 -0.3120  0.5801
 3676SOL     OW22486   3.481   0.540  13.146  0.4478  0.1838  0.5117
 3676SOL    HW122487   3.491   0.561  13.053  1.3302 -1.6189  0.1960
 3676SOL    HW222488   3.392   0.572  13.155  0.1909 -0.3138 -0.2137
 3677SOL     OW22489   4.466   4.102   6.831 -0.0630 -0.8369 -0.1546
 3677SOL    HW122490   4.469   4.158   6.909 -1.7931 -1.5418  0.4173
 3677SOL    HW222491   4.476   4.177   6.772  1.9770 -0.5106  0.6165
 3678SOL     OW22492   0.707   4.041   2.701  0.1968  0.1642 -0.1779
 3678SOL    HW122493   0.715   4.021   2.608  2.1424 -0.4781  0.1243
 3678SOL    HW222494   0.632   3.984   2.718  2.3657 -2.2780  1.1395
 3679SOL     OW22495   2.895   3.465  10.313 -0.2051 -0.0299  0.4104
 3679SOL    HW122496   2.897   3.560  10.299 -0.1596  0.0287  0.7976
 3679SOL    HW222497   2.811   3.448  10.271 -1.2038  1.7870  1.6805
 3680SOL     OW22498   3.956   3.947   4.283  0.3365  0.0088  0.1361
 3680SOL    HW122499   3.954   3.874   4.222  0.5041 -0.7496  1.0352
 3680SOL    HW222500   3.981   4.021   4.228 -0.8442 -0.7253 -1.3756
 3681SOL     OW22501   1.917   2.710   9.835 -0.1509 -0.1015  0.0543
 3681SOL    HW122502   1.890   2.802   9.836  0.1681 -0.0392  2.6847
 3681SOL    HW222503   1.838   2.674   9.874  0.3958 -1.9984 -0.6049
 3682SOL     OW22504   1.375   1.883   7.230 -0.0119 -0.2125 -0.8388
 3682SOL    HW122505   1.404   1.840   7.150  2.8906  1.7348 -0.8367
 3682SOL    HW222506   1.286   1.848   7.237 -0.3725  0.6369 -1.1436
 3683SOL     OW22507   3.613   2.820   5.262  0.0077 -0.2125 -0.2244
 3683SOL    HW122508   3.561   2.771   5.198 -0.7716  1.5684 -0.9484
 3683SOL    HW222509   3.619   2.754   5.331 -1.4986 -0.9181 -0.7693
 3684SOL     OW22510   3.416   3.559   6.478 -0.1377 -0.1416 -0.0571
 3684SOL    HW122511   3.384   3.550   6.388  3.6374 -0.1379 -1.4242
 3684SOL    HW222512   3.369   3.631   6.521  2.3048  1.8174 -0.5869
 3685SOL     OW22513   3.316   2.320   6.590 -0.0254  0.8156 -0.3332
 3685SOL    HW122514   3.366   2.399   6.571 -0.4135  1.0405 -0.4365
 3685SOL    HW222515   3.227   2.355   6.583 -0.5163 -0.3141  0.2180
 3686SOL     OW22516   4.314   4.062  13.155 -0.3967 -0.0452  0.2961
 3686SOL    HW122517   4.300   4.133  13.092 -0.6176 -1.7271 -1.5488
 3686SOL    HW222518   4.400   4.038  13.120  1.4546  5.4425  1.1707
 3687SOL     OW22519   1.392   0.788  16.535  0.1373  0.2962 -0.1914
 3687SOL    HW122520   1.308   0.807  16.494 -1.1251  0.1473  2.3104
 3687SOL    HW222521   1.449   0.799  16.459  1.2961  1.1730  0.7895
 3688SOL     OW22522   1.517   1.918   5.553  0.1995 -0.0793 -0.1612
 3688SOL    HW122523   1.531   1.993   5.495  2.0777  0.4690  1.0343
 3688SOL    HW222524   1.430   1.935   5.589 -0.2400 -2.4417 -0.0665
 3689SOL     OW22525   2.150   4.258  13.743  0.0602  0.3163 -0.1292
 3689SOL    HW122526   2.164   4.306  13.825 -3.0979  0.6509  0.2241
 3689SOL    HW222527   2.233   4.271  13.698  0.4538  0.3782  0.6182
 3690SOL     OW22528   0.125   3.679   2.780  0.1347 -0.7351  0.0369
 3690SOL    HW122529   0.109   3.688   2.686  0.1846 -0.0990  0.0931
 3690SOL    HW222530   0.048   3.627   2.804 -0.2219 -0.1034  0.2446
 3691SOL     OW22531   1.472   2.636   5.383 -0.2188 -0.5629 -0.8179
 3691SOL    HW122532   1.533   2.686   5.438 -1.0041 -1.0082  0.4805
 3691SOL    HW222533   1.431   2.700   5.326  1.4166  1.2799  0.0643
 3692SOL     OW22534   1.073   2.045  17.508 -0.1446 -0.4398  0.7308
 3692SOL    HW122535   1.002   2.109  17.511 -0.4378 -0.6720 -2.0044
 3692SOL    HW222536   1.035   1.963  17.540 -1.0051 -0.2410  0.2159
 3693SOL     OW22537   1.002   4.131   2.611 -0.2642 -0.6595  0.0488
 3693SOL    HW122538   1.074   4.070   2.596 -1.0975 -0.8728 -3.0778
 3693SOL    HW222539   0.935   4.070   2.582 -0.1985 -1.1695  0.9564
 3694SOL     OW22540   0.131   1.691   2.831 -0.2876  0.1316  0.2004
 3694SOL    HW122541   0.194   1.665   2.899 -1.8130  0.4251  1.7224
 3694SOL    HW222542   0.147   1.619   2.770  0.1383  2.1165 -2.0143
 3695SOL     OW22543   1.191   3.972  13.552  0.0666 -0.1706 -0.0231
 3695SOL    HW122544   1.146   3.917  13.617  0.3386  0.4751  0.7135
 3695SOL    HW222545   1.193   4.053  13.603  0.8380 -0.0046 -0.3111
 3696SOL     OW22546   3.018   3.192  11.919 -0.1272  0.3644  0.5437
 3696SOL    HW122547   3.000   3.285  11.935  1.2266  1.1455 -2.4806
 3696SOL    HW222548   2.936   3.146  11.937  1.0849 -2.1713 -0.4354
 3697SOL     OW22549   1.587   4.103   2.721  0.4300  0.2247  0.3588
 3697SOL    HW122550   1.512   4.138   2.673  0.5560 -1.0647 -0.7711
 3697SOL    HW222551   1.544   4.044   2.783  0.2512 -0.8520 -0.7830
 3698SOL     OW22552   0.592   4.245   0.657  0.5179 -0.0494  0.2738
 3698SOL    HW122553   0.548   4.300   0.722  3.6233 -1.7302  3.7907
 3698SOL    HW222554   0.577   4.157   0.691  0.4157 -0.6818 -1.4226
 3699SOL     OW22555   2.039   0.173  12.402 -0.1613 -0.7786 -0.2370
 3699SOL    HW122556   1.987   0.150  12.325  0.3467 -2.0296 -0.1968
 3699SOL    HW222557   2.106   0.106  12.391  0.5629 -0.1180  0.1390
 3700SOL     OW22558   2.925   2.913   3.324 -0.2881 -0.1606 -0.6625
 3700SOL    HW122559   2.957   2.874   3.406 -0.2927  0.1025 -0.5323
 3700SOL    HW222560   2.909   3.001   3.359 -0.5879  0.4087 -2.2664
 3701SOL     OW22561   2.042   1.247   4.875 -0.5585 -0.5636  0.1024
 3701SOL    HW122562   2.085   1.193   4.808  1.1049  0.6254  0.2085
 3701SOL    HW222563   1.970   1.188   4.896 -0.1429 -0.8200  0.8203
 3702SOL     OW22564   2.786   4.046   1.585  0.4993  0.9456  0.4918
 3702SOL    HW122565   2.781   4.007   1.673 -1.1896 -0.4888 -0.2358
 3702SOL    HW222566   2.720   4.002   1.531  2.0778  0.7448 -1.2682
 3703SOL     OW22567   3.973   2.940   6.439 -0.2575  0.3974 -0.7881
 3703SOL    HW122568   3.907   2.944   6.508  2.4218 -1.6885  1.9244
 3703SOL    HW222569   3.932   2.998   6.376  0.7809 -0.0938 -1.9123
 3704SOL     OW22570   1.363   0.851   1.894 -0.3265 -0.0071 -0.0063
 3704SOL    HW122571   1.290   0.790   1.887 -0.5050  0.3827 -1.4784
 3704SOL    HW222572   1.347   0.884   1.805 -0.6483  4.6509  1.8003
 3705SOL     OW22573   2.481   3.453   3.436 -0.2789 -0.0027  0.1906
 3705SOL    HW122574   2.575   3.448   3.419 -0.2924  0.7206 -0.0670
 3705SOL    HW222575   2.471   3.548   3.436  1.2761  0.1591 -0.7683
 3706SOL     OW22576   1.677   2.208   3.726  0.2903  0.3458 -0.2112
 3706SOL    HW122577   1.747   2.147   3.748 -1.9275 -2.5614 -1.2916
 3706SOL    HW222578   1.652   2.219   3.818  1.5204 -3.5401  0.5945
 3707SOL     OW22579   2.437   1.363  10.399 -0.0285 -0.7455  0.0222
 3707SOL    HW122580   2.406   1.419  10.327  1.4134 -0.2639 -0.2370
 3707SOL    HW222581   2.387   1.287  10.369 -0.7175 -0.8294  1.4140
 3708SOL     OW22582   1.606   1.309  14.441  0.3153  0.2219  0.0415
 3708SOL    HW122583   1.653   1.274  14.517 -1.0554 -1.4526  0.1123
 3708SOL    HW222584   1.585   1.395  14.479 -3.9575 -0.7569 -0.1290
 3709SOL     OW22585   1.486   1.207   4.781 -0.1956  0.5499  0.5312
 3709SOL    HW122586   1.562   1.197   4.723 -0.6658  1.2740 -0.2103
 3709SOL    HW222587   1.419   1.161   4.730  0.7314  0.4733 -0.5950
 3710SOL     OW22588   3.553   4.318   8.347  0.2085 -0.5464  0.3259
 3710SOL    HW122589   3.519   4.360   8.426 -1.8548 -1.5061 -0.0552
 3710SOL    HW222590   3.597   4.390   8.301 -2.0627  0.9715  0.4910
 3711SOL     OW22591   4.236   2.361   0.738 -0.3896 -0.5163  0.3382
 3711SOL    HW122592   4.204   2.450   0.722 -0.6969 -0.9843 -1.6997
 3711SOL    HW222593   4.174   2.329   0.803 -1.8318  1.2994 -0.1477
 3712SOL     OW22594   4.076   2.147  12.890 -0.4135 -0.7269 -0.0929
 3712SOL    HW122595   4.148   2.104  12.937  0.0511  1.7320  1.4561
 3712SOL    HW222596   4.050   2.217  12.951 -2.1894  0.2191 -1.9259
 3713SOL     OW22597   2.564   3.458   7.504 -0.2975  0.5709  0.6069
 3713SOL    HW122598   2.616   3.448   7.583 -2.3178 -1.7024  1.6284
 3713SOL    HW222599   2.569   3.368   7.472 -0.1889  1.7954 -2.7790
 3714SOL     OW22600   1.023   0.701   6.202  0.4876 -0.3799  0.1210
 3714SOL    HW122601   0.960   0.718   6.271  1.1886  2.4400  0.0896
 3714SOL    HW222602   1.100   0.738   6.245  0.5275 -3.0368  2.2721
 3715SOL     OW22603   3.273   2.746   5.975  0.1987 -0.1581  0.1560
 3715SOL    HW122604   3.228   2.729   6.057 -0.7142 -1.3922 -0.6055
 3715SOL    HW222605   3.359   2.704   5.980  0.0156 -0.4159  1.1030
 3716SOL     OW22606   3.748   0.505   7.238  0.6471 -0.0463  0.0626
 3716SOL    HW122607   3.789   0.535   7.156  0.5491  1.3896  0.5280
 3716SOL    HW222608   3.722   0.587   7.281 -0.8192 -0.9554  0.8964
 3717SOL     OW22609   4.032   0.461   1.851  0.2150  0.0710  0.0619
 3717SOL    HW122610   4.097   0.404   1.810 -1.9672 -0.3538 -2.8654
 3717SOL    HW222611   3.981   0.486   1.774  2.4503  1.6556 -0.8729
 3718SOL     OW22612   1.720   4.237   2.124 -0.2092  0.2439  0.4432
 3718SOL    HW122613   1.774   4.286   2.062 -1.6941  1.0089 -0.2458
 3718SOL    HW222614   1.776   4.160   2.133  1.1320  1.2199  0.5016
 3719SOL     OW22615   0.773   2.252   1.489  0.0957  0.0539 -0.2117
 3719SOL    HW122616   0.804   2.161   1.480  3.6491  1.3650 -1.1741
 3719SOL    HW222617   0.716   2.262   1.413 -0.4605  2.6615  0.5769
 3720SOL     OW22618   1.977   0.658   7.406 -0.3647 -0.2949  0.4774
 3720SOL    HW122619   2.032   0.633   7.480 -0.3502 -2.3263 -0.1973
 3720SOL    HW222620   2.049   0.666   7.343 -0.2458 -0.5399  0.5807
 3721SOL     OW22621   2.804   2.582   7.531  0.4323 -0.5476 -0.2387
 3721SOL    HW122622   2.856   2.549   7.604 -1.4256  0.5290  1.5564
 3721SOL    HW222623   2.715   2.551   7.544 -0.0604  0.3963 -1.3634
 3722SOL     OW22624   3.617   4.650   2.880 -0.0593 -0.4983  0.2968
 3722SOL    HW122625   3.712   4.656   2.872 -0.0663 -0.3772  0.3000
 3722SOL    HW222626   3.602   4.689   2.793 -0.0839 -1.5202 -0.1526
 3723SOL     OW22627   4.438   0.178  14.985  0.0866 -0.3865 -0.4962
 3723SOL    HW122628   4.387   0.198  15.064  0.1396 -2.2036  0.0120
 3723SOL    HW222629   4.393   0.103  14.946 -1.0345 -1.5445  2.9658
 3724SOL     OW22630   4.233   3.098   7.408 -0.0762 -0.5428  0.6160
 3724SOL    HW122631   4.325   3.123   7.404  0.2279 -1.3985  2.3542
 3724SOL    HW222632   4.239   3.007   7.437 -0.1799 -0.4584  0.8994
 3725SOL     OW22633   0.685   1.776   2.977  0.2090 -0.0420  0.4019
 3725SOL    HW122634   0.609   1.736   2.934  1.8018  0.6781 -3.1087
 3725SOL    HW222635   0.646   1.861   2.997 -1.4907 -0.9814  1.0649
 3726SOL     OW22636   2.346   2.870   8.082 -0.2029  0.4919  0.4375
 3726SOL    HW122637   2.386   2.946   8.040  2.4328 -0.9023  0.4398
 3726SOL    HW222638   2.254   2.896   8.069 -0.1895  0.0695 -0.4808
 3727SOL     OW22639   4.687   0.951   4.048 -1.0197  0.4271 -0.1602
 3727SOL    HW122640   4.673   0.985   4.136  0.7936 -1.4390  0.8321
 3727SOL    HW222641   0.057   0.973   4.030 -0.8739  0.7564  1.0059
 3728SOL     OW22642   3.167   4.245  15.200  0.5930 -0.1165  0.3608
 3728SOL    HW122643   3.183   4.208  15.113 -0.5792  1.3573 -0.4723
 3728SOL    HW222644   3.166   4.172  15.263  1.3944 -0.2527  0.2197
 3729SOL     OW22645   0.086   3.295   8.006 -0.3958  0.1525  0.4396
 3729SOL    HW122646   4.714   3.293   7.986 -0.1198  0.3509 -0.8402
 3729SOL    HW222647   0.111   3.218   7.956 -1.5188 -0.5017  0.8839
 3730SOL     OW22648   2.208   0.990   2.945 -0.2455  0.1349 -0.2054
 3730SOL    HW122649   2.270   1.060   2.966 -0.7479  0.3148  0.6735
 3730SOL    HW222650   2.216   1.002   2.850  0.0794  1.9473  0.0562
 3731SOL     OW22651   2.538   4.070   4.249  0.1120  0.0880  0.1890
 3731SOL    HW122652   2.558   4.022   4.168  1.1527  0.9986 -0.0979
 3731SOL    HW222653   2.482   4.138   4.212  0.4790  0.1865 -0.1980
 3732SOL     OW22654   1.146   2.460   2.404 -0.2066 -0.2501 -0.3701
 3732SOL    HW122655   1.145   2.539   2.350  1.8251  0.5472  0.7726
 3732SOL    HW222656   1.192   2.400   2.346 -1.0546 -1.0564 -0.2200
 3733SOL     OW22657   2.817   3.999   7.331  0.3799 -0.9294  0.5318
 3733SOL    HW122658   2.895   4.013   7.278 -1.0549 -1.3046 -1.6653
 3733SOL    HW222659   2.740   3.995   7.274  0.5291  2.3883  0.1174
 3734SOL     OW22660   3.090   2.217   3.850 -0.2112  0.1732  0.4390
 3734SOL    HW122661   3.070   2.212   3.943  2.1883  0.1115  0.9495
 3734SOL    HW222662   3.028   2.148   3.824 -1.2331  1.3514 -0.2219
 3735SOL     OW22663   4.102   3.582  15.607 -0.1445 -0.0273  0.2176
 3735SOL    HW122664   4.118   3.626  15.691  1.4130  0.7767 -0.4889
 3735SOL    HW222665   4.062   3.653  15.557  0.0301 -0.9399 -1.2256
 3736SOL     OW22666   0.512   0.136   3.596 -0.4880 -0.5055 -0.3951
 3736SOL    HW122667   0.448   0.091   3.652 -0.8840 -0.0371 -0.4715
 3736SOL    HW222668   0.554   0.193   3.660 -0.3922 -2.8491  1.6418
 3737SOL     OW22669   2.040   3.192   2.914  0.1370 -0.6842 -0.0819
 3737SOL    HW122670   1.980   3.191   2.839 -1.4419 -2.4478  1.2033
 3737SOL    HW222671   2.055   3.099   2.930  0.3371 -0.8402 -1.1562
 3738SOL     OW22672   1.796   0.735   0.606  0.4235 -0.0851 -0.3190
 3738SOL    HW122673   1.771   0.715   0.516  1.1107 -0.3034 -0.4667
 3738SOL    HW222674   1.743   0.813   0.621  3.2754  1.5827  1.2086
 3739SOL     OW22675   0.138   0.314  15.838 -0.2249 -0.0700  0.3534
 3739SOL    HW122676   0.092   0.264  15.771 -1.3791  2.4108 -0.7083
 3739SOL    HW222677   0.160   0.387  15.781  2.3886 -2.6743 -1.9696
 3740SOL     OW22678   0.277   0.371  16.580 -0.1392  0.4877  0.3447
 3740SOL    HW122679   0.281   0.278  16.561  2.2966  1.0504 -1.7813
 3740SOL    HW222680   0.182   0.378  16.589 -0.0370 -0.2997  2.0419
 3741SOL     OW22681   0.077   0.456  14.930 -1.1100  0.2287  0.3635
 3741SOL    HW122682   0.060   0.526  14.867  2.8671 -0.2121 -1.2018
 3741SOL    HW222683   0.044   0.385  14.875 -0.5484  1.2171 -1.2469
 3742SOL     OW22684   1.240   2.601   1.691  0.1014  0.2187 -0.1281
 3742SOL    HW122685   1.167   2.562   1.642  1.1504 -2.8851  0.7489
 3742SOL    HW222686   1.281   2.521   1.725 -0.9344  0.7189  2.2469
 3743SOL     OW22687   2.082   2.839  10.874 -0.1927 -0.0448 -0.1426
 3743SOL    HW122688   2.131   2.816  10.795  0.9036  0.5736  0.3626
 3743SOL    HW222689   2.057   2.755  10.911  1.9800  0.0799  1.5791
 3744SOL     OW22690   1.948   3.482   5.640  0.1859  0.0573  0.1852
 3744SOL    HW122691   1.985   3.522   5.562  1.3775 -1.2627  0.0688
 3744SOL    HW222692   1.862   3.522   5.627 -0.1253 -0.1330  1.6478
 3745SOL     OW22693   2.429   1.742   1.953 -0.1830 -0.0644  0.1345
 3745SOL    HW122694   2.393   1.820   1.913 -0.8772  0.1639  1.2116
 3745SOL    HW222695   2.485   1.780   2.020 -1.2710 -1.4272  1.8192
 3746SOL     OW22696   1.408   2.578  14.219  0.6835 -0.6357  0.7174
 3746SOL    HW122697   1.491   2.615  14.250  0.0401 -0.4314  2.2156
 3746SOL    HW222698   1.412   2.484  14.234 -0.7007 -1.0075 -1.3147
 3747SOL     OW22699   4.646   0.379   1.429 -0.3210 -0.5654  0.1472
 3747SOL    HW122700   4.580   0.438   1.393 -1.8167 -2.6655 -0.5352
 3747SOL    HW222701   4.590   0.316   1.475 -0.7253 -1.1502 -1.1428
 3748SOL     OW22702   0.189   0.109   5.927  0.4694 -0.4115 -0.1423
 3748SOL    HW122703   0.167   0.177   5.863 -0.2180 -0.8666 -0.3895
 3748SOL    HW222704   0.177   0.030   5.873  1.0217  0.6710 -1.8665
 3749SOL     OW22705   4.640   2.212   8.273  0.5253  0.0076 -0.1198
 3749SOL    HW122706   4.693   2.149   8.223  0.2739 -0.0342 -0.3302
 3749SOL    HW222707   4.597   2.165   8.345  1.8514 -0.3009  0.4899
 3750SOL     OW22708   3.766   2.517  13.913 -0.2439 -0.3000 -0.1275
 3750SOL    HW122709   3.744   2.556  13.997 -0.2450  2.9192 -1.6192
 3750SOL    HW222710   3.860   2.535  13.922 -0.5171  1.9265 -1.5987
 3751SOL     OW22711   2.954   3.231  13.363 -0.7389 -0.1420 -0.2392
 3751SOL    HW122712   2.934   3.302  13.302 -1.0998  1.0211  1.2424
 3751SOL    HW222713   2.918   3.262  13.446 -0.0161 -2.1689  0.8268
 3752SOL     OW22714   0.902   4.284  17.620 -0.3828  0.3486 -0.6039
 3752SOL    HW122715   0.904   4.254   0.022  1.9598 -0.4427 -0.9125
 3752SOL    HW222716   0.913   4.202  17.572  1.8254  1.7367 -2.4475
 3753SOL     OW22717   1.807   0.657  12.930  0.4332  0.2882 -0.0873
 3753SOL    HW122718   1.725   0.612  12.948 -1.2306  3.0360 -0.8844
 3753SOL    HW222719   1.831   0.615  12.847 -2.4933  1.7520 -1.6687
 3754SOL     OW22720   3.314   2.626   7.995  0.2403  0.2011  0.1694
 3754SOL    HW122721   3.318   2.702   8.052  0.8840 -0.1167  0.5404
 3754SOL    HW222722   3.390   2.650   7.942  1.3544 -0.3142  1.5393
 3755SOL     OW22723   3.734   2.357   5.508 -0.6767 -0.0578 -0.8157
 3755SOL    HW122724   3.779   2.334   5.589 -0.5506 -0.4128 -0.9834
 3755SOL    HW222725   3.704   2.269   5.484  2.2218 -0.6915 -2.0695
 3756SOL     OW22726   3.533   2.326   0.832 -0.1300  0.2702 -0.0427
 3756SOL    HW122727   3.524   2.250   0.889  0.5841 -1.2090 -1.8675
 3756SOL    HW222728   3.628   2.333   0.841 -0.0712 -0.5016 -0.0222
 3757SOL     OW22729   0.498   2.435   6.015  0.4504  0.4247  0.4994
 3757SOL    HW122730   0.506   2.342   5.998  0.5004  0.8862 -2.0006
 3757SOL    HW222731   0.425   2.465   5.961  1.4427  1.4335 -0.3049
 3758SOL     OW22732   3.245   1.050   5.942  0.3523  0.5057 -0.6554
 3758SOL    HW122733   3.237   1.145   5.937  1.0310  0.6828  1.4387
 3758SOL    HW222734   3.272   1.019   5.856 -0.8085  2.6296 -1.7665
 3759SOL     OW22735   4.696   0.811   6.315 -0.6550 -0.6140  0.3279
 3759SOL    HW122736   0.044   0.828   6.252 -0.8278  1.8716  0.8218
 3759SOL    HW222737   4.690   0.716   6.308  1.6433 -0.7493  0.3767
 3760SOL     OW22738   1.815   2.327   0.914  0.9817 -0.3641  0.0465
 3760SOL    HW122739   1.872   2.320   0.990  1.3277 -2.3209 -0.3757
 3760SOL    HW222740   1.875   2.317   0.841  1.5793  0.2221  0.4667
 3761SOL     OW22741   2.418   3.085  15.055 -0.0050  0.4163 -0.4549
 3761SOL    HW122742   2.442   3.021  15.121  2.3651 -0.2541 -1.9608
 3761SOL    HW222743   2.465   3.157  15.096 -1.7379  1.6041 -0.5253
 3762SOL     OW22744   1.700   2.829   4.884  0.2502  0.7505  0.3756
 3762SOL    HW122745   1.649   2.907   4.861  0.0955  1.3060  2.6240
 3762SOL    HW222746   1.783   2.869   4.909  0.2099 -0.6258  2.7033
 3763SOL     OW22747   1.633   1.934   0.181 -0.5238  0.6191 -0.4515
 3763SOL    HW122748   1.613   1.861   0.239  3.6477 -0.0035  0.2142
 3763SOL    HW222749   1.714   1.903   0.141 -0.5881  0.0893 -0.1694
 3764SOL     OW22750   2.073   3.809   4.292 -0.6768  0.1738 -0.5433
 3764SOL    HW122751   2.024   3.727   4.296 -1.2483  0.4159 -2.3491
 3764SOL    HW222752   2.064   3.825   4.198  1.7687  0.4261 -0.7400
 3765SOL     OW22753   1.621   2.954  12.741 -0.0165 -0.0727  0.1529
 3765SOL    HW122754   1.619   2.970  12.835  0.5725 -0.7218  0.2774
 3765SOL    HW222755   1.534   2.923  12.716  1.0649 -1.6030 -1.7210
 3766SOL     OW22756   1.784   4.121  16.502  0.4403 -0.5485  0.4853
 3766SOL    HW122757   1.878   4.129  16.514  0.7030 -3.2884  0.4117
 3766SOL    HW222758   1.779   4.079  16.416 -1.2760 -0.0672  0.3419
 3767SOL     OW22759   2.787   3.418   5.653 -0.6726  0.6713  0.4285
 3767SOL    HW122760   2.777   3.489   5.590 -0.2122  0.1069 -0.2879
 3767SOL    HW222761   2.863   3.458   5.695  1.9703 -2.3303 -1.4867
 3768SOL     OW22762   3.908   4.132   6.132  0.1494 -0.3642 -0.1853
 3768SOL    HW122763   4.001   4.147   6.111  0.1332 -1.5137 -1.0469
 3768SOL    HW222764   3.898   4.037   6.132 -2.1669 -0.1220  0.7760
 3769SOL     OW22765   2.715   1.281   1.432 -0.8562  0.0217  0.5739
 3769SOL    HW122766   2.748   1.353   1.377 -1.0066 -1.4829 -1.5156
 3769SOL    HW222767   2.786   1.217   1.437 -2.7320 -1.9899  1.2385
 3770SOL     OW22768   3.984   3.962   2.725  0.5786  0.5225 -0.3071
 3770SOL    HW122769   4.024   3.997   2.646  0.0637 -0.4885 -1.0205
 3770SOL    HW222770   4.055   3.986   2.784 -0.0432 -0.0372  0.6769
 3771SOL     OW22771   0.201   1.105   4.600  0.6186  0.6497  0.4778
 3771SOL    HW122772   0.126   1.128   4.546  0.2692  2.0121  1.5386
 3771SOL    HW222773   0.262   1.163   4.554  0.9803  0.0126  0.1602
 3772SOL     OW22774   3.807   4.263   3.561 -0.3840 -0.8013 -0.5788
 3772SOL    HW122775   3.857   4.185   3.585 -0.6285 -0.6535  0.4346
 3772SOL    HW222776   3.719   4.225   3.565 -0.8740  0.4808  0.7335
 3773SOL     OW22777   1.690   3.296   7.432 -0.0563 -0.4578 -0.8133
 3773SOL    HW122778   1.743   3.364   7.391  0.5192 -0.6629 -0.3974
 3773SOL    HW222779   1.613   3.347   7.457  0.1001  0.1127 -1.4913
 3774SOL     OW22780   1.741   0.360   6.161 -0.1721 -0.2176 -0.1123
 3774SOL    HW122781   1.676   0.295   6.187  0.8235 -0.7116  1.1144
 3774SOL    HW222782   1.818   0.319   6.198 -2.1860 -4.3656 -0.5061
 3775SOL     OW22783   2.258   4.082   6.922  0.1610  0.7341  0.3626
 3775SOL    HW122784   2.199   4.076   6.997  0.0127 -0.2111  0.1697
 3775SOL    HW222785   2.270   3.993   6.891  0.6194  1.9322 -2.9226
 3776SOL     OW22786   1.247   3.053   7.792 -0.6415  0.0495 -0.1726
 3776SOL    HW122787   1.275   2.964   7.811 -0.6307  0.3505  1.2549
 3776SOL    HW222788   1.324   3.108   7.774 -0.8226  0.0011 -1.0650
 3777SOL     OW22789   1.466   4.596   6.307  0.1561 -0.1279  0.1442
 3777SOL    HW122790   1.389   4.614   6.361  1.2396 -0.1475  1.6902
 3777SOL    HW222791   1.462   4.501   6.297 -1.7802 -0.1633  1.2601
 3778SOL     OW22792   3.556   2.272   2.299 -0.0890  0.1061 -0.6227
 3778SOL    HW122793   3.633   2.232   2.338 -0.5434  0.0514  0.2206
 3778SOL    HW222794   3.542   2.220   2.219  0.9510  1.6570 -1.8151
 3779SOL     OW22795   2.199   1.182   7.126  0.2175 -0.4329 -0.3524
 3779SOL    HW122796   2.244   1.226   7.054  0.8180 -0.8137 -0.2122
 3779SOL    HW222797   2.198   1.088   7.113  2.8047 -0.4890 -0.2037
 3780SOL     OW22798   1.111   2.506   5.774  0.0134 -0.7434  0.0895
 3780SOL    HW122799   1.086   2.441   5.708 -0.9064 -0.7135  0.4109
 3780SOL    HW222800   1.202   2.525   5.751 -0.4592  0.0028 -1.1473
 3781SOL     OW22801   0.975   2.348   2.809  0.5219  0.2604 -0.1715
 3781SOL    HW122802   1.064   2.314   2.800  0.3957  0.0504 -0.6015
 3781SOL    HW222803   0.937   2.300   2.736 -1.4216  3.4923 -1.2834
 3782SOL     OW22804   1.155   1.913  15.673  1.0317  0.1664  0.4078
 3782SOL    HW122805   1.134   1.936  15.764 -0.3552  0.2750  0.0462
 3782SOL    HW222806   1.093   1.964  15.622  1.8074  0.2655 -0.4356
 3783SOL     OW22807   2.009   2.853  12.021 -0.3033  0.4985 -0.3325
 3783SOL    HW122808   2.080   2.832  12.081 -0.3340  4.1943  0.9579
 3783SOL    HW222809   2.060   2.843  11.940  0.7516  1.3829  0.2296
 3784SOL     OW22810   3.162   0.033   8.904 -0.5686 -0.0001 -0.6854
 3784SOL    HW122811   3.234   0.016   8.965 -2.2320  0.0949  1.2826
 3784SOL    HW222812   3.111   4.674   8.919  1.5305 -1.4287 -1.1824
 3785SOL     OW22813   4.642   2.420   8.471 -0.0574 -0.4287  0.5072
 3785SOL    HW122814   4.616   2.390   8.558 -2.2668 -0.4153 -0.1466
 3785SOL    HW222815   4.649   2.338   8.422 -0.0400  1.0329 -1.9346
 3786SOL     OW22816   1.816   3.044  11.539 -0.0519 -0.1425 -0.3262
 3786SOL    HW122817   1.839   3.123  11.588 -3.3261 -0.3515  1.5399
 3786SOL    HW222818   1.812   3.076  11.449 -2.4406  1.0000  0.1735
 3787SOL     OW22819   1.400   1.686   4.933  0.3232  0.3492 -0.0874
 3787SOL    HW122820   1.460   1.621   4.895  0.1776 -0.9261  1.8671
 3787SOL    HW222821   1.351   1.626   4.990 -1.0479 -0.4185 -2.0630
 3788SOL     OW22822   2.474   2.091   7.910  0.3575  0.8307  0.3722
 3788SOL    HW122823   2.398   2.097   7.852  2.0083 -1.8642 -2.0973
 3788SOL    HW222824   2.503   2.182   7.915 -0.6567  1.2092 -0.5286
 3789SOL     OW22825   0.508   2.108   3.914  0.2477  0.1781  0.0926
 3789SOL    HW122826   0.528   2.143   4.001  1.9885 -0.1615 -0.1605
 3789SOL    HW222827   0.548   2.022   3.924 -0.8189 -0.2246  0.8459
 3790SOL     OW22828   3.320   0.389   6.800  0.0394 -1.1142  0.3027
 3790SOL    HW122829   3.293   0.432   6.882  0.5182  0.9791 -0.6561
 3790SOL    HW222830   3.415   0.385   6.804  0.1885  2.2615  0.0927
 3791SOL     OW22831   2.946   1.764   7.720  0.3837 -0.3863  0.4546
 3791SOL    HW122832   2.926   1.855   7.739  0.9887  0.0758 -1.0843
 3791SOL    HW222833   2.921   1.756   7.628  0.9870  0.1358  0.2437
 3792SOL     OW22834   0.251   0.479   3.936  0.2649  0.0704  0.2414
 3792SOL    HW122835   0.294   0.516   3.858  0.5453  0.0989  0.4083
 3792SOL    HW222836   0.293   0.394   3.922 -3.2300 -1.6841  0.4389
 3793SOL     OW22837   1.459   2.164   9.780  0.0341  0.0711 -0.0161
 3793SOL    HW122838   1.458   2.170   9.875  0.6724  0.9241 -0.0622
 3793SOL    HW222839   1.520   2.234   9.756 -0.4252 -0.9050 -3.9967
 3794SOL     OW22840   4.652   1.294   9.875 -0.2923 -0.7116 -0.2392
 3794SOL    HW122841   4.639   1.206   9.909  0.2591 -0.8581 -0.4201
 3794SOL    HW222842   0.021   1.309   9.902 -0.9484  0.9387  1.0638
 3795SOL     OW22843   4.348   3.099   3.031  0.3597 -0.0368 -0.0299
 3795SOL    HW122844   4.381   3.033   3.093 -0.1622 -0.5035 -0.2481
 3795SOL    HW222845   4.376   3.064   2.947  0.9485 -2.8362  1.3116
 3796SOL     OW22846   4.691   2.503   4.393 -0.3657  0.2037 -0.4934
 3796SOL    HW122847   4.684   2.526   4.486  0.0137  3.4148 -1.2619
 3796SOL    HW222848   4.601   2.470   4.394 -0.4886  0.5418 -0.4191
 3797SOL     OW22849   2.441   2.040   8.197 -0.0377 -0.1076 -0.2887
 3797SOL    HW122850   2.499   2.113   8.221  0.2104 -0.5510  0.4699
 3797SOL    HW222851   2.431   2.059   8.104  1.8773 -1.1929 -0.7290
 3798SOL     OW22852   3.308   2.661   0.547 -0.3387 -0.3556 -0.0590
 3798SOL    HW122853   3.338   2.734   0.493  0.0980 -0.9185 -0.5858
 3798SOL    HW222854   3.373   2.644   0.615  0.1295  1.4480 -0.0683
 3799SOL     OW22855   4.706   2.510   0.927 -0.2767  0.6371  0.1562
 3799SOL    HW122856   4.614   2.515   0.903 -0.6931 -2.1486  1.2776
 3799SOL    HW222857   0.021   2.592   0.892  0.7383  0.1876  0.1561
 3800SOL     OW22858   2.955   3.374   3.044 -0.0824  0.3962  0.2049
 3800SOL    HW122859   2.960   3.310   2.973 -0.1718 -0.7955  1.2909
 3800SOL    HW222860   2.958   3.318   3.121 -1.2718 -1.2616 -0.9666
 3801SOL     OW22861   0.819   0.244   8.684 -0.5519  0.2262  0.0781
 3801SOL    HW122862   0.887   0.290   8.635  0.1301 -2.1259 -1.2210
 3801SOL    HW222863   0.763   0.224   8.609  0.9330 -2.0639 -0.4249
 3802SOL     OW22864   1.629   2.743   7.900  0.1225  0.1147 -0.4531
 3802SOL    HW122865   1.650   2.686   7.975  3.0154  2.1431  0.2686
 3802SOL    HW222866   1.542   2.771   7.928  0.2050 -1.6427  1.5913
 3803SOL     OW22867   1.732   3.755  13.851 -0.7356  0.3354  0.2690
 3803SOL    HW122868   1.813   3.748  13.801 -1.4468  2.3674 -1.1694
 3803SOL    HW222869   1.722   3.850  13.863  0.8577  0.5286  0.0029
 3804SOL     OW22870   1.125   4.116   5.063  0.2307  0.1971 -0.4702
 3804SOL    HW122871   1.144   4.029   5.100 -2.3657  0.2511  1.0034
 3804SOL    HW222872   1.149   4.103   4.972  1.2628 -0.8761 -0.0524
 3805SOL     OW22873   2.035   2.492   1.856 -0.6356  0.4270  0.2943
 3805SOL    HW122874   1.994   2.437   1.922 -2.0642  3.3678  1.8571
 3805SOL    HW222875   2.036   2.575   1.903  0.1773  1.1740 -1.0377
 3806SOL     OW22876   2.015   2.860  10.130  0.1654  0.0257  1.1874
 3806SOL    HW122877   2.105   2.884  10.154  1.6409 -3.7298 -0.6438
 3806SOL    HW222878   2.031   2.807  10.052 -3.8218 -1.7628  1.6248
 3807SOL     OW22879   3.473   4.351   4.321  0.3525  0.0686 -0.4558
 3807SOL    HW122880   3.498   4.280   4.262  1.5595 -0.1072  0.2802
 3807SOL    HW222881   3.464   4.419   4.254  3.4467 -0.1932 -1.1334
 3808SOL     OW22882   2.284   4.693   9.144  0.5719  0.8264 -0.4334
 3808SOL    HW122883   2.284   4.643   9.063 -0.2854  0.4723 -0.2141
 3808SOL    HW222884   2.293   4.629   9.215  2.0370 -1.1975 -2.4491
 3809SOL     OW22885   2.046   2.968   6.054  0.3941  0.5466 -0.1776
 3809SOL    HW122886   2.137   2.938   6.061  0.3777 -0.2177 -3.0915
 3809SOL    HW222887   2.013   2.930   6.135 -0.8715 -0.8226 -1.3112
 3810SOL     OW22888   0.591   2.927   0.746  0.2394  0.3424  0.1226
 3810SOL    HW122889   0.647   2.861   0.704  1.6517  0.1339  2.3061
 3810SOL    HW222890   0.650   3.001   0.759  1.0630 -0.1449 -0.8831
 3811SOL     OW22891   4.569   2.809   7.086 -0.2368 -0.3881  0.2083
 3811SOL    HW122892   4.535   2.739   7.029  0.9062  0.1830 -1.1765
 3811SOL    HW222893   4.640   2.846   7.033  1.2223  0.1559  2.5376
 3812SOL     OW22894   3.541   0.041   7.350  0.0400 -0.0749  0.2501
 3812SOL    HW122895   3.485   0.044   7.272 -1.5036  0.2643  1.3678
 3812SOL    HW222896   3.503   4.696   7.406 -1.7643  2.0287  1.5339
 3813SOL     OW22897   3.847   4.351   4.259 -0.6087 -0.2748 -0.5418
 3813SOL    HW122898   3.923   4.370   4.203  1.6320 -0.4097  2.4515
 3813SOL    HW222899   3.796   4.431   4.248  2.1746  1.4976 -0.7904
 3814SOL     OW22900   2.820   1.400   1.930  0.1540 -0.5644  0.3380
 3814SOL    HW122901   2.794   1.409   1.839 -1.4213  1.0124  0.9412
 3814SOL    HW222902   2.864   1.315   1.922  1.7873  0.5683 -2.8632
 3815SOL     OW22903   0.401   3.984   0.499  0.2107 -0.3137  0.7338
 3815SOL    HW122904   0.331   4.048   0.493 -0.0035 -0.6452 -0.1914
 3815SOL    HW222905   0.434   4.004   0.587  0.7359  1.1728  0.1897
 3816SOL     OW22906   1.198   1.393   4.370  0.5703 -0.2177 -0.0220
 3816SOL    HW122907   1.196   1.482   4.405  1.2206 -0.9152  1.7574
 3816SOL    HW222908   1.280   1.369   4.413 -0.8288 -3.7056  0.6337
 3817SOL     OW22909   4.681   0.417   2.614  0.1958  0.0391 -0.4769
 3817SOL    HW122910   0.028   0.367   2.658  0.1837  0.2278 -0.2458
 3817SOL    HW222911   4.632   0.446   2.691  1.3949  2.7416 -0.7511
 3818SOL     OW22912   1.503   3.975   5.929  0.8125 -0.1974 -0.3776
 3818SOL    HW122913   1.509   3.893   5.881  0.0812  0.1284 -1.0169
 3818SOL    HW222914   1.565   3.966   6.002  0.5660 -1.6842 -0.3568
 3819SOL     OW22915   4.179   1.933   3.032 -0.1480 -0.2269 -0.6676
 3819SOL    HW122916   4.190   1.989   2.955 -1.4895 -0.2338 -0.8643
 3819SOL    HW222917   4.264   1.945   3.074 -0.7308  3.3922 -0.5199
 3820SOL     OW22918   3.623   3.784   3.237  0.0340 -0.0873  0.4239
 3820SOL    HW122919   3.701   3.788   3.293 -1.9482  0.8201  3.1483
 3820SOL    HW222920   3.628   3.698   3.195 -1.2899 -0.6743  1.4432
 3821SOL     OW22921   0.592   3.960   4.148 -0.3426  0.1640  0.4274
 3821SOL    HW122922   0.610   3.905   4.224 -0.8174  1.4726  1.4906
 3821SOL    HW222923   0.499   3.935   4.147  0.1372 -1.5548 -1.0528
 3822SOL     OW22924   1.016   1.209  13.106  0.2166  0.5339 -1.0125
 3822SOL    HW122925   1.033   1.115  13.106 -0.8574  0.3293 -1.5081
 3822SOL    HW222926   0.932   1.207  13.060  0.0846  0.7247 -0.7794
 3823SOL     OW22927   2.837   2.498   2.146  0.0735 -0.0092 -0.5201
 3823SOL    HW122928   2.892   2.494   2.224 -1.3108  2.2538  0.5712
 3823SOL    HW222929   2.755   2.482   2.193  0.4475  0.1463  0.1855
 3824SOL     OW22930   3.881   1.374   2.067  0.0786 -0.7550 -0.0261
 3824SOL    HW122931   3.850   1.454   2.110 -1.8264 -1.6980  0.4039
 3824SOL    HW222932   3.953   1.354   2.126  1.0190 -0.2914 -1.0301
 3825SOL     OW22933   0.563   3.200  14.324  0.3859 -0.0015 -0.7312
 3825SOL    HW122934   0.632   3.169  14.384  0.7776  0.7211 -0.8101
 3825SOL    HW222935   0.495   3.157  14.376  0.9770 -0.3926 -0.2794
 3826SOL     OW22936   2.810   2.773  16.167 -0.1253 -0.2204  0.3054
 3826SOL    HW122937   2.726   2.730  16.180  1.0111 -2.0102  1.8352
 3826SOL    HW222938   2.873   2.701  16.176  0.3245 -0.0819 -1.7009
 3827SOL     OW22939   3.184   1.575  13.597  0.5609  0.0688 -0.4433
 3827SOL    HW122940   3.229   1.515  13.538 -0.4301 -0.8178 -0.2960
 3827SOL    HW222941   3.240   1.652  13.582  0.1577  0.3136 -0.7077
 3828SOL     OW22942   2.151   2.198   7.251  0.4698  0.0980 -0.7401
 3828SOL    HW122943   2.079   2.229   7.197  0.1900 -1.3254 -1.1736
 3828SOL    HW222944   2.125   2.230   7.338  2.7277  0.2606 -0.1083
 3829SOL     OW22945   1.157   2.675   3.056  0.2210 -0.0040  0.1845
 3829SOL    HW122946   1.180   2.670   2.963 -0.0290 -2.2134  0.2477
 3829SOL    HW222947   1.091   2.743   3.044  1.3149  0.6097 -2.3976
 3830SOL     OW22948   4.287   0.366   2.553 -0.1320 -0.5902  0.1405
 3830SOL    HW122949   4.339   0.446   2.553 -0.0553 -0.6385 -0.2325
 3830SOL    HW222950   4.221   0.390   2.488  0.4597  1.2944  0.2376
 3831SOL     OW22951   3.338   1.039   7.098  0.2109  0.1331 -0.2846
 3831SOL    HW122952   3.273   0.973   7.075 -0.4028  0.3542  0.8047
 3831SOL    HW222953   3.369   1.072   7.014  1.3467 -0.9180 -0.2652
 3832SOL     OW22954   4.200   1.851  15.034  0.5471  0.3494  0.8963
 3832SOL    HW122955   4.139   1.785  14.999  1.1414 -0.4912  1.4634
 3832SOL    HW222956   4.280   1.805  15.009 -0.8685 -1.3643 -0.5544
 3833SOL     OW22957   2.064   2.114   8.248 -0.6237  0.1729 -0.0384
 3833SOL    HW122958   2.099   2.102   8.159  0.1279  0.6123  0.1987
 3833SOL    HW222959   2.051   2.209   8.249  0.2964  0.3289 -1.9715
 3834SOL     OW22960   3.414   2.309   7.302  0.6606 -0.0023 -0.6356
 3834SOL    HW122961   3.342   2.289   7.242  0.0817  2.4279 -0.7682
 3834SOL    HW222962   3.375   2.309   7.390 -0.5993 -4.1630 -1.2138
 3835SOL     OW22963   0.452   1.191   5.966 -0.1293  0.1203 -0.2228
 3835SOL    HW122964   0.478   1.150   5.883 -1.1516  0.5389 -0.7384
 3835SOL    HW222965   0.450   1.284   5.944  0.3890 -0.0353 -0.9111
 3836SOL     OW22966   0.560   4.122   2.971  0.0974  0.1802 -0.1013
 3836SOL    HW122967   0.554   4.071   3.051 -2.4758 -1.1307 -1.1391
 3836SOL    HW222968   0.652   4.100   2.952  0.1010 -0.4426  0.6655
 3837SOL     OW22969   2.298   1.810   7.697  0.1690 -0.3337 -0.8765
 3837SOL    HW122970   2.247   1.789   7.775 -1.0060 -0.1007 -1.5736
 3837SOL    HW222971   2.257   1.753   7.631  0.2884  0.7370 -1.8715
 3838SOL     OW22972   2.317   0.830   4.388  0.0591  0.3996  0.4685
 3838SOL    HW122973   2.298   0.753   4.335 -2.7917  2.2463 -1.2044
 3838SOL    HW222974   2.395   0.807   4.439  0.0070 -1.0622 -0.1159
 3839SOL     OW22975   3.515   1.225   0.119 -0.0125 -0.2128 -0.2901
 3839SOL    HW122976   3.578   1.251   0.051  0.8456 -2.6904 -0.4540
 3839SOL    HW222977   3.574   1.171   0.172  1.7647  1.3188 -0.7302
 3840SOL     OW22978   4.383   3.207   6.251  0.1855  0.0896  0.5833
 3840SOL    HW122979   4.362   3.288   6.296  0.4760  0.0580  0.7774
 3840SOL    HW222980   4.477   3.197   6.268  0.2615  1.3254  0.9087
 3841SOL     OW22981   1.850   2.458  14.811 -0.1807  0.1321 -0.2180
 3841SOL    HW122982   1.804   2.387  14.766 -1.6016  1.3568 -0.7022
 3841SOL    HW222983   1.855   2.421  14.899 -0.7761  3.5440  1.2664
 3842SOL     OW22984   3.741   1.961  11.603  0.8456 -0.3152 -0.4025
 3842SOL    HW122985   3.721   2.041  11.555 -2.9489 -1.3462 -0.5090
 3842SOL    HW222986   3.655   1.951  11.644  0.2321  1.6513 -1.1848
 3843SOL     OW22987   1.648   3.377  11.812 -0.1811  0.4086 -0.0951
 3843SOL    HW122988   1.642   3.360  11.906 -1.3809 -0.3044 -0.2939
 3843SOL    HW222989   1.592   3.303  11.789  0.9138 -0.3305 -0.3573
 3844SOL     OW22990   3.116   2.692   8.473  0.2288 -0.1013  0.1928
 3844SOL    HW122991   3.194   2.685   8.418  0.0950 -3.1694  0.3903
 3844SOL    HW222992   3.162   2.660   8.551 -0.0054  0.9989  0.7901
 3845SOL     OW22993   1.743   4.650   8.613 -0.3926  0.1377 -0.3716
 3845SOL    HW122994   1.701   0.014   8.623 -0.8583 -0.1173 -0.1037
 3845SOL    HW222995   1.668   4.599   8.643 -2.0042  2.1560 -0.9887
 3846SOL     OW22996   1.194   1.918   9.740  0.0826  0.0889  0.3505
 3846SOL    HW122997   1.239   2.002   9.732 -1.5468  1.1937  2.4863
 3846SOL    HW222998   1.177   1.913   9.835 -1.9210  1.1569  0.0548
 3847SOL     OW22999   1.768   3.693   4.210 -0.2362 -0.0885 -0.5593
 3847SOL    HW123000   1.720   3.767   4.171  1.1728  0.9179 -0.3717
 3847SOL    HW223001   1.777   3.632   4.136  1.6863 -1.4514  0.8083
 3848SOL     OW23002   3.090   2.778   4.675 -0.1654 -0.1075 -0.6358
 3848SOL    HW123003   3.034   2.842   4.631  0.0584  0.2301 -0.4267
 3848SOL    HW223004   3.072   2.697   4.627 -1.0299  0.1734 -0.7861
 3849SOL     OW23005   3.297   0.346   2.557 -0.0122 -0.5420  0.0001
 3849SOL    HW123006   3.201   0.337   2.554 -0.2031  2.4293 -2.7643
 3849SOL    HW223007   3.290   0.440   2.568  0.1700 -0.2941 -2.1135
 3850SOL     OW23008   2.141   4.005   9.590 -0.1867 -0.2230  0.2553
 3850SOL    HW123009   2.208   4.003   9.522  0.8640  4.8823  1.1426
 3850SOL    HW223010   2.197   4.030   9.665  0.4871 -0.2753 -0.2301
 3851SOL     OW23011   1.256   2.628   4.210 -0.8228  0.4986 -0.3342
 3851SOL    HW123012   1.183   2.607   4.151 -1.8184 -1.9320  1.7749
 3851SOL    HW223013   1.284   2.716   4.186  0.5557  0.5447  1.4459
 3852SOL     OW23014   3.904   4.040   5.306  0.3262  0.2886  0.2343
 3852SOL    HW123015   3.905   4.076   5.395  1.2585 -0.3032  0.4674
 3852SOL    HW223016   3.978   4.090   5.271  0.6950 -0.3668  0.0675
 3853SOL     OW23017   4.270   2.620   4.237 -0.2902 -0.3879  0.0190
 3853SOL    HW123018   4.191   2.595   4.190 -1.1764  1.1045  0.7138
 3853SOL    HW223019   4.314   2.691   4.190  0.9626  0.0589  1.8544
 3854SOL     OW23020   3.238   0.252   2.817  0.0514 -0.0650  0.6204
 3854SOL    HW123021   3.220   0.159   2.808  0.8721 -0.1851  0.2552
 3854SOL    HW223022   3.243   0.277   2.724 -2.2003  2.5558  1.1794
 3855SOL     OW23023   3.077   1.317   4.418  0.1636 -0.3592  0.1118
 3855SOL    HW123024   3.011   1.312   4.487 -0.5833  0.8941 -0.5051
 3855SOL    HW223025   3.147   1.364   4.463  0.1802  0.5271 -0.8367
 3856SOL     OW23026   2.237   4.489   6.295  0.0583 -0.0670 -0.0258
 3856SOL    HW123027   2.181   4.491   6.218  0.7430 -1.3051 -0.5568
 3856SOL    HW223028   2.229   4.396   6.318  0.7654 -0.3899 -1.0857
 3857SOL     OW23029   0.005   1.587  10.618 -0.5283  0.3113 -0.2226
 3857SOL    HW123030   4.691   1.675  10.603 -0.8223 -0.3902 -3.5156
 3857SOL    HW223031   4.676   1.557  10.693 -0.7887  0.6414 -0.2639
 3858SOL     OW23032   0.369   2.045  12.820  0.0522 -0.0621 -0.4283
 3858SOL    HW123033   0.290   2.038  12.873  0.2001  0.6202 -0.1175
 3858SOL    HW223034   0.388   2.135  12.846  0.6166 -0.4935  0.6387
 3859SOL     OW23035   4.553   4.150   2.312  0.2125 -0.1396 -0.0186
 3859SOL    HW123036   4.591   4.153   2.224 -1.0398  0.1404 -0.5478
 3859SOL    HW223037   4.616   4.089   2.349  1.4570  0.5098 -1.0408
 3860SOL     OW23038   3.171   0.683   3.318  0.2094  0.0924 -0.1558
 3860SOL    HW123039   3.263   0.682   3.294  0.2590 -0.8681  0.0934
 3860SOL    HW223040   3.146   0.734   3.241  1.2813 -0.1945 -0.6891
 3861SOL     OW23041   3.277   0.220   6.573  0.7302  0.2600  0.0848
 3861SOL    HW123042   3.368   0.205   6.548  0.1106 -3.5860  0.0966
 3861SOL    HW223043   3.297   0.261   6.657  1.4375 -1.3331  0.7078
 3862SOL     OW23044   4.312   0.622  13.609 -0.2741  0.0584  0.6979
 3862SOL    HW123045   4.221   0.603  13.634 -1.1884  0.4810 -2.2956
 3862SOL    HW223046   4.310   0.717  13.616  2.4095  0.0919  0.8426
 3863SOL     OW23047   4.077   4.236   8.467 -0.5439  0.0409  0.1267
 3863SOL    HW123048   4.115   4.222   8.553 -1.1511  1.4400  0.6189
 3863SOL    HW223049   4.068   4.331   8.470  2.0109  0.3476 -1.8555
 3864SOL     OW23050   4.164   4.621  17.618  0.1460 -0.5490 -0.1840
 3864SOL    HW123051   4.205   4.537  17.637  0.0806  0.1802  3.2095
 3864SOL    HW223052   4.130   4.614  17.529 -0.9134 -1.4368  0.2849
 3865SOL     OW23053   1.059   1.575  11.407 -0.1941 -0.1119 -0.0119
 3865SOL    HW123054   1.073   1.584  11.502  3.3010  0.7500 -0.5836
 3865SOL    HW223055   1.120   1.645  11.381 -4.9272  3.2319 -2.0505
 3866SOL     OW23056   0.685   0.803   6.175 -0.2010 -0.7940 -0.2244
 3866SOL    HW123057   0.718   0.713   6.177  1.5715 -0.0871  2.9078
 3866SOL    HW223058   0.735   0.849   6.107 -2.2274  0.3086 -0.9639
 3867SOL     OW23059   3.517   3.641  15.943  0.2825  0.7123 -0.1208
 3867SOL    HW123060   3.566   3.593  15.877 -1.2366 -0.8461 -0.1360
 3867SOL    HW223061   3.427   3.613  15.924  0.1753 -1.5583  3.7095
 3868SOL     OW23062   1.210   1.444   0.902 -0.5984 -0.1376 -0.7360
 3868SOL    HW123063   1.292   1.459   0.950  0.0732 -1.2123 -1.5561
 3868SOL    HW223064   1.225   1.505   0.829 -0.8763 -0.1422 -0.7944
 3869SOL     OW23065   3.411   3.507   0.599 -0.2398 -0.4842 -0.5242
 3869SOL    HW123066   3.465   3.584   0.619  0.8423 -2.1788  3.0260
 3869SOL    HW223067   3.396   3.504   0.505  1.1817 -0.3504 -0.7620
 3870SOL     OW23068   1.925   2.588   7.933 -0.6815  0.1229  0.5776
 3870SOL    HW123069   1.911   2.682   7.927 -1.9327 -0.1375 -0.6933
 3870SOL    HW223070   1.861   2.561   7.999 -1.9186  1.6581 -0.0052
 3871SOL     OW23071   4.007   0.074   0.550 -0.1254 -0.2809  0.1012
 3871SOL    HW123072   3.971   0.155   0.586  3.1490  1.4226 -0.4765
 3871SOL    HW223073   4.089   0.113   0.519  0.7140 -1.6758  0.5654
 3872SOL     OW23074   3.394   0.721   4.367 -0.3316  0.0243 -0.0390
 3872SOL    HW123075   3.379   0.748   4.277  0.1206 -0.6264 -0.3085
 3872SOL    HW223076   3.487   0.745   4.373  0.1339 -1.4754 -1.3622
 3873SOL     OW23077   0.170   0.252   2.688 -0.1708  0.6738  0.3377
 3873SOL    HW123078   0.177   0.206   2.604 -2.3689 -0.6932  0.8932
 3873SOL    HW223079   0.207   0.191   2.752 -1.1175  0.8015  0.9963
 3874SOL     OW23080   3.990   2.755   4.327 -0.0768 -0.6895  0.4455
 3874SOL    HW123081   4.006   2.818   4.397 -1.7326  2.5688 -2.1015
 3874SOL    HW223082   4.043   2.807   4.266 -2.0198 -2.2188 -2.5361
 3875SOL     OW23083   4.187   1.529   3.980 -0.0320 -0.1544 -0.3312
 3875SOL    HW123084   4.273   1.491   3.998  0.5455  0.1626 -2.4438
 3875SOL    HW223085   4.215   1.615   3.949 -1.8072  1.3699  2.3535
 3876SOL     OW23086   3.329   1.848   5.865  0.1573  0.4178  0.1949
 3876SOL    HW123087   3.330   1.773   5.806  1.8648 -0.2860  1.1025
 3876SOL    HW223088   3.291   1.809   5.943 -0.7757  0.5291 -0.2071
 3877SOL     OW23089   3.064   4.415   9.769  0.1983 -0.0460 -0.4042
 3877SOL    HW123090   3.048   4.474   9.696  0.3445 -1.8458 -1.9062
 3877SOL    HW223091   3.159   4.414   9.774  0.1211 -1.0745  0.8409
 3878SOL     OW23092   3.750   2.923   7.136  0.1199  0.0430  0.2362
 3878SOL    HW123093   3.697   2.971   7.072  0.0879  0.0442  0.2640
 3878SOL    HW223094   3.838   2.929   7.098  0.8097 -1.1453  1.6383
 3879SOL     OW23095   0.607   0.516   0.021  0.0585  0.4830  0.0748
 3879SOL    HW123096   0.642   0.451   0.081 -1.6878 -0.2562  0.3037
 3879SOL    HW223097   0.685   0.538  17.659 -0.0150 -1.5002 -0.8786
 3880SOL     OW23098   4.528   0.067  16.868 -0.4565 -0.2598 -0.2385
 3880SOL    HW123099   4.596   0.002  16.882  1.6147  2.4441  2.1148
 3880SOL    HW223100   4.523   0.060  16.772 -2.0698 -0.3585 -0.1553
 3881SOL     OW23101   4.569   3.731   6.778  0.2697  0.3473 -0.3916
 3881SOL    HW123102   4.517   3.668   6.727  1.0558 -0.7767  0.1935
 3881SOL    HW223103   4.621   3.779   6.714 -0.3715  2.9984  1.0691
 3882SOL     OW23104   1.361   3.516   1.392  0.2997  0.1028 -0.4126
 3882SOL    HW123105   1.350   3.531   1.486 -0.8812 -2.3607 -0.1669
 3882SOL    HW223106   1.359   3.420   1.389 -0.9883  0.1081  0.3249
 3883SOL     OW23107   4.229   1.813   6.757 -0.5054 -0.4424 -0.0212
 3883SOL    HW123108   4.206   1.768   6.838  0.3211 -0.5566  0.1552
 3883SOL    HW223109   4.150   1.866   6.746 -1.1216 -1.1442  0.9420
 3884SOL     OW23110   1.026   2.004  16.884 -0.0897 -0.3706 -0.6746
 3884SOL    HW123111   0.952   1.943  16.883 -1.6143  1.4977 -0.7841
 3884SOL    HW223112   0.997   2.076  16.939  2.6211  0.0792  0.1571
 3885SOL     OW23113   2.068   2.859   7.260  0.0937  0.3000 -0.4376
 3885SOL    HW123114   1.972   2.855   7.262  0.0019  2.5360 -0.2891
 3885SOL    HW223115   2.082   2.904   7.343  0.6592 -2.0103  0.7193
 3886SOL     OW23116   2.955   2.091   2.488  0.0437  0.2030 -0.5687
 3886SOL    HW123117   2.976   2.070   2.580  0.2746  0.3668 -0.5820
 3886SOL    HW223118   3.037   2.061   2.449  0.1845 -0.4322  0.2156
 3887SOL     OW23119   4.281   1.130   6.482  0.0600  0.8403 -0.1807
 3887SOL    HW123120   4.219   1.163   6.417 -1.4860  0.8298  1.2861
 3887SOL    HW223121   4.352   1.101   6.425 -0.1835  1.0319 -0.5833
 3888SOL     OW23122   3.209   1.367   3.173 -0.0327  0.5193 -0.5863
 3888SOL    HW123123   3.152   1.311   3.121 -0.0616 -0.5327  0.5763
 3888SOL    HW223124   3.227   1.433   3.106 -0.4691  0.8561 -0.3716
 3889SOL     OW23125   4.576   3.716   9.979  0.4195 -0.2592 -0.4220
 3889SOL    HW123126   4.522   3.786   9.941  0.9494  0.7414  0.6983
 3889SOL    HW223127   4.527   3.698  10.059  1.8276 -0.0254  0.4901
 3890SOL     OW23128   4.271   0.525  15.166 -0.4878 -0.0825  0.2184
 3890SOL    HW123129   4.201   0.462  15.149 -1.4354  0.9384  0.3960
 3890SOL    HW223130   4.224   0.605  15.145 -3.6454 -1.6394  1.4665
 3891SOL     OW23131   0.058   2.431  13.224  0.0569 -0.3127 -0.1356
 3891SOL    HW123132   4.695   2.461  13.259  1.2399  1.6589  0.9888
 3891SOL    HW223133   0.113   2.508  13.227 -0.5702  0.0923  1.2201
 3892SOL     OW23134   4.622   1.609   3.826  0.3465  0.0026  0.0815
 3892SOL    HW123135   4.583   1.696   3.816  0.4316  0.0294 -0.0317
 3892SOL    HW223136   4.552   1.579   3.768  0.1250 -3.6414  2.2556
 3893SOL     OW23137   3.407   3.147   3.061  0.3586 -0.3388 -0.1181
 3893SOL    HW123138   3.394   3.163   3.155  1.3020 -1.5089  0.2175
 3893SOL    HW223139   3.318   3.143   3.027 -0.1697  0.7754  1.0942
 3894SOL     OW23140   4.090   0.204   6.082  0.1790 -0.1283  0.0629
 3894SOL    HW123141   4.081   0.155   6.000  0.6044  0.3090 -0.2454
 3894SOL    HW223142   4.051   0.288   6.055 -0.7906 -0.3395  0.7994
 3895SOL     OW23143   3.994   1.170   5.530  0.4422  0.3166 -0.7202
 3895SOL    HW123144   3.942   1.189   5.608 -2.2340  1.2478 -2.7402
 3895SOL    HW223145   3.930   1.160   5.459 -0.1457  0.0973 -0.1607
 3896SOL     OW23146   1.475   2.669  11.227  0.1172  0.1248  0.4331
 3896SOL    HW123147   1.445   2.745  11.276 -0.1434  1.3748 -1.6381
 3896SOL    HW223148   1.566   2.698  11.223 -0.4829  1.8624 -0.5584
 3897SOL     OW23149   2.450   4.571   3.682 -0.3321  0.1306  0.0758
 3897SOL    HW123150   2.542   4.552   3.702 -0.6237 -0.1728  1.0838
 3897SOL    HW223151   2.407   4.568   3.767 -0.6238 -0.1564 -0.0840
 3898SOL     OW23152   2.792   2.453   8.812  0.1772  0.6922  0.2988
 3898SOL    HW123153   2.722   2.435   8.874 -0.3843  2.3910  0.1497
 3898SOL    HW223154   2.790   2.548   8.803  0.5799  0.7239  0.5476
 3899SOL     OW23155   3.460   2.212   4.042 -0.4181 -0.2128 -0.1408
 3899SOL    HW123156   3.503   2.239   4.123 -1.8227  2.4666 -0.2772
 3899SOL    HW223157   3.529   2.172   3.989 -0.0066  0.6922 -0.2917
 3900SOL     OW23158   0.964   2.255  11.315 -0.3092  0.4571  0.3981
 3900SOL    HW123159   0.931   2.224  11.231 -0.8899 -0.0673  0.8220
 3900SOL    HW223160   0.888   2.230  11.368 -0.2944 -0.6294 -0.0936
 3901SOL     OW23161   3.992   4.431   2.115  0.4213 -0.2241 -0.2528
 3901SOL    HW123162   3.902   4.457   2.137 -0.5516 -3.2103 -0.6712
 3901SOL    HW223163   3.981   4.337   2.128  4.0279 -0.3431  2.0503
 3902SOL     OW23164   3.869   0.178  13.714  0.3285  0.1806 -0.0255
 3902SOL    HW123165   3.784   0.220  13.720  0.1010 -0.7530  2.9460
 3902SOL    HW223166   3.873   0.160  13.620  1.1485 -0.1171  0.0611
 3903SOL     OW23167   0.395   2.445   2.179 -0.0788 -0.2737  0.1095
 3903SOL    HW123168   0.358   2.444   2.267 -1.0490  1.7856 -0.2635
 3903SOL    HW223169   0.344   2.369   2.150  0.1984 -0.9759  1.4981
 3904SOL     OW23170   1.641   3.154  16.439 -0.1298  0.1504  0.1856
 3904SOL    HW123171   1.672   3.196  16.360  1.8881 -2.4053 -0.4147
 3904SOL    HW223172   1.628   3.220  16.508  1.1925  1.4971 -0.8811
 3905SOL     OW23173   3.472   4.321   7.591 -0.1032  0.6850  0.0513
 3905SOL    HW123174   3.526   4.242   7.595  0.0295  0.6733 -2.1235
 3905SOL    HW223175   3.394   4.293   7.640 -0.0331  0.3985 -0.0015
 3906SOL     OW23176   2.385   3.417   4.232  0.5655 -0.0569 -0.5964
 3906SOL    HW123177   2.463   3.365   4.251 -0.2793 -0.9723  0.3798
 3906SOL    HW223178   2.424   3.504   4.240 -1.6440  0.7347  1.5130
 3907SOL     OW23179   4.622   2.975   2.048  1.1189  0.4003  0.2993
 3907SOL    HW123180   4.717   2.970   2.038  1.1067  2.1757 -0.5296
 3907SOL    HW223181   4.598   2.898   1.996 -1.1823  0.8296  0.7521
 3908SOL     OW23182   3.326   0.664  15.326  0.0243 -0.0344  0.7081
 3908SOL    HW123183   3.316   0.704  15.240  2.5864 -1.5389 -0.2777
 3908SOL    HW223184   3.358   0.581  15.292  1.9283  1.1809 -0.5049
 3909SOL     OW23185   2.674   0.603  14.396  0.1714 -0.3722 -0.1025
 3909SOL    HW123186   2.688   0.652  14.477 -2.6325 -0.3963  0.3936
 3909SOL    HW223187   2.581   0.605  14.373  0.2351 -0.8283 -0.4039
 3910SOL     OW23188   0.608   4.626  17.245  0.0533 -0.0591 -0.0645
 3910SOL    HW123189   0.697   4.656  17.229  0.4283  0.3372  2.7070
 3910SOL    HW223190   0.568   4.602  17.161 -0.6777 -2.0714  0.8465
 3911SOL     OW23191   1.016   1.654  16.933 -0.1547 -0.0012 -0.2198
 3911SOL    HW123192   0.998   1.640  17.026 -2.4872  1.4804 -0.4252
 3911SOL    HW223193   0.939   1.708  16.913 -0.7819 -0.6911  0.3262
 3912SOL     OW23194   2.326   0.856   4.759 -0.4101 -0.7575  0.5591
 3912SOL    HW123195   2.307   0.762   4.754 -0.8390 -0.5627 -1.5030
 3912SOL    HW223196   2.373   0.869   4.676 -0.1054 -2.9892  0.3692
 3913SOL     OW23197   0.697   1.467   6.219  0.1659  0.1259  0.1969
 3913SOL    HW123198   0.782   1.434   6.191  0.1512 -1.4467  1.9700
 3913SOL    HW223199   0.649   1.474   6.137 -0.6113  1.3113  0.7568
 3914SOL     OW23200   2.201   0.917   7.079  0.0835 -0.4237 -0.5672
 3914SOL    HW123201   2.261   0.851   7.044  0.5130 -0.3903  0.0975
 3914SOL    HW223202   2.159   0.871   7.152  2.3667  0.2756  1.1680
 3915SOL     OW23203   3.048   4.117   4.713  0.0361 -0.6916  0.2543
 3915SOL    HW123204   3.075   4.189   4.769  1.1929 -2.4955  1.9965
 3915SOL    HW223205   3.050   4.041   4.770  0.3484 -0.6500  0.2936
 3916SOL     OW23206   0.924   3.259   2.525 -0.3003 -0.0593  0.2805
 3916SOL    HW123207   1.010   3.217   2.517 -0.0561  0.5290 -0.2042
 3916SOL    HW223208   0.912   3.299   2.439  0.6649  0.6618  0.4806
 3917SOL     OW23209   2.453   0.150  14.942  0.4058 -0.3141  0.6715
 3917SOL    HW123210   2.532   0.118  14.987  0.6168  0.5329  0.9068
 3917SOL    HW223211   2.403   0.176  15.020  0.2206  0.9291  0.1331
 3918SOL     OW23212   2.304   1.486   9.402  0.5763  0.2960 -0.1961
 3918SOL    HW123213   2.272   1.576   9.409 -0.8803 -0.3790  2.0879
 3918SOL    HW223214   2.286   1.470   9.310  1.3721 -2.3784  0.1207
 3919SOL     OW23215   1.779   0.071   5.820 -0.0253  0.6153  0.0770
 3919SOL    HW123216   1.790   0.091   5.727 -1.3024 -0.6912 -0.3662
 3919SOL    HW223217   1.732   0.152   5.840  0.6072  0.8169  0.7425
 3920SOL     OW23218   4.262   4.664  11.531 -0.0539 -0.2190 -0.0290
 3920SOL    HW123219   4.315   4.614  11.592  0.1670 -1.2154 -1.0439
 3920SOL    HW223220   4.293   0.028  11.561  2.7308 -0.8293 -1.1856
 3921SOL     OW23221   4.354   0.364   8.234 -0.1149  0.1401  0.1296
 3921SOL    HW123222   4.304   0.347   8.313  0.5175 -1.6578  0.1579
 3921SOL    HW223223   4.321   0.450   8.209  1.6238  0.8576  0.3129
 3922SOL     OW23224   1.681   3.999   3.273 -0.1264  0.3975  0.1363
 3922SOL    HW123225   1.673   3.931   3.207  2.2230 -1.2746  1.5836
 3922SOL    HW223226   1.733   4.060   3.220  0.2074  0.6570  0.7647
 3923SOL     OW23227   3.375   4.334   6.159 -0.0398  0.1891 -0.3123
 3923SOL    HW123228   3.313   4.384   6.212  0.8204  0.7558  0.1407
 3923SOL    HW223229   3.342   4.246   6.177 -1.0641  0.2552 -1.8011
 3924SOL     OW23230   4.705   0.272   8.582  0.0639  0.2024 -0.5880
 3924SOL    HW123231   4.631   0.283   8.641  0.8257  0.2258  0.3695
 3924SOL    HW223232   0.042   0.338   8.619  0.3737  0.5284 -1.6599
 3925SOL     OW23233   2.645   3.249  14.106 -0.0791 -0.0284 -0.2782
 3925SOL    HW123234   2.591   3.277  14.181 -0.0155 -0.1484 -0.1869
 3925SOL    HW223235   2.650   3.337  14.069  0.1765 -0.2040 -0.6561
 3926SOL     OW23236   3.331   4.703  11.926  0.1476  0.2033  0.0335
 3926SOL    HW123237   3.395   4.719  11.995 -0.2417 -0.8596  0.6373
 3926SOL    HW223238   3.381   4.639  11.875 -1.7265 -1.9150  0.8765
 3927SOL     OW23239   2.096   1.253  12.296  0.7717 -0.1376 -0.5791
 3927SOL    HW123240   2.144   1.290  12.369 -1.6804 -1.1600  1.5494
 3927SOL    HW223241   2.092   1.338  12.252 -2.2149 -1.0335 -2.0558
 3928SOL     OW23242   1.332   0.026  12.308 -0.1220 -0.0692 -0.1623
 3928SOL    HW123243   1.266   0.081  12.348  1.8869  0.4292  2.4482
 3928SOL    HW223244   1.390   0.000  12.380 -0.1889  0.8579  0.2208
 3929SOL     OW23245   0.295   0.193   6.240  0.2596 -0.0342 -0.0478
 3929SOL    HW123246   0.232   0.121   6.234 -0.3753  0.4555  0.6908
 3929SOL    HW223247   0.233   0.265   6.253  0.3975  0.0709  0.0255
 3930SOL     OW23248   4.150   4.441   7.802  0.5100 -0.0468  0.7178
 3930SOL    HW123249   4.205   4.474   7.730 -2.3045 -1.2753 -2.0125
 3930SOL    HW223250   4.106   4.522   7.826  1.7471  0.5785  0.8817
 3931SOL     OW23251   0.353   2.040   6.407  0.2812  0.3655  0.5208
 3931SOL    HW123252   0.397   2.009   6.486 -3.0569 -2.1381  1.3987
 3931SOL    HW223253   0.332   1.958   6.363 -0.7740  0.1842  1.3618
 3932SOL     OW23254   0.436   0.565   3.739  0.1289 -0.6124 -0.4209
 3932SOL    HW123255   0.469   0.605   3.658 -0.5938  1.8730  0.4956
 3932SOL    HW223256   0.431   0.647   3.789 -0.6102  0.4995 -2.2969
 3933SOL     OW23257   1.485   2.919   7.664  0.2883 -0.2647 -0.1165
 3933SOL    HW123258   1.468   2.865   7.741 -0.1417 -0.5650 -0.4211
 3933SOL    HW223259   1.517   3.003   7.698  1.5481 -0.1697 -1.5347
 3934SOL     OW23260   2.125   3.076   2.246  0.4577 -0.3771  0.5716
 3934SOL    HW123261   2.217   3.087   2.221  0.5591  1.5269  1.8059
 3934SOL    HW223262   2.068   3.069   2.169 -0.4270  2.2158  0.9696
 3935SOL     OW23263   2.885   4.540  15.229  0.6769  0.0466  0.3964
 3935SOL    HW123264   2.834   4.475  15.179  1.6485 -0.4176  0.0067
 3935SOL    HW223265   2.874   4.616  15.173 -0.1503  0.5401  1.2301
 3936SOL     OW23266   2.096   1.980  14.820 -0.2609 -0.2014  0.1457
 3936SOL    HW123267   2.162   1.954  14.884  0.0677 -3.8505 -1.6839
 3936SOL    HW223268   2.036   1.905  14.814 -0.8559  0.3007 -0.1744
 3937SOL     OW23269   1.055   0.717  12.048  0.4470  0.2625  0.5381
 3937SOL    HW123270   0.976   0.771  12.051 -1.4394 -2.4185 -0.3480
 3937SOL    HW223271   1.023   0.643  11.996  0.6292 -0.2805  1.1940
 3938SOL     OW23272   0.916   0.817  16.522  0.1009  0.0804 -0.1679
 3938SOL    HW123273   0.899   0.864  16.604  0.8551  0.9008 -0.4858
 3938SOL    HW223274   0.828   0.780  16.513  1.0357 -2.4463  0.9803
 3939SOL     OW23275   0.915   3.161  10.158  0.2232 -0.2244  0.2264
 3939SOL    HW123276   0.857   3.087  10.139 -0.2301  0.5190 -1.2912
 3939SOL    HW223277   0.997   3.117  10.137  0.6638  0.1948  1.0677
 3940SOL     OW23278   1.006   3.965  10.639  0.4195 -0.3210 -0.2662
 3940SOL    HW123279   0.976   4.053  10.660 -0.5148 -0.4857 -0.9124
 3940SOL    HW223280   1.054   3.955  10.721 -1.5933 -1.0511  0.8050
 3941SOL     OW23281   3.139   3.412  11.683 -0.3349 -0.2111  0.0406
 3941SOL    HW123282   3.140   3.433  11.776  0.9853  1.1552 -0.2848
 3941SOL    HW223283   3.143   3.316  11.690 -0.5596 -0.1639  0.7850
 3942SOL     OW23284   3.480   1.051  16.706 -0.2587 -0.1334  0.6000
 3942SOL    HW123285   3.551   1.038  16.770  0.0038  1.5873  0.6791
 3942SOL    HW223286   3.466   0.970  16.659  0.7274  0.1410 -0.1688
 3943SOL     OW23287   0.265   3.893   9.141 -0.0361  0.0030  0.7360
 3943SOL    HW123288   0.333   3.946   9.182 -0.4516  1.5617 -0.5917
 3943SOL    HW223289   0.255   3.827   9.209 -2.7386  0.5914  0.9023
 3944SOL     OW23290   0.081   3.369   6.749  0.2440 -0.0600  0.3530
 3944SOL    HW123291   0.139   3.445   6.750  1.4421 -0.9211 -1.1453
 3944SOL    HW223292   0.094   3.314   6.826 -1.3191 -0.0466  0.6281
 3945SOL     OW23293   1.226   3.282  14.623 -0.1545 -0.1232 -0.2856
 3945SOL    HW123294   1.211   3.280  14.529 -1.2311 -1.4190 -0.0877
 3945SOL    HW223295   1.257   3.370  14.641 -0.8683  0.2000 -0.6543
 3946SOL     OW23296   4.518   2.730   5.627 -0.3198 -0.7690  0.7232
 3946SOL    HW123297   4.525   2.811   5.679  3.5421 -0.6179 -0.0593
 3946SOL    HW223298   4.431   2.692   5.645 -2.1837  2.6863 -0.9513
 3947SOL     OW23299   2.991   2.871   5.400  0.3230 -0.5711 -0.4627
 3947SOL    HW123300   2.912   2.860   5.347  0.8667 -1.7936 -1.0254
 3947SOL    HW223301   3.055   2.808   5.367 -0.8464 -1.5226 -0.9386
 3948SOL     OW23302   1.182   4.491   4.514  0.1619 -0.1450 -0.4485
 3948SOL    HW123303   1.215   4.410   4.474 -0.5452 -0.6221 -0.0795
 3948SOL    HW223304   1.182   4.454   4.602  0.3970  1.0755  0.0619
 3949SOL     OW23305   2.030   2.139   3.997 -0.9407  0.7383 -0.3035
 3949SOL    HW123306   2.008   2.147   4.090 -1.4774 -1.9161 -0.2134
 3949SOL    HW223307   2.077   2.222   3.994  1.0114 -0.2293  2.8894
 3950SOL     OW23308   4.014   2.785  13.682  0.2796  0.2942  0.0649
 3950SOL    HW123309   4.001   2.704  13.731  0.3761  0.5146  0.4531
 3950SOL    HW223310   3.926   2.824  13.686 -0.0175 -0.4443  0.6718
 3951SOL     OW23311   1.154   1.764   7.291  0.0764  0.8014  0.4294
 3951SOL    HW123312   1.064   1.787   7.313 -0.4730  0.2955 -1.2973
 3951SOL    HW223313   1.151   1.679   7.335 -0.9729 -0.3207 -1.7872
 3952SOL     OW23314   1.741   4.717  16.554  0.4720 -0.0375 -0.4175
 3952SOL    HW123315   1.739   0.061  16.624  3.2540  1.7138 -1.9722
 3952SOL    HW223316   1.676   0.025  16.490 -1.8703 -2.5886  0.7829
 3953SOL     OW23317   4.578   4.668  14.152  0.2948 -0.0523 -0.1529
 3953SOL    HW123318   4.640   4.613  14.200 -0.1956 -1.1868 -0.8148
 3953SOL    HW223319   4.578   4.609  14.076  0.0677  0.4547 -0.5477
 3954SOL     OW23320   4.348   2.449   4.664 -0.0664 -0.1832 -0.5275
 3954SOL    HW123321   4.388   2.453   4.577  2.1349 -1.6447  0.4337
 3954SOL    HW223322   4.288   2.524   4.658 -0.0520 -0.1334 -0.0205
 3955SOL     OW23323   4.671   1.590   7.386  1.1370 -0.5763  0.1634
 3955SOL    HW123324   4.657   1.564   7.295 -2.6080 -0.0159  0.5905
 3955SOL    HW223325   4.639   1.512   7.432  1.8321 -0.7230  0.3940
 3956SOL     OW23326   2.618   0.897  17.336 -0.1922 -0.3981 -0.0872
 3956SOL    HW123327   2.644   0.810  17.305 -2.2058 -0.5814 -1.2016
 3956SOL    HW223328   2.665   0.950  17.271 -1.1473 -0.2566 -0.6571
 3957SOL     OW23329   1.338   1.304   7.797 -0.1199 -0.0362  0.1645
 3957SOL    HW123330   1.277   1.302   7.871 -0.0010 -0.4567  0.2519
 3957SOL    HW223331   1.388   1.385   7.807 -0.7355  0.2965  0.5609
 3958SOL     OW23332   1.909   1.096   8.314  0.5438 -0.1160  0.0520
 3958SOL    HW123333   1.895   1.067   8.405  0.7584  2.2476  0.8423
 3958SOL    HW223334   1.868   1.182   8.319  2.4902  0.7068  1.9514
 3959SOL     OW23335   2.866   4.231  12.328 -0.4493  0.0608 -0.1597
 3959SOL    HW123336   2.880   4.325  12.343  1.5889 -0.5830  1.8830
 3959SOL    HW223337   2.956   4.203  12.343 -0.3962  0.0177 -0.5514
 3960SOL     OW23338   3.638   0.224   7.520 -0.1895  0.5891 -0.2315
 3960SOL    HW123339   3.717   0.219   7.467 -0.8906  0.5565 -1.2751
 3960SOL    HW223340   3.585   0.161   7.471  0.1852  0.1037 -0.0090
 3961SOL     OW23341   4.590   3.204  14.382 -0.0524 -0.3854 -0.0580
 3961SOL    HW123342   4.647   3.242  14.449  0.5823  0.1236 -0.8920
 3961SOL    HW223343   4.573   3.278  14.324  1.2347  2.1353  2.7817
 3962SOL     OW23344   2.730   4.391  16.607  0.3790  0.1754  0.2877
 3962SOL    HW123345   2.678   4.471  16.612  0.3219  0.1993 -0.7270
 3962SOL    HW223346   2.789   4.414  16.535 -2.1790 -0.4372 -2.0201
 3963SOL     OW23347   2.924   4.678   3.655 -0.3377 -0.4952  0.4787
 3963SOL    HW123348   3.007   4.696   3.699 -1.2198  0.8975  1.5562
 3963SOL    HW223349   2.875   0.031   3.691  0.0289 -0.1966  0.3464
 3964SOL     OW23350   1.144   4.494  15.609 -0.4740 -0.3553  0.0186
 3964SOL    HW123351   1.123   4.527  15.697 -0.7283 -0.9966  0.2056
 3964SOL    HW223352   1.192   4.413  15.629  0.6050  0.6792  1.6115
 3965SOL     OW23353   3.966   3.967  11.334 -0.2542  0.0929 -0.4527
 3965SOL    HW123354   4.039   4.027  11.348  0.7239 -0.6419 -2.3372
 3965SOL    HW223355   4.014   3.885  11.324 -0.9692 -0.3656 -0.1171
 3966SOL     OW23356   2.542   0.017   8.840  0.1416 -0.2389 -0.1158
 3966SOL    HW123357   2.569   0.056   8.923  2.6612 -0.4901 -0.8178
 3966SOL    HW223358   2.465   4.685   8.858  0.4363 -0.1458  1.4739
 3967SOL     OW23359   3.158   1.574  15.246 -0.4089  0.4654 -0.0412
 3967SOL    HW123360   3.240   1.539  15.280  0.2441  0.8143 -1.2680
 3967SOL    HW223361   3.184   1.666  15.247  0.2084  0.2948 -0.4107
 3968SOL     OW23362   1.236   3.811  14.233  0.3499 -0.7302  0.0724
 3968SOL    HW123363   1.197   3.784  14.149 -1.0399  0.1971  0.4111
 3968SOL    HW223364   1.201   3.749  14.297 -2.0452  0.9191  0.3681
 3969SOL     OW23365   0.772   4.489   7.353 -0.5505  0.3995 -0.2253
 3969SOL    HW123366   0.677   4.504   7.348 -0.5485  0.2767 -0.6370
 3969SOL    HW223367   0.789   4.518   7.443  2.0986 -1.0609 -0.2758
 3970SOL     OW23368   0.477   3.990  13.704 -0.2067 -0.1638  0.2509
 3970SOL    HW123369   0.507   3.958  13.618 -0.6011  1.5336 -0.5215
 3970SOL    HW223370   0.436   4.073  13.681 -0.9547 -0.2375  1.3369
 3971SOL     OW23371   4.626   1.708   1.258 -0.2478  0.2411 -0.5005
 3971SOL    HW123372   4.536   1.740   1.248  0.3662  1.9419 -0.5219
 3971SOL    HW223373   4.680   1.783   1.235  2.3173 -1.6718 -0.6906
 3972SOL     OW23374   2.332   0.350   6.317 -0.3002  0.2618 -0.2227
 3972SOL    HW123375   2.293   0.434   6.295 -1.2451  0.1792  1.0948
 3972SOL    HW223376   2.384   0.326   6.241  0.8424 -0.8993  0.9149
 3973SOL     OW23377   4.520   1.539   2.031  0.1325  0.0163  0.1594
 3973SOL    HW123378   4.439   1.560   1.984 -0.6536 -0.2850  1.3911
 3973SOL    HW223379   4.532   1.444   2.021  3.3946  0.4605 -0.1345
 3974SOL     OW23380   4.025   2.740   1.129 -0.3834  0.0926 -0.2242
 3974SOL    HW123381   4.102   2.695   1.093  0.5956  0.6429  1.1553
 3974SOL    HW223382   4.073   2.809   1.175  1.6164 -0.6573 -1.2034
 3975SOL     OW23383   2.311   0.534   1.574 -0.2858 -0.0910 -0.1257
 3975SOL    HW123384   2.241   0.491   1.523 -0.7383  3.3303 -2.3938
 3975SOL    HW223385   2.364   0.463   1.609 -0.6431 -0.8061 -1.0294
 3976SOL     OW23386   0.885   1.610   5.736  0.5991 -0.0152 -0.1562
 3976SOL    HW123387   0.798   1.632   5.702  0.7484  0.5879 -0.1513
 3976SOL    HW223388   0.900   1.678   5.802 -0.7237  1.6720 -1.5989
 3977SOL     OW23389   3.748   2.159   5.732 -0.5270 -0.1296 -0.7426
 3977SOL    HW123390   3.686   2.191   5.797 -0.4478 -3.8030  1.1525
 3977SOL    HW223391   3.726   2.066   5.723  1.7278 -0.6320 -1.1067
 3978SOL     OW23392   3.394   4.629   9.023 -0.5008 -0.3331 -0.6716
 3978SOL    HW123393   3.483   4.605   9.046 -0.0917  2.3186  0.5660
 3978SOL    HW223394   3.368   4.652   9.113 -0.5641  0.3837 -0.8713
 3979SOL     OW23395   4.260   2.930  11.878 -0.2441  0.5434 -0.2267
 3979SOL    HW123396   4.252   2.992  11.950 -0.5951 -0.4250  0.5609
 3979SOL    HW223397   4.172   2.934  11.841 -0.9637 -2.3389  1.1557
 3980SOL     OW23398   2.002   3.535   4.793  0.0589 -0.3280 -0.6021
 3980SOL    HW123399   2.046   3.487   4.863 -0.0976 -1.1810 -1.0744
 3980SOL    HW223400   2.023   3.621   4.828 -1.2098 -0.6167  0.8602
 3981SOL     OW23401   1.867   0.840   6.600  0.2655 -0.5084 -0.2497
 3981SOL    HW123402   1.855   0.862   6.692 -0.3307 -1.4235 -0.1049
 3981SOL    HW223403   1.871   0.924   6.553 -0.3916  0.4706  1.4534
 3982SOL     OW23404   3.120   1.040   9.165 -0.3868 -0.1802  0.6646
 3982SOL    HW123405   3.157   0.952   9.167  0.4293  0.1094 -1.3717
 3982SOL    HW223406   3.074   1.039   9.249  0.8233 -0.4348  1.3266
 3983SOL     OW23407   1.529   0.745   8.159 -0.0645  0.2138  0.0450
 3983SOL    HW123408   1.480   0.827   8.163 -1.1646 -0.4025 -0.6401
 3983SOL    HW223409   1.471   0.685   8.207 -2.4870  2.2821 -0.2662
 3984SOL     OW23410   0.878   0.692   2.175  0.3343  0.0193 -0.0289
 3984SOL    HW123411   0.966   0.660   2.196  0.9711 -0.9529 -4.1939
 3984SOL    HW223412   0.854   0.719   2.264  2.5274 -1.4257  1.0096
 3985SOL     OW23413   1.099   1.376   5.503  0.9853 -0.5932  0.3086
 3985SOL    HW123414   1.107   1.471   5.499  0.3691 -0.5716 -0.5244
 3985SOL    HW223415   1.164   1.361   5.434 -0.6657 -2.1812 -0.9373
 3986SOL     OW23416   0.974   3.159   0.405 -0.0795  0.1805 -0.5919
 3986SOL    HW123417   0.919   3.102   0.351  2.7399 -0.1345 -3.1322
 3986SOL    HW223418   1.035   3.188   0.337 -0.4880  0.4036 -0.8667
 3987SOL     OW23419   2.747   4.550  17.487 -0.6396 -1.0111 -0.4792
 3987SOL    HW123420   2.730   4.643  17.497 -0.7510 -1.2057  1.0609
 3987SOL    HW223421   2.781   4.537  17.576 -1.9170 -1.4926 -0.0652
 3988SOL     OW23422   0.566   2.405   1.988  0.1900  0.1452  0.9177
 3988SOL    HW123423   0.497   2.410   2.054 -1.3785 -0.2356 -0.6681
 3988SOL    HW223424   0.637   2.455   2.029 -0.8600  1.0734  1.5911
 3989SOL     OW23425   2.698   3.119  10.517 -0.5360  0.1240  0.0755
 3989SOL    HW123426   2.669   3.028  10.512  2.5091 -0.7815 -1.1456
 3989SOL    HW223427   2.737   3.115  10.604 -0.2470  0.9907 -0.0209
 3990SOL     OW23428   2.348   2.485   2.130 -0.1859 -0.3499  0.3502
 3990SOL    HW123429   2.351   2.579   2.109 -1.3943 -0.5314 -0.6837
 3990SOL    HW223430   2.435   2.457   2.159 -0.8644 -0.7222  1.9772
 3991SOL     OW23431   1.738   2.861   6.568 -0.5176  0.3956 -0.0350
 3991SOL    HW123432   1.712   2.902   6.650  1.2612  2.4975 -0.5414
 3991SOL    HW223433   1.654   2.845   6.524  0.5249  1.3232 -2.3681
 3992SOL     OW23434   0.735   4.451   5.290 -0.1369  0.2975 -0.1364
 3992SOL    HW123435   0.806   4.388   5.303 -0.8710 -0.6357 -0.6241
 3992SOL    HW223436   0.750   4.517   5.358 -1.4169 -0.0022  0.4454
 3993SOL     OW23437   3.542   2.585   8.733 -0.4103  0.0819  0.1047
 3993SOL    HW123438   3.542   2.680   8.720  0.4423  0.3955  2.3104
 3993SOL    HW223439   3.636   2.573   8.724 -0.7010 -3.2837  1.4165
 3994SOL     OW23440   1.244   0.886   1.634 -0.3214  0.4413 -1.0215
 3994SOL    HW123441   1.194   0.944   1.690 -1.0351  1.1465 -2.3785
 3994SOL    HW223442   1.179   0.851   1.573 -0.0808 -0.0945 -0.9748
 3995SOL     OW23443   0.267   3.781   8.228 -0.0674 -0.2497 -0.1504
 3995SOL    HW123444   0.232   3.839   8.160  0.2541 -0.6072 -0.6240
 3995SOL    HW223445   0.208   3.706   8.228 -1.9547  1.2343  0.3665
 3996SOL     OW23446   0.095   1.732   0.447 -0.1366 -0.2126  0.1576
 3996SOL    HW123447   0.017   1.754   0.497 -0.3335  0.6731 -0.5370
 3996SOL    HW223448   0.113   1.642   0.476 -0.3234 -0.3030 -0.0075
 3997SOL     OW23449   2.839   0.316   7.543 -0.2130  0.3325 -0.2523
 3997SOL    HW123450   2.768   0.339   7.484 -0.5226 -0.3684 -0.1533
 3997SOL    HW223451   2.833   0.385   7.610  0.8081  1.2594 -1.1101
 3998SOL     OW23452   0.487   4.018   2.105 -0.2758 -0.0003  0.1383
 3998SOL    HW123453   0.494   4.033   2.199  0.0447 -0.0300  0.1192
 3998SOL    HW223454   0.442   3.934   2.093  1.0911 -0.7840  0.5228
 3999SOL     OW23455   2.635   0.580  15.759 -0.2114  0.3790 -0.0812
 3999SOL    HW123456   2.650   0.488  15.737 -0.4053  0.7105 -1.6073
 3999SOL    HW223457   2.560   0.611  15.707  0.1970 -1.2780 -1.6516
 4000SOL     OW23458   1.682   0.017   1.505  0.2388 -0.0724 -0.2514
 4000SOL    HW123459   1.627   4.665   1.532  0.6112 -0.5211 -0.7002
 4000SOL    HW223460   1.733   4.686   1.443 -0.4219  0.4117 -1.1862
 4001SOL     OW23461   0.545   1.080   2.430  0.1713 -0.0752  0.1808
 4001SOL    HW123462   0.524   1.013   2.365  1.1838 -0.3241  0.1085
 4001SOL    HW223463   0.624   1.115   2.388  1.6011 -0.6167  2.3692
 4002SOL     OW23464   2.629   4.437   1.092 -0.0295 -0.0713  0.9144
 4002SOL    HW123465   2.698   4.496   1.123  0.7564 -0.6135  0.1966
 4002SOL    HW223466   2.600   4.472   1.008 -1.1236 -1.2902  0.8000
 4003SOL     OW23467   1.995   2.234   6.766 -0.1522 -0.2172  0.3655
 4003SOL    HW123468   1.982   2.298   6.696  2.0222  0.7431  0.8571
 4003SOL    HW223469   2.056   2.174   6.725 -3.6044 -2.0520 -2.1319
 4004SOL     OW23470   3.571   3.623   1.034 -0.4496  0.0136 -0.1458
 4004SOL    HW123471   3.608   3.616   0.946  1.1001 -0.8133  0.5616
 4004SOL    HW223472   3.619   3.568   1.097  1.5105  0.1575 -1.4945
 4005SOL     OW23473   4.392   4.543   7.382  0.1050  0.2291  0.2410
 4005SOL    HW123474   4.302   4.510   7.374  0.5360 -1.0982  1.0268
 4005SOL    HW223475   4.383   4.626   7.334  1.7664 -0.0258 -0.5100
 4006SOL     OW23476   3.021   3.501   5.786  1.1334  0.2224  0.3249
 4006SOL    HW123477   2.986   3.561   5.852 -2.6824 -0.4434 -1.0930
 4006SOL    HW223478   3.102   3.545   5.758  1.0352 -0.6894 -1.3838
 4007SOL     OW23479   0.554   2.183  15.891  0.4971 -0.2728 -0.3973
 4007SOL    HW123480   0.459   2.174  15.889  0.5446 -0.4737 -1.7633
 4007SOL    HW223481   0.567   2.113  15.955 -2.7596 -1.4440 -1.0146
 4008SOL     OW23482   3.941   3.050  11.137  0.4612 -0.0168 -0.1948
 4008SOL    HW123483   3.878   3.084  11.074 -0.0463  0.8998  0.7887
 4008SOL    HW223484   4.022   3.037  11.089 -0.0122 -0.1791 -0.9452
 4009SOL     OW23485   3.734   2.633   7.486 -0.6073 -0.4947  0.1115
 4009SOL    HW123486   3.804   2.578   7.521  0.2862  0.5095 -0.1085
 4009SOL    HW223487   3.666   2.568   7.464 -2.2687  2.0168 -2.1502
 4010SOL     OW23488   3.328   2.530  17.521 -0.1266 -0.4438 -0.2925
 4010SOL    HW123489   3.254   2.532  17.460 -0.4482  0.5995  0.1304
 4010SOL    HW223490   3.360   2.620  17.526 -2.6618  0.5158 -1.2171
 4011SOL     OW23491   1.517   1.529  12.647  0.3709  0.1410  0.0184
 4011SOL    HW123492   1.479   1.521  12.560 -2.0190  1.7802  0.9305
 4011SOL    HW223493   1.540   1.620  12.669 -2.2070  0.6175  0.6949
 4012SOL     OW23494   0.796   0.225  15.097  0.3268  0.0798  0.2503
 4012SOL    HW123495   0.878   0.225  15.147  0.8650 -0.8076 -0.6335
 4012SOL    HW223496   0.766   0.135  15.090  1.0511 -0.1525  0.1383
 4013SOL     OW23497   4.665   4.341   3.464 -0.0833  0.1053  0.4102
 4013SOL    HW123498   4.642   4.396   3.389 -2.1458 -0.2757  0.7649
 4013SOL    HW223499   4.717   4.409   3.508  1.2299 -0.8913  0.3895
 4014SOL     OW23500   2.629   2.085  12.684  0.1247  0.0494  0.1098
 4014SOL    HW123501   2.586   2.152  12.737 -1.6188  1.8870 -3.6672
 4014SOL    HW223502   2.595   2.009  12.732  1.1648  0.1968  1.0682
 4015SOL     OW23503   1.488   2.867   0.740  0.1656  0.6797 -0.3099
 4015SOL    HW123504   1.418   2.872   0.804  1.8161 -3.6630  1.8414
 4015SOL    HW223505   1.564   2.830   0.785  0.9175  0.6169 -1.6239
 4016SOL     OW23506   4.334   4.336   3.434 -0.1019 -0.0718  0.2617
 4016SOL    HW123507   4.319   4.278   3.509  1.3884  1.8468  2.0571
 4016SOL    HW223508   4.295   4.271   3.376  0.4726 -1.5913  1.5695
 4017SOL     OW23509   4.306   2.622   2.029 -0.0347 -0.2466 -0.8245
 4017SOL    HW123510   4.281   2.566   2.103  2.8559  0.5078  0.7392
 4017SOL    HW223511   4.230   2.680   2.025 -0.9147 -1.1629  2.6344
 4018SOL     OW23512   1.554   4.269   7.320  0.1137 -0.1470  0.0913
 4018SOL    HW123513   1.623   4.320   7.362 -1.0575  2.6894 -1.3956
 4018SOL    HW223514   1.554   4.190   7.374 -1.1237  1.6306  2.7301
 4019SOL     OW23515   0.645   4.545   2.639  0.4494  0.5994  0.2547
 4019SOL    HW123516   0.687   4.463   2.614  1.4278  1.2138 -0.0997
 4019SOL    HW223517   0.704   4.602   2.590  0.2033  0.4110 -0.2508
 4020SOL     OW23518   1.593   3.882  14.608 -0.0631 -0.3958  0.2907
 4020SOL    HW123519   1.512   3.899  14.561 -0.2038  0.9278  1.0174
 4020SOL    HW223520   1.556   3.822  14.674  1.8518 -1.3915  0.4587
 4021SOL     OW23521   1.810   3.262  15.986 -0.2242  0.2752  0.4304
 4021SOL    HW123522   1.739   3.255  15.922 -1.5478  0.7009  1.8499
 4021SOL    HW223523   1.890   3.263  15.934 -0.7729  0.2521 -0.4197
 4022SOL     OW23524   0.955   1.759   2.925 -0.5165 -0.0518  0.1637
 4022SOL    HW123525   0.859   1.761   2.921 -0.5585  0.3435  1.2854
 4022SOL    HW223526   0.963   1.763   2.830 -2.1937 -1.7517 -0.0538
 4023SOL     OW23527   3.715   3.270  13.956 -0.2009  0.6401 -0.2896
 4023SOL    HW123528   3.737   3.336  13.891 -1.6095  0.7539 -0.6408
 4023SOL    HW223529   3.771   3.194  13.940 -1.4729 -0.2515 -0.4807
 4024SOL     OW23530   0.372   1.531   3.594 -0.3213 -0.5994 -0.3459
 4024SOL    HW123531   0.310   1.535   3.667  1.4407  1.1959  1.0303
 4024SOL    HW223532   0.360   1.621   3.563 -1.3038  0.0812  1.9793
 4025SOL     OW23533   2.326   3.995   8.118  0.1327  0.2973  0.1922
 4025SOL    HW123534   2.390   3.932   8.149 -0.9957 -1.0446 -0.2014
 4025SOL    HW223535   2.312   3.953   8.034 -0.1900 -1.4100  1.1100
 4026SOL     OW23536   0.473   1.468   0.796 -0.5421 -1.1923  0.7645
 4026SOL    HW123537   0.418   1.512   0.731  1.4568 -1.5174 -1.1517
 4026SOL    HW223538   0.427   1.474   0.879  0.8115  0.8658  1.3885
 4027SOL     OW23539   2.172   4.371   4.709  0.4332 -0.0747  0.0540
 4027SOL    HW123540   2.093   4.418   4.734 -1.1552 -2.3939 -0.6183
 4027SOL    HW223541   2.233   4.394   4.779  1.9789 -1.3200 -0.8505
 4028SOL     OW23542   1.793   1.905   3.000  0.1445 -0.4649 -0.1184
 4028SOL    HW123543   1.707   1.888   3.038  1.2270  1.0556  3.0199
 4028SOL    HW223544   1.761   1.954   2.924 -0.2587  1.2882  1.1954
 4029SOL     OW23545   2.739   4.131   4.981 -0.0592  0.2783  0.1537
 4029SOL    HW123546   2.802   4.202   4.969  0.1985 -0.2421 -1.5353
 4029SOL    HW223547   2.702   4.115   4.894 -0.3925 -1.1301  0.5630
 4030SOL     OW23548   4.120   1.331  10.356 -0.0500  0.2437 -0.1650
 4030SOL    HW123549   4.130   1.236  10.371 -0.1765  0.5130  1.6626
 4030SOL    HW223550   4.135   1.341  10.262  1.2091 -2.7877 -0.2981
 4031SOL     OW23551   3.355   2.610  15.788  0.2428  0.2497 -0.4648
 4031SOL    HW123552   3.311   2.688  15.756 -1.6929 -0.7244 -0.1642
 4031SOL    HW223553   3.338   2.627  15.881 -1.4467  0.3442 -0.7914
 4032SOL     OW23554   0.621   1.689   2.106  0.1708 -0.3690  0.3778
 4032SOL    HW123555   0.619   1.607   2.057  1.0502  0.5010 -1.0836
 4032SOL    HW223556   0.530   1.718   2.094  0.7029  0.2244 -2.0842
 4033SOL     OW23557   4.125   3.732  11.543  0.0342  0.2815  0.1309
 4033SOL    HW123558   4.216   3.743  11.569  0.4864  3.4289 -2.7705
 4033SOL    HW223559   4.092   3.816  11.575 -0.9039 -0.2828  0.6384
 4034SOL     OW23560   1.928   1.875  15.630  0.2824  0.1896 -0.1751
 4034SOL    HW123561   1.969   1.956  15.603 -0.6303  0.7294  0.0516
 4034SOL    HW223562   1.855   1.868  15.569 -0.0121  0.4243  0.1510
 4035SOL     OW23563   2.143   2.642   9.967  0.2316 -0.4784 -0.0309
 4035SOL    HW123564   2.131   2.548   9.983 -0.9783  0.1006  2.6375
 4035SOL    HW223565   2.065   2.661   9.915 -0.0786 -1.2180  0.1632
 4036SOL     OW23566   2.625   2.243   8.272 -0.0621 -0.1471  0.7059
 4036SOL    HW123567   2.667   2.234   8.357  0.7970  1.8289  0.4743
 4036SOL    HW223568   2.671   2.314   8.227 -0.5594  0.6290  1.4229
 4037SOL     OW23569   4.291   1.448   6.995 -0.1804 -0.0122 -0.3815
 4037SOL    HW123570   4.233   1.440   7.071  0.7632 -4.0122 -0.1014
 4037SOL    HW223571   4.291   1.543   6.985 -1.0888 -0.1147 -1.3531
 4038SOL     OW23572   4.613   0.509   3.277 -0.3755 -0.4492  0.1833
 4038SOL    HW123573   4.645   0.438   3.333 -0.4226 -0.2280  0.4913
 4038SOL    HW223574   4.597   0.585   3.334 -0.1013 -0.3848  0.1766
 4039SOL     OW23575   2.995   4.588   6.516 -0.1711  0.3345 -0.3214
 4039SOL    HW123576   3.002   4.535   6.595 -2.6031  2.1863  1.1243
 4039SOL    HW223577   2.909   4.565   6.482  0.0294 -0.5366 -0.2422
 4040SOL     OW23578   2.904   4.004   7.878  0.4552 -0.4495 -0.4140
 4040SOL    HW123579   2.898   3.979   7.785 -0.7045  3.9512 -1.5564
 4040SOL    HW223580   2.812   4.001   7.904  1.2997  0.8366  2.6547
 4041SOL     OW23581   4.441   1.659   5.509  0.0419  0.1610  0.3653
 4041SOL    HW123582   4.408   1.734   5.460 -1.4236  0.5752  1.9865
 4041SOL    HW223583   4.520   1.698   5.546 -0.2628 -0.6762  1.9142
 4042SOL     OW23584   3.130   4.227   5.996  0.3392  0.0747  0.3597
 4042SOL    HW123585   3.141   4.132   5.999 -0.1881 -0.0352 -1.4953
 4042SOL    HW223586   3.110   4.246   6.088  1.1823 -0.6638  0.6954
 4043SOL     OW23587   3.699   4.300   1.538  0.4282 -0.2199  0.2456
 4043SOL    HW123588   3.730   4.345   1.616  0.1140 -1.3090  0.9900
 4043SOL    HW223589   3.605   4.314   1.549  0.5731  1.3006 -0.4315
 4044SOL     OW23590   4.154   3.135  12.104 -0.4159  0.4598  0.4747
 4044SOL    HW123591   4.235   3.165  12.062  0.3479 -0.6373  1.1554
 4044SOL    HW223592   4.138   3.204  12.168 -0.6576  1.9655 -1.2278
 4045SOL     OW23593   4.080   2.005   3.771  0.0851 -0.4040  0.4222
 4045SOL    HW123594   4.041   2.092   3.771  0.2665 -0.3063  4.0225
 4045SOL    HW223595   4.012   1.953   3.730 -0.4372 -0.2466  1.0896
 4046SOL     OW23596   3.481   0.782   6.452  0.5052 -0.2394  0.0813
 4046SOL    HW123597   3.571   0.756   6.431  0.8148 -0.5008  1.7800
 4046SOL    HW223598   3.476   0.758   6.544 -0.7683 -1.4003 -0.2895
 4047SOL     OW23599   1.022   4.494   6.109 -0.9842  0.1871 -0.4242
 4047SOL    HW123600   1.082   4.478   6.181 -1.4529 -0.1094 -0.1024
 4047SOL    HW223601   1.076   4.540   6.044  1.2127 -1.2112  0.4125
 4048SOL     OW23602   3.818   3.321  14.247  0.3809  0.1121  0.0605
 4048SOL    HW123603   3.865   3.354  14.171  0.5140  1.7918  0.8716
 4048SOL    HW223604   3.792   3.233  14.219  3.9802 -0.7041 -0.7442
 4049SOL     OW23605   3.864   4.587  10.812 -0.2176  0.0896 -0.2138
 4049SOL    HW123606   3.916   4.659  10.846 -2.4777  2.8030 -2.5666
 4049SOL    HW223607   3.914   4.544  10.742  1.9228  0.8738  0.8643
 4050SOL     OW23608   1.353   4.391  10.570 -0.0964 -0.1140  0.1786
 4050SOL    HW123609   1.379   4.304  10.598  1.0734  0.2858  0.3172
 4050SOL    HW223610   1.426   4.404  10.509 -1.6540  1.4482 -1.3860
 4051SOL     OW23611   2.425   1.841   8.680 -0.9658 -0.1701 -0.3368
 4051SOL    HW123612   2.440   1.749   8.699  0.9813  0.9577  3.4826
 4051SOL    HW223613   2.458   1.834   8.590 -1.1315  1.1339 -0.5048
 4052SOL     OW23614   4.511   1.449   4.326  0.5216 -0.1357 -0.3129
 4052SOL    HW123615   4.589   1.483   4.282  0.7110  0.2676  0.3324
 4052SOL    HW223616   4.487   1.522   4.383 -0.9489 -0.5179 -0.4410
 4053SOL     OW23617   0.763   2.726   9.228  0.3190 -0.8112 -0.7717
 4053SOL    HW123618   0.809   2.730   9.144 -0.9352  3.1942 -1.2961
 4053SOL    HW223619   0.786   2.808   9.271  0.8072 -1.8087  0.8255
 4054SOL     OW23620   4.294   1.587  11.242 -0.5893 -0.8607  0.4462
 4054SOL    HW123621   4.298   1.638  11.323 -1.7913  1.0163 -0.6762
 4054SOL    HW223622   4.262   1.650  11.177 -1.7643 -1.5088  0.4149
 4055SOL     OW23623   2.491   4.438   0.268  0.8220  0.0821  1.0045
 4055SOL    HW123624   2.420   4.438   0.204  1.8233 -1.6292 -0.1038
 4055SOL    HW223625   2.542   4.514   0.240  1.9007 -0.2388  2.0776
 4056SOL     OW23626   1.016   1.023   5.945  0.1965 -0.5712  0.0084
 4056SOL    HW123627   1.069   1.094   5.982 -0.9690 -0.4614  1.4660
 4056SOL    HW223628   1.047   1.030   5.855  1.0719  0.1221  0.3613
 4057SOL     OW23629   2.406   3.720   3.387 -0.4981 -0.0182  0.0093
 4057SOL    HW123630   2.318   3.752   3.367 -0.7487 -1.2350 -0.8407
 4057SOL    HW223631   2.447   3.774   3.320  1.0183 -1.0766  0.1009
 4058SOL     OW23632   3.178   0.608   5.121  0.0267 -0.4313  0.3890
 4058SOL    HW123633   3.239   0.555   5.070  0.5548  0.4718  0.0683
 4058SOL    HW223634   3.115   0.540   5.145  0.4456 -0.7700  0.5312
 4059SOL     OW23635   4.587   0.311  14.056  0.4072 -0.2120 -0.3243
 4059SOL    HW123636   4.605   0.397  14.019 -0.4153 -0.1059 -0.4609
 4059SOL    HW223637   4.522   0.267  14.002  0.6817 -1.0116 -0.0079
 4060SOL     OW23638   1.539   1.832   4.252  0.5461 -0.0680 -0.3599
 4060SOL    HW123639   1.557   1.815   4.159 -1.5541 -0.6196 -0.6690
 4060SOL    HW223640   1.507   1.922   4.247 -0.9353 -0.6570 -1.3026
 4061SOL     OW23641   1.958   3.618  12.526 -0.8101 -0.0896  0.1676
 4061SOL    HW123642   1.941   3.523  12.529  3.0175 -0.8676 -1.8985
 4061SOL    HW223643   1.980   3.634  12.618  2.0776  1.7424 -0.8221
 4062SOL     OW23644   1.145   2.447   0.425  0.1413  0.1597  0.3984
 4062SOL    HW123645   1.148   2.455   0.330 -1.9016  0.4525  0.3431
 4062SOL    HW223646   1.201   2.370   0.439  0.2042 -0.3298 -2.6941
 4063SOL     OW23647   0.898   2.464   0.573  0.4802 -0.1817  0.0626
 4063SOL    HW123648   0.983   2.463   0.527 -0.8084 -0.1022 -2.3531
 4063SOL    HW223649   0.897   2.384   0.625 -1.0288  1.7985  3.0624
 4064SOL     OW23650   3.997   1.697   0.409 -0.1130 -0.1691  0.3581
 4064SOL    HW123651   3.956   1.695   0.322 -1.2025  1.0784  0.8350
 4064SOL    HW223652   3.986   1.789   0.434 -0.4307 -0.3936  1.0363
 4065SOL     OW23653   3.225   3.854   2.994 -0.3790 -0.4025 -0.0867
 4065SOL    HW123654   3.234   3.920   2.925 -0.0602  0.8118  1.1130
 4065SOL    HW223655   3.130   3.838   2.991 -0.4732  0.1249  0.0053
 4066SOL     OW23656   0.953   4.290   4.304  0.1526  0.1498 -0.2887
 4066SOL    HW123657   0.930   4.205   4.266  0.0908  0.1033 -0.1472
 4066SOL    HW223658   1.045   4.284   4.330 -0.3003 -1.9798  0.7609
 4067SOL     OW23659   4.455   2.375   4.132  0.6825  0.0642  0.5493
 4067SOL    HW123660   4.416   2.377   4.045 -0.3369  1.3099  1.0267
 4067SOL    HW223661   4.538   2.417   4.109 -0.1380  1.9438  0.9807
 4068SOL     OW23662   3.032   2.261   6.750 -0.2371 -0.2505  0.1526
 4068SOL    HW123663   3.033   2.304   6.665 -0.8307 -0.7454 -0.1068
 4068SOL    HW223664   3.029   2.323   6.823  0.2303 -0.4458  0.3358
 4069SOL     OW23665   4.038   2.390   0.338 -0.1050 -0.2243 -0.7987
 4069SOL    HW123666   3.980   2.353   0.271  0.8516  1.0893 -2.3447
 4069SOL    HW223667   4.089   2.444   0.278  0.3452  1.2323  0.8776
 4070SOL     OW23668   1.583   1.389   5.884  0.1901 -0.1368 -0.6762
 4070SOL    HW123669   1.659   1.331   5.880 -0.8949 -1.5779 -0.3788
 4070SOL    HW223670   1.555   1.420   5.798  0.7051  1.6099 -0.2204
 4071SOL     OW23671   2.768   0.968   8.208 -0.6687  0.1502 -0.6467
 4071SOL    HW123672   2.751   1.015   8.126 -0.5191 -0.1329 -0.8394
 4071SOL    HW223673   2.757   1.037   8.273  0.1889 -1.3373  1.0625
 4072SOL     OW23674   0.317   4.236   6.403  0.0098 -0.1042  0.3602
 4072SOL    HW123675   0.355   4.248   6.316  1.2756 -0.3994  0.8641
 4072SOL    HW223676   0.260   4.313   6.402  0.6487  0.3828  1.2867
 4073SOL     OW23677   3.030   1.862   9.705 -0.7037  0.2243  0.0309
 4073SOL    HW123678   3.036   1.777   9.662 -0.2746  0.6829 -0.7964
 4073SOL    HW223679   3.101   1.904   9.658  1.0071 -0.4580  2.0004
 4074SOL     OW23680   3.513   4.517  11.161  0.5346  0.0326 -0.1060
 4074SOL    HW123681   3.527   4.457  11.235 -0.4059  0.0100  0.0561
 4074SOL    HW223682   3.599   4.553  11.143  1.3587 -0.8870  2.0280
 4075SOL     OW23683   4.019   0.026  15.650  0.0010 -0.4455  0.2094
 4075SOL    HW123684   4.092   0.047  15.708  0.7733 -0.4282 -0.7605
 4075SOL    HW223685   3.941   0.036  15.705  0.5707 -0.8751  1.1013
 4076SOL     OW23686   2.167   0.886   4.115  0.2380  0.1740  0.5956
 4076SOL    HW123687   2.218   0.966   4.128 -1.8590  1.3475  1.5916
 4076SOL    HW223688   2.220   0.844   4.047 -1.8272 -0.8161 -0.3849
 4077SOL     OW23689   3.295   3.082   2.514  0.0883 -0.4333  1.3297
 4077SOL    HW123690   3.289   2.999   2.561 -1.8193  1.0402  3.6601
 4077SOL    HW223691   3.374   3.055   2.467  1.3063  1.5646  2.2314
 4078SOL     OW23692   2.235   3.893  11.801  1.0426 -0.5724  0.1775
 4078SOL    HW123693   2.251   3.914  11.709 -2.5424 -0.2551 -0.3580
 4078SOL    HW223694   2.140   3.883  11.800  0.9983 -0.1924  1.4285
 4079SOL     OW23695   0.842   4.125  14.510  0.4384  0.4494  0.0401
 4079SOL    HW123696   0.927   4.138  14.553  0.9305  0.7592 -1.0262
 4079SOL    HW223697   0.874   4.107  14.421  1.8267  1.5262  0.3182
 4080SOL     OW23698   4.477   1.117   7.599 -0.1087  0.0394 -0.4162
 4080SOL    HW123699   4.569   1.094   7.591 -0.7769 -3.3290  1.5402
 4080SOL    HW223700   4.440   1.029   7.592 -0.0532  0.0684 -1.0287
 4081SOL     OW23701   2.101   4.036   7.772 -0.3023  0.3592  0.1145
 4081SOL    HW123702   2.077   3.985   7.850 -0.5736  1.4760  0.7664
 4081SOL    HW223703   2.194   4.019   7.785  0.2366  1.5048 -2.3364
 4082SOL     OW23704   1.263   4.400  16.436  0.0849 -0.0927  0.4143
 4082SOL    HW123705   1.283   4.482  16.482  0.1205 -0.6433  1.3783
 4082SOL    HW223706   1.330   4.343  16.473  2.4076  2.1025 -0.4279
 4083SOL     OW23707   3.999   3.962  11.631  0.2769  0.0050  0.0795
 4083SOL    HW123708   4.034   3.972  11.720 -0.5817  2.4910  0.1285
 4083SOL    HW223709   4.056   4.012  11.574 -0.5490  2.0053  1.0212
 4084SOL     OW23710   4.475   1.234  10.429 -0.1178  0.1876 -0.1990
 4084SOL    HW123711   4.452   1.187  10.349 -0.1712  0.9787 -0.6410
 4084SOL    HW223712   4.561   1.195  10.444 -0.4387 -1.2771 -2.1302
 4085SOL     OW23713   0.328   2.231  16.690 -0.1786  0.8034  0.5659
 4085SOL    HW123714   0.334   2.254  16.782 -0.5600  2.1497  0.2569
 4085SOL    HW223715   0.246   2.269  16.657 -0.1368 -0.8447 -1.4265
 4086SOL     OW23716   1.542   0.542   5.614  0.4556 -0.1057 -0.1361
 4086SOL    HW123717   1.539   0.592   5.533  0.8786  1.4960  0.8193
 4086SOL    HW223718   1.628   0.566   5.650 -0.2600  2.9327 -0.4573
 4087SOL     OW23719   2.236   3.701   4.864 -0.1839 -0.0214  0.0310
 4087SOL    HW123720   2.275   3.634   4.807 -1.2421  0.7002 -1.5432
 4087SOL    HW223721   2.318   3.743   4.891  0.6356 -0.7162 -1.3793
 4088SOL     OW23722   2.517   1.344   8.703 -0.4862 -0.1717  0.3821
 4088SOL    HW123723   2.429   1.338   8.740 -2.2449  0.7723 -3.7159
 4088SOL    HW223724   2.568   1.325   8.782 -0.4453  0.8651  0.6091
 4089SOL     OW23725   0.041   0.080   6.185 -0.1217  0.1892  0.4336
 4089SOL    HW123726   0.104   0.078   6.113  1.9303  0.7870  2.2098
 4089SOL    HW223727   4.679   0.087   6.138  2.2691  1.5165 -3.6777
 4090SOL     OW23728   0.747   1.140   8.834 -0.5889  0.2832  0.1952
 4090SOL    HW123729   0.819   1.125   8.774 -0.7449 -1.4461  0.4342
 4090SOL    HW223730   0.750   1.069   8.898 -1.8628 -1.1729 -1.3779
 4091SOL     OW23731   3.495   0.601   2.496 -0.3269  0.0470 -0.2780
 4091SOL    HW123732   3.530   0.688   2.476  0.0428 -0.7722 -3.2327
 4091SOL    HW223733   3.400   0.612   2.495 -0.4225 -0.8262 -1.0705
 4092SOL     OW23734   1.291   2.950   2.300  0.1137  0.0615  0.1414
 4092SOL    HW123735   1.208   2.905   2.285  0.9262 -1.6600  0.7581
 4092SOL    HW223736   1.323   2.922   2.386  0.6329  0.8546  0.2095
 4093SOL     OW23737   1.119   3.814   4.708 -0.1904  0.0439  0.7817
 4093SOL    HW123738   1.104   3.757   4.632  1.9113  0.9160 -0.2728
 4093SOL    HW223739   1.178   3.758   4.758 -1.7633 -1.3910  1.0464
 4094SOL     OW23740   1.387   0.089   5.655  0.0468 -0.1076 -0.1849
 4094SOL    HW123741   1.451   0.118   5.720 -0.9548  1.6849 -0.0002
 4094SOL    HW223742   1.411   0.152   5.587  1.4966 -1.0915 -0.5798
 4095SOL     OW23743   0.837   4.094   8.864  0.0302  0.4107  0.2815
 4095SOL    HW123744   0.743   4.080   8.856 -0.0167  0.9876 -0.2661
 4095SOL    HW223745   0.842   4.161   8.931  2.0639  0.6581 -0.1030
 4096SOL     OW23746   4.455   4.066   3.326  0.0904 -0.4239 -1.0045
 4096SOL    HW123747   4.522   3.998   3.322 -0.1304 -0.6013 -1.6173
 4096SOL    HW223748   4.426   4.058   3.417  1.5918 -1.5449 -0.6255
 4097SOL     OW23749   0.052   2.884  12.789  0.0914 -0.0328  0.2296
 4097SOL    HW123750   0.098   2.824  12.731 -1.0432 -1.1766  0.5014
 4097SOL    HW223751   0.084   2.849  12.873  0.6038 -0.0363  0.0322
 4098SOL     OW23752   0.981   1.263  13.727 -0.0262 -0.3160  0.3467
 4098SOL    HW123753   0.947   1.351  13.708 -0.4924 -0.4384  0.6307
 4098SOL    HW223754   0.905   1.224  13.770 -0.1673  0.5563  0.8990
 4099SOL     OW23755   3.597   4.248   3.121  0.0777 -0.1037 -0.1493
 4099SOL    HW123756   3.527   4.250   3.056  1.0479  0.6303 -1.1763
 4099SOL    HW223757   3.650   4.324   3.096 -0.0422 -0.4797 -1.5326
 4100SOL     OW23758   3.648   0.222   5.269  0.7060  0.5200  0.0137
 4100SOL    HW123759   3.644   0.305   5.222 -1.7392 -1.1763 -2.7872
 4100SOL    HW223760   3.742   0.217   5.287  0.6466  1.1852  0.4774
 4101SOL     OW23761   0.186   3.167   5.881 -0.0605 -0.3240  0.1392
 4101SOL    HW123762   0.252   3.151   5.948  0.0940 -0.2211  0.0109
 4101SOL    HW223763   0.201   3.102   5.813 -0.4302  0.2805 -0.5240
 4102SOL     OW23764   4.072   4.540   6.387 -0.0116  0.3997 -0.5428
 4102SOL    HW123765   4.019   4.462   6.370  1.2872 -0.2251 -1.7176
 4102SOL    HW223766   4.041   4.601   6.321  1.2769 -0.7294 -2.1704
 4103SOL     OW23767   3.740   4.264   7.681  0.3639 -0.1783 -0.1204
 4103SOL    HW123768   3.833   4.258   7.704  0.2466  1.2806  0.7170
 4103SOL    HW223769   3.714   4.347   7.721 -0.5956 -0.3501 -0.3867
 4104SOL     OW23770   3.395   3.085  12.461 -0.5222  0.3096  0.5985
 4104SOL    HW123771   3.420   3.065  12.551 -0.3148  1.5727  0.8176
 4104SOL    HW223772   3.473   3.072  12.408  0.5822  2.6262  1.6598
 4105SOL     OW23773   1.195   4.313   7.588 -0.5233  0.1170  0.3758
 4105SOL    HW123774   1.170   4.272   7.505  2.0287  0.8732 -0.7566
 4105SOL    HW223775   1.110   4.338   7.625 -0.5936  1.6462 -0.8014
 4106SOL     OW23776   3.763   0.782   2.768 -0.4283  0.4161  0.0327
 4106SOL    HW123777   3.732   0.735   2.690 -0.6625 -2.0119  1.5936
 4106SOL    HW223778   3.843   0.816   2.728 -0.3617 -0.2440 -0.4118
 4107SOL     OW23779   3.708   0.313  17.548 -0.4022  0.0449  0.1007
 4107SOL    HW123780   3.761   0.267  17.612  0.3681  1.9502  0.8204
 4107SOL    HW223781   3.630   0.339  17.598 -1.0807 -2.2919  0.2537
 4108SOL     OW23782   0.972   2.454  17.653  0.1810 -0.3423 -0.1202
 4108SOL    HW123783   0.959   2.360  17.665 -1.1061 -0.4330 -2.3599
 4108SOL    HW223784   1.029   2.451  17.576  0.1816 -2.0390 -0.0419
 4109SOL     OW23785   1.758   1.744   2.290 -0.2211 -0.4236 -0.2233
 4109SOL    HW123786   1.827   1.745   2.224  1.3321  1.0786  1.4483
 4109SOL    HW223787   1.773   1.659   2.332 -3.8192 -1.8554 -1.7794
 4110SOL     OW23788   1.958   1.625  16.700  0.6962  0.0714  0.1712
 4110SOL    HW123789   2.026   1.633  16.633  0.5757 -0.5968 -0.0281
 4110SOL    HW223790   1.876   1.619  16.651 -0.8040  0.5046  2.6389
 4111SOL     OW23791   0.664   1.452   4.282  0.2652 -0.2095  0.5958
 4111SOL    HW123792   0.755   1.480   4.279  0.3415 -0.4162  1.0263
 4111SOL    HW223793   0.684   1.362   4.255 -0.3961 -0.6589  1.6095
 4112SOL     OW23794   1.829   3.377   3.700  0.5947  0.1816 -0.4626
 4112SOL    HW123795   1.912   3.397   3.744  0.2395  2.6593 -0.9120
 4112SOL    HW223796   1.853   3.310   3.636  2.8764  0.0294  0.5523
 4113SOL     OW23797   3.208   3.551  10.930 -0.0570  0.0777  0.2173
 4113SOL    HW123798   3.241   3.482  10.989 -0.4976 -2.2936 -2.3108
 4113SOL    HW223799   3.136   3.586  10.981  0.0417 -0.3279  0.6442
 4114SOL     OW23800   2.633   1.103   2.048 -0.1342  0.0461 -0.0672
 4114SOL    HW123801   2.635   1.091   1.953  1.3003 -0.1469 -0.0160
 4114SOL    HW223802   2.537   1.103   2.057  0.0890 -0.2811  2.3116
 4115SOL     OW23803   0.902   2.012   7.130  0.3233  0.6510 -0.0788
 4115SOL    HW123804   0.948   2.041   7.209 -0.6758  1.0719  0.3462
 4115SOL    HW223805   0.878   1.923   7.156  0.2014  0.5766 -0.4574
 4116SOL     OW23806   4.523   1.841   4.935 -0.1938 -0.1258 -0.1341
 4116SOL    HW123807   4.536   1.927   4.894  0.8981 -0.1689  0.1015
 4116SOL    HW223808   4.428   1.839   4.927  0.0357 -2.8055 -2.1482
 4117SOL     OW23809   1.228   2.615   7.049  0.3212  0.3248 -0.2342
 4117SOL    HW123810   1.269   2.562   7.117  1.1769  0.9306 -0.2847
 4117SOL    HW223811   1.281   2.591   6.974  2.0691 -0.0413  1.1211
 4118SOL     OW23812   3.112   3.357   2.125 -0.6223  0.5814 -0.0850
 4118SOL    HW123813   3.154   3.276   2.096 -1.2678 -0.2320  1.2562
 4118SOL    HW223814   3.182   3.422   2.123  0.3330 -0.5108 -2.0595
 4119SOL     OW23815   4.204   1.161   2.009  0.1678 -0.3664  0.6413
 4119SOL    HW123816   4.161   1.114   1.938 -0.6252  2.3080 -0.6424
 4119SOL    HW223817   4.157   1.119   2.081  0.3448  1.4927  1.8413
 4120SOL     OW23818   4.295   2.033   7.906  0.0722  0.3294 -0.1151
 4120SOL    HW123819   4.366   1.971   7.928 -0.0757  0.8128  1.7852
 4120SOL    HW223820   4.361   2.084   7.859  0.7834 -0.2524  0.2507
 4121SOL     OW23821   0.526   2.420   3.119 -0.1903 -0.2712  0.1075
 4121SOL    HW123822   0.552   2.477   3.191 -0.0410  0.1898 -0.3118
 4121SOL    HW223823   0.441   2.406   3.161  0.0043 -1.8811 -0.0146
 4122SOL     OW23824   2.856   0.934   1.748  0.1415 -0.6084  0.2674
 4122SOL    HW123825   2.799   0.860   1.727 -1.1978  0.5619 -0.2049
 4122SOL    HW223826   2.930   0.882   1.780  0.1639  0.5044  2.0590
 4123SOL     OW23827   1.976   1.457   5.677  0.3965  0.2684  0.3747
 4123SOL    HW123828   2.026   1.525   5.722 -1.9177  0.9288  1.9650
 4123SOL    HW223829   1.966   1.389   5.744 -0.8667 -0.0874 -0.1801
 4124SOL     OW23830   2.185   3.836   2.816 -0.0684  0.7342 -0.2982
 4124SOL    HW123831   2.178   3.927   2.788 -0.8068  1.1512  1.2538
 4124SOL    HW223832   2.239   3.848   2.894  0.2508  1.5499 -0.6433
 4125SOL     OW23833   2.333   4.568   8.908 -0.2480  0.0745  0.6951
 4125SOL    HW123834   2.247   4.582   8.869 -1.1635 -0.8962  2.3904
 4125SOL    HW223835   2.349   4.481   8.873 -1.2565 -0.3347  1.2752
 4126SOL     OW23836   2.420   2.782  10.335 -0.3447  0.2380  0.1461
 4126SOL    HW123837   2.374   2.860  10.366  1.3495  1.9128 -1.5619
 4126SOL    HW223838   2.435   2.735  10.417 -2.0130 -0.3807  0.0900
 4127SOL     OW23839   2.186   2.952   6.720  0.1683 -0.7233  0.5657
 4127SOL    HW123840   2.126   2.923   6.789  0.4241  1.1539  1.5648
 4127SOL    HW223841   2.165   3.043   6.698  0.9158 -0.9146 -0.9317
 4128SOL     OW23842   4.007   3.316   9.093  0.3705 -0.2785 -0.1029
 4128SOL    HW123843   4.074   3.269   9.043  0.8361 -1.2342  1.3956
 4128SOL    HW223844   3.984   3.386   9.032  0.1594  0.4505  0.8057
 4129SOL     OW23845   0.194   4.004   4.826 -0.1617  0.0762  0.3807
 4129SOL    HW123846   0.279   4.013   4.784 -0.4435 -0.3611 -0.2850
 4129SOL    HW223847   0.204   4.023   4.920  2.7264  0.2339  0.0355
 4130SOL     OW23848   1.895   0.710   4.402 -0.4625  0.2736  0.5428
 4130SOL    HW123849   1.882   0.744   4.314  0.0990 -1.8279 -0.3343
 4130SOL    HW223850   1.823   0.652   4.426  0.4278 -1.0277  0.0630
 4131SOL     OW23851   4.472   0.750   6.886 -0.2078  0.4656  0.4275
 4131SOL    HW123852   4.564   0.759   6.911  0.1216 -0.5360 -0.4240
 4131SOL    HW223853   4.468   0.811   6.812 -0.4555  1.3032  1.1353
 4132SOL     OW23854   4.612   0.892   5.234 -0.6649 -0.4366  0.4403
 4132SOL    HW123855   4.641   0.941   5.310 -2.5291  3.1041 -1.1367
 4132SOL    HW223856   4.695   0.851   5.210 -1.7560 -1.2433 -2.0466
 4133SOL     OW23857   1.975   1.566   8.390 -0.4293  0.4106  0.3267
 4133SOL    HW123858   2.067   1.590   8.387 -0.8618  1.9185 -0.7635
 4133SOL    HW223859   1.939   1.648   8.424  0.2681  1.1503 -0.7357
 4134SOL     OW23860   0.691   2.693   5.906  0.7930 -0.1396  0.1791
 4134SOL    HW123861   0.695   2.660   5.816 -2.1223  0.4037 -0.1391
 4134SOL    HW223862   0.740   2.639   5.967  0.1019 -0.4392  0.4680
 4135SOL     OW23863   2.452   1.596   3.821  0.2877  0.1675 -0.4508
 4135SOL    HW123864   2.424   1.686   3.808  0.5784  0.7179  2.6834
 4135SOL    HW223865   2.373   1.546   3.802  0.1024  0.4556 -0.4222
 4136SOL     OW23866   1.148   3.119   5.169  0.0854  0.1750  0.8144
 4136SOL    HW123867   1.087   3.045   5.171  1.3289 -0.9210 -1.8167
 4136SOL    HW223868   1.168   3.140   5.078 -1.4394  0.4085  0.5409
 4137SOL     OW23869   1.988   3.188   8.083  0.0620 -0.3294  0.3203
 4137SOL    HW123870   1.989   3.250   8.010  2.4557  0.7201  1.2350
 4137SOL    HW223871   1.896   3.173   8.102 -0.0247  0.5568  0.5832
 4138SOL     OW23872   2.512   0.625   2.451  0.1894 -0.4286  0.3844
 4138SOL    HW123873   2.465   0.586   2.377 -1.1576 -0.3591  1.2012
 4138SOL    HW223874   2.582   0.671   2.406 -0.4480 -0.8528 -1.0409
 4139SOL     OW23875   3.597   0.888  17.572 -0.1446 -0.3770  0.1364
 4139SOL    HW123876   3.511   0.928  17.585  0.7679  1.7330 -0.2287
 4139SOL    HW223877   3.594   0.822  17.641 -0.1058  0.6812  1.1538
 4140SOL     OW23878   4.664   0.102   7.218  0.2440  0.1402 -0.3349
 4140SOL    HW123879   4.649   0.175   7.159 -0.9083 -0.6234 -0.9808
 4140SOL    HW223880   4.671   0.153   7.299  0.1948 -0.0120 -0.2340
 4141SOL     OW23881   2.113   1.238   2.647  0.8063 -0.0909 -0.5508
 4141SOL    HW123882   2.057   1.180   2.699  2.2484 -0.1644  0.9321
 4141SOL    HW223883   2.192   1.184   2.654  0.7678 -0.0966 -0.1386
 4142SOL     OW23884   3.691   3.936   2.279 -0.1758  0.0685  0.0494
 4142SOL    HW123885   3.728   3.973   2.359 -1.2460  0.1137  0.5176
 4142SOL    HW223886   3.761   3.877   2.249  1.9342  1.6402  1.8541
 4143SOL     OW23887   4.660   4.222  12.638  0.1671  0.0891 -1.1813
 4143SOL    HW123888   4.581   4.192  12.683 -0.2141  2.7269 -0.1188
 4143SOL    HW223889   4.686   4.146  12.585  1.7918  0.1901 -0.5258
 4144SOL     OW23890   0.809   3.419   5.644 -0.5036  0.4931 -0.3390
 4144SOL    HW123891   0.796   3.362   5.568 -0.5829  1.4344 -1.0370
 4144SOL    HW223892   0.743   3.488   5.642 -0.7159  0.2938 -0.1437
 4145SOL     OW23893   0.397   1.381   5.442  0.0205  0.1476  0.0348
 4145SOL    HW123894   0.370   1.290   5.429 -0.6672  0.2278  0.9264
 4145SOL    HW223895   0.445   1.371   5.360  1.1983  0.5742  0.6719
 4146SOL     OW23896   4.660   0.951   1.308 -0.1462  0.2238 -0.0087
 4146SOL    HW123897   4.565   0.958   1.304 -0.1390  0.2564 -0.1238
 4146SOL    HW223898   4.676   1.038   1.269  0.6305 -0.3529 -0.9685
 4147SOL     OW23899   0.973   1.110   5.433 -0.5217 -0.0013 -0.5254
 4147SOL    HW123900   1.038   1.180   5.438 -1.9927  1.3476 -0.4700
 4147SOL    HW223901   0.890   1.157   5.433 -0.1332  0.6852 -0.1018
 4148SOL     OW23902   2.580   3.807  14.425 -0.8179  0.1375  0.0136
 4148SOL    HW123903   2.488   3.817  14.403 -0.4852 -1.6055 -2.1222
 4148SOL    HW223904   2.626   3.878  14.381 -0.9237 -0.5070 -1.1246
 4149SOL     OW23905   2.667   1.977   4.302  0.0884  0.0038  1.0039
 4149SOL    HW123906   2.660   2.052   4.242 -0.3173 -2.7347 -2.3976
 4149SOL    HW223907   2.698   2.027   4.377  1.3388 -0.9981  1.1546
 4150SOL     OW23908   1.223   4.197   4.156 -0.4526 -0.2938  0.1490
 4150SOL    HW123909   1.219   4.102   4.157  2.1909 -0.3928  0.3672
 4150SOL    HW223910   1.314   4.213   4.133  0.2497 -3.0444  1.0813
 4151SOL     OW23911   0.352   4.096   4.481 -0.7721 -0.1035 -0.7957
 4151SOL    HW123912   0.382   4.155   4.413  0.7793  2.2704  1.9488
 4151SOL    HW223913   0.410   4.115   4.555  0.7501 -0.9430 -1.7721
 4152SOL     OW23914   1.622   3.316   4.164 -0.1008  0.3662  0.5026
 4152SOL    HW123915   1.626   3.351   4.253 -0.5392  1.1801  0.2029
 4152SOL    HW223916   1.672   3.384   4.118 -1.4560  1.3053  0.4423
 4153SOL     OW23917   3.710   2.002  16.185 -0.1569 -0.5034  0.1489
 4153SOL    HW123918   3.802   1.977  16.185 -0.0602 -0.1769 -0.6825
 4153SOL    HW223919   3.725   2.061  16.111 -1.6457  0.3098  0.4807
 4154SOL     OW23920   2.139   4.159   3.948  0.6758 -0.1131  0.1502
 4154SOL    HW123921   2.053   4.127   3.922 -0.3876  0.3869  3.0372
 4154SOL    HW223922   2.179   4.163   3.862 -0.9302  1.0096 -0.5475
 4155SOL     OW23923   0.036   2.706   0.558  1.3441 -0.1173 -0.0295
 4155SOL    HW123924   4.692   2.654   0.605  1.8329 -0.6964  0.0131
 4155SOL    HW223925   0.083   2.639   0.509 -1.2810 -1.0927 -1.2282
 4156SOL     OW23926   2.093   2.226  14.912 -0.5987  0.1941 -0.2400
 4156SOL    HW123927   2.082   2.136  14.880 -0.5266 -0.9075  2.8306
 4156SOL    HW223928   2.011   2.238  14.959 -0.1509  0.6463  0.4177
 4157SOL     OW23929   3.654   0.385   2.552 -0.7412 -0.4229 -0.0587
 4157SOL    HW123930   3.619   0.356   2.637  1.5569  0.7367  1.2595
 4157SOL    HW223931   3.584   0.445   2.527 -0.3910 -0.0321 -0.0923
 4158SOL     OW23932   1.518   1.538   3.767  0.3396 -0.9544 -0.2829
 4158SOL    HW123933   1.604   1.510   3.738  0.8213  0.3903 -0.1390
 4158SOL    HW223934   1.469   1.456   3.757  1.2344 -1.7641  1.9063
 4159SOL     OW23935   1.376   2.513   2.062  0.2767  0.3509 -0.0261
 4159SOL    HW123936   1.373   2.446   1.993  0.7716 -2.3775  2.5944
 4159SOL    HW223937   1.286   2.540   2.079 -0.9095 -2.9530 -1.0403
 4160SOL     OW23938   3.504   3.811   8.490  0.8134 -0.9351 -0.1846
 4160SOL    HW123939   3.522   3.897   8.451  0.2847 -0.3807  0.7987
 4160SOL    HW223940   3.583   3.803   8.544  0.3274 -1.4873  0.4429
 4161SOL     OW23941   1.779   4.202   8.416  0.0865  0.9064  0.6165
 4161SOL    HW123942   1.793   4.223   8.324 -0.6020 -0.2956  0.2324
 4161SOL    HW223943   1.700   4.147   8.413  0.5087  0.4820 -2.5777
 4162SOL     OW23944   3.657   2.141   3.538  0.0581  0.3771 -0.4458
 4162SOL    HW123945   3.742   2.183   3.530 -1.2974  3.2292  0.0799
 4162SOL    HW223946   3.647   2.105   3.450  2.7943 -0.3649 -0.4423
 4163SOL     OW23947   1.710   4.707  15.022  0.4223 -0.0130 -0.3873
 4163SOL    HW123948   1.652   4.705  15.098  1.9403  2.6871  0.8307
 4163SOL    HW223949   1.747   0.073  15.025  0.7816 -0.1278 -1.8325
 4164SOL     OW23950   2.330   3.093   7.505  0.1227  0.1389  0.6241
 4164SOL    HW123951   2.389   3.022   7.480 -0.1429 -0.3824  1.4651
 4164SOL    HW223952   2.312   3.068   7.596 -2.5573 -3.6878 -0.9523
 4165SOL     OW23953   3.136   4.223  10.218 -0.0592 -0.1411 -0.2090
 4165SOL    HW123954   3.201   4.236  10.149 -1.1228 -0.2292 -1.2242
 4165SOL    HW223955   3.157   4.282  10.290 -0.8433 -0.1941  0.0649
 4166SOL     OW23956   2.207   3.584  15.790 -0.2539  0.3018 -0.2647
 4166SOL    HW123957   2.295   3.618  15.776  0.2463  0.1062  2.5046
 4166SOL    HW223958   2.160   3.636  15.725  0.5085 -0.3853 -1.3751
 4167SOL     OW23959   2.653   2.947   2.609  0.2667  0.0736  0.0599
 4167SOL    HW123960   2.659   2.853   2.623  0.2525 -0.1567 -1.4741
 4167SOL    HW223961   2.734   2.962   2.560  1.1947  0.9904  1.8618
 4168SOL     OW23962   4.703   3.688   7.640  0.5441 -0.0059 -0.2025
 4168SOL    HW123963   4.644   3.628   7.596  0.7325  0.0839 -0.5754
 4168SOL    HW223964   4.641   3.759   7.659 -1.8263 -2.5726  1.7076
 4169SOL     OW23965   2.754   2.339   5.643 -0.2860  0.4497 -0.0514
 4169SOL    HW123966   2.692   2.403   5.607 -0.9827  0.0885  0.5080
 4169SOL    HW223967   2.782   2.304   5.558 -2.8522  0.8836 -1.0884
 4170SOL     OW23968   2.596   4.373   7.889  0.3914 -0.2349 -0.8782
 4170SOL    HW123969   2.533   4.399   7.957 -0.3242 -1.8927 -0.9008
 4170SOL    HW223970   2.664   4.435   7.916  1.0730 -1.4666  0.2383
 4171SOL     OW23971   0.077   1.542   4.627 -0.2043  0.0628  0.0534
 4171SOL    HW123972   0.063   1.619   4.572  1.4496 -1.0635 -1.9378
 4171SOL    HW223973   4.709   1.518   4.651  0.6823 -1.7502  1.4828
 4172SOL     OW23974   4.590   2.975   4.884  0.0581 -0.2547  0.1356
 4172SOL    HW123975   4.568   2.902   4.827 -0.2780  0.1754 -0.2823
 4172SOL    HW223976   4.672   2.939   4.917  0.8526  1.0084 -0.4394
 4173SOL     OW23977   4.720   3.273   7.658  0.0795 -0.3297  0.3403
 4173SOL    HW123978   0.038   3.333   7.722  0.0560 -0.3267  0.3523
 4173SOL    HW223979   4.627   3.288   7.678 -0.4982 -2.1631 -1.0493
 4174SOL     OW23980   4.640   3.814   4.297  0.1933 -0.2923  0.0781
 4174SOL    HW123981   4.712   3.873   4.278  1.1726 -1.5387 -0.0901
 4174SOL    HW223982   4.653   3.740   4.237  0.6028  0.6164 -0.9526
 4175SOL     OW23983   4.575   0.485   2.867 -0.5704  0.1502 -0.6971
 4175SOL    HW123984   4.601   0.395   2.888 -0.6893  0.1452 -0.5698
 4175SOL    HW223985   4.533   0.518   2.947 -1.6766  1.2595 -1.7495
 4176SOL     OW23986   3.813   0.399   5.048 -0.0163  0.4043  0.1295
 4176SOL    HW123987   3.771   0.467   4.996 -3.9925 -1.4275  0.9745
 4176SOL    HW223988   3.874   0.456   5.096 -1.5613  1.8005  0.4441
 4177SOL     OW23989   0.389   2.600   4.478 -0.1133  0.2882  0.1301
 4177SOL    HW123990   0.422   2.668   4.420  0.6050  0.3037  0.5596
 4177SOL    HW223991   0.455   2.598   4.548  1.8246  1.3029 -1.6732
 4178SOL     OW23992   4.183   3.056   3.780 -0.0501 -0.3573  0.4312
 4178SOL    HW123993   4.212   3.073   3.870  2.0317  3.3589 -0.9879
 4178SOL    HW223994   4.258   3.002   3.754 -0.4205 -0.3510 -0.6362
 4179SOL     OW23995   3.083   4.127   2.463  0.1763  0.1751  0.1359
 4179SOL    HW123996   3.178   4.139   2.463 -0.0515  1.9570 -0.1545
 4179SOL    HW223997   3.079   4.032   2.452 -0.6259  0.4136 -1.6398
 4180SOL     OW23998   3.925   0.345  13.130  0.0231  0.2601 -0.0350
 4180SOL    HW123999   3.861   0.411  13.157  0.0102  0.3165 -0.2036
 4180SOL    HW224000   3.920   0.292  13.209 -0.0272  1.8530  1.0281
 4181SOL     OW24001   3.490   3.792   0.637 -0.2972  0.3033 -0.1946
 4181SOL    HW124002   3.397   3.801   0.658 -0.2501  1.2600 -0.4093
 4181SOL    HW224003   3.524   3.864   0.690 -1.0892  0.7170 -0.2482
 4182SOL     OW24004   4.695   2.784   9.399 -0.0963 -0.2601  0.0475
 4182SOL    HW124005   4.659   2.792   9.311  0.9936 -0.7479 -0.4405
 4182SOL    HW224006   4.684   2.692   9.425 -0.3822 -1.1546 -3.3190
 4183SOL     OW24007   1.270   1.265   5.237  0.2387  0.6155  0.1363
 4183SOL    HW124008   1.296   1.249   5.328  1.6199  4.0861  0.3395
 4183SOL    HW224009   1.350   1.258   5.185 -0.5469 -0.8813 -0.8988
 4184SOL     OW24010   4.394   2.662   7.903 -0.1208  0.0500 -0.0964
 4184SOL    HW124011   4.411   2.710   7.822  0.3149  2.2583  1.2770
 4184SOL    HW224012   4.406   2.725   7.975 -0.6338  0.6252 -0.5117
 4185SOL     OW24013   3.490   0.358   5.042 -0.1974 -0.0576 -0.1887
 4185SOL    HW124014   3.531   0.308   4.971 -0.3561 -0.3016 -0.1073
 4185SOL    HW224015   3.398   0.333   5.028 -0.3718  0.3688  0.1921
 4186SOL     OW24016   0.777   1.939   2.062  0.3113 -0.4259 -0.7679
 4186SOL    HW124017   0.733   2.019   2.034 -0.1945 -1.0332 -1.7222
 4186SOL    HW224018   0.712   1.884   2.105 -3.0161  1.3772 -3.4687
 4187SOL     OW24019   0.703   0.802  10.917  0.3014  0.5349 -0.0680
 4187SOL    HW124020   0.686   0.853  10.837 -0.9176 -0.2623 -0.3079
 4187SOL    HW224021   0.792   0.828  10.941  0.7163 -1.6233  0.7271
 4188SOL     OW24022   0.351   0.713   7.560 -0.0713 -0.0042  0.1487
 4188SOL    HW124023   0.395   0.796   7.544 -1.4121  1.1816  2.7157
 4188SOL    HW224024   0.324   0.698   7.469 -2.8311  1.3583  0.7584
 4189SOL     OW24025   4.646   1.360  13.215 -0.1960 -0.0040  0.4146
 4189SOL    HW124026   4.607   1.284  13.171  1.2338 -1.5627  1.8356
 4189SOL    HW224027   4.607   1.433  13.167 -0.1215  0.2371  0.7251
 4190SOL     OW24028   1.779   0.049   7.717 -0.0333 -0.1521 -0.6031
 4190SOL    HW124029   1.801   0.101   7.640 -1.7150  2.4643  0.6850
 4190SOL    HW224030   1.683   0.042   7.714  0.2023 -2.7441 -2.5728
 4191SOL     OW24031   2.575   0.109   7.809  0.4333  0.1697  0.5763
 4191SOL    HW124032   2.503   0.059   7.848  0.5732 -2.4102 -2.4951
 4191SOL    HW224033   2.555   0.082   7.720 -2.0980  2.1475  0.5507
 4192SOL     OW24034   0.923   2.223   0.715  0.2169  0.7539 -0.2550
 4192SOL    HW124035   0.895   2.131   0.713 -1.2243  1.1832 -0.3573
 4192SOL    HW224036   0.983   2.219   0.790 -1.1663 -3.2213  0.6922
 4193SOL     OW24037   2.972   1.071   5.376 -0.3321  0.2739 -0.0270
 4193SOL    HW124038   3.060   1.038   5.360 -1.1498 -1.2801 -1.3548
 4193SOL    HW224039   2.980   1.116   5.460  0.3000 -1.9030  1.0824
 4194SOL     OW24040   0.056   4.438   8.267  0.4906  0.0768  0.5936
 4194SOL    HW124041   0.099   4.507   8.316 -0.0487  1.3351 -0.6917
 4194SOL    HW224042   0.026   4.374   8.331 -0.8553  0.6453  0.5315
 4195SOL     OW24043   2.792   1.755   2.859  0.7494  0.3305  0.9314
 4195SOL    HW124044   2.771   1.713   2.942  0.8594 -0.1662  0.7052
 4195SOL    HW224045   2.855   1.818   2.895 -2.8157  2.9998  2.4686
 4196SOL     OW24046   4.311   2.100  17.033  0.6684  0.5925  0.1507
 4196SOL    HW124047   4.274   2.012  17.026 -1.7861  1.7944 -2.1412
 4196SOL    HW224048   4.236   2.154  17.005  0.5711 -0.1823 -1.1117
 4197SOL     OW24049   2.640   2.946   7.437  0.4954  0.0153 -0.3363
 4197SOL    HW124050   2.571   2.888   7.403  0.7379 -1.1836  1.1960
 4197SOL    HW224051   2.694   2.898   7.500  1.3294  1.4681  0.0330
 4198SOL     OW24052   3.929   2.178   2.814 -0.0074  0.0859 -0.0810
 4198SOL    HW124053   3.917   2.226   2.732 -0.9964  0.9597  0.5755
 4198SOL    HW224054   4.018   2.145   2.805 -0.2142 -0.1829 -1.2510
 4199SOL     OW24055   2.642   1.050   4.158 -0.3914 -0.2196  0.4236
 4199SOL    HW124056   2.671   1.049   4.067 -0.0465  2.9943  0.5172
 4199SOL    HW224057   2.707   0.993   4.199  0.0972  0.0208 -0.0252
 4200SOL     OW24058   0.414   2.325   7.606 -0.4769  0.4402 -0.2719
 4200SOL    HW124059   0.373   2.395   7.556  1.8386  1.2073 -1.0683
 4200SOL    HW224060   0.368   2.253   7.563  1.0013 -0.8224  0.2556
 4201SOL     OW24061   0.070   3.389   5.150  0.0702  0.6996  0.3849
 4201SOL    HW124062   0.050   3.476   5.184 -1.5247  0.3765  0.2620
 4201SOL    HW224063   0.165   3.401   5.148  0.3814 -1.1570  2.7732
 4202SOL     OW24064   2.372   1.273   5.671  0.1852 -0.1887 -0.4780
 4202SOL    HW124065   2.307   1.340   5.688  1.2067  0.9381 -1.0107
 4202SOL    HW224066   2.457   1.317   5.677 -0.0824  0.7422 -3.1395
 4203SOL     OW24067   0.981   1.023  10.473 -0.2039 -0.1516 -0.7863
 4203SOL    HW124068   0.930   0.982  10.403  1.6199 -0.0070 -2.1991
 4203SOL    HW224069   0.933   1.105  10.485 -0.1067 -0.2596  0.2734
 4204SOL     OW24070   4.524   1.864  14.348 -0.3975  0.5288  0.2565
 4204SOL    HW124071   4.553   1.912  14.426 -0.7378  0.0713  0.6679
 4204SOL    HW224072   4.452   1.821  14.394 -1.3082  2.2604  0.4450
 4205SOL     OW24073   3.739   0.311   4.331 -0.4796  0.3988 -0.2986
 4205SOL    HW124074   3.666   0.252   4.313 -1.1586  1.0936  0.1679
 4205SOL    HW224075   3.706   0.394   4.296 -0.3024 -0.1516 -1.7449
 4206SOL     OW24076   3.188   1.329  13.749  0.2612 -0.3153 -0.3781
 4206SOL    HW124077   3.156   1.277  13.676  0.6186 -0.7840 -0.1975
 4206SOL    HW224078   3.207   1.408  13.698 -1.4120  0.4923  0.2559
 4207SOL     OW24079   1.333   4.148  11.048  0.9212  0.4809  0.0285
 4207SOL    HW124080   1.335   4.191  11.134 -1.4770 -0.1701  0.3877
 4207SOL    HW224081   1.412   4.094  11.048  1.2109  0.9015 -1.4095
 4208SOL     OW24082   4.266   0.102   9.705 -0.2458  0.0710 -0.4574
 4208SOL    HW124083   4.244   0.173   9.765  0.9780 -0.5890  0.7659
 4208SOL    HW224084   4.299   0.151   9.630  1.1240  0.6035  0.4922
 4209SOL     OW24085   0.000   2.620   5.830  0.1846 -0.1325  0.1368
 4209SOL    HW124086   4.673   2.610   5.748  2.0937 -0.1446 -0.9925
 4209SOL    HW224087   4.721   2.715   5.839  0.9442 -0.2038  0.9390
 4210SOL     OW24088   4.212   2.759   3.656 -0.3234  0.3319  0.1049
 4210SOL    HW124089   4.125   2.794   3.675 -0.6569 -0.2843 -0.2661
 4210SOL    HW224090   4.190   2.670   3.629  0.3014  0.4489 -0.7894
 4211SOL     OW24091   2.773   1.507  14.829  0.0629 -0.4133  0.1585
 4211SOL    HW124092   2.841   1.462  14.779  1.1917  1.0657  0.3533
 4211SOL    HW224093   2.784   1.465  14.914  1.7712  0.8443  0.5525
 4212SOL     OW24094   4.067   2.849   9.462  0.0985  0.0157 -0.1736
 4212SOL    HW124095   4.098   2.939   9.470 -1.8611  0.6554  0.2572
 4212SOL    HW224096   4.063   2.812   9.551 -0.3160 -0.6227 -0.4509
 4213SOL     OW24097   1.187   2.944  11.806  0.0159 -0.0180 -0.1537
 4213SOL    HW124098   1.280   2.934  11.784 -1.3199 -1.3151 -5.0952
 4213SOL    HW224099   1.201   2.952  11.901  2.3764  3.1604 -0.7644
 4214SOL     OW24100   1.684   2.760  12.997 -0.8243  0.4473  0.2226
 4214SOL    HW124101   1.681   2.852  13.023 -0.1180  1.2701 -2.6302
 4214SOL    HW224102   1.642   2.716  13.071 -1.8573  0.6119 -0.2625
 4215SOL     OW24103   0.974   0.949   2.085 -0.4161  0.0754 -0.6529
 4215SOL    HW124104   0.971   0.858   2.113 -1.3473  0.4344  0.3988
 4215SOL    HW224105   1.002   0.991   2.166 -0.9273 -0.5197 -0.1683
 4216SOL     OW24106   0.825   3.631  15.743 -0.1173 -0.3452  0.2400
 4216SOL    HW124107   0.788   3.686  15.673  2.9449  0.9838 -0.3143
 4216SOL    HW224108   0.907   3.676  15.760  1.0920 -2.5836  0.3026
 4217SOL     OW24109   0.028   0.630   3.056 -0.6077 -0.5683 -0.2088
 4217SOL    HW124110   4.714   0.560   3.111  1.7662 -0.8086  1.0240
 4217SOL    HW224111   0.090   0.581   3.002  1.5162  1.4365  0.4281
 4218SOL     OW24112   1.132   1.620   8.408  0.0046  0.0131 -0.9466
 4218SOL    HW124113   1.133   1.702   8.359 -2.2710  0.0106 -0.9715
 4218SOL    HW224114   1.227   1.609   8.419  0.2235  0.3377 -2.5656
 4219SOL     OW24115   2.340   3.734   2.256 -0.5338  0.3070  0.0385
 4219SOL    HW124116   2.391   3.797   2.205  0.8783  0.5712  1.7876
 4219SOL    HW224117   2.278   3.718   2.185  1.0446 -2.6685 -0.6972
 4220SOL     OW24118   0.542   0.096  13.784  0.7373 -0.8146  0.2754
 4220SOL    HW124119   0.556   0.077  13.692 -0.1144  1.0187 -0.2478
 4220SOL    HW224120   0.557   0.191  13.789  1.6881 -0.8546 -2.0103
 4221SOL     OW24121   4.428   1.416   4.034  0.2941 -0.1466  0.2915
 4221SOL    HW124122   4.444   1.348   4.099  3.1697 -0.6319 -0.9335
 4221SOL    HW224123   4.494   1.483   4.046 -1.1967  1.4088 -0.1510
 4222SOL     OW24124   3.418   0.143   7.943  0.0807  0.3540  0.2619
 4222SOL    HW124125   3.500   0.191   7.949  0.5571 -0.1557 -2.2200
 4222SOL    HW224126   3.401   0.128   8.036  0.8888 -1.3725  0.1475
 4223SOL     OW24127   3.101   0.276   3.320 -0.1699  0.0874  0.2872
 4223SOL    HW124128   3.175   0.335   3.310 -0.2389  0.1239  0.0056
 4223SOL    HW224129   3.134   0.218   3.389 -0.0558 -0.3634 -0.1487
 4224SOL     OW24130   0.924   0.010   6.445 -0.1210  0.3286 -0.3032
 4224SOL    HW124131   0.925   0.105   6.435  0.7500  0.3290 -0.2383
 4224SOL    HW224132   0.854   4.720   6.509  1.0958 -1.1037  0.7829
 4225SOL     OW24133   4.509   4.092   1.608 -0.2712  0.0104 -0.3531
 4225SOL    HW124134   4.567   4.104   1.533  3.5216 -0.7728  2.5108
 4225SOL    HW224135   4.450   4.030   1.565 -1.5821 -0.5348  2.2062
 4226SOL     OW24136   2.172   2.359   4.020  0.4867 -0.0544  0.2972
 4226SOL    HW124137   2.173   2.418   3.944  3.6427  1.5920  1.6037
 4226SOL    HW224138   2.185   2.420   4.093 -1.3213  0.1323  0.4620
 4227SOL     OW24139   2.032   3.891   5.091 -0.0014 -0.2052  0.0809
 4227SOL    HW124140   2.047   3.797   5.099  0.0437  0.1350  4.0600
 4227SOL    HW224141   2.121   3.921   5.110  0.5039 -1.6307 -0.0172
 4228SOL     OW24142   4.426   4.357   2.231 -0.9228 -0.2914  0.1940
 4228SOL    HW124143   4.438   4.337   2.138  1.5337 -0.2627  0.5078
 4228SOL    HW224144   4.455   4.277   2.273 -2.0491 -1.0674 -0.5083
 4229SOL     OW24145   0.724   1.618   2.383  0.5068  0.1109 -0.1199
 4229SOL    HW124146   0.783   1.692   2.397  0.6800 -0.3316  1.4895
 4229SOL    HW224147   0.690   1.643   2.297  0.2363 -1.1338 -0.3836
 4230SOL     OW24148   4.475   3.748   2.512  0.0986  0.1679 -0.2320
 4230SOL    HW124149   4.388   3.718   2.488 -0.0222  0.6328 -0.3663
 4230SOL    HW224150   4.490   3.683   2.581  1.7291  0.7400 -0.0498
 4231SOL     OW24151   3.826   3.203   5.136  0.0367 -0.3533  0.7849
 4231SOL    HW124152   3.787   3.121   5.104 -2.4785  1.7336 -1.4712
 4231SOL    HW224153   3.859   3.176   5.222  1.7028  0.6944  0.4711
 4232SOL     OW24154   2.095   2.515   4.596 -0.6451 -0.1306  0.5600
 4232SOL    HW124155   2.094   2.487   4.688  0.2906  0.8942  0.8828
 4232SOL    HW224156   2.033   2.588   4.605  0.3250  1.0324 -2.1396
 4233SOL     OW24157   1.940   2.258   0.171  0.6122 -0.1698  0.0670
 4233SOL    HW124158   1.889   2.201   0.229  0.7985 -1.4185 -0.9824
 4233SOL    HW224159   1.874   2.285   0.107  1.6433 -2.2559 -1.8478
 4234SOL     OW24160   4.365   4.711  15.330  0.5896 -0.4517  0.6104
 4234SOL    HW124161   4.448   0.035  15.315  0.1991  0.7695  2.2094
 4234SOL    HW224162   4.403   4.629  15.299 -1.2297 -1.1619  0.3265
 4235SOL     OW24163   2.099   3.795   1.412  0.4707  0.4294  0.6545
 4235SOL    HW124164   2.084   3.870   1.470  1.2469 -0.1531  1.6306
 4235SOL    HW224165   2.194   3.805   1.410  0.5333 -1.3105 -3.7691
 4236SOL     OW24166   3.388   0.445   0.370 -0.3173 -0.9415 -0.0004
 4236SOL    HW124167   3.356   0.358   0.391 -0.2757 -0.7495  0.8593
 4236SOL    HW224168   3.312   0.502   0.380  0.8688  0.6681 -0.1222
 4237SOL     OW24169   2.486   3.141   4.413 -0.4303  0.0767  0.1556
 4237SOL    HW124170   2.402   3.095   4.405 -2.0862  2.9732  1.0076
 4237SOL    HW224171   2.542   3.065   4.431  1.4547  0.9174 -2.1464
 4238SOL     OW24172   2.631   3.929   6.493  0.3254  0.2478 -0.0115
 4238SOL    HW124173   2.669   3.889   6.571  1.4389  0.6830 -0.3232
 4238SOL    HW224174   2.564   3.986   6.531 -1.3594 -2.6032  1.2840
 4239SOL     OW24175   1.474   3.410   2.210 -0.1913 -0.7055  0.1393
 4239SOL    HW124176   1.451   3.323   2.242  0.6469 -0.5594  1.1425
 4239SOL    HW224177   1.525   3.439   2.286  1.5592  1.9781 -2.0348
 4240SOL     OW24178   3.759   0.682   6.416 -0.3536  0.6846 -0.4740
 4240SOL    HW124179   3.846   0.694   6.453 -0.3015 -0.1951 -0.2975
 4240SOL    HW224180   3.780   0.630   6.339  0.6965 -1.0052  0.9407
 4241SOL     OW24181   2.345   3.061   5.431 -0.1300 -0.4257  0.4525
 4241SOL    HW124182   2.339   3.157   5.433 -0.2397 -0.4241  0.0252
 4241SOL    HW224183   2.254   3.034   5.420  0.4880 -2.5652  0.5677
 4242SOL     OW24184   2.531   1.971  14.156  0.2730  0.5561 -1.1234
 4242SOL    HW124185   2.472   2.017  14.096 -0.3504  0.7605 -0.3455
 4242SOL    HW224186   2.612   1.969  14.105  1.2815 -2.8067  0.5950
 4243SOL     OW24187   4.066   1.453  11.587 -0.2758  0.4970  0.3124
 4243SOL    HW124188   4.009   1.424  11.516 -0.3154 -0.2270  0.6329
 4243SOL    HW224189   4.053   1.396  11.663  0.9718  1.4215  1.2215
 4244SOL     OW24190   0.865   2.472   5.417 -0.5622 -0.6451  0.1442
 4244SOL    HW124191   0.921   2.547   5.432  0.7282 -1.1671 -2.0030
 4244SOL    HW224192   0.894   2.406   5.480  0.4922  0.2376  0.5681
 4245SOL     OW24193   4.437   1.280   4.781 -0.2846  0.6044  0.0715
 4245SOL    HW124194   4.371   1.243   4.722 -0.5825  0.1086  0.7127
 4245SOL    HW224195   4.400   1.364   4.807  1.0951  0.3502  2.8405
 4246SOL     OW24196   1.519   1.956   1.666 -0.3165  0.4793  0.1339
 4246SOL    HW124197   1.592   1.901   1.694 -1.1547 -0.0077  1.3372
 4246SOL    HW224198   1.490   1.921   1.581  1.3027 -2.2381  0.7055
 4247SOL     OW24199   3.244   1.806  15.442  0.1899 -0.3104  0.3432
 4247SOL    HW124200   3.196   1.821  15.360 -0.1890 -0.0401  0.6162
 4247SOL    HW224201   3.289   1.888  15.463  2.0612 -0.5347 -2.6910
 4248SOL     OW24202   4.302   0.912  15.848 -0.1235  0.3206  0.0202
 4248SOL    HW124203   4.384   0.875  15.881 -1.0024 -1.4146  0.2697
 4248SOL    HW224204   4.314   1.000  15.812  1.7838  0.0545  0.0133
 4249SOL     OW24205   2.786   2.100  11.843  0.2368 -0.5426  0.3186
 4249SOL    HW124206   2.743   2.022  11.807 -0.2383  0.3962 -1.1571
 4249SOL    HW224207   2.720   2.142  11.899  0.3463 -0.3801  0.3254
 4250SOL     OW24208   1.392   3.222   2.361 -0.1284 -0.1764  0.3750
 4250SOL    HW124209   1.389   3.227   2.457 -0.8665 -0.4092  0.3681
 4250SOL    HW224210   1.310   3.182   2.332  0.3123 -0.1185 -0.9386
 4251SOL     OW24211   1.595   0.828   7.189 -0.4063 -0.8800 -0.0104
 4251SOL    HW124212   1.517   0.783   7.222 -0.9728 -0.5835 -0.9279
 4251SOL    HW224213   1.660   0.758   7.188 -1.1653 -1.5839 -0.6190
 4252SOL     OW24214   0.700   2.393   6.313  0.1907 -0.2179 -0.2181
 4252SOL    HW124215   0.696   2.467   6.373  1.1168  0.2802 -0.7702
 4252SOL    HW224216   0.609   2.363   6.308 -0.3784  1.2023  1.7591
 4253SOL     OW24217   2.831   0.225  17.198  0.2835 -0.4220  0.6068
 4253SOL    HW124218   2.886   0.284  17.146 -0.1860  0.7211  1.4267
 4253SOL    HW224219   2.851   0.274  17.278 -0.3129  1.4107 -0.3659
 4254SOL     OW24220   0.827   3.054   2.702  0.5775  0.2757 -0.4212
 4254SOL    HW124221   0.882   3.083   2.629  1.9999 -1.2024  0.0430
 4254SOL    HW224222   0.892   3.012   2.759 -0.0198 -0.0553  0.0136
 4255SOL     OW24223   0.022   1.251   5.230 -0.3077  0.3658 -0.0499
 4255SOL    HW124224   0.109   1.211   5.230  0.0327  1.1389  2.3382
 4255SOL    HW224225   4.711   1.230   5.142  1.8025  0.3641 -0.8140
 4256SOL     OW24226   4.363   1.166   6.991  0.2487  0.1105 -0.1231
 4256SOL    HW124227   4.392   1.155   7.082  0.1759 -4.4677 -0.6607
 4256SOL    HW224228   4.340   1.258   7.000  0.0137 -0.0043  0.4535
 4257SOL     OW24229   1.018   1.522   4.771  0.4682  0.0419  0.4358
 4257SOL    HW124230   1.083   1.454   4.755  0.9413  0.5052  0.4138
 4257SOL    HW224231   1.027   1.567   4.688 -0.3566 -2.3090 -0.9362
 4258SOL     OW24232   2.894   0.700   3.635 -0.1922  0.2376  0.6875
 4258SOL    HW124233   2.921   0.701   3.727  0.5759  2.3256  0.4366
 4258SOL    HW224234   2.810   0.745   3.643  0.4494  1.1750  2.1312
 4259SOL     OW24235   1.797   3.703  11.307 -0.3120  0.2651 -0.5995
 4259SOL    HW124236   1.702   3.700  11.291 -0.3512  0.1093 -0.3404
 4259SOL    HW224237   1.833   3.695  11.218  0.4074 -1.9507 -0.1180
 4260SOL     OW24238   0.605   3.506  10.047  0.1957  0.2620  0.1151
 4260SOL    HW124239   0.681   3.459  10.079 -1.9019 -3.1331  0.1460
 4260SOL    HW224240   0.622   3.585  10.099  1.0029 -0.2214  0.5902
 4261SOL     OW24241   0.743   0.225   8.424  0.0755 -0.1283  1.0515
 4261SOL    HW124242   0.663   0.209   8.474  0.5231 -1.1819  1.4252
 4261SOL    HW224243   0.715   0.250   8.336  1.0822 -0.1829  0.7130
 4262SOL     OW24244   3.584   2.143   2.058  0.6276 -0.5893  0.2119
 4262SOL    HW124245   3.570   2.053   2.030  0.0180 -0.0233 -1.2764
 4262SOL    HW224246   3.655   2.175   2.002  0.9303  1.1764  1.5767
 4263SOL     OW24247   0.258   3.971   6.399 -0.2774  0.4065 -0.1242
 4263SOL    HW124248   0.300   4.057   6.405 -0.8996  0.4254  3.5805
 4263SOL    HW224249   0.192   3.980   6.330  0.2275  0.2960 -0.6188
 4264SOL     OW24250   0.800   4.100   5.827  0.1440 -0.5716  0.1274
 4264SOL    HW124251   0.788   4.185   5.785  2.0760 -0.2922  0.1473
 4264SOL    HW224252   0.729   4.107   5.891  0.5924  1.1194  0.4460
 4265SOL     OW24253   2.584   1.861   4.661  0.2750 -0.5547 -0.8741
 4265SOL    HW124254   2.574   1.876   4.567 -2.6985 -1.8515 -0.7685
 4265SOL    HW224255   2.490   1.872   4.677  1.0834  0.5042  3.2448
 4266SOL     OW24256   4.005   4.580   0.858 -0.1276  0.0840 -0.8674
 4266SOL    HW124257   4.085   4.541   0.893 -0.8247  1.0110  1.8073
 4266SOL    HW224258   4.026   4.672   0.874 -0.1117  0.3388 -2.3943
 4267SOL     OW24259   2.730   2.061   3.448  0.1595  0.1777 -0.8770
 4267SOL    HW124260   2.665   2.127   3.470  0.3394  0.3959 -1.0033
 4267SOL    HW224261   2.796   2.107   3.396 -0.0600  1.7679  0.2667
 4268SOL     OW24262   1.159   4.525   4.196 -0.1288 -0.0407 -0.1245
 4268SOL    HW124263   1.188   4.466   4.265  1.0295  2.0406  1.1609
 4268SOL    HW224264   1.232   4.536   4.134 -1.1300  2.0190 -0.9776
 4269SOL     OW24265   2.791   4.060   2.576 -0.2345  0.1170 -0.3748
 4269SOL    HW124266   2.882   4.065   2.606 -0.5351  0.0168  0.5411
 4269SOL    HW224267   2.806   4.036   2.484 -1.0691  2.9049 -1.2278
 4270SOL     OW24268   2.900   2.397   8.467  0.0421  0.5514  0.1003
 4270SOL    HW124269   2.930   2.420   8.380  1.1977  1.9183  0.8619
 4270SOL    HW224270   2.980   2.404   8.520 -0.4417  1.1067  0.7599
 4271SOL     OW24271   2.991   3.980   0.648  0.6664 -0.4455 -0.3609
 4271SOL    HW124272   3.061   4.035   0.683  0.8764 -0.6573 -0.4465
 4271SOL    HW224273   2.924   4.048   0.652  0.3538 -0.6905 -1.6250
 4272SOL     OW24274   0.739   2.173  11.492  0.5126 -0.1668 -0.1846
 4272SOL    HW124275   0.733   2.226  11.571  0.1588 -1.6488  0.7929
 4272SOL    HW224276   0.731   2.084  11.528 -1.5203  0.5082  1.0489
 4273SOL     OW24277   3.952   3.997   3.579 -0.1327 -0.3160 -0.1039
 4273SOL    HW124278   3.900   3.927   3.540  1.1554 -2.8335  2.7116
 4273SOL    HW224279   3.995   3.955   3.653 -2.5448 -2.8238 -0.1260
 4274SOL     OW24280   2.344   3.194  11.453  0.3282 -0.5258 -0.9356
 4274SOL    HW124281   2.285   3.268  11.438  0.3753 -0.0469  1.1579
 4274SOL    HW224282   2.292   3.152  11.521 -0.0664  0.7863 -0.4254
 4275SOL     OW24283   1.651   0.226  13.270 -0.2062 -0.2323  0.1204
 4275SOL    HW124284   1.600   0.253  13.194  0.0749  2.3742  0.8491
 4275SOL    HW224285   1.732   0.214  13.222 -0.3274  0.6764 -0.3040
 4276SOL     OW24286   2.906   3.372   3.597 -0.5368  0.3889  0.3353
 4276SOL    HW124287   2.833   3.391   3.655 -0.9147 -0.0390 -0.0104
 4276SOL    HW224288   2.873   3.417   3.519  0.3300  1.3841  0.5311
 4277SOL     OW24289   0.844   3.730   7.833 -0.6721 -0.4321 -0.1768
 4277SOL    HW124290   0.780   3.798   7.812  0.3021  0.7659  0.7059
 4277SOL    HW224291   0.795   3.648   7.834  0.6819 -1.2315  1.0995
 4278SOL     OW24292   2.789   4.369   7.394 -0.0824 -0.1527 -0.6519
 4278SOL    HW124293   2.704   4.336   7.423  0.7915 -1.1881  0.7135
 4278SOL    HW224294   2.809   4.322   7.313 -1.4048 -1.8392  0.0254
 4279SOL     OW24295   4.690   1.883   2.375 -0.2996 -0.0370  0.2244
 4279SOL    HW124296   0.053   1.897   2.334  0.7132 -0.8083  2.0514
 4279SOL    HW224297   4.680   1.789   2.390 -0.5617 -0.2134 -1.1169
 4280SOL     OW24298   3.427   2.622  12.231 -0.3622 -0.8092  0.6256
 4280SOL    HW124299   3.488   2.553  12.255  2.2184  0.4673 -2.3020
 4280SOL    HW224300   3.395   2.639  12.320 -0.2024 -0.5365  0.6309
 4281SOL     OW24301   2.520   0.126   4.053 -0.2064  0.7604 -0.3787
 4281SOL    HW124302   2.564   0.192   4.107  0.4860  2.1546 -2.6656
 4281SOL    HW224303   2.445   0.099   4.107  0.7527 -1.6367 -0.2074
 4282SOL     OW24304   1.821   2.082  13.586  0.1533  0.1498  0.1403
 4282SOL    HW124305   1.875   2.159  13.606 -0.2429  0.8016 -1.2976
 4282SOL    HW224306   1.788   2.106  13.499  1.4448 -1.1875 -0.7175
 4283SOL     OW24307   1.138   4.195   2.843 -0.6331  0.0905  0.4730
 4283SOL    HW124308   1.083   4.191   2.764  0.7163  0.8291 -0.5159
 4283SOL    HW224309   1.217   4.233   2.805 -0.2982  1.1410  2.2299
 4284SOL     OW24310   2.591   2.979  16.897  0.5730 -0.0311 -0.3016
 4284SOL    HW124311   2.553   2.968  16.984  1.0169 -1.0309 -0.2304
 4284SOL    HW224312   2.632   2.899  16.866 -0.0927 -0.6547  0.4579
 4285SOL     OW24313   2.114   2.566  12.116 -0.2291 -0.0580  0.5169
 4285SOL    HW124314   2.134   2.657  12.139  0.2489  0.2225 -1.0079
 4285SOL    HW224315   2.169   2.526  12.184 -0.0893 -0.0900  0.3864
 4286SOL     OW24316   2.688   1.370   5.218 -0.0903  0.4521 -0.6417
 4286SOL    HW124317   2.639   1.426   5.277  0.4774 -0.3100  0.5503
 4286SOL    HW224318   2.641   1.287   5.227 -1.1244  1.3805  2.4349
 4287SOL     OW24319   2.426   2.578   8.792 -0.1813  0.4268  0.0099
 4287SOL    HW124320   2.436   2.613   8.881 -1.3133  1.0578 -0.1136
 4287SOL    HW224321   2.358   2.633   8.753 -1.3391  1.4687  3.5396
 4288SOL     OW24322   2.494   2.277  12.461 -0.6024  0.5852 -0.4040
 4288SOL    HW124323   2.515   2.279  12.554 -1.1551  0.2799 -0.2759
 4288SOL    HW224324   2.431   2.349  12.469  1.8354  2.7903 -1.2145
 4289SOL     OW24325   3.288   4.674   6.127 -0.2773  0.1928  0.2259
 4289SOL    HW124326   3.199   4.703   6.108  0.2029  0.4089 -1.6723
 4289SOL    HW224327   3.266   4.611   6.196  1.2839 -0.8031 -0.1805
 4290SOL     OW24328   3.981   2.309  15.726  0.4471 -0.2661  0.6761
 4290SOL    HW124329   4.009   2.401  15.717  0.2686  0.0312  3.1029
 4290SOL    HW224330   3.962   2.285  15.635 -2.0966  0.9567  0.8814
 4291SOL     OW24331   4.144   3.404   4.505 -0.0968  0.0096  0.5611
 4291SOL    HW124332   4.149   3.369   4.594 -0.4268  0.4906  0.7681
 4291SOL    HW224333   4.050   3.399   4.489  0.2846 -1.2278 -1.3021
 4292SOL     OW24334   4.335   3.786   4.849 -0.3080 -0.4628  0.1562
 4292SOL    HW124335   4.306   3.856   4.790 -2.7871  0.3668  2.3461
 4292SOL    HW224336   4.342   3.717   4.783  3.2002 -1.6570  1.8107
 4293SOL     OW24337   1.493   0.607   2.818  0.0013  0.1672 -0.2926
 4293SOL    HW124338   1.437   0.541   2.859 -1.1564  0.7885 -0.8707
 4293SOL    HW224339   1.539   0.547   2.758 -1.8258  1.2492 -2.8044
 4294SOL     OW24340   3.282   3.545   1.246  0.3474  0.5422 -0.1638
 4294SOL    HW124341   3.281   3.591   1.162  1.3206 -1.9282 -1.5041
 4294SOL    HW224342   3.279   3.613   1.314 -0.0934 -1.8723  2.1951
 4295SOL     OW24343   1.746   4.678  10.521  0.2364 -0.5528 -0.0175
 4295SOL    HW124344   1.794   0.039  10.519 -0.3973 -0.2295 -1.4049
 4295SOL    HW224345   1.684   4.694  10.592 -0.3257  1.5432 -0.9916
 4296SOL     OW24346   2.285   3.128   5.062 -0.3770  0.6582 -1.0885
 4296SOL    HW124347   2.367   3.101   5.104 -1.9527  0.0038  1.5593
 4296SOL    HW224348   2.303   3.084   4.979  3.2356  1.9724 -1.0030
 4297SOL     OW24349   2.897   3.840  17.032 -0.1976 -0.3473  0.2969
 4297SOL    HW124350   2.846   3.805  17.105 -0.5564 -1.0696 -0.3018
 4297SOL    HW224351   2.881   3.934  17.037  3.2239  0.2131  0.6612
 4298SOL     OW24352   4.142   3.272   8.119 -0.0757  0.6412 -0.3070
 4298SOL    HW124353   4.048   3.263   8.134  0.3943 -1.5540  1.4082
 4298SOL    HW224354   4.172   3.209   8.185  3.0817  1.5769 -0.8419
 4299SOL     OW24355   0.270   2.640   7.648 -0.1576 -0.1407 -0.3914
 4299SOL    HW124356   0.193   2.585   7.666  1.2601 -1.1492  2.5380
 4299SOL    HW224357   0.247   2.682   7.566 -0.9340 -1.3477 -0.7941
 4300SOL     OW24358   3.919   2.666   7.170 -0.4479 -0.5977  0.1675
 4300SOL    HW124359   3.830   2.687   7.199  0.1209  2.6401 -0.5211
 4300SOL    HW224360   3.913   2.669   7.074 -2.5331  0.3944  0.3342
 4301SOL     OW24361   0.723   4.597   8.153 -0.4770  0.2506  0.0032
 4301SOL    HW124362   0.740   4.613   8.246  0.7269  2.6064 -0.6270
 4301SOL    HW224363   0.627   4.590   8.156 -0.2771 -2.3831 -0.5645
 4302SOL     OW24364   4.707   0.306   8.115  0.1141  0.4798  0.0140
 4302SOL    HW124365   4.636   0.325   8.053  1.2594  0.9456 -1.1629
 4302SOL    HW224366   4.672   0.363   8.183  3.5180  1.4520  0.9874
 4303SOL     OW24367   2.115   4.293  17.174  0.5873  0.3118 -0.1926
 4303SOL    HW124368   2.111   4.298  17.270  1.1681 -0.8529 -0.1146
 4303SOL    HW224369   2.183   4.354  17.147  1.0948  1.5534  3.7858
 4304SOL     OW24370   4.085   4.483   9.106 -0.1907  0.1614  0.0993
 4304SOL    HW124371   4.052   4.562   9.148  3.1949  1.4489  0.3701
 4304SOL    HW224372   4.136   4.435   9.172 -1.2094  0.0011  0.7603
 4305SOL     OW24373   3.197   3.878   3.596  0.7232 -0.7296  0.2244
 4305SOL    HW124374   3.159   3.885   3.509  0.4937 -0.3957  0.3536
 4305SOL    HW224375   3.148   3.953   3.630 -3.3167 -4.0862  1.8445
 4306SOL     OW24376   1.352   2.526   1.084 -0.8768 -0.7262  0.0430
 4306SOL    HW124377   1.277   2.542   1.027 -0.5797 -2.3982 -0.8068
 4306SOL    HW224378   1.419   2.497   1.022 -1.9346 -2.1474 -0.4304
 4307SOL     OW24379   0.433   4.198  14.637  0.3536 -0.8280 -0.3530
 4307SOL    HW124380   0.442   4.103  14.628 -1.0493 -1.1659  1.8559
 4307SOL    HW224381   0.481   4.220  14.557 -0.6455  0.2725 -0.6435
 4308SOL     OW24382   3.973   4.450   7.018  0.6198  0.5024  0.2195
 4308SOL    HW124383   4.010   4.444   6.930 -1.5216  1.3285 -0.7365
 4308SOL    HW224384   4.042   4.416   7.075 -0.3753  0.7469  1.5761
 4309SOL     OW24385   3.955   0.005   5.425 -0.4197  0.4281  0.0678
 4309SOL    HW124386   3.910   0.005   5.341  0.4603 -0.3284 -0.3959
 4309SOL    HW224387   3.936   4.639   5.458 -1.2287  0.7801  0.5360
 4310SOL     OW24388   1.922   3.097   2.056 -0.4566  0.0711 -0.4513
 4310SOL    HW124389   1.875   3.015   2.041 -1.0609  0.4618 -0.6666
 4310SOL    HW224390   1.956   3.114   1.968  1.3041  0.5844  0.3273
 4311SOL     OW24391   1.085   2.863   3.556  0.3062  0.3984 -0.0724
 4311SOL    HW124392   1.143   2.809   3.502 -0.7960 -0.8733  0.0074
 4311SOL    HW224393   1.124   2.868   3.644 -0.9568  1.4926  0.4105
 4312SOL     OW24394   0.596   3.091   0.370  0.2676 -0.0201 -0.2103
 4312SOL    HW124395   0.550   3.144   0.435  0.3144  0.6008 -0.6760
 4312SOL    HW224396   0.655   3.150   0.321 -0.9343  1.4156  0.0860
 4313SOL     OW24397   2.702   2.126   7.059 -0.4169 -0.1156  0.4141
 4313SOL    HW124398   2.742   2.213   7.056  0.6135 -0.5752  0.7488
 4313SOL    HW224399   2.724   2.107   7.151 -0.1680 -1.4909  0.0687
 4314SOL     OW24400   0.265   4.465   9.013 -0.1618 -0.1910 -0.3617
 4314SOL    HW124401   0.228   4.396   8.958  2.3931 -1.0000 -1.0589
 4314SOL    HW224402   0.286   4.423   9.096 -1.1837  0.2457  0.1231
 4315SOL     OW24403   2.740   0.780  15.880 -0.3258  0.5203 -0.1922
 4315SOL    HW124404   2.692   0.708  15.840 -1.5367  1.2821 -0.1235
 4315SOL    HW224405   2.772   0.817  15.797  0.2578  0.1153 -0.1464
 4316SOL     OW24406   3.113   1.706  11.315 -0.1191  0.2806  0.1791
 4316SOL    HW124407   3.039   1.696  11.374  0.7941 -0.1553  1.2627
 4316SOL    HW224408   3.112   1.801  11.307 -1.0374  0.2888  0.4815
 4317SOL     OW24409   1.845   1.120   6.488 -0.8382 -0.0850  0.6275
 4317SOL    HW124410   1.776   1.090   6.547  0.2301 -0.9672  1.4498
 4317SOL    HW224411   1.790   1.186   6.446  0.0187 -0.5562 -1.2380
 4318SOL     OW24412   3.345   1.678   3.641  0.0852  0.1200 -0.0393
 4318SOL    HW124413   3.378   1.632   3.717 -1.2752 -1.6141 -0.4816
 4318SOL    HW224414   3.414   1.741   3.620  0.1847 -0.7105 -2.2331
 4319SOL     OW24415   0.433   3.242  13.408 -0.0780 -0.2974  0.0249
 4319SOL    HW124416   0.490   3.315  13.383 -0.4189  0.5739  1.7785
 4319SOL    HW224417   0.371   3.283  13.468  1.1477  0.3428  0.8593
 4320SOL     OW24418   2.667   0.747   7.146  0.1632  0.2034 -0.5057
 4320SOL    HW124419   2.749   0.765   7.100  2.3375 -2.0830  2.4626
 4320SOL    HW224420   2.678   0.654   7.162  1.3333  0.2141 -1.2853
 4321SOL     OW24421   2.998   2.001   3.695 -0.4053 -0.6097 -0.1388
 4321SOL    HW124422   2.985   1.908   3.678 -1.5991 -0.7566  1.5141
 4321SOL    HW224423   3.077   2.018   3.643  0.0391 -0.2644  0.6497
 4322SOL     OW24424   1.823   4.249   5.574 -0.2203 -0.1086 -0.0430
 4322SOL    HW124425   1.741   4.298   5.585 -1.0319 -1.5253  0.2555
 4322SOL    HW224426   1.834   4.239   5.480 -0.6958  0.9852 -0.2206
 4323SOL     OW24427   1.646   1.984   8.587 -0.1384  0.6259 -0.2187
 4323SOL    HW124428   1.698   2.057   8.553  0.8157 -0.2975 -0.7743
 4323SOL    HW224429   1.565   1.993   8.537 -0.1998 -0.1528 -0.2653
 4324SOL     OW24430   3.106   1.576  14.181  0.4577 -0.2176 -0.7623
 4324SOL    HW124431   3.094   1.514  14.109  0.8086  0.9748 -1.8469
 4324SOL    HW224432   3.199   1.596  14.175  0.5980  1.0239  5.5421
 4325SOL     OW24433   3.317   3.454   0.877 -0.1519  0.7339  0.4892
 4325SOL    HW124434   3.316   3.533   0.930  1.6702 -0.0946  1.7785
 4325SOL    HW224435   3.345   3.487   0.791 -2.5659 -1.6298 -1.1929
 4326SOL     OW24436   4.674   1.827   2.979  0.5078  0.6397 -0.2638
 4326SOL    HW124437   0.014   1.767   2.939  0.9488  0.2744  0.9418
 4326SOL    HW224438   4.700   1.815   3.071 -3.3801  1.7028  0.9760
 4327SOL     OW24439   4.268   2.906   6.356 -0.2840  0.1568 -0.3570
 4327SOL    HW124440   4.304   2.943   6.436 -0.0877 -1.0233  0.1054
 4327SOL    HW224441   4.175   2.927   6.355 -0.2848  0.2582  1.3308
 4328SOL     OW24442   2.398   1.246   2.626  0.0665  0.5214  0.5350
 4328SOL    HW124443   2.353   1.284   2.702 -3.6970  0.3410 -1.5776
 4328SOL    HW224444   2.484   1.258   2.665 -0.7040  1.9475  1.7997
 4329SOL     OW24445   3.136   3.798  15.767 -0.2719 -0.0054 -0.4447
 4329SOL    HW124446   3.083   3.787  15.688  0.1747 -1.3171 -0.5540
 4329SOL    HW224447   3.190   3.864  15.723 -2.4945  1.6609 -0.6887
 4330SOL     OW24448   1.231   0.657   2.398  0.1295 -0.2733 -0.1811
 4330SOL    HW124449   1.260   0.570   2.425  1.5442  0.7589  1.6701
 4330SOL    HW224450   1.183   0.634   2.319  2.4865 -0.7663 -1.4720
 4331SOL     OW24451   2.951   3.074   1.973 -0.2520 -0.1125 -0.1544
 4331SOL    HW124452   2.889   3.090   2.044 -1.2224  0.4784 -1.1419
 4331SOL    HW224453   2.992   2.995   2.008 -0.0430 -0.1949 -0.5884
 4332SOL     OW24454   0.084   4.308   8.861 -0.1213  0.1693 -0.1958
 4332SOL    HW124455   0.070   4.282   8.770 -1.5152 -0.4978  0.2093
 4332SOL    HW224456   0.064   4.399   8.839 -1.8961  0.2678  1.7638
 4333SOL     OW24457   3.749   4.626   4.188 -0.0075 -0.4429 -0.3082
 4333SOL    HW124458   3.664   4.668   4.196 -0.0074 -0.3954 -0.5500
 4333SOL    HW224459   3.800   4.701   4.156  1.6295 -1.5488 -0.3088
 4334SOL     OW24460   1.711   2.820   4.058 -0.2575 -0.5727 -0.2946
 4334SOL    HW124461   1.690   2.905   4.095  0.5209  0.3982 -2.0870
 4334SOL    HW224462   1.634   2.810   4.001 -2.4920 -2.6672  3.0696
 4335SOL     OW24463   2.170   3.095   6.319 -0.2159 -0.1390  0.3355
 4335SOL    HW124464   2.168   3.017   6.263  0.4137  0.1403 -0.0763
 4335SOL    HW224465   2.264   3.097   6.339  0.6533  0.4692 -3.8086
 4336SOL     OW24466   1.861   3.677   8.223 -0.2047  0.1118  0.3555
 4336SOL    HW124467   1.913   3.745   8.264  1.2720 -0.7386 -0.1200
 4336SOL    HW224468   1.899   3.595   8.254  0.1272 -0.9856 -3.0669
 4337SOL     OW24469   2.465   0.710   6.361 -0.3998 -0.3353 -0.2596
 4337SOL    HW124470   2.524   0.767   6.311 -1.9111  1.8562  0.4684
 4337SOL    HW224471   2.512   0.630   6.385 -0.7704 -0.4017  0.2295
 4338SOL     OW24472   1.012   0.555  15.994  0.0647 -0.1782  0.4428
 4338SOL    HW124473   1.006   0.608  16.073 -2.7575  0.6990 -0.3554
 4338SOL    HW224474   0.927   0.514  16.008  0.0370 -0.1840  0.2574
 4339SOL     OW24475   1.726   4.607   3.590 -0.1355  0.5742 -0.2138
 4339SOL    HW124476   1.808   4.648   3.617  0.9490 -1.5334 -0.3124
 4339SOL    HW224477   1.688   4.672   3.532 -0.0760  0.5862 -0.2394
 4340SOL     OW24478   1.063   2.410   1.176  0.2345 -0.0559  0.0322
 4340SOL    HW124479   1.014   2.466   1.236 -0.8591 -1.2414  0.2584
 4340SOL    HW224480   1.128   2.371   1.234  0.5680 -0.6940 -0.7573
 4341SOL     OW24481   4.569   0.771  15.641  0.6793  0.1665 -0.0059
 4341SOL    HW124482   4.550   0.705  15.708 -1.5866  1.7606  0.9355
 4341SOL    HW224483   4.643   0.733  15.594  1.5056 -2.7879  3.7056
 4342SOL     OW24484   0.412   2.134   0.480 -0.2952  0.0170  0.3249
 4342SOL    HW124485   0.489   2.093   0.520 -1.5717 -2.0438  0.6837
 4342SOL    HW224486   0.367   2.059   0.441 -1.5136  0.3849  1.0337
 4343SOL     OW24487   0.633   0.309   0.219 -0.4363 -0.2265  0.2156
 4343SOL    HW124488   0.679   0.231   0.251 -2.0402 -0.7602  1.2389
 4343SOL    HW224489   0.555   0.275   0.174  0.5917 -0.6679 -1.2173
 4344SOL     OW24490   0.357   4.659  11.312 -0.1569  0.0094  0.8817
 4344SOL    HW124491   0.417   4.599  11.268  1.0049 -0.2231  2.7462
 4344SOL    HW224492   0.285   4.603  11.341 -0.5217  0.0130 -0.0352
 4345SOL     OW24493   3.851   2.174   4.840  1.0974  0.0831 -0.9613
 4345SOL    HW124494   3.869   2.231   4.915  2.2718  0.3780 -1.4781
 4345SOL    HW224495   3.885   2.222   4.765  1.2998  0.8097 -0.4051
 4346SOL     OW24496   1.508   1.487   4.794  0.3500 -0.0082  0.5736
 4346SOL    HW124497   1.488   1.395   4.813  0.1315 -0.1908 -0.5165
 4346SOL    HW224498   1.590   1.467   4.750 -0.4028 -1.3515 -0.2357
 4347SOL     OW24499   4.588   1.422   9.454  0.1623  0.8439  0.3068
 4347SOL    HW124500   4.644   1.499   9.466 -2.0360  1.9830  3.2308
 4347SOL    HW224501   4.659   1.363   9.430  1.0269  2.3151 -0.7037
 4348SOL     OW24502   2.393   1.042   3.447  0.1201 -0.2034 -0.6031
 4348SOL    HW124503   2.307   1.075   3.473  0.4899  0.7246 -0.5821
 4348SOL    HW224504   2.450   1.087   3.510  1.3877 -0.4034 -1.6034
 4349SOL     OW24505   0.338   0.032   6.609 -0.6887  0.1931 -0.2100
 4349SOL    HW124506   0.336   0.045   6.514 -0.0166  2.9731  0.1739
 4349SOL    HW224507   0.336   0.126   6.625 -0.7264  0.4235 -1.5908
 4350SOL     OW24508   0.472   1.709   2.821 -0.1801  0.0159 -0.2189
 4350SOL    HW124509   0.384   1.673   2.833  0.0062 -0.1384  0.7229
 4350SOL    HW224510   0.499   1.668   2.739  0.3494  3.1319 -1.5889
 4351SOL     OW24511   2.135   2.023  12.983  0.5564 -0.3377 -0.8490
 4351SOL    HW124512   2.065   1.967  13.015  1.4829  0.0939  1.9413
 4351SOL    HW224513   2.124   2.098  13.041 -1.3396  0.0022 -1.6742
 4352SOL     OW24514   2.288   3.864   7.892  0.1640 -0.7335 -0.3693
 4352SOL    HW124515   2.291   3.769   7.905 -0.5562 -0.7552 -0.3793
 4352SOL    HW224516   2.360   3.875   7.830  1.0982  2.6158  1.3439
 4353SOL     OW24517   1.910   3.708  11.064 -0.4587  0.5106  0.1582
 4353SOL    HW124518   1.992   3.746  11.034 -0.9585  2.6377  1.5138
 4353SOL    HW224519   1.920   3.617  11.035 -2.6020  0.7639 -1.4281
 4354SOL     OW24520   4.693   4.373   0.953 -0.0237  0.5785 -0.4670
 4354SOL    HW124521   0.015   4.442   1.004  3.6620 -1.6771 -0.5483
 4354SOL    HW224522   0.047   4.357   0.895 -0.2221  0.7764 -0.7768
 4355SOL     OW24523   0.020   0.084   4.618  0.0698  0.0730  0.3900
 4355SOL    HW124524   0.076   0.021   4.663  0.5809 -0.1474 -0.5595
 4355SOL    HW224525   0.070   0.095   4.537  0.3206 -1.2129  0.3684
 4356SOL     OW24526   0.773   1.358   1.766 -0.3542  0.0905 -0.7185
 4356SOL    HW124527   0.724   1.361   1.684 -2.9806 -0.2491  0.8413
 4356SOL    HW224528   0.772   1.449   1.797  1.5262 -0.4227  0.8751
 4357SOL     OW24529   3.668   4.622   6.477 -0.1539 -0.1492 -0.4649
 4357SOL    HW124530   3.648   4.709   6.511  0.7268  0.4436 -1.4888
 4357SOL    HW224531   3.679   4.572   6.558  2.7532 -1.6796 -1.7960
 4358SOL     OW24532   3.999   2.643  13.967 -0.1183 -0.4257 -0.2443
 4358SOL    HW124533   4.022   2.618  14.057 -1.2606 -0.0328  0.1431
 4358SOL    HW224534   4.084   2.668  13.929  0.6631 -2.1109  0.3811
 4359SOL     OW24535   0.698   2.649   7.921 -0.7991  0.1774  0.2306
 4359SOL    HW124536   0.676   2.584   7.988 -0.3357  0.4817  0.6711
 4359SOL    HW224537   0.624   2.659   7.862 -0.0174 -1.3145 -1.0492
 4360SOL     OW24538   0.140   2.252  13.024 -0.6081  0.0739 -0.5482
 4360SOL    HW124539   0.158   2.313  12.953 -0.6448  1.4874  0.6484
 4360SOL    HW224540   0.092   2.301  13.091 -1.0707 -0.9741 -0.1106
 4361SOL     OW24541   1.210   1.039  10.306  0.0627 -0.1568 -0.7117
 4361SOL    HW124542   1.239   0.949  10.322  0.8148 -0.1624 -2.0535
 4361SOL    HW224543   1.128   1.054  10.353  1.6516  1.0951  1.6436
 4362SOL     OW24544   2.552   3.412   8.379  0.2048  0.4807 -0.0419
 4362SOL    HW124545   2.621   3.460   8.424 -0.8592  2.2200 -0.2743
 4362SOL    HW224546   2.498   3.482   8.344  1.5345  0.2394 -2.6235
 4363SOL     OW24547   0.098   2.684  12.960  0.1950 -0.8301  0.2792
 4363SOL    HW124548   0.015   2.642  12.982 -1.7729  2.3040 -1.1327
 4363SOL    HW224549   0.136   2.682  13.048  1.9525  1.3312 -0.4309
 4364SOL     OW24550   2.246   3.895   6.551 -0.1104 -0.5665  0.2243
 4364SOL    HW124551   2.294   3.845   6.484  0.5084  0.1209  0.1550
 4364SOL    HW224552   2.163   3.914   6.508 -0.2639 -0.0530  0.7521
 4365SOL     OW24553   0.986   0.568   7.533  0.0080  0.3030 -0.4727
 4365SOL    HW124554   0.996   0.662   7.517 -2.0171 -0.0042 -3.6160
 4365SOL    HW224555   1.064   0.534   7.489  1.0250 -0.3344  1.8205
 4366SOL     OW24556   3.472   2.555   2.980 -0.1345  0.2374  1.1521
 4366SOL    HW124557   3.487   2.570   3.073  4.2000  2.3356  0.0998
 4366SOL    HW224558   3.553   2.591   2.944  0.0349  0.1741  1.4708
 4367SOL     OW24559   0.253   4.228   5.470  0.6138 -0.5699  0.2238
 4367SOL    HW124560   0.300   4.271   5.398 -0.8525 -1.0043 -0.9918
 4367SOL    HW224561   0.314   4.229   5.543  0.0715 -1.9936  0.6842
 4368SOL     OW24562   3.190   2.899   7.236 -0.0095 -0.2467  0.2961
 4368SOL    HW124563   3.182   2.971   7.174 -1.0094 -1.3748 -0.8921
 4368SOL    HW224564   3.099   2.871   7.251 -0.1684 -1.0660 -2.2026
 4369SOL     OW24565   3.963   3.057  10.815  0.2328  0.6669  0.3160
 4369SOL    HW124566   4.045   3.096  10.784 -0.1216  0.0485 -1.3993
 4369SOL    HW224567   3.904   3.123  10.779  0.9284 -0.3936 -2.7209
 4370SOL     OW24568   0.969   1.436   1.251 -0.2501 -0.1724  0.3468
 4370SOL    HW124569   1.045   1.393   1.214  0.4110  0.1170  1.3736
 4370SOL    HW224570   0.921   1.453   1.169  1.3453 -0.3798 -0.6296
 4371SOL     OW24571   1.527   3.704   6.389 -0.7562  0.1542 -0.3149
 4371SOL    HW124572   1.462   3.727   6.456 -0.5508  2.5731 -0.9522
 4371SOL    HW224573   1.473   3.651   6.330  2.7168 -1.4744 -2.0235
 4372SOL     OW24574   2.341   3.805   6.095  0.7533 -0.2169 -0.0405
 4372SOL    HW124575   2.296   3.720   6.101  1.6478 -0.5868  1.6864
 4372SOL    HW224576   2.358   3.828   6.187  0.2629 -0.0292  0.0031
 4373SOL     OW24577   1.735   4.070   9.911 -0.1911 -0.1588  0.3711
 4373SOL    HW124578   1.662   4.131   9.919 -0.6102 -0.5508 -0.5152
 4373SOL    HW224579   1.812   4.127   9.912  0.3927 -0.9364 -0.2494
 4374SOL     OW24580   1.252   2.391   2.695  0.9518 -0.1811  0.0721
 4374SOL    HW124581   1.205   2.433   2.623  0.9935  0.2051  0.2766
 4374SOL    HW224582   1.297   2.322   2.646 -2.4656 -2.0289 -0.4748
 4375SOL     OW24583   3.084   2.957  15.065  0.7648  0.1785  0.0894
 4375SOL    HW124584   3.087   3.052  15.054  1.7252  0.1399  0.0246
 4375SOL    HW224585   3.059   2.936  14.975  0.5191  1.1654 -0.0804
 4376SOL     OW24586   4.717   4.218   6.280 -0.1876 -0.2490 -0.5926
 4376SOL    HW124587   4.642   4.265   6.243 -0.1807  1.6657  1.8433
 4376SOL    HW224588   0.064   4.284   6.288  0.6833 -1.0667 -1.2968
 4377SOL     OW24589   0.901   2.692   1.992  0.0448 -0.5738 -0.1386
 4377SOL    HW124590   0.850   2.748   2.050  2.1666  0.2782  0.9437
 4377SOL    HW224591   0.920   2.769   1.938 -2.9723 -0.5797 -1.1759
 4378SOL     OW24592   0.421   4.432  17.370  0.0770 -0.1439 -0.2943
 4378SOL    HW124593   0.462   4.495  17.311 -0.5346  1.6272  1.1676
 4378SOL    HW224594   0.333   4.469  17.375 -0.3152 -1.0555 -0.4949
 4379SOL     OW24595   3.772   3.953   4.486 -0.0404  0.0324  0.7459
 4379SOL    HW124596   3.709   4.021   4.463  1.6010  0.7043 -1.7887
 4379SOL    HW224597   3.814   3.940   4.401  0.6176 -0.1354  1.1013
 4380SOL     OW24598   4.059   1.805   5.707  0.3940  0.3854 -0.0611
 4380SOL    HW124599   4.032   1.715   5.689  0.0223  0.6351 -0.7803
 4380SOL    HW224600   4.142   1.784   5.749  0.0856 -1.5128 -0.4303
 4381SOL     OW24601   2.311   1.825   1.211 -0.2256 -0.5019 -0.4173
 4381SOL    HW124602   2.264   1.742   1.201  0.0841 -0.9256  1.7061
 4381SOL    HW224603   2.244   1.880   1.169 -0.0279  0.9958  1.2509
 4382SOL     OW24604   1.135   3.912   5.534  0.2009  0.1060 -0.3462
 4382SOL    HW124605   1.115   3.871   5.618  1.1977  4.1301  1.8618
 4382SOL    HW224606   1.169   3.838   5.483  2.3592 -0.1474  1.4947
 4383SOL     OW24607   2.058   2.215   3.660  0.1850  0.0590  0.8747
 4383SOL    HW124608   2.134   2.214   3.718  1.0321  0.0576 -0.2438
 4383SOL    HW224609   1.987   2.248   3.715  1.4604  1.7603  1.5133
 4384SOL     OW24610   1.465   3.734  11.768 -0.6601  0.3693 -0.2526
 4384SOL    HW124611   1.407   3.683  11.712  1.3177  1.0395 -2.8827
 4384SOL    HW224612   1.418   3.809  11.806  1.6598  1.4005  0.5924
 4385SOL     OW24613   3.052   0.292   1.484 -0.1358  0.2884  0.3123
 4385SOL    HW124614   3.027   0.213   1.437 -2.2756  0.6551  0.8339
 4385SOL    HW224615   3.140   0.267   1.512  0.5202  3.2397  0.9314
 4386SOL     OW24616   4.075   2.067   7.729 -0.0229 -0.0753  0.1539
 4386SOL    HW124617   4.040   2.146   7.769  2.6841  0.4252  1.5969
 4386SOL    HW224618   4.144   2.046   7.792 -0.4702 -0.5628  0.4824
 4387SOL     OW24619   3.820   0.792   2.314  0.0848 -0.1213 -0.7343
 4387SOL    HW124620   3.796   0.728   2.247  0.0976  0.1831 -1.0311
 4387SOL    HW224621   3.899   0.749   2.349  0.0364  0.5171  0.1349
 4388SOL     OW24622   3.146   2.346   8.602 -0.2154  0.3679 -0.2756
 4388SOL    HW124623   3.199   2.412   8.648 -3.2928  1.7627  1.2146
 4388SOL    HW224624   3.153   2.280   8.671  0.9945  1.7655  0.9836
 4389SOL     OW24625   3.081   2.741   0.437  0.4483  0.2407 -0.6336
 4389SOL    HW124626   3.141   2.692   0.493  0.1209 -2.4074 -2.6169
 4389SOL    HW224627   3.065   2.660   0.389  1.3443 -0.1952 -0.1976
 4390SOL     OW24628   1.414   3.127   3.680 -0.1509  0.3597  0.3680
 4390SOL    HW124629   1.483   3.140   3.615 -0.7854 -1.2881 -0.6473
 4390SOL    HW224630   1.345   3.182   3.645 -1.2786  0.1761  2.3230
 4391SOL     OW24631   0.386   1.131   9.925 -0.6844  0.3538 -0.1280
 4391SOL    HW124632   0.356   1.044   9.950 -0.4405  0.4686  0.5660
 4391SOL    HW224633   0.347   1.138   9.838  1.5837  1.0603 -1.1147
 4392SOL     OW24634   2.828   4.717   1.296  0.0901  0.0691 -0.0220
 4392SOL    HW124635   2.917   0.031   1.299  0.3757 -0.7097  0.7656
 4392SOL    HW224636   2.839   4.622   1.290  3.9106  0.4882  0.3056
 4393SOL     OW24637   1.332   3.416   4.102 -0.1779  0.1837 -0.0825
 4393SOL    HW124638   1.289   3.357   4.040 -1.5569  0.2285  0.8559
 4393SOL    HW224639   1.425   3.412   4.076 -0.5484 -1.5442 -1.1453
 4394SOL     OW24640   3.908   0.882   4.317  0.9539  0.5457  0.0930
 4394SOL    HW124641   3.960   0.807   4.347 -1.7506 -1.7150 -0.9026
 4394SOL    HW224642   3.903   0.861   4.224 -0.8266  1.3379  0.0109
 4395SOL     OW24643   4.396   3.446   3.456 -0.5262  0.4173  0.5082
 4395SOL    HW124644   4.445   3.407   3.384  1.5580  0.8319  1.7227
 4395SOL    HW224645   4.318   3.477   3.410  1.1179  1.6712 -1.4205
 4396SOL     OW24646   1.556   2.435  10.999 -0.3234  0.0191 -0.2710
 4396SOL    HW124647   1.549   2.353  10.950 -2.2262 -1.4964  2.5923
 4396SOL    HW224648   1.582   2.400  11.084  0.1327  0.0425 -0.4003
 4397SOL     OW24649   2.539   1.971  11.688  0.4903  0.1984 -0.3515
 4397SOL    HW124650   2.522   2.021  11.768  0.3540 -1.6055  0.7407
 4397SOL    HW224651   2.451   1.937  11.670 -0.0062  0.9821  0.6034
 4398SOL     OW24652   4.332   0.190  11.524 -0.4338  0.6118 -0.2765
 4398SOL    HW124653   4.398   0.243  11.571 -0.1041  1.1314 -1.3351
 4398SOL    HW224654   4.319   0.233  11.440  2.4706  0.8197 -0.6373
 4399SOL     OW24655   2.993   0.387   5.167 -0.2658  0.8175  0.0378
 4399SOL    HW124656   2.917   0.394   5.109  0.5490  0.9699 -1.0178
 4399SOL    HW224657   2.953   0.364   5.251 -0.5764  2.9724  0.4846
 4400SOL     OW24658   3.844   4.044   1.510 -0.1018 -0.4644  0.1170
 4400SOL    HW124659   3.789   3.974   1.545 -1.9035  0.6717 -0.4037
 4400SOL    HW224660   3.784   4.119   1.516 -0.8747 -0.9531 -1.6410
 4401SOL     OW24661   3.461   2.312   8.887  0.2028 -0.1142  0.9515
 4401SOL    HW124662   3.500   2.358   8.813  2.0678 -1.3741  1.1401
 4401SOL    HW224663   3.482   2.368   8.961 -0.6361 -0.9235  1.8021
 4402SOL     OW24664   4.023   0.521   5.190  0.0092 -0.2284 -0.3000
 4402SOL    HW124665   4.046   0.482   5.274 -2.7345  0.0772  0.5987
 4402SOL    HW224666   4.029   0.613   5.214  0.7709  0.1671 -2.0507
 4403SOL     OW24667   3.453   0.131   2.488 -0.1280 -0.1491  0.2500
 4403SOL    HW124668   3.408   0.199   2.538  0.3367  0.8585 -0.7007
 4403SOL    HW224669   3.435   0.157   2.398  0.8376 -0.8821 -0.1563
 4404SOL     OW24670   2.678   2.382  12.959 -1.1064  0.7248  0.2091
 4404SOL    HW124671   2.692   2.313  13.023 -0.0666  1.4657  0.7711
 4404SOL    HW224672   2.711   2.454  13.011  1.0071 -1.1288  1.4122
 4405SOL     OW24673   2.861   3.921   4.246  0.8386  0.1673  0.0548
 4405SOL    HW124674   2.791   3.905   4.183  2.2843 -3.8208 -0.5497
 4405SOL    HW224675   2.893   4.005   4.214  0.3937  0.4701  0.4099
 4406SOL     OW24676   4.113   4.157   1.454  0.1063  0.4085  0.1309
 4406SOL    HW124677   4.026   4.127   1.480 -0.6153  1.5720 -0.9106
 4406SOL    HW224678   4.164   4.124   1.528  1.0994 -0.5707 -0.9949
 4407SOL     OW24679   1.618   2.600  15.370 -0.8425  0.7886 -0.0569
 4407SOL    HW124680   1.531   2.624  15.340 -1.2631 -0.9555 -0.2459
 4407SOL    HW224681   1.630   2.659  15.444  0.9626  2.1364 -1.4099
 4408SOL     OW24682   3.334   0.906   0.222  0.2946 -0.2101 -0.2591
 4408SOL    HW124683   3.365   0.972   0.283 -0.7932 -0.3262  0.4266
 4408SOL    HW224684   3.270   0.858   0.274  1.2662 -0.0867  1.0456
 4409SOL     OW24685   3.198   3.323   7.355  0.6696  0.3934 -0.4399
 4409SOL    HW124686   3.132   3.384   7.323  0.0081 -0.8191 -1.3650
 4409SOL    HW224687   3.246   3.377   7.418  1.9791 -0.0076 -1.1146
 4410SOL     OW24688   3.670   1.402   4.335 -0.3899 -0.0434  0.0047
 4410SOL    HW124689   3.637   1.471   4.278 -0.0232 -0.4387 -0.6877
 4410SOL    HW224690   3.687   1.333   4.271  1.4853 -0.7487  1.2862
 4411SOL     OW24691   1.894   2.809   8.771  0.2904  0.0575  0.2701
 4411SOL    HW124692   1.836   2.742   8.736  1.1700  0.0904 -1.2441
 4411SOL    HW224693   1.849   2.889   8.746 -0.7478 -0.1107  1.5752
 4412SOL     OW24694   2.478   3.250   6.095 -0.9180 -0.0224  0.3817
 4412SOL    HW124695   2.463   3.234   6.001  2.0351 -1.9039  0.2355
 4412SOL    HW224696   2.550   3.188   6.107  0.6076  1.2971 -1.9719
 4413SOL     OW24697   4.449   2.536   8.734 -0.6027 -0.0442  0.1172
 4413SOL    HW124698   4.396   2.494   8.666  1.6802 -1.5422 -0.7401
 4413SOL    HW224699   4.527   2.481   8.734  1.1843  2.4473 -1.4306
 4414SOL     OW24700   1.995   0.047   6.643 -0.2546 -0.3845 -0.1042
 4414SOL    HW124701   2.063   0.111   6.664 -1.7620  1.2227 -0.0307
 4414SOL    HW224702   1.987   0.038   6.548 -2.0020 -1.7713  0.1872
 4415SOL     OW24703   2.038   3.400  15.084 -0.0528 -0.3477  0.4514
 4415SOL    HW124704   1.968   3.371  15.025  0.7018 -2.1246  0.4238
 4415SOL    HW224705   2.112   3.381  15.026  1.7060 -1.4061  3.0653
 4416SOL     OW24706   2.648   0.482   0.857 -0.1041 -0.0694  0.5496
 4416SOL    HW124707   2.682   0.421   0.922  0.5192 -0.4685 -0.1502
 4416SOL    HW224708   2.706   0.559   0.866  1.3322 -1.2645  1.4806
 4417SOL     OW24709   0.814   4.495  15.939  0.3151 -0.6434  0.2370
 4417SOL    HW124710   0.752   4.423  15.926  1.1092 -0.9623 -1.6922
 4417SOL    HW224711   0.751   4.558  15.975 -0.7860 -1.1551 -0.8165
 4418SOL     OW24712   1.420   4.451  12.146 -0.3013 -0.5414 -0.1461
 4418SOL    HW124713   1.393   4.454  12.054 -0.7017  3.5780  0.1355
 4418SOL    HW224714   1.515   4.445  12.140 -0.1664  2.8891 -1.1771
 4419SOL     OW24715   2.474   0.235   6.117 -0.7880 -0.3822  0.0570
 4419SOL    HW124716   2.412   0.165   6.137  0.5587 -1.8844 -1.0305
 4419SOL    HW224717   2.537   0.184   6.067 -0.4742  0.0313  0.0276
 4420SOL     OW24718   0.438   1.737   4.702 -0.0038  0.2288 -0.5600
 4420SOL    HW124719   0.517   1.781   4.669 -0.6355  1.3975 -0.5316
 4420SOL    HW224720   0.477   1.659   4.740 -0.7022 -0.2667 -0.8674
 4421SOL     OW24721   1.425   4.707   7.650  0.1465 -0.0637 -0.7685
 4421SOL    HW124722   1.360   4.702   7.720  0.5366  3.7035 -0.1771
 4421SOL    HW224723   1.465   4.620   7.647  2.0705  0.7785  0.6879
 4422SOL     OW24724   1.669   2.630   6.736 -0.3069  0.3628 -0.3431
 4422SOL    HW124725   1.725   2.560   6.704 -1.8290 -0.4053 -1.2930
 4422SOL    HW224726   1.723   2.674   6.802 -1.7435  1.3216  0.1947
 4423SOL     OW24727   3.471   4.169   3.363 -0.1599  0.3783  0.3168
 4423SOL    HW124728   3.501   4.184   3.273 -2.3305  0.3182 -0.4022
 4423SOL    HW224729   3.378   4.183   3.349 -0.3434 -1.0689  0.0943
 4424SOL     OW24730   3.596   1.459   9.330  0.0209 -0.1167  0.8863
 4424SOL    HW124731   3.565   1.422   9.412 -0.4040  0.2144  0.8740
 4424SOL    HW224732   3.682   1.419   9.315 -0.4750 -1.2065  0.9261
 4425SOL     OW24733   0.362   0.244  10.660  0.4411  0.3223 -0.1110
 4425SOL    HW124734   0.310   0.172  10.697  0.0894  0.5611 -0.1299
 4425SOL    HW224735   0.417   0.260  10.737  0.3392  3.6841 -0.7295
 4426SOL     OW24736   3.250   0.844  17.372  0.1410 -0.2716 -0.1905
 4426SOL    HW124737   3.261   0.938  17.361 -0.0860 -0.3320 -0.9413
 4426SOL    HW224738   3.201   0.841  17.455  0.7038 -0.3135  0.1388
 4427SOL     OW24739   2.320   4.235  15.790 -0.2844  0.2183  0.4036
 4427SOL    HW124740   2.330   4.229  15.695  1.7598 -1.6804  0.7497
 4427SOL    HW224741   2.300   4.145  15.815 -0.0022 -0.0106 -0.1937
 4428SOL     OW24742   2.755   0.254   7.923 -0.7696  0.3776 -0.4951
 4428SOL    HW124743   2.672   0.220   7.891 -0.9287  0.9550 -0.6989
 4428SOL    HW224744   2.813   0.194   7.877 -0.2520  2.2704 -2.3308
 4429SOL     OW24745   2.787   2.840   0.084  0.3317  0.3329  0.0215
 4429SOL    HW124746   2.824   2.820  17.686 -0.0672 -1.6788  0.3221
 4429SOL    HW224747   2.827   2.767   0.131 -0.7237 -0.1355  0.1899
 4430SOL     OW24748   0.679   4.278   6.689  0.0059  0.2758  0.1259
 4430SOL    HW124749   0.761   4.305   6.649 -0.0451  3.0979  1.8848
 4430SOL    HW224750   0.612   4.290   6.622  2.4703  0.1617 -2.3494
 4431SOL     OW24751   2.496   1.427   7.894  1.3355  0.0437 -0.0161
 4431SOL    HW124752   2.476   1.518   7.872  1.1062 -0.1379 -0.5528
 4431SOL    HW224753   2.562   1.442   7.962 -0.7502  1.7495  1.5967
 4432SOL     OW24754   1.399   1.737   6.994  0.4627  0.1290  0.1761
 4432SOL    HW124755   1.445   1.676   6.937 -0.8606 -0.0887 -0.6739
 4432SOL    HW224756   1.347   1.783   6.928  0.7855 -2.8885 -2.2080
 4433SOL     OW24757   4.141   0.532   2.076  0.0828 -0.1544 -0.1888
 4433SOL    HW124758   4.098   0.470   2.017  0.6249 -1.2958  0.6037
 4433SOL    HW224759   4.087   0.609   2.058 -0.2999  0.3330  3.0691
 4434SOL     OW24760   0.725   3.930  14.650 -0.0674 -0.2963  0.9252
 4434SOL    HW124761   0.768   3.996  14.595 -1.0956 -0.0853  0.3799
 4434SOL    HW224762   0.740   3.842  14.615 -1.4518 -1.4455  3.2165
 4435SOL     OW24763   4.270   3.730   3.202  0.0403 -0.1939 -0.2930
 4435SOL    HW124764   4.199   3.777   3.159  1.0006  2.6086  1.1977
 4435SOL    HW224765   4.217   3.655   3.229  0.5740 -0.6477 -0.4899
 4436SOL     OW24766   2.963   4.077   3.595  0.1679  0.2197 -0.1552
 4436SOL    HW124767   2.902   4.106   3.663  0.4597  0.2902  0.0772
 4436SOL    HW224768   2.995   4.164   3.570  0.5958  0.7158  2.1287
 4437SOL     OW24769   0.549   3.294   3.977 -0.0674 -0.2536 -0.7251
 4437SOL    HW124770   0.485   3.263   4.042  1.0422 -0.1568  0.4213
 4437SOL    HW224771   0.490   3.311   3.904 -1.8752 -1.7934  0.3615
 4438SOL     OW24772   4.420   1.349   6.726 -0.6794  0.0115  0.0826
 4438SOL    HW124773   4.360   1.390   6.787  1.4654  2.1650  0.7427
 4438SOL    HW224774   4.466   1.287   6.783 -2.1283  0.7975  2.1084
 4439SOL     OW24775   1.237   0.820   7.033 -0.8293  0.6230 -0.4161
 4439SOL    HW124776   1.236   0.777   6.948 -0.3941 -0.7958  0.3015
 4439SOL    HW224777   1.191   0.762   7.094 -1.1864 -1.2289 -2.4725
 4440SOL     OW24778   1.837   2.211  10.983 -0.2704 -0.2289 -0.0556
 4440SOL    HW124779   1.826   2.151  11.057  3.1337 -0.0207  0.6188
 4440SOL    HW224780   1.753   2.200  10.940  0.5610 -0.5858 -1.5903
 4441SOL     OW24781   3.140   1.342   8.587 -0.1426  0.3746 -0.3627
 4441SOL    HW124782   3.157   1.410   8.522  0.3434  0.8183  0.2223
 4441SOL    HW224783   3.116   1.406   8.654 -1.7956 -0.1790 -0.4480
 4442SOL     OW24784   4.398   1.671   5.187 -0.3551  0.0750 -0.2557
 4442SOL    HW124785   4.489   1.647   5.175 -0.8945 -0.4398 -3.1562
 4442SOL    HW224786   4.388   1.723   5.267 -1.3568 -0.2985 -0.1350
 4443SOL     OW24787   3.683   2.436   8.218  0.4683 -0.5101 -0.0996
 4443SOL    HW124788   3.695   2.427   8.312  0.6155  0.9823  0.0210
 4443SOL    HW224789   3.588   2.436   8.208  0.4022  0.7336  0.5752
 4444SOL     OW24790   4.444   2.990  14.450  0.3663 -0.5358  0.6139
 4444SOL    HW124791   4.493   3.070  14.432 -0.8874 -0.2018 -1.4063
 4444SOL    HW224792   4.409   3.016  14.535 -1.7792  1.8759 -1.0203
 4445SOL     OW24793   0.675   2.306   0.850 -0.0541  0.0287  0.1175
 4445SOL    HW124794   0.700   2.371   0.916 -0.6420  1.5951 -1.1895
 4445SOL    HW224795   0.760   2.274   0.819  0.4488 -0.8830  2.4795
 4446SOL     OW24796   2.195   4.321   6.811 -0.3707 -0.1428  0.5309
 4446SOL    HW124797   2.215   4.398   6.864  1.9535  0.0315 -0.6139
 4446SOL    HW224798   2.229   4.247   6.861  1.3382 -0.0890 -0.5630
 4447SOL     OW24799   1.804   2.804   6.916  0.0442  0.3735 -0.4569
 4447SOL    HW124800   1.841   2.856   6.987  0.4830  0.7488 -0.9608
 4447SOL    HW224801   1.770   2.872   6.858  4.5990  1.7199 -1.4950
 4448SOL     OW24802   0.614   0.967   1.949  0.1560 -0.1341 -0.7952
 4448SOL    HW124803   0.605   0.920   2.031 -0.0697  1.2302 -0.0459
 4448SOL    HW224804   0.528   0.956   1.908 -0.2148 -1.8858  0.4598
 4449SOL     OW24805   2.005   3.679  13.013 -0.0743  0.1131  0.4498
 4449SOL    HW124806   2.077   3.710  13.067 -1.2344 -0.3157  2.2310
 4449SOL    HW224807   1.926   3.693  13.065 -0.9946 -2.7574 -0.1559
 4450SOL     OW24808   3.207   1.498   6.786 -0.3323  0.5822  0.1140
 4450SOL    HW124809   3.166   1.483   6.701  0.4682  0.2234 -0.2115
 4450SOL    HW224810   3.205   1.406   6.812  0.1740  0.7193  0.6394
 4451SOL     OW24811   2.973   2.661   1.669  0.3558  0.4269  0.5109
 4451SOL    HW124812   3.020   2.727   1.720 -2.3570  1.4417  1.7046
 4451SOL    HW224813   2.962   2.590   1.732 -0.5581  1.2828  1.3081
 4452SOL     OW24814   1.400   4.522  11.194  0.1939 -0.0509 -0.7997
 4452SOL    HW124815   1.355   4.439  11.213 -1.1120  1.1706  1.4567
 4452SOL    HW224816   1.402   4.560  11.282  2.1015 -1.3519 -0.2715
 4453SOL     OW24817   3.385   2.353   0.021 -0.1356 -0.0616 -0.1262
 4453SOL    HW124818   3.349   2.387  17.628  0.7610 -1.0998 -0.9476
 4453SOL    HW224819   3.340   2.407   0.087 -1.1736  2.0333 -2.5831
 4454SOL     OW24820   3.399   2.319  15.409 -0.0286  0.2042 -0.2220
 4454SOL    HW124821   3.422   2.355  15.494  1.8698 -0.1084 -0.6171
 4454SOL    HW224822   3.376   2.396  15.356  0.1227  1.4546  1.5336
 4455SOL     OW24823   0.413   0.314   2.102 -0.1379  0.1438  0.3252
 4455SOL    HW124824   0.333   0.303   2.154  0.5118  0.1698  1.3195
 4455SOL    HW224825   0.421   0.407   2.124  0.2945 -0.1475  1.4341
 4456SOL     OW24826   3.130   4.646   5.669 -0.6951  0.3999 -0.3561
 4456SOL    HW124827   3.171   4.564   5.698 -0.3876  0.6352 -0.1341
 4456SOL    HW224828   3.088   4.677   5.750 -5.2756 -2.1115 -1.7317
 4457SOL     OW24829   2.868   0.124  17.469 -0.3411  0.1187  0.1427
 4457SOL    HW124830   2.945   0.098  17.519 -0.0055 -0.1555 -0.5220
 4457SOL    HW224831   2.878   0.056  17.403  1.6649  1.2294 -0.7088
 4458SOL     OW24832   3.402   0.322   1.492 -0.2082 -0.0127 -0.1680
 4458SOL    HW124833   3.481   0.270   1.507  0.2546  1.0359  0.9580
 4458SOL    HW224834   3.349   0.254   1.450  0.0974  1.1289 -2.3956
 4459SOL     OW24835   4.230   1.764   2.374 -0.3398 -0.2059 -0.5022
 4459SOL    HW124836   4.304   1.704   2.374  1.0966  1.5636  0.5480
 4459SOL    HW224837   4.168   1.719   2.316 -1.1698 -0.4200  0.5474
 4460SOL     OW24838   1.678   1.028   2.920  0.3406 -0.3664 -0.0252
 4460SOL    HW124839   1.690   0.936   2.896 -2.7437 -0.7363 -0.1545
 4460SOL    HW224840   1.582   1.027   2.930  0.5070 -0.9288  1.5553
 4461SOL     OW24841   1.179   4.033  12.153  0.0717 -0.3517 -0.2241
 4461SOL    HW124842   1.189   4.124  12.178  0.9300 -0.9835  1.7137
 4461SOL    HW224843   1.176   3.972  12.227 -0.8767  1.5596  1.2871
 4462SOL     OW24844   1.205   3.458  13.923 -0.0037  0.3440  0.2167
 4462SOL    HW124845   1.299   3.443  13.935 -0.1688 -0.8293  0.0662
 4462SOL    HW224846   1.213   3.497  13.836  0.0888  0.4928  0.2908
 4463SOL     OW24847   1.894   0.835   0.238 -0.3573  0.0162  0.0840
 4463SOL    HW124848   1.837   0.777   0.289 -0.3533 -0.6408 -0.6612
 4463SOL    HW224849   1.963   0.770   0.221  0.0599  0.7418 -0.9623
 4464SOL     OW24850   0.780   2.830   5.507  0.1255 -0.3352  0.4391
 4464SOL    HW124851   0.812   2.920   5.519  1.2004 -0.6503 -0.0920
 4464SOL    HW224852   0.867   2.792   5.497  0.8446  0.8887  1.9869
 4465SOL     OW24853   2.458   4.676  12.364  0.1250  0.5206 -0.1901
 4465SOL    HW124854   2.534   4.618  12.369  0.1694  0.6193  0.2397
 4465SOL    HW224855   2.494   0.039  12.337 -0.1197  0.5607 -0.3894
 4466SOL     OW24856   0.754   3.651   4.391 -0.2300  0.5343  0.1500
 4466SOL    HW124857   0.699   3.637   4.468 -2.7750 -1.6214 -2.0533
 4466SOL    HW224858   0.785   3.561   4.382 -2.2636 -0.1373 -0.0769
 4467SOL     OW24859   3.931   3.616  11.394 -0.5142  0.0039  0.4900
 4467SOL    HW124860   4.010   3.645  11.438 -0.9961 -1.1451  2.1151
 4467SOL    HW224861   3.962   3.614  11.303  1.6286 -1.6679  1.2622
 4468SOL     OW24862   1.581   3.419  14.776 -0.2495  0.5177  0.4320
 4468SOL    HW124863   1.638   3.383  14.845 -2.1924 -2.6831  0.3221
 4468SOL    HW224864   1.574   3.348  14.713 -2.6470  1.1626 -0.0047
 4469SOL     OW24865   3.817   3.532  12.735 -0.1809  0.3937  0.3120
 4469SOL    HW124866   3.725   3.508  12.741  0.2734 -1.0977  1.2133
 4469SOL    HW224867   3.870   3.456  12.760 -0.6158  0.5655  1.7445
 4470SOL     OW24868   3.842   2.326   4.426 -0.0115  0.4163  0.7254
 4470SOL    HW124869   3.876   2.307   4.514  0.9073  3.0548  0.9328
 4470SOL    HW224870   3.918   2.307   4.371 -0.0081 -2.5157  1.7544
 4471SOL     OW24871   3.404   1.733  13.930  0.0298 -0.2845 -0.4293
 4471SOL    HW124872   3.314   1.714  13.902 -0.7241  0.7301  1.3270
 4471SOL    HW224873   3.394   1.712  14.022 -1.8212 -0.0603 -0.5715
 4472SOL     OW24874   0.672   4.641   6.266  0.2277 -0.1662 -0.3131
 4472SOL    HW124875   0.713   4.586   6.199  0.2547 -1.7783  1.0166
 4472SOL    HW224876   0.741   4.639   6.333 -0.6759 -4.7205  0.4974
 4473SOL     OW24877   3.462   2.410   1.672 -0.0432  0.3645 -0.1288
 4473SOL    HW124878   3.452   2.340   1.608  1.2453 -1.6890  1.9382
 4473SOL    HW224879   3.422   2.370   1.749  0.4613 -2.0668 -1.1464
 4474SOL     OW24880   3.127   4.078   8.290 -0.5013  0.5718  0.2665
 4474SOL    HW124881   3.094   4.032   8.214  1.3117  0.5738 -0.5380
 4474SOL    HW224882   3.105   4.016   8.360 -1.2440  1.2191  0.5987
 4475SOL     OW24883   0.643   2.656  14.576 -0.2577 -0.1535  0.2991
 4475SOL    HW124884   0.602   2.702  14.649 -1.0754 -0.0435 -0.2312
 4475SOL    HW224885   0.702   2.589  14.613 -1.0051  0.1782  2.0758
 4476SOL     OW24886   0.453   1.233   1.786  0.5561  0.2278  0.3681
 4476SOL    HW124887   0.388   1.164   1.804 -0.5035  0.8705 -1.0499
 4476SOL    HW224888   0.531   1.177   1.793 -0.0748 -0.9611 -2.2730
 4477SOL     OW24889   3.397   1.768   2.936 -0.0063  0.1216  0.3453
 4477SOL    HW124890   3.419   1.795   2.846  0.0401 -2.1246 -0.3081
 4477SOL    HW224891   3.476   1.805   2.976  0.6963  0.1477 -1.0322
 4478SOL     OW24892   0.689   2.477  16.770  0.5777  0.2150 -0.1661
 4478SOL    HW124893   0.634   2.537  16.719 -1.0847  0.1366  1.5226
 4478SOL    HW224894   0.667   2.502  16.860 -0.6087 -3.6067  0.6052
 4479SOL     OW24895   4.506   0.528   9.825  0.5686 -0.6323  0.3674
 4479SOL    HW124896   4.531   0.577   9.904 -0.2748 -0.7955  0.7436
 4479SOL    HW224897   4.540   0.589   9.759 -1.8341  0.3708  0.0620
 4480SOL     OW24898   0.835   4.703   2.515 -0.7354 -0.3861 -0.1371
 4480SOL    HW124899   0.911   4.652   2.490  0.3013  1.4650 -0.8105
 4480SOL    HW224900   0.801   4.711   2.425  1.4934  0.8017 -0.8667
 4481SOL     OW24901   3.351   2.693   7.451  0.3781  1.2209  0.0813
 4481SOL    HW124902   3.416   2.727   7.389 -1.5783  2.1432 -1.5081
 4481SOL    HW224903   3.267   2.713   7.408  1.4639  1.8703 -1.7324
 4482SOL     OW24904   1.455   4.709   8.537 -0.1671  0.2369 -0.1352
 4482SOL    HW124905   1.400   4.639   8.572 -0.1939  0.0594 -0.5369
 4482SOL    HW224906   1.434   0.064   8.590 -4.8264 -0.5686 -0.8914
 4483SOL     OW24907   2.547   0.349   7.001 -0.0947 -0.0637 -0.0219
 4483SOL    HW124908   2.607   0.301   6.944 -2.0183 -1.7441 -0.6900
 4483SOL    HW224909   2.509   0.414   6.942 -0.5974  1.8162  2.4126
 4484SOL     OW24910   2.876   2.207   1.370  0.3650  0.3868  0.9281
 4484SOL    HW124911   2.823   2.128   1.358 -0.7719  0.9481  2.2082
 4484SOL    HW224912   2.954   2.188   1.319 -2.2551 -0.1145 -2.9236
 4485SOL     OW24913   0.617   1.456   3.684 -0.2643 -0.2122  0.2320
 4485SOL    HW124914   0.657   1.502   3.611  0.2546 -1.2865 -0.1589
 4485SOL    HW224915   0.531   1.497   3.669 -0.1850 -0.5980 -1.2219
 4486SOL     OW24916   3.466   1.716   9.509  0.4927  0.3864 -0.3148
 4486SOL    HW124917   3.462   1.769   9.590  0.2352  0.5872 -0.4596
 4486SOL    HW224918   3.556   1.730   9.480  1.0106 -0.0674  1.0443
 4487SOL     OW24919   0.437   3.201   0.594  0.3515  0.4179  0.2107
 4487SOL    HW124920   0.372   3.250   0.543  0.2192 -1.0251 -1.0076
 4487SOL    HW224921   0.383   3.137   0.640  1.3576  0.4383  1.4072
 4488SOL     OW24922   2.712   0.758  16.735  0.1365 -0.3456  0.4063
 4488SOL    HW124923   2.766   0.758  16.814 -0.9417 -0.2071  1.1517
 4488SOL    HW224924   2.762   0.700  16.679  1.5500  2.7744 -1.5714
 4489SOL     OW24925   2.154   2.567  12.494 -0.4776  0.0250 -0.0391
 4489SOL    HW124926   2.171   2.503  12.424 -0.6808  0.3835 -0.4186
 4489SOL    HW224927   2.103   2.518  12.558 -1.1850 -0.3234 -0.8553
 4490SOL     OW24928   0.673   4.386   4.191 -0.5046 -0.4699  0.4428
 4490SOL    HW124929   0.753   4.348   4.154  0.4693  2.1001 -0.1357
 4490SOL    HW224930   0.716   4.447   4.251 -2.0860  1.7352 -0.6924
 4491SOL     OW24931   0.649   2.106   3.071  0.1644  0.0435 -0.7844
 4491SOL    HW124932   0.658   2.086   2.978  0.3994 -0.5109 -0.6422
 4491SOL    HW224933   0.713   2.177   3.078 -3.1245  2.9119 -0.1690
 4492SOL     OW24934   2.078   3.095  17.179 -0.4868  0.1988 -0.3682
 4492SOL    HW124935   2.046   3.070  17.265  0.6533  0.0719  0.0151
 4492SOL    HW224936   2.049   3.186  17.179 -1.1869 -0.0360  0.5446
 4493SOL     OW24937   0.380   1.950   6.105  0.0952  0.1780 -0.3270
 4493SOL    HW124938   0.470   1.964   6.073  0.7298 -0.1638  1.3176
 4493SOL    HW224939   0.337   2.031   6.076 -2.0983 -0.9558 -0.1880
 4494SOL     OW24940   2.694   3.880   3.772  0.6683  0.1713 -0.0107
 4494SOL    HW124941   2.760   3.820   3.738 -0.3798 -0.9993  0.0191
 4494SOL    HW224942   2.613   3.852   3.730  1.6299 -1.9479 -0.4374
 4495SOL     OW24943   4.403   0.439  15.374 -0.0814 -0.5392  0.3561
 4495SOL    HW124944   4.355   0.490  15.309  3.1845  0.6528 -1.1163
 4495SOL    HW224945   4.388   0.496  15.449 -3.5874 -1.0321  0.0439
 4496SOL     OW24946   1.709   3.421   4.381  0.2600  0.4282  0.1637
 4496SOL    HW124947   1.727   3.506   4.421  0.4604 -0.6537  2.4090
 4496SOL    HW224948   1.769   3.369   4.434  0.3314  2.9183  2.5526
 4497SOL     OW24949   2.161   0.569   3.421 -0.0801  0.5292 -0.1419
 4497SOL    HW124950   2.153   0.554   3.327  2.1917  0.3551 -0.3084
 4497SOL    HW224951   2.232   0.632   3.414 -0.7390  1.3030  0.1961
 4498SOL     OW24952   2.422   0.368   5.854  0.1256 -0.5407 -0.0812
 4498SOL    HW124953   2.353   0.367   5.920  0.6315 -1.2969  0.4389
 4498SOL    HW224954   2.488   0.414   5.905 -0.7449 -0.7988  1.2751
 4499SOL     OW24955   0.683   3.016   6.160  0.1817 -0.2840  0.0491
 4499SOL    HW124956   0.740   2.958   6.210  0.8029 -0.0192 -0.3573
 4499SOL    HW224957   0.652   2.964   6.085  1.5705 -1.6490  0.4165
 4500SOL     OW24958   3.678   0.896   6.861 -0.1549 -0.3324 -0.2067
 4500SOL    HW124959   3.695   0.986   6.833  0.2319 -0.0590  0.8887
 4500SOL    HW224960   3.760   0.854   6.839 -0.2231 -0.3007 -0.5259
 4501SOL     OW24961   3.124   0.443   4.774  0.4038 -0.0468  0.1226
 4501SOL    HW124962   3.129   0.534   4.803  0.1046 -0.3791  1.2111
 4501SOL    HW224963   3.136   0.390   4.853 -0.7242  0.5389  0.6861
 4502SOL     OW24964   0.309   1.094   6.842  0.1935  0.4095  0.0146
 4502SOL    HW124965   0.253   1.171   6.853 -0.0037 -0.0006  1.8680
 4502SOL    HW224966   0.293   1.074   6.750  0.1642  0.6315 -0.0283
 4503SOL     OW24967   2.675   0.683   8.440  0.2060  0.0189 -0.4231
 4503SOL    HW124968   2.748   0.707   8.382  1.2633  2.7484  2.0365
 4503SOL    HW224969   2.688   0.745   8.512 -1.3626  1.2194 -1.1784
 4504SOL     OW24970   0.287   2.517   2.425 -0.2918  0.0235  0.2744
 4504SOL    HW124971   0.226   2.458   2.381 -1.5230  1.9426 -0.6254
 4504SOL    HW224972   0.247   2.600   2.396 -0.9197 -0.6338 -0.7540
 4505SOL     OW24973   3.712   1.462   1.696  0.3178  0.9406  0.2532
 4505SOL    HW124974   3.737   1.401   1.766 -0.9528  0.3165  0.1618
 4505SOL    HW224975   3.756   1.536   1.737  1.2509  0.2700  0.4665
 4506SOL     OW24976   1.940   2.031   7.458 -0.4511 -0.3683 -0.1733
 4506SOL    HW124977   1.943   1.987   7.543  2.5285  0.9075  0.3563
 4506SOL    HW224978   1.970   2.118   7.482  0.1188 -0.5586 -0.2094
 4507SOL     OW24979   3.089   2.084   8.729 -0.4886  0.2031 -0.3709
 4507SOL    HW124980   3.021   2.094   8.662 -1.4674  2.4455  0.9677
 4507SOL    HW224981   3.046   2.127   8.803 -0.4803  1.1822 -0.9328
 4508SOL     OW24982   3.910   1.132   4.381  0.3222  0.5076 -0.3620
 4508SOL    HW124983   3.846   1.179   4.328 -1.1939 -1.0319  0.0893
 4508SOL    HW224984   3.905   1.043   4.345 -0.5154  0.8674 -1.1048
 4509SOL     OW24985   2.574   4.615   4.345 -0.7653 -0.5277  0.1306
 4509SOL    HW124986   2.658   4.660   4.353 -0.7469 -0.7547  1.2163
 4509SOL    HW224987   2.578   4.543   4.408  0.2842  0.1279  0.8127
 4510SOL     OW24988   4.609   4.618   8.566 -0.4839  0.3693  0.1438
 4510SOL    HW124989   4.561   4.675   8.506 -3.2188 -0.1096  1.8490
 4510SOL    HW224990   4.672   4.588   8.501 -0.7733  0.2282 -0.0696
 4511SOL     OW24991   3.936   3.866  16.852 -0.3996 -0.0181  0.2476
 4511SOL    HW124992   4.021   3.876  16.809 -0.1019  1.6809  1.2076
 4511SOL    HW224993   3.941   3.778  16.887  1.6754  0.4354  1.0717
 4512SOL     OW24994   2.431   3.981  10.357 -0.0263 -0.2740 -0.6822
 4512SOL    HW124995   2.511   3.948  10.397  1.4059  0.4758 -2.9461
 4512SOL    HW224996   2.465   3.970  10.268  0.0436 -0.1089 -0.6755
 4513SOL     OW24997   2.660   3.368   4.852 -0.3829 -0.3901  0.4827
 4513SOL    HW124998   2.596   3.328   4.794 -0.1670 -0.2168  0.1216
 4513SOL    HW224999   2.652   3.462   4.837  1.5206  0.0608  2.2341
 4514SOL     OW25000   3.355   3.915   7.129  0.1431  0.5868 -0.4880
 4514SOL    HW125001   3.294   3.853   7.170  1.1177 -1.5568 -2.2907
 4514SOL    HW225002   3.360   3.995   7.182 -2.0384 -0.3670  1.1752
 4515SOL     OW25003   0.646   1.344   3.294 -0.0629 -0.5497  0.0225
 4515SOL    HW125004   0.620   1.391   3.215  1.0565  0.4800  0.2667
 4515SOL    HW225005   0.561   1.304   3.312 -1.0238  0.6960 -1.8389
 4516SOL     OW25006   4.662   4.576  13.726 -0.3083 -0.7001 -0.3293
 4516SOL    HW125007   4.641   4.669  13.732  2.0110 -0.2487  0.8912
 4516SOL    HW225008   0.036   4.583  13.716 -0.4969 -0.5077 -1.9449
 4517SOL     OW25009   0.062   1.027   9.418 -0.1569 -0.1947 -0.8979
 4517SOL    HW125010   0.106   1.025   9.503 -3.4486 -2.4831  0.7474
 4517SOL    HW225011   0.079   0.937   9.389  0.0673 -0.4851  0.1621
 4518SOL     OW25012   3.222   4.207   4.230 -0.5306  0.1383  0.0906
 4518SOL    HW125013   3.158   4.229   4.162 -0.5730  1.0354  0.4162
 4518SOL    HW225014   3.295   4.175   4.177 -1.3050  0.1992 -1.0097
 4519SOL     OW25015   3.649   2.051   3.267 -0.2018 -0.1762 -0.0074
 4519SOL    HW125016   3.712   2.081   3.202  0.7313 -0.0437  0.9572
 4519SOL    HW225017   3.571   2.075   3.217 -0.0707 -0.3766 -0.3036
 4520SOL     OW25018   1.045   0.118  14.590 -0.0606  0.6920 -0.1746
 4520SOL    HW125019   1.014   0.200  14.553 -0.6376  0.6757  0.2781
 4520SOL    HW225020   0.963   0.069  14.584  0.0279  0.2006  2.6631
 4521SOL     OW25021   0.158   2.105   0.133 -0.1285 -0.0505  0.1815
 4521SOL    HW125022   0.112   2.089   0.051 -1.0458  0.4491  0.6006
 4521SOL    HW225023   0.220   2.174   0.109 -1.7125  1.6726  1.0237
 4522SOL     OW25024   0.516   1.916  11.940 -0.0175 -0.5018  0.9248
 4522SOL    HW125025   0.581   1.926  12.010  0.3627 -0.6079  0.5909
 4522SOL    HW225026   0.436   1.897  11.987  0.2507  1.1134  2.0532
 4523SOL     OW25027   2.759   0.843   6.533  0.4393 -0.5823 -0.6857
 4523SOL    HW125028   2.840   0.803   6.502  1.0939  2.9520 -3.5545
 4523SOL    HW225029   2.784   0.930   6.566 -0.9502 -0.3573 -0.2375
 4524SOL     OW25030   2.250   3.934  17.400  0.1929 -0.5400  0.5466
 4524SOL    HW125031   2.181   3.967  17.457  0.2326 -0.0509  0.3139
 4524SOL    HW225032   2.303   3.879  17.458  1.3590  0.9039  0.8593
 4525SOL     OW25033   3.839   0.006  15.870 -0.3302  0.1735 -0.1334
 4525SOL    HW125034   3.813   0.039  15.955  2.8202  0.7613  0.6240
 4525SOL    HW225035   3.769   0.032  15.810  0.8590  0.6256 -1.3345
 4526SOL     OW25036   0.126   3.332   2.122 -0.8840 -0.1781  0.6741
 4526SOL    HW125037   0.085   3.336   2.036 -1.2344 -0.8019  0.8112
 4526SOL    HW225038   0.198   3.394   2.115 -0.6644 -0.6450 -1.0192
 4527SOL     OW25039   2.410   0.186   2.861  0.0930  0.0133 -0.1229
 4527SOL    HW125040   2.501   0.187   2.891  0.2358  2.1009 -0.6038
 4527SOL    HW225041   2.399   0.101   2.817  0.1430 -0.8947  1.6512
 4528SOL     OW25042   4.655   3.483  12.912  0.6058  0.4710 -0.2727
 4528SOL    HW125043   0.007   3.527  12.955  1.4312  0.2721 -1.4865
 4528SOL    HW225044   4.613   3.557  12.869  3.1115  2.1351  0.1097
 4529SOL     OW25045   3.891   3.708   4.457  0.3133  0.0473  0.2071
 4529SOL    HW125046   3.865   3.800   4.469  0.3818  0.1038 -0.0743
 4529SOL    HW225047   3.957   3.712   4.526 -0.3681  0.5481  0.8341
 4530SOL     OW25048   4.622   0.239   5.099  0.4925  0.8212  0.1040
 4530SOL    HW125049   4.555   0.301   5.070  0.0335  1.2141  1.9775
 4530SOL    HW225050   4.635   0.183   5.022  2.6122  0.4606  0.7280
 4531SOL     OW25051   1.951   0.730   3.102 -0.0633  0.5691 -0.1575
 4531SOL    HW125052   1.905   0.650   3.079  0.2799  0.3013  0.0980
 4531SOL    HW225053   1.876   0.784   3.125 -1.2068 -0.5882 -1.1750
 4532SOL     OW25054   3.191   3.437   5.530  0.1167  1.2946 -0.4361
 4532SOL    HW125055   3.226   3.511   5.579  1.4209  0.4942 -0.1563
 4532SOL    HW225056   3.264   3.414   5.473  1.6815 -2.2397  3.0275
 4533SOL     OW25057   3.050   2.649   7.413  0.3478 -0.2514 -0.7950
 4533SOL    HW125058   3.058   2.697   7.496  0.6458 -0.3755 -0.7511
 4533SOL    HW225059   2.958   2.629   7.425  1.6448 -5.7860 -0.1485
 4534SOL     OW25060   4.004   3.323   5.805 -0.0047  0.4505 -0.3688
 4534SOL    HW125061   3.998   3.370   5.722  2.1651 -1.6897 -1.7151
 4534SOL    HW225062   3.936   3.258   5.790 -0.6506  1.2252 -0.8076
 4535SOL     OW25063   4.370   3.770   5.591  0.2355 -0.4810 -0.1220
 4535SOL    HW125064   4.331   3.791   5.506  2.6997  0.2704 -1.0680
 4535SOL    HW225065   4.341   3.679   5.592  0.0220 -0.4236 -1.8110
 4536SOL     OW25066   3.955   1.985   4.249 -0.1127  0.0964  0.2151
 4536SOL    HW125067   3.920   2.071   4.225  1.5714  0.9472  0.8481
 4536SOL    HW225068   3.999   1.957   4.169 -1.1490  0.8013 -0.6078
 4537SOL     OW25069   1.737   1.758   6.663  0.9140 -0.3181 -0.1157
 4537SOL    HW125070   1.763   1.850   6.665  0.5019 -0.1937 -0.3497
 4537SOL    HW225071   1.809   1.722   6.714 -0.5457  2.1292  3.6139
 4538SOL     OW25072   3.027   4.264   1.723  0.5768 -0.5739 -0.0310
 4538SOL    HW125073   3.054   4.345   1.768 -0.7182  0.4271 -1.0686
 4538SOL    HW225074   2.934   4.281   1.711  0.8740  0.4890 -0.8622
 4539SOL     OW25075   1.177   0.156   3.347 -0.4596  0.1085  0.2002
 4539SOL    HW125076   1.192   0.109   3.430 -1.3647  1.6537  1.2433
 4539SOL    HW225077   1.241   0.112   3.292  1.4044  0.4175  2.0814
 4540SOL     OW25078   3.686   2.846  12.989  0.2449 -0.2083 -0.2290
 4540SOL    HW125079   3.683   2.941  12.980 -0.7967 -0.1461  0.8341
 4540SOL    HW225080   3.632   2.810  12.918  0.0700 -1.7578  0.6780
 4541SOL     OW25081   2.033   2.043   3.189  0.0075  0.1249 -0.2642
 4541SOL    HW125082   1.959   2.057   3.248 -0.3211 -0.7775 -0.4528
 4541SOL    HW225083   1.988   1.987   3.125  0.5504  0.6238 -1.0786
 4542SOL     OW25084   4.483   1.185   2.155 -0.6509 -0.0097 -0.7178
 4542SOL    HW125085   4.449   1.095   2.163 -2.5938  0.7031 -1.0472
 4542SOL    HW225086   4.455   1.195   2.064  1.7090  1.4969 -1.2657
 4543SOL     OW25087   2.898   2.344   4.385  0.0030 -0.0542  0.4721
 4543SOL    HW125088   2.841   2.315   4.314 -2.6742  1.2455  2.1191
 4543SOL    HW225089   2.983   2.306   4.359 -0.0299  0.7944 -0.8677
 4544SOL     OW25090   0.758   2.239   0.050  0.3787  0.2958 -0.5440
 4544SOL    HW125091   0.797   2.223   0.136 -0.4676 -1.4790 -0.4987
 4544SOL    HW225092   0.719   2.326   0.063 -0.2164  0.0311 -0.5532
 4545SOL     OW25093   4.317   3.679   1.883  0.4016 -0.0748 -0.1845
 4545SOL    HW125094   4.323   3.658   1.976  1.4530  0.1679 -0.1924
 4545SOL    HW225095   4.241   3.636   1.845  0.1928  0.8637 -0.8419
 4546SOL     OW25096   0.720   1.445  12.575 -0.0415 -0.5932 -0.3260
 4546SOL    HW125097   0.710   1.352  12.595  0.5767 -0.1909  1.9438
 4546SOL    HW225098   0.797   1.451  12.520 -0.8491  0.0974 -1.3947
 4547SOL     OW25099   1.993   0.158   0.397 -0.2319 -0.2601 -0.4910
 4547SOL    HW125100   2.002   0.226   0.464 -1.7131 -0.3565 -0.2084
 4547SOL    HW225101   1.899   0.167   0.381 -0.7072 -0.2249  2.4545
 4548SOL     OW25102   2.007   3.653   2.924 -0.0031 -0.3776 -0.3988
 4548SOL    HW125103   1.999   3.580   2.863 -1.4812 -1.0127  0.5444
 4548SOL    HW225104   2.066   3.713   2.879  1.5140 -2.6409 -1.4105
 4549SOL     OW25105   3.566   2.100   7.271  0.8885  0.0625  0.1017
 4549SOL    HW125106   3.520   2.067   7.194  2.2463  1.0625 -1.1226
 4549SOL    HW225107   3.526   2.186   7.271  0.1859 -0.2629  0.4158
 4550SOL     OW25108   0.396   2.865  17.050  0.2247  0.0211  0.1521
 4550SOL    HW125109   0.351   2.880  16.967  0.0586 -0.0081  0.2369
 4550SOL    HW225110   0.486   2.887  17.025  0.0136  0.4677 -0.2040
 4551SOL     OW25111   0.747   1.681   1.842 -0.1228 -0.4042  0.0821
 4551SOL    HW125112   0.825   1.638   1.877 -0.2488 -0.7440 -0.0595
 4551SOL    HW225113   0.753   1.774   1.867 -1.5173 -0.0958 -0.7238
 4552SOL     OW25114   2.994   2.419   8.209  0.0087 -0.3097 -0.3505
 4552SOL    HW125115   2.965   2.498   8.162  0.1638 -0.2189 -0.2935
 4552SOL    HW225116   2.959   2.355   8.148 -3.0019  2.8071 -1.9178
 4553SOL     OW25117   1.362   2.529   6.103 -0.2494 -0.0629  0.5701
 4553SOL    HW125118   1.439   2.500   6.056  0.1109  1.9714 -0.0937
 4553SOL    HW225119   1.399   2.533   6.192 -1.7567 -0.4320  1.2180
 4554SOL     OW25120   3.240   1.716   6.455 -0.1878 -1.2047 -0.4117
 4554SOL    HW125121   3.267   1.807   6.452  1.2448 -1.5993  0.6305
 4554SOL    HW225122   3.160   1.723   6.508  0.2523  0.4911  0.0078
 4555SOL     OW25123   4.257   0.129   1.929  0.1233  0.2474 -0.7029
 4555SOL    HW125124   4.200   0.146   1.854  1.0464  1.1018 -1.2080
 4555SOL    HW225125   4.211   0.051   1.962 -1.6947  0.4826 -2.6212
 4556SOL     OW25126   3.255   3.586  15.891 -0.2368 -0.5019  0.5910
 4556SOL    HW125127   3.244   3.547  15.804 -2.4163  0.0695  0.6000
 4556SOL    HW225128   3.221   3.672  15.864  0.1008 -0.5686 -0.0529
 4557SOL     OW25129   3.615   4.487   3.822  0.5637 -0.0003 -0.4283
 4557SOL    HW125130   3.688   4.485   3.883  1.3622 -1.0051 -1.4081
 4557SOL    HW225131   3.668   4.461   3.746 -0.8533 -3.6734 -0.1816
 4558SOL     OW25132   0.752   4.154   4.851  0.3424 -0.6728  0.1675
 4558SOL    HW125133   0.679   4.094   4.840  1.0996 -1.2248 -1.8379
 4558SOL    HW225134   0.821   4.091   4.830  1.1550 -0.0098  0.8271
 4559SOL     OW25135   3.866   3.644   6.301  0.4350 -0.9602  0.3812
 4559SOL    HW125136   3.806   3.711   6.333  1.2774 -0.7929  1.5853
 4559SOL    HW225137   3.935   3.700   6.265 -0.8800 -0.4036 -1.2510
 4560SOL     OW25138   3.900   2.478   9.390  0.0754  0.2877  1.0654
 4560SOL    HW125139   3.933   2.492   9.479 -0.3468 -2.2912  1.6104
 4560SOL    HW225140   3.973   2.430   9.352  1.7527  2.8288  1.0631
 4561SOL     OW25141   1.086   3.317   1.480  0.3757  0.4834  0.4941
 4561SOL    HW125142   1.098   3.384   1.413 -0.3835 -0.4961 -0.6235
 4561SOL    HW225143   1.017   3.361   1.532 -0.4562  0.8444 -0.9245
 4562SOL     OW25144   2.047   1.378   1.740 -0.3339  0.2169 -0.0230
 4562SOL    HW125145   2.069   1.385   1.647 -1.2888 -0.9919 -0.3304
 4562SOL    HW225146   2.036   1.284   1.753  0.1708  0.0785 -0.5443
 4563SOL     OW25147   1.189   3.414   2.774 -0.2253 -0.2969 -0.3577
 4563SOL    HW125148   1.093   3.407   2.771 -0.2632  0.0996  0.1401
 4563SOL    HW225149   1.208   3.452   2.859  1.6678  0.8093 -1.2846
 4564SOL     OW25150   0.201   3.518  16.338 -0.1431 -0.0650 -0.1624
 4564SOL    HW125151   0.240   3.603  16.359 -0.5206 -0.4470  2.1043
 4564SOL    HW225152   0.140   3.543  16.270  0.4585 -3.1733 -1.8529
 4565SOL     OW25153   0.818   3.187   6.593 -0.0733  0.2655 -0.7741
 4565SOL    HW125154   0.835   3.215   6.503  0.4220  0.8986 -0.4875
 4565SOL    HW225155   0.887   3.127   6.623 -1.4282 -1.1189 -0.4582
 4566SOL     OW25156   1.451   3.484   7.764  0.1313  0.1687  0.3904
 4566SOL    HW125157   1.520   3.464   7.827  0.7954  0.6196 -0.1893
 4566SOL    HW225158   1.445   3.579   7.749 -2.3928 -0.2923 -1.4763
 4567SOL     OW25159   0.885   4.485  14.957 -0.4886 -0.0406 -0.1180
 4567SOL    HW125160   0.862   4.393  14.950 -0.8819  0.4010 -4.2046
 4567SOL    HW225161   0.912   4.483  15.049  1.0234  0.6208 -0.5506
 4568SOL     OW25162   3.545   1.035   4.130  0.2353 -0.4573  0.4588
 4568SOL    HW125163   3.472   0.973   4.140 -0.9255  1.0964  1.4793
 4568SOL    HW225164   3.500   1.104   4.082  2.9216 -0.9407 -2.7725
 4569SOL     OW25165   3.523   3.260   6.317 -0.4858 -0.0573 -0.3221
 4569SOL    HW125166   3.473   3.341   6.313 -1.7663 -0.8384 -0.0973
 4569SOL    HW225167   3.610   3.295   6.340  0.5965 -1.6982 -1.9578
 4570SOL     OW25168   0.171   1.350  10.002 -0.1569 -0.6226  0.6044
 4570SOL    HW125169   0.202   1.437   9.976 -0.2757 -0.5094  0.8404
 4570SOL    HW225170   0.242   1.291   9.977 -0.2908 -0.2869 -0.5667
 4571SOL     OW25171   0.679   3.957   7.765  0.0685 -0.5393 -0.1823
 4571SOL    HW125172   0.708   4.042   7.731 -0.8920  0.2921  1.0986
 4571SOL    HW225173   0.631   3.922   7.690  4.7516 -2.5014 -2.2578
 4572SOL     OW25174   2.305   2.530   4.220  0.5057  0.5108 -0.0689
 4572SOL    HW125175   2.385   2.501   4.262  0.1016 -0.0567  0.3097
 4572SOL    HW225176   2.235   2.473   4.254  1.4587  0.5554  1.9728
 4573SOL     OW25177   0.830   1.452   0.500 -0.2241 -0.2714  0.4717
 4573SOL    HW125178   0.827   1.413   0.587 -0.1326  1.0644  1.0711
 4573SOL    HW225179   0.755   1.509   0.488 -0.4922 -0.4805  1.1785
 4574SOL     OW25180   3.106   0.883   8.406  0.3356  0.7695 -0.1854
 4574SOL    HW125181   3.112   0.890   8.501  2.7668 -0.7981 -0.2144
 4574SOL    HW225182   3.183   0.830   8.384  0.8008  1.9016 -1.2948
 4575SOL     OW25183   4.260   0.149   4.276 -0.3357  0.3819  0.4630
 4575SOL    HW125184   4.277   0.189   4.190 -0.6926  0.9674  0.6657
 4575SOL    HW225185   4.173   0.186   4.291  0.0567  1.7695 -0.7429
 4576SOL     OW25186   1.287   2.888   6.611 -0.0916  0.2408 -0.1735
 4576SOL    HW125187   1.226   2.838   6.557 -0.6196  1.0653 -0.3421
 4576SOL    HW225188   1.373   2.878   6.571 -0.3727  0.2918 -0.7799
 4577SOL     OW25189   3.545   1.484   5.564 -0.4314 -0.2583  0.2573
 4577SOL    HW125190   3.491   1.485   5.643 -1.3435  1.0783 -0.3946
 4577SOL    HW225191   3.534   1.390   5.550 -3.4321  0.0472  0.6458
 4578SOL     OW25192   4.440   2.968  15.195  0.9217  0.3321  0.4209
 4578SOL    HW125193   4.411   3.000  15.110  1.0639 -1.8738 -0.4568
 4578SOL    HW225194   4.405   2.879  15.191  0.6805  0.4657 -0.4116
 4579SOL     OW25195   4.170   2.465   6.001 -0.4393  0.7289  0.3343
 4579SOL    HW125196   4.092   2.428   5.959  0.2051  0.6693 -0.7898
 4579SOL    HW225197   4.126   2.533   6.053  1.4852  2.7137 -0.6482
 4580SOL     OW25198   4.448   3.399  10.303 -0.1926 -0.4537 -0.1924
 4580SOL    HW125199   4.353   3.397  10.319 -0.4480  0.3397 -1.5691
 4580SOL    HW225200   4.463   3.487  10.270 -1.9551  0.1623  0.6300
 4581SOL     OW25201   4.195   2.271  10.795  0.2521 -0.0727 -0.5088
 4581SOL    HW125202   4.119   2.291  10.740  1.4267  0.0551 -2.0769
 4581SOL    HW225203   4.241   2.355  10.805  0.5385 -0.3567  0.5504
 4582SOL     OW25204   2.093   2.950   8.001  0.6266 -0.2167  0.2398
 4582SOL    HW125205   2.005   2.912   7.995  0.3195  0.2082  1.9300
 4582SOL    HW225206   2.072   3.024   8.059 -0.8238  0.6367 -1.4031
 4583SOL     OW25207   1.878   0.640   3.920  0.6213  0.0729 -0.1263
 4583SOL    HW125208   1.872   0.677   3.832  2.0667 -1.1297 -0.7254
 4583SOL    HW225209   1.805   0.578   3.924  1.4506 -0.9504 -0.7650
 4584SOL     OW25210   1.592   4.277  11.661  0.0112  0.2352 -0.0859
 4584SOL    HW125211   1.587   4.181  11.659  0.5917  0.1635  3.0893
 4584SOL    HW225212   1.576   4.293  11.568  1.2024 -2.1935 -0.7262
 4585SOL     OW25213   3.798   1.907   3.419  0.4709  0.2730 -0.3524
 4585SOL    HW125214   3.877   1.909   3.366  2.0752  1.0025  2.0668
 4585SOL    HW225215   3.731   1.946   3.363 -0.9487  0.0440  1.1877
 4586SOL     OW25216   2.681   0.627  10.640  0.0664 -0.0906  0.1439
 4586SOL    HW125217   2.676   0.635  10.736 -0.9041 -1.4859  0.2112
 4586SOL    HW225218   2.624   0.552  10.626 -0.3424  0.1785  0.3891
 4587SOL     OW25219   2.802   3.020  12.566  0.1700  0.3086  0.2495
 4587SOL    HW125220   2.788   3.106  12.606 -0.7538  1.4961 -2.5945
 4587SOL    HW225221   2.724   2.975  12.598  0.2096  1.1926  1.5673
 4588SOL     OW25222   0.753   0.590   7.859  0.1764  0.1508  0.0962
 4588SOL    HW125223   0.756   0.510   7.806 -0.9549 -0.1567  0.5048
 4588SOL    HW225224   0.840   0.630   7.855  1.4192 -2.4683  0.8342
 4589SOL     OW25225   2.489   4.410   8.579  0.2661  0.1661  0.1886
 4589SOL    HW125226   2.583   4.403   8.597  0.3538 -1.3631 -0.9014
 4589SOL    HW225227   2.450   4.364   8.653 -1.5087  0.2579 -0.6875
 4590SOL     OW25228   2.047   0.224   0.126 -0.2472 -0.5887 -0.7051
 4590SOL    HW125229   1.971   0.279   0.146  1.2723  1.5927 -0.9229
 4590SOL    HW225230   2.059   0.187   0.214  4.4151  1.7538 -0.3942
 4591SOL     OW25231   0.039   2.784   5.145  0.3022  0.0584  0.2738
 4591SOL    HW125232   4.721   2.799   5.231  1.1627  2.3239  0.2700
 4591SOL    HW225233   4.690   2.740   5.096  1.0391 -0.7872 -0.0305
 4592SOL     OW25234   4.270   2.265  16.012 -0.0306 -0.1613 -0.1771
 4592SOL    HW125235   4.253   2.207  15.938 -1.7561  0.9338 -0.6399
 4592SOL    HW225236   4.186   2.304  16.035  0.5533  1.3553 -0.6558
 4593SOL     OW25237   2.503   4.642   1.875 -0.0252 -0.2844  0.3429
 4593SOL    HW125238   2.507   4.569   1.814 -0.9345 -1.7352  2.0087
 4593SOL    HW225239   2.437   4.694   1.829 -1.8399 -0.5337  2.6770
 4594SOL     OW25240   3.400   0.136   2.204  0.6049 -0.8414  0.1508
 4594SOL    HW125241   3.321   0.189   2.204  1.8844  1.0471 -0.0689
 4594SOL    HW225242   3.414   0.136   2.109  1.0729  0.5926  0.2194
 4595SOL     OW25243   1.739   4.461  13.936 -0.2461 -0.0788  0.3678
 4595SOL    HW125244   1.680   4.416  13.996 -0.2313  0.8697  1.0880
 4595SOL    HW225245   1.707   4.459  13.846  0.7825 -0.9555  0.0227
 4596SOL     OW25246   2.975   3.876   6.230 -0.5073 -0.4482 -0.2418
 4596SOL    HW125247   2.948   3.908   6.316  0.8234  3.2902 -1.2282
 4596SOL    HW225248   2.928   3.944   6.181  2.0789  1.8158  0.4272
 4597SOL     OW25249   0.524   3.279   9.878 -0.2079  0.0338 -0.1603
 4597SOL    HW125250   0.489   3.207   9.930 -0.8697 -1.2872 -2.4247
 4597SOL    HW225251   0.521   3.352   9.940 -2.8956 -0.5266  0.3702
 4598SOL     OW25252   4.127   2.071   8.850 -0.3611 -0.0690 -0.8929
 4598SOL    HW125253   4.161   2.101   8.765 -0.0007 -0.7805 -1.0023
 4598SOL    HW225254   4.103   1.989   8.806 -1.3224 -0.5471  0.5482
 4599SOL     OW25255   3.456   0.901   5.681 -0.0038 -0.1032 -0.0818
 4599SOL    HW125256   3.464   0.888   5.586 -0.1757  0.6576 -0.1965
 4599SOL    HW225257   3.368   0.865   5.692  1.4085 -2.8073  2.2339
 4600SOL     OW25258   1.768   4.580  15.558 -0.1924  0.2023  0.6601
 4600SOL    HW125259   1.784   4.614  15.646  1.1763  1.7322 -0.1655
 4600SOL    HW225260   1.774   4.660  15.505 -2.5362 -1.0316 -1.5048
 4601SOL     OW25261   1.654   2.098   2.886  0.6194 -0.1334 -0.0854
 4601SOL    HW125262   1.700   2.174   2.921  1.6434  0.0049 -1.6831
 4601SOL    HW225263   1.567   2.131   2.864  0.3906  0.0515  1.1021
 4602SOL     OW25264   1.468   2.951  15.555 -0.4073  0.0902  0.4316
 4602SOL    HW125265   1.509   2.872  15.589 -0.1604 -0.0762 -0.2520
 4602SOL    HW225266   1.537   2.983  15.497  0.0710  1.3279  1.6869
 4603SOL     OW25267   4.262   0.803  13.309 -0.2107 -0.0445 -0.6038
 4603SOL    HW125268   4.271   0.837  13.398 -0.3815 -3.4329  0.7048
 4603SOL    HW225269   4.311   0.870  13.262 -2.4502  0.9580 -1.4847
 4604SOL     OW25270   2.870   3.144   3.417  0.4331 -0.5652 -0.0203
 4604SOL    HW125271   2.787   3.191   3.405  0.9802  0.4667  0.2252
 4604SOL    HW225272   2.873   3.142   3.512  2.3306 -0.1986 -0.0656
 4605SOL     OW25273   1.131   3.714  14.873 -0.1926 -0.0410 -0.2944
 4605SOL    HW125274   1.136   3.770  14.796  0.1291  0.0905 -0.1786
 4605SOL    HW225275   1.036   3.705  14.888 -0.2161 -0.1471 -0.5018
 4606SOL     OW25276   0.628   3.915   7.067  0.2750  0.4441 -0.0691
 4606SOL    HW125277   0.700   3.855   7.049  0.3166  0.9458 -1.5325
 4606SOL    HW225278   0.657   3.992   7.020 -1.7752  0.5834 -1.1036
 4607SOL     OW25279   4.114   2.944   0.832 -0.0696  0.0662  0.5490
 4607SOL    HW125280   4.092   2.905   0.747  0.7075 -0.5585  0.6392
 4607SOL    HW225281   4.027   2.964   0.867  0.9412 -0.7003  3.4394
 4608SOL     OW25282   3.641   1.995   8.683 -0.0042  0.0460  0.2978
 4608SOL    HW125283   3.593   1.946   8.616  1.0020 -1.3388  0.5808
 4608SOL    HW225284   3.720   1.941   8.685  0.1474  0.3380  2.3462
 4609SOL     OW25285   1.103   1.292   2.950  0.3384 -0.2566  0.1684
 4609SOL    HW125286   1.063   1.334   2.873  1.4103  0.0676 -0.2102
 4609SOL    HW225287   1.028   1.312   3.007 -0.4830 -0.1188 -0.9504
 4610SOL     OW25288   2.043   0.523  10.077  0.6625 -0.1978  0.2035
 4610SOL    HW125289   1.992   0.538  10.156  3.2711  0.3203  1.7817
 4610SOL    HW225290   2.076   0.434  10.083 -0.9710 -0.7189  1.5963
 4611SOL     OW25291   0.625   0.042   5.875 -0.1596 -0.3063 -0.0106
 4611SOL    HW125292   0.680   4.693   5.908 -0.5688 -0.4598  0.3510
 4611SOL    HW225293   0.671   0.070   5.796 -2.1819 -0.5435 -1.2562
 4612SOL     OW25294   1.109   1.862   8.230 -0.5472 -0.2380 -0.1744
 4612SOL    HW125295   1.108   1.947   8.187 -0.2428 -0.6654 -1.0397
 4612SOL    HW225296   1.047   1.812   8.177 -1.6175  2.0725 -1.0940
 4613SOL     OW25297   3.911   1.835   3.669  0.1135  0.0012 -0.1025
 4613SOL    HW125298   3.907   1.741   3.683  0.6844 -0.1490 -0.8846
 4613SOL    HW225299   3.869   1.847   3.583 -0.0169  0.8044  0.0719
 4614SOL     OW25300   2.842   1.417   2.586 -0.0322  0.1513 -0.7176
 4614SOL    HW125301   2.792   1.381   2.660  0.6476 -0.4509 -0.5550
 4614SOL    HW225302   2.828   1.352   2.518  4.2330 -1.0458 -0.4489
 4615SOL     OW25303   3.650   1.528   2.745 -0.3825 -0.4336 -0.4080
 4615SOL    HW125304   3.662   1.614   2.785 -3.6630 -0.6568  1.0568
 4615SOL    HW225305   3.616   1.543   2.657 -1.3909 -0.5589 -0.0375
 4616SOL     OW25306   1.194   2.052  11.208 -0.0749 -0.0625  0.2027
 4616SOL    HW125307   1.103   2.081  11.213 -0.7458 -1.8200 -1.9064
 4616SOL    HW225308   1.183   1.959  11.187 -0.6136  0.5094 -2.0745
 4617SOL     OW25309   4.339   3.338  13.238 -0.2909 -0.4822  0.5709
 4617SOL    HW125310   4.282   3.411  13.261  2.1254  1.4992  0.2661
 4617SOL    HW225311   4.387   3.324  13.320  1.7165  0.7989 -0.3872
 4618SOL     OW25312   0.193   4.386   2.956 -0.1394 -0.0826 -0.0257
 4618SOL    HW125313   0.192   4.352   2.867  0.5676  1.2753 -0.5582
 4618SOL    HW225314   0.283   4.416   2.969 -0.9656  2.0698  0.7340
 4619SOL     OW25315   4.259   4.312  10.082  0.1170 -0.3353  0.0805
 4619SOL    HW125316   4.307   4.265  10.014  0.4974  0.0094  0.1164
 4619SOL    HW225317   4.184   4.342  10.030 -0.1862  2.3306  2.0495
 4620SOL     OW25318   2.968   0.073  11.902 -0.1544  0.2032 -0.4227
 4620SOL    HW125319   3.050   0.106  11.864  0.5014 -1.8875 -0.8142
 4620SOL    HW225320   2.942   0.012  11.833  1.8140 -0.1506 -0.8746
 4621SOL     OW25321   0.941   3.822   2.001  0.1368 -0.1583  0.4911
 4621SOL    HW125322   0.914   3.895   2.056  0.7809 -1.2966  2.3060
 4621SOL    HW225323   0.855   3.780   1.994 -0.2092  0.5201  0.6020
 4622SOL     OW25324   4.131   1.869  16.984 -0.3397  0.0586 -0.1018
 4622SOL    HW125325   4.058   1.826  17.030 -0.0647  0.0485  0.3294
 4622SOL    HW225326   4.088   1.885  16.900 -0.9242  2.9445  0.7470
 4623SOL     OW25327   3.109   4.166   7.942 -0.6519  0.2912 -0.4968
 4623SOL    HW125328   3.041   4.100   7.929  0.3842 -1.2820  2.1458
 4623SOL    HW225329   3.050   4.234   7.976  0.0734  1.6027 -1.8950
 4624SOL     OW25330   0.097   1.805   4.240 -0.4083  0.2380 -0.5495
 4624SOL    HW125331   0.013   1.851   4.230 -0.6493  0.6572  3.1346
 4624SOL    HW225332   0.073   1.774   4.327 -1.8465  0.8482 -0.7275
 4625SOL     OW25333   0.109   1.077   2.012  0.2448 -0.0374 -0.0552
 4625SOL    HW125334   0.114   0.984   2.036  2.2569  0.6553  2.2879
 4625SOL    HW225335   0.080   1.082   1.921  0.7740  1.8845 -0.1156
 4626SOL     OW25336   0.846   1.993  11.873  0.2990 -0.3095 -0.2667
 4626SOL    HW125337   0.798   2.057  11.926  0.7578 -1.3491  1.3840
 4626SOL    HW225338   0.894   2.052  11.815  1.2939 -0.6945  0.1682
 4627SOL     OW25339   2.681   2.725   9.290  0.0386 -0.2693  0.2781
 4627SOL    HW125340   2.667   2.735   9.196 -0.2807  0.8843  0.4532
 4627SOL    HW225341   2.702   2.813   9.321 -0.0048  0.3757 -1.5035
 4628SOL     OW25342   0.620   2.583   4.646 -0.1559  0.4772 -0.1205
 4628SOL    HW125343   0.635   2.496   4.610 -1.2664 -0.6216  2.0485
 4628SOL    HW225344   0.589   2.556   4.733  2.0820 -2.3875 -0.2010
 4629SOL     OW25345   2.556   2.913   4.058 -0.2582 -0.4115  0.3849
 4629SOL    HW125346   2.501   2.860   4.116 -0.7442  1.4290  1.6117
 4629SOL    HW225347   2.562   2.857   3.980 -0.5895 -0.7389  0.5938
 4630SOL     OW25348   0.950   2.358  16.784 -0.3309 -0.4113  0.0986
 4630SOL    HW125349   0.865   2.400  16.800  0.0353  0.8781 -1.2830
 4630SOL    HW225350   1.012   2.422  16.819 -2.0915  0.1857  2.1818
 4631SOL     OW25351   2.948   2.491   0.940 -0.8486  0.1742  0.1846
 4631SOL    HW125352   3.041   2.465   0.936 -0.7919  0.4595 -0.3729
 4631SOL    HW225353   2.934   2.537   1.022 -1.3398  0.7743 -0.2455
 4632SOL     OW25354   0.459   3.057   4.841 -0.1148  0.3828 -0.3591
 4632SOL    HW125355   0.379   3.093   4.802 -0.9044 -1.1581 -0.1446
 4632SOL    HW225356   0.487   2.993   4.775 -0.5107 -0.4615  0.2909
 4633SOL     OW25357   2.874   0.739  10.113  0.3512  0.2852 -0.1012
 4633SOL    HW125358   2.836   0.651  10.106  1.5463 -0.3083  0.9939
 4633SOL    HW225359   2.843   0.762  10.200 -1.0170  0.5006 -0.6505
 4634SOL     OW25360   1.510   0.884   9.933  0.2583  0.2611 -0.4330
 4634SOL    HW125361   1.520   0.790   9.950 -0.0555 -0.1268 -2.4695
 4634SOL    HW225362   1.421   0.896   9.967 -0.8401  3.1435 -4.3819
 4635SOL     OW25363   0.534   1.584   2.583  0.6778 -0.1357 -0.0622
 4635SOL    HW125364   0.479   1.654   2.550  0.0094 -0.4508  0.3719
 4635SOL    HW225365   0.594   1.576   2.509 -1.5714 -0.8095 -1.7921
 4636SOL     OW25366   0.969   2.140  17.107  0.3980 -0.4773 -0.0145
 4636SOL    HW125367   0.950   2.093  17.188 -1.4280 -0.4765 -0.4502
 4636SOL    HW225368   0.957   2.227  17.144  0.5431 -1.1646  1.6735
 4637SOL     OW25369   1.107   4.222   8.852  0.0727  0.4761  0.0020
 4637SOL    HW125370   1.030   4.253   8.805  1.0630  2.3850 -0.3214
 4637SOL    HW225371   1.178   4.240   8.791  1.6776 -1.1791  1.3763
 4638SOL     OW25372   2.783   2.465   6.569 -0.0135  0.2857 -0.0803
 4638SOL    HW125373   2.773   2.459   6.664  0.0171  0.8836 -0.0374
 4638SOL    HW225374   2.824   2.552   6.573 -0.2986  0.4642 -0.9117
 4639SOL     OW25375   0.676   0.941  10.318  0.3838 -0.3936  0.2910
 4639SOL    HW125376   0.612   0.985  10.262  0.7063 -1.0053 -0.5579
 4639SOL    HW225377   0.608   0.899  10.369 -0.8465  0.1400 -0.9129
 4640SOL     OW25378   0.204   3.124   9.218 -0.5559 -0.4216 -0.1531
 4640SOL    HW125379   0.226   3.217   9.211  0.2588 -0.6610 -0.7159
 4640SOL    HW225380   0.215   3.087   9.130 -0.0131  1.0458 -0.6967
 4641SOL     OW25381   4.432   2.853  10.923 -0.1270 -0.0565  0.2906
 4641SOL    HW125382   4.496   2.842  10.994 -1.4041  0.8725  1.5753
 4641SOL    HW225383   4.464   2.783  10.865 -0.6446 -0.6632  0.7346
 4642SOL     OW25384   3.400   1.370   4.401 -0.1706 -0.0914 -0.1098
 4642SOL    HW125385   3.397   1.444   4.462  1.4632  1.7645 -2.3162
 4642SOL    HW225386   3.495   1.364   4.386  0.1756  1.8294  1.2357
 4643SOL     OW25387   1.110   4.353   2.224 -0.9753  0.0191 -0.1980
 4643SOL    HW125388   1.113   4.284   2.291  1.0000  1.7744  1.5557
 4643SOL    HW225389   1.036   4.324   2.172 -0.0303  0.3362 -1.7296
 4644SOL     OW25390   2.838   2.990   1.707 -0.1262  0.2727 -0.2282
 4644SOL    HW125391   2.895   3.013   1.780  1.4277 -2.2770 -0.6426
 4644SOL    HW225392   2.797   3.073   1.681  0.1928  1.1274  1.9267
 4645SOL     OW25393   0.825   4.296   9.058  0.4985  0.1102 -0.2211
 4645SOL    HW125394   0.867   4.369   9.013  1.3635 -0.1675  0.1361
 4645SOL    HW225395   0.744   4.337   9.086 -0.0714 -0.1089 -1.5192
 4646SOL     OW25396   2.592   4.243   7.152 -0.5766 -0.6013 -0.4765
 4646SOL    HW125397   2.517   4.280   7.200 -0.7850 -1.2703 -0.2820
 4646SOL    HW225398   2.588   4.148   7.166 -0.3741 -0.5355  0.0447
 4647SOL     OW25399   4.512   2.260   1.940  0.9185  0.2307 -0.5893
 4647SOL    HW125400   4.551   2.198   2.001  0.8457  0.9239  0.1564
 4647SOL    HW225401   4.553   2.228   1.859  1.4661 -0.2065 -0.1440
 4648SOL     OW25402   0.048   4.350  10.219  0.0203  0.2486 -0.0394
 4648SOL    HW125403   0.089   4.318  10.139  1.2117  1.6138  0.0241
 4648SOL    HW225404   4.692   4.294  10.221  0.3232 -0.2639 -2.3297
 4649SOL     OW25405   4.411   1.703  11.890  0.1997 -0.3520  0.2869
 4649SOL    HW125406   4.332   1.689  11.943  1.4051 -0.5026  2.0262
 4649SOL    HW225407   4.378   1.699  11.800 -1.0584 -0.4964  0.7483
 4650SOL     OW25408   4.052   0.376   6.305 -0.3499 -0.4230 -0.0777
 4650SOL    HW125409   4.036   0.290   6.344 -0.6619 -1.5602 -2.7195
 4650SOL    HW225410   4.118   0.356   6.238 -0.0996 -1.8446  0.5938
 4651SOL     OW25411   4.194   2.627   5.760  0.5339  0.0466  0.0097
 4651SOL    HW125412   4.145   2.692   5.708  1.1237  0.6901  0.2599
 4651SOL    HW225413   4.207   2.688   5.833  2.1254 -0.1790 -0.0854
 4652SOL     OW25414   0.652   3.629   5.714 -0.1244 -0.1369 -0.4786
 4652SOL    HW125415   0.679   3.721   5.711  0.9938 -0.3503  2.4127
 4652SOL    HW225416   0.686   3.595   5.797  0.5580  3.3730  0.6829
 4653SOL     OW25417   1.894   0.817   1.024 -0.8711 -0.6318  0.0772
 4653SOL    HW125418   1.945   0.759   0.968 -1.2741 -1.1697  0.2701
 4653SOL    HW225419   1.819   0.759   1.036 -1.0087 -0.9718 -2.5512
 4654SOL     OW25420   2.794   3.270   1.660 -0.1305  0.6349  0.2781
 4654SOL    HW125421   2.861   3.317   1.709  0.2983  0.6007 -0.2770
 4654SOL    HW225422   2.731   3.262   1.732  0.2354 -2.3831  0.2757
 4655SOL     OW25423   1.606   2.467   5.965  0.2101 -0.3325  0.0984
 4655SOL    HW125424   1.698   2.440   5.969  0.7234  1.3473 -0.4809
 4655SOL    HW225425   1.604   2.499   5.875 -1.3054 -1.8341 -0.4089
 4656SOL     OW25426   3.782   4.583   4.840  0.4235 -0.3501  0.6960
 4656SOL    HW125427   3.750   4.510   4.894 -1.4725  0.5873  0.8190
 4656SOL    HW225428   3.719   4.651   4.864 -0.0635 -0.0541 -1.4352
 4657SOL     OW25429   0.349   1.452   5.702  0.6109 -0.0609  0.1052
 4657SOL    HW125430   0.388   1.449   5.614  0.6237  0.4352  0.0940
 4657SOL    HW225431   0.423   1.470   5.760  1.0985  1.3433 -0.9485
 4658SOL     OW25432   2.821   1.107   6.640  0.0967 -0.0385 -0.6669
 4658SOL    HW125433   2.751   1.161   6.603 -0.4622  0.3654  0.9605
 4658SOL    HW225434   2.810   1.113   6.735  0.6803 -0.5496 -0.5720
 4659SOL     OW25435   4.416   2.664   1.745  0.0437 -0.8341  0.1671
 4659SOL    HW125436   4.398   2.644   1.837 -0.4510  3.1557  0.9128
 4659SOL    HW225437   4.509   2.686   1.752 -0.6409  2.3491 -0.9862
 4660SOL     OW25438   1.556   0.202   8.317 -0.4644  0.6563 -0.7632
 4660SOL    HW125439   1.582   0.289   8.287 -0.1626  1.6629  2.4189
 4660SOL    HW225440   1.634   0.187   8.371 -1.0583  1.5610  0.3402
 4661SOL     OW25441   1.355   2.994   3.355 -0.4578  0.0331  0.2973
 4661SOL    HW125442   1.263   2.980   3.332 -1.1707  3.7130  0.9224
 4661SOL    HW225443   1.371   3.088   3.351 -1.6291  0.2298  0.3173
 4662SOL     OW25444   1.156   4.395   4.758 -0.2879 -0.2681 -0.4782
 4662SOL    HW125445   1.066   4.423   4.774 -0.2825 -1.8399  2.2471
 4662SOL    HW225446   1.152   4.306   4.793  0.4832  0.1594  0.7204
 4663SOL     OW25447   4.366   4.596  14.626 -0.3904  0.1896  0.3739
 4663SOL    HW125448   4.440   4.574  14.683 -2.4341  0.8864  3.2654
 4663SOL    HW225449   4.410   4.613  14.542  0.5506  0.7205  0.9749
 4664SOL     OW25450   2.098   0.319   2.585  0.3407  0.0437  0.4880
 4664SOL    HW125451   2.019   0.363   2.616 -1.4435 -3.8182  1.4331
 4664SOL    HW225452   2.168   0.376   2.618  0.0148  0.8593 -0.2164
 4665SOL     OW25453   1.810   1.838   9.564  0.2728 -0.1378  0.7077
 4665SOL    HW125454   1.740   1.902   9.578 -0.2943 -0.2398 -1.7295
 4665SOL    HW225455   1.755   1.775   9.518 -0.5091  0.2888  1.0502
 4666SOL     OW25456   0.243   0.096   2.443 -0.7865  0.1983 -0.0727
 4666SOL    HW125457   0.317   0.039   2.422  0.1548  1.4777 -0.2482
 4666SOL    HW225458   0.179   0.026   2.457  1.4092 -2.1327 -1.8756
 4667SOL     OW25459   3.323   0.377   3.025  0.2973  0.1902 -0.7168
 4667SOL    HW125460   3.293   0.360   2.936 -1.5383 -1.9338  0.3158
 4667SOL    HW225461   3.389   0.308   3.029 -2.0830 -1.9182  2.4938
 4668SOL     OW25462   3.141   4.346   8.207 -0.2915 -0.7986  0.2638
 4668SOL    HW125463   3.079   4.350   8.134 -1.7991  2.1326  1.7125
 4668SOL    HW225464   3.149   4.252   8.226 -1.3753 -0.4550  2.5252
 4669SOL     OW25465   2.677   0.698   8.061 -0.0933  0.5842  0.2289
 4669SOL    HW125466   2.656   0.619   8.111  0.9063 -0.9247 -1.7253
 4669SOL    HW225467   2.748   0.737   8.113 -0.7395 -0.0683  1.6121
 4670SOL     OW25468   0.829   3.474  15.976  0.1881  0.5440  0.0521
 4670SOL    HW125469   0.840   3.548  15.917 -0.4461  0.7808  0.2270
 4670SOL    HW225470   0.881   3.500  16.052 -2.6263  2.4532  1.3332
 4671SOL     OW25471   2.270   3.448   6.732  0.7947 -0.6060  0.6177
 4671SOL    HW125472   2.245   3.540   6.718  0.5192 -0.6763  0.6659
 4671SOL    HW225473   2.347   3.454   6.675 -0.4503 -0.6754 -1.0595
 4672SOL     OW25474   1.255   3.211   6.598 -0.9081  0.3242 -0.0348
 4672SOL    HW125475   1.295   3.184   6.516 -0.6895 -0.0839  0.2051
 4672SOL    HW225476   1.278   3.304   6.599  0.1328  0.0726 -0.4533
 4673SOL     OW25477   2.933   3.838   9.462  0.1792 -0.0582  0.2822
 4673SOL    HW125478   2.861   3.896   9.488 -0.3230 -0.8233  0.5653
 4673SOL    HW225479   2.995   3.902   9.425 -0.9795  0.6027 -0.5116
 4674SOL     OW25480   2.802   0.295   1.606 -0.3256  0.0558  0.2324
 4674SOL    HW125481   2.766   0.274   1.520 -0.4152 -0.3328  0.3644
 4674SOL    HW225482   2.887   0.331   1.581 -0.3123  0.3899  0.7592
 4675SOL     OW25483   2.318   0.266  13.380 -0.0685  0.0706  0.1383
 4675SOL    HW125484   2.325   0.229  13.292  1.5924 -2.6799  1.4315
 4675SOL    HW225485   2.225   0.290  13.376  1.0587  4.2685 -0.4958
 4676SOL     OW25486   3.898   4.354   6.289  0.3298  0.0049  0.5947
 4676SOL    HW125487   3.900   4.289   6.219 -1.6212  2.6194 -1.8530
 4676SOL    HW225488   3.877   4.303   6.368 -0.3363  0.3580  0.6469
 4677SOL     OW25489   0.163   1.881   3.719 -0.3151 -0.2265  0.3212
 4677SOL    HW125490   0.167   1.814   3.787 -3.5503  0.3862  1.1064
 4677SOL    HW225491   0.254   1.880   3.691 -0.4486  1.5253 -0.1975
 4678SOL     OW25492   1.222   2.363   1.455  0.7243 -0.3301 -0.1875
 4678SOL    HW125493   1.306   2.409   1.459  1.1152 -1.1648  1.5185
 4678SOL    HW225494   1.235   2.302   1.528  1.5894 -0.4299 -0.4282
 4679SOL     OW25495   2.369   2.104   4.024 -0.4436 -0.6247 -0.2828
 4679SOL    HW125496   2.281   2.140   4.034  0.0147  0.6531 -0.8398
 4679SOL    HW225497   2.375   2.060   4.109  0.6559  1.5272  0.7648
 4680SOL     OW25498   2.175   1.859   0.606  0.8563 -0.3192 -0.3092
 4680SOL    HW125499   2.165   1.829   0.697 -0.5187 -0.1829 -0.4086
 4680SOL    HW225500   2.265   1.836   0.586  1.2445  2.8405 -2.2269
 4681SOL     OW25501   4.083   4.428   6.761 -0.1639 -0.1189 -0.7512
 4681SOL    HW125502   4.062   4.359   6.698 -0.4132 -1.5995  0.9843
 4681SOL    HW225503   4.177   4.434   6.742 -0.2530  2.2031 -0.4124
 4682SOL     OW25504   1.705   3.951   2.187  0.0136 -0.1471  0.4549
 4682SOL    HW125505   1.620   3.945   2.143 -0.2042  1.4911  0.6759
 4682SOL    HW225506   1.684   3.943   2.280 -0.1083  1.9793  0.6026
 4683SOL     OW25507   0.361   3.467   2.111  0.1539  0.0904 -0.5868
 4683SOL    HW125508   0.409   3.492   2.032  1.1026 -0.0569 -0.0681
 4683SOL    HW225509   0.438   3.444   2.164 -1.5066 -1.2942  1.2427
 4684SOL     OW25510   0.939   0.753  13.154 -0.2801 -0.1256 -0.1067
 4684SOL    HW125511   0.846   0.775  13.153 -0.4885 -1.1125 -1.6272
 4684SOL    HW225512   0.959   0.739  13.247 -0.9060  2.0195  0.3573
 4685SOL     OW25513   1.189   1.745   3.725 -0.1444  0.8434 -0.3301
 4685SOL    HW125514   1.270   1.795   3.734  0.2755 -0.3062  2.1215
 4685SOL    HW225515   1.199   1.665   3.777  0.7569  0.8022 -0.5631
 4686SOL     OW25516   2.242   4.151   5.038  0.3350 -0.1023 -0.6648
 4686SOL    HW125517   2.198   4.132   5.121  0.3740 -1.6649 -0.9947
 4686SOL    HW225518   2.213   4.242   5.044  3.2898  0.7979 -0.4937
 4687SOL     OW25519   2.010   3.631   5.399 -0.0620 -0.1832  0.4253
 4687SOL    HW125520   1.932   3.639   5.344  2.4203  0.8349 -2.9836
 4687SOL    HW225521   2.067   3.619   5.323  0.2762  0.3243  0.6034
 4688SOL     OW25522   4.254   2.755   2.584 -0.3962 -0.0373 -0.0462
 4688SOL    HW125523   4.289   2.731   2.669 -1.4094 -1.9096 -0.1643
 4688SOL    HW225524   4.321   2.718   2.526 -0.1831  1.7552 -0.9642
 4689SOL     OW25525   3.027   4.262   2.201 -0.2654 -0.0182 -0.2570
 4689SOL    HW125526   3.017   4.214   2.283  0.6283 -0.6046 -0.4874
 4689SOL    HW225527   2.974   4.340   2.212  0.1422  0.3004 -0.5255
 4690SOL     OW25528   3.820   0.710  11.391  0.4103 -0.1608  0.0727
 4690SOL    HW125529   3.799   0.793  11.348 -2.5587 -0.0573  1.6978
 4690SOL    HW225530   3.754   0.658  11.344 -0.1008 -0.1782  0.8148
 4691SOL     OW25531   4.640   3.882   1.755  0.4276  0.4321 -0.0945
 4691SOL    HW125532   4.584   3.958   1.740  0.4824  0.5468  0.2932
 4691SOL    HW225533   4.697   3.908   1.827  3.2484 -1.4055 -1.6526
 4692SOL     OW25534   1.377   2.405   5.724 -0.2619  0.2643  0.2689
 4692SOL    HW125535   1.367   2.422   5.630 -0.2155 -2.6393 -0.2630
 4692SOL    HW225536   1.442   2.470   5.749  1.0531 -0.6878 -0.6687
 4693SOL     OW25537   3.016   3.381   7.692 -0.7020 -0.6424  0.0360
 4693SOL    HW125538   3.039   3.367   7.783  0.7575  2.0797  0.0881
 4693SOL    HW225539   3.099   3.417   7.660 -0.0736  0.0981  2.4890
 4694SOL     OW25540   4.524   2.097   6.825  0.1382  0.2487 -0.1314
 4694SOL    HW125541   4.481   2.071   6.743 -0.5658 -0.7213  0.5453
 4694SOL    HW225542   4.592   2.149   6.783  1.5830  0.4431  2.4666
 4695SOL     OW25543   0.009   3.995  10.001 -0.3261 -0.9585  0.8357
 4695SOL    HW125544   4.643   4.019   9.969  0.6623  1.1417 -0.2902
 4695SOL    HW225545   4.716   3.901   9.995 -2.8944 -0.4810 -0.4307
 4696SOL     OW25546   0.922   1.125   7.837  0.0462 -0.0451  0.2379
 4696SOL    HW125547   0.979   1.111   7.762  0.0852 -1.3323  0.5069
 4696SOL    HW225548   0.843   1.071   7.827 -0.4665  1.0086 -1.2688
 4697SOL     OW25549   4.523   0.536   5.310  0.0210  0.4471 -0.3346
 4697SOL    HW125550   4.588   0.585   5.362  0.1682 -0.5629  0.4247
 4697SOL    HW225551   4.555   0.543   5.220 -2.1698  2.2667 -0.9640
 4698SOL     OW25552   1.598   0.367   7.881 -0.1501  0.4044 -0.4788
 4698SOL    HW125553   1.611   0.306   7.809  0.4191  1.8178 -1.5605
 4698SOL    HW225554   1.663   0.433   7.859 -0.2037  0.8959  0.8488
 4699SOL     OW25555   2.945   1.397   5.097  0.1733 -0.7754  0.0637
 4699SOL    HW125556   3.007   1.389   5.169  1.6591  1.8953 -0.8910
 4699SOL    HW225557   2.860   1.385   5.138 -0.3020  1.8051 -0.1640
 4700SOL     OW25558   4.003   2.069  16.086  0.2239 -0.3917 -0.3579
 4700SOL    HW125559   4.074   2.050  16.024  1.3123  1.4727  0.3192
 4700SOL    HW225560   4.046   2.065  16.171 -1.2365 -2.3780  0.2959
 4701SOL     OW25561   1.408   3.183  10.304  0.2719 -0.0354 -0.1216
 4701SOL    HW125562   1.350   3.216  10.236 -1.5089  0.2701  1.5478
 4701SOL    HW225563   1.490   3.155  10.263  0.5973  1.2392 -0.3370
 4702SOL     OW25564   0.409   1.086   4.220 -0.0431 -0.3383 -0.2742
 4702SOL    HW125565   0.428   1.133   4.301 -0.7602 -1.3049  0.4617
 4702SOL    HW225566   0.314   1.098   4.211 -0.3804 -1.3767  1.9858
 4703SOL     OW25567   1.554   0.422   2.596 -0.0546 -0.3854 -0.7730
 4703SOL    HW125568   1.611   0.411   2.519 -0.1226  0.4040 -0.9374
 4703SOL    HW225569   1.473   0.416   2.545 -0.2631  0.1420 -0.5018
 4704SOL     OW25570   1.911   4.247   7.710 -0.7665 -0.1598 -0.9421
 4704SOL    HW125571   1.927   4.259   7.804 -2.0310  2.5942 -1.0750
 4704SOL    HW225572   1.969   4.171   7.706 -0.8448 -0.0933 -3.2691
 4705SOL     OW25573   0.466   0.130  14.566 -0.3100 -0.2529 -0.2351
 4705SOL    HW125574   0.445   0.037  14.568 -1.8388  0.1149  1.1057
 4705SOL    HW225575   0.548   0.134  14.615 -0.0511  0.3242 -0.7175
 4706SOL     OW25576   0.912   4.480   4.801  0.1838  0.0448  0.0696
 4706SOL    HW125577   0.840   4.519   4.751  0.1258  2.1106  1.7641
 4706SOL    HW225578   0.869   4.459   4.884  1.9313 -2.3380  0.3484
 4707SOL     OW25579   0.529   3.366   3.113 -0.0590 -0.3961 -0.1337
 4707SOL    HW125580   0.438   3.336   3.117 -0.1275 -0.4300 -1.8347
 4707SOL    HW225581   0.566   3.291   3.066 -2.5644 -1.0793 -1.0276
 4708SOL     OW25582   0.848   2.211  17.475  0.0569  0.3984 -0.0622
 4708SOL    HW125583   0.795   2.221  17.554  0.7406  1.7242  0.2349
 4708SOL    HW225584   0.802   2.265  17.410  0.6475 -0.2807 -1.0567
 4709SOL     OW25585   4.265   0.098   8.676  0.4075 -0.2140 -0.4471
 4709SOL    HW125586   4.214   0.116   8.755 -0.4134 -1.6143 -0.6664
 4709SOL    HW225587   4.353   0.071   8.705  1.0737  3.2965  0.8336
 4710SOL     OW25588   4.132   3.561   8.109  0.1907  0.1592 -0.1577
 4710SOL    HW125589   4.169   3.473   8.116 -0.0756  0.0418 -0.2341
 4710SOL    HW225590   4.068   3.571   8.180  1.6114  2.5949  0.8013
 4711SOL     OW25591   4.061   2.864   3.089 -0.1062 -0.1529 -0.1586
 4711SOL    HW125592   3.966   2.870   3.084  0.0603  1.9990 -1.3021
 4711SOL    HW225593   4.093   2.908   3.009  0.9807  1.2739  1.0633
 4712SOL     OW25594   3.527   0.666   1.569  0.3100 -0.3135 -0.1917
 4712SOL    HW125595   3.604   0.717   1.545 -1.4002  1.5107 -1.8186
 4712SOL    HW225596   3.523   0.686   1.663  1.7670 -1.1459  0.0349
 4713SOL     OW25597   2.817   4.556  12.937 -0.2751  0.6023  0.1345
 4713SOL    HW125598   2.768   4.506  13.002 -1.5112  1.0589 -0.4428
 4713SOL    HW225599   2.902   4.513  12.936  0.2905  1.7155 -0.3082
 4714SOL     OW25600   1.315   0.455   6.113 -0.2172  0.6201  0.3802
 4714SOL    HW125601   1.322   0.378   6.169  0.1458 -0.7775 -1.6034
 4714SOL    HW225602   1.225   0.461   6.082 -1.1559 -3.6755  2.3689
 4715SOL     OW25603   3.605   1.003   2.915 -0.3462 -1.2246 -0.4224
 4715SOL    HW125604   3.681   0.986   2.860  0.4738  0.2070  0.2583
 4715SOL    HW225605   3.586   1.090   2.880  0.6009 -0.7480  0.2612
 4716SOL     OW25606   3.400   0.442  17.119  0.4766 -0.2875  0.0522
 4716SOL    HW125607   3.432   0.360  17.157  1.1465 -0.5210 -1.0069
 4716SOL    HW225608   3.429   0.506  17.183  0.4488 -1.0638  0.8410
 4717SOL     OW25609   2.909   0.045  15.081  0.2886  0.2151  0.9077
 4717SOL    HW125610   2.988   0.045  15.028  0.8044  1.0696  1.6967
 4717SOL    HW225611   2.929   0.114  15.144  1.9221  3.0675 -2.7904
 4718SOL     OW25612   2.157   4.361   5.406 -0.3910 -0.2319 -0.0389
 4718SOL    HW125613   2.163   4.431   5.472 -2.1313  0.7920 -0.9689
 4718SOL    HW225614   2.149   4.418   5.330  1.2832 -0.4334 -0.3646
 4719SOL     OW25615   3.464   4.075  14.365 -0.1004  0.1841 -0.0546
 4719SOL    HW125616   3.517   4.054  14.288  2.5750  2.5395  1.1655
 4719SOL    HW225617   3.490   4.166  14.375 -0.5115  0.3792 -0.7821
 4720SOL     OW25618   4.226   0.065   5.454 -0.0838  0.3880  0.1353
 4720SOL    HW125619   4.143   0.110   5.438 -0.1342 -0.2204 -1.3649
 4720SOL    HW225620   4.283   0.107   5.389 -0.9479  3.2066  1.2357
 4721SOL     OW25621   2.242   3.487   8.180 -0.0906 -0.1422 -0.3569
 4721SOL    HW125622   2.277   3.548   8.245 -2.8047 -0.1552  1.1634
 4721SOL    HW225623   2.241   3.542   8.102 -3.6005 -2.7842 -2.1753
 4722SOL     OW25624   1.933   1.191  14.736 -0.0966 -0.1419 -0.4692
 4722SOL    HW125625   2.022   1.174  14.703  0.2450 -0.3847  0.5771
 4722SOL    HW225626   1.931   1.135  14.814 -0.5796  1.7364  0.8617
 4723SOL     OW25627   2.789   2.019   7.947 -0.0003 -0.1193 -0.3368
 4723SOL    HW125628   2.835   2.006   8.029 -1.4440 -1.6232  0.2467
 4723SOL    HW225629   2.705   1.980   7.972 -0.9623  1.3349 -1.2985
 4724SOL     OW25630   0.504   3.115   5.099 -0.4719  0.1564 -0.0185
 4724SOL    HW125631   0.580   3.058   5.082 -0.2871 -0.4995  3.1028
 4724SOL    HW225632   0.471   3.125   5.009 -1.2057  0.7916  0.3256
 4725SOL     OW25633   2.558   2.225  14.308 -0.2376 -0.0396  0.0192
 4725SOL    HW125634   2.608   2.226  14.226  0.7373  2.9530  0.6368
 4725SOL    HW225635   2.523   2.136  14.299 -0.2909  0.1500 -1.6853
 4726SOL     OW25636   1.018   2.779   6.867  0.5854 -0.1200  0.1035
 4726SOL    HW125637   1.083   2.804   6.933 -0.7099 -0.0538  1.3593
 4726SOL    HW225638   1.020   2.683   6.875  0.0090 -0.1542 -0.1602
 4727SOL     OW25639   3.168   3.520  11.319  0.0876  0.5942 -0.2416
 4727SOL    HW125640   3.163   3.610  11.285 -0.8636  0.7637  0.3309
 4727SOL    HW225641   3.203   3.475  11.243  2.3738 -1.9372  2.2917
 4728SOL     OW25642   2.467   2.380   5.853  0.0300  0.1593  0.2230
 4728SOL    HW125643   2.417   2.325   5.914 -0.3353 -1.7057 -1.7758
 4728SOL    HW225644   2.535   2.413   5.911  0.4034 -0.0869 -0.0704
 4729SOL     OW25645   1.209   0.226  11.515  0.7651 -0.4081 -0.4186
 4729SOL    HW125646   1.289   0.219  11.567  0.3871 -1.2745  0.0471
 4729SOL    HW225647   1.160   0.153  11.551 -0.6687  0.0906 -1.3621
 4730SOL     OW25648   2.406   3.406   7.133 -0.6889 -0.7380  0.1569
 4730SOL    HW125649   2.422   3.499   7.118  3.3607 -1.3673  0.5367
 4730SOL    HW225650   2.312   3.413   7.152 -0.5845 -0.7918  0.6835
 4731SOL     OW25651   1.534   0.026   7.376  0.1441 -0.5697 -0.0505
 4731SOL    HW125652   1.515   0.029   7.470  0.0932 -0.4219 -0.0662
 4731SOL    HW225653   1.630   0.017   7.373  0.1715  0.1658 -0.9351
 4732SOL     OW25654   2.828   4.004   5.230  0.1972  0.3723 -0.1624
 4732SOL    HW125655   2.825   4.077   5.168 -1.2864 -0.1411 -0.6911
 4732SOL    HW225656   2.755   3.949   5.200 -0.2516  0.5682  0.5615
 4733SOL     OW25657   3.090   3.190  17.453 -0.2904  0.0706 -0.2788
 4733SOL    HW125658   3.007   3.210  17.497 -0.2042 -0.6818  0.2387
 4733SOL    HW225659   3.082   3.096  17.441  1.2669  0.1863 -2.1412
 4734SOL     OW25660   2.110   1.605   3.247  0.9314 -0.0903 -0.2158
 4734SOL    HW125661   2.120   1.516   3.281  2.6896  0.8755  1.8162
 4734SOL    HW225662   2.071   1.646   3.324  0.5608  0.0897 -0.4938
 4735SOL     OW25663   0.960   3.970   2.310  0.0601  0.3512  0.1859
 4735SOL    HW125664   0.916   3.964   2.395  0.8799  2.4881  0.7559
 4735SOL    HW225665   0.892   3.985   2.244 -0.3246  0.1694  0.5417
 4736SOL     OW25666   2.331   1.600   6.918  0.7233 -0.6419  0.0070
 4736SOL    HW125667   2.292   1.521   6.880  0.5914 -0.7278  0.3208
 4736SOL    HW225668   2.404   1.597   6.856  1.0380  0.3693  0.3404
 4737SOL     OW25669   4.163   4.018   1.724 -0.7464  0.0480 -0.3847
 4737SOL    HW125670   4.097   3.957   1.759  0.1104 -1.9167 -2.1984
 4737SOL    HW225671   4.223   3.958   1.680  0.8353  0.3219  1.3946
 4738SOL     OW25672   1.802   4.445  14.946  0.0338 -0.9202 -0.2821
 4738SOL    HW125673   1.794   4.538  14.965  0.9465 -1.3374  2.2066
 4738SOL    HW225674   1.755   4.449  14.863 -0.7807 -0.1861  0.2050
 4739SOL     OW25675   2.671   3.201   2.394 -0.2827 -0.0655 -0.0980
 4739SOL    HW125676   2.692   3.173   2.483 -1.3333  0.9219  0.4501
 4739SOL    HW225677   2.613   3.128   2.372 -1.3721  0.1681  2.0260
 4740SOL     OW25678   2.820   1.077   5.137 -0.4589 -0.1536  0.4291
 4740SOL    HW125679   2.822   0.985   5.165  0.0803 -0.3355 -0.1871
 4740SOL    HW225680   2.892   1.117   5.185  1.2912 -1.3258 -1.1739
 4741SOL     OW25681   1.737   3.789   4.706  0.3211 -0.1270 -0.1102
 4741SOL    HW125682   1.698   3.810   4.791 -0.7452  3.3950 -1.4350
 4741SOL    HW225683   1.830   3.806   4.720 -0.0754  2.2115 -0.1971
 4742SOL     OW25684   1.639   2.322   7.637 -0.4341  0.2822  0.1711
 4742SOL    HW125685   1.556   2.291   7.600 -0.3751  1.2082 -0.7296
 4742SOL    HW225686   1.624   2.413   7.664 -5.8745  0.0698 -2.0260
 4743SOL     OW25687   3.517   1.188   6.628 -0.0395 -0.5365  0.0518
 4743SOL    HW125688   3.511   1.283   6.613  0.0341 -0.5494 -0.0659
 4743SOL    HW225689   3.552   1.165   6.541 -1.3089  2.6969 -1.3243
 4744SOL     OW25690   0.114   3.803   2.179  0.3778  0.4209  0.0500
 4744SOL    HW125691   0.038   3.744   2.178 -1.7596  3.1502  1.5540
 4744SOL    HW225692   0.083   3.866   2.244  0.5279  2.3619 -1.8045
 4745SOL     OW25693   1.265   4.543  17.545 -0.3631 -0.6282 -0.4081
 4745SOL    HW125694   1.173   4.570  17.545  0.7006  3.0168  2.5419
 4745SOL    HW225695   1.252   4.449  17.561  3.2657 -1.0488 -0.0982
 4746SOL     OW25696   0.054   3.590   6.986 -0.5136  0.3008 -0.0456
 4746SOL    HW125697   4.720   3.628   7.054  1.5014 -0.3385  2.0007
 4746SOL    HW225698   0.022   3.628   6.905  0.3711  0.6608 -0.2324
 4747SOL     OW25699   1.008   2.139   7.349  0.2763 -0.1553  0.3411
 4747SOL    HW125700   0.982   2.232   7.348 -0.7700 -0.4575 -1.1314
 4747SOL    HW225701   0.973   2.094   7.425  1.5170 -3.4559 -1.0441
 4748SOL     OW25702   4.399   2.747   6.164  0.2999 -0.3184 -0.4813
 4748SOL    HW125703   4.360   2.832   6.185  1.0166 -0.2643  0.6154
 4748SOL    HW225704   4.397   2.752   6.068 -0.2614 -2.0042 -0.5643
 4749SOL     OW25705   3.848   1.347   7.593 -0.2937 -0.0502 -0.0988
 4749SOL    HW125706   3.785   1.416   7.610  0.1872  0.9000 -2.1674
 4749SOL    HW225707   3.890   1.348   7.679  0.2534 -0.3409 -0.3595
 4750SOL     OW25708   4.127   0.777   5.766 -0.0981 -0.0123 -0.6329
 4750SOL    HW125709   4.139   0.841   5.695 -0.0595  0.0054 -0.6102
 4750SOL    HW225710   4.090   0.704   5.716 -0.5007  0.5643 -1.1802
 4751SOL     OW25711   3.133   0.813   3.079  0.3682  0.1051  0.0919
 4751SOL    HW125712   3.054   0.867   3.068  0.1421 -0.6088 -1.8438
 4751SOL    HW225713   3.125   0.751   3.006  1.2252  0.3836 -0.2282
 4752SOL     OW25714   3.700   4.674   8.769  0.2524 -0.8188  0.3041
 4752SOL    HW125715   3.610   4.656   8.742  0.6361 -3.0631  0.5215
 4752SOL    HW225716   3.688   4.665   8.863 -1.3064 -0.2899  0.1626
 4753SOL     OW25717   2.464   2.656   9.054 -0.7674  0.1532  1.1663
 4753SOL    HW125718   2.539   2.707   9.023 -0.7240 -0.1281  0.8116
 4753SOL    HW225719   2.449   2.690   9.143  0.0287 -0.5746  1.5803
 4754SOL     OW25720   0.643   1.540  10.199 -0.0148 -0.7856  0.1913
 4754SOL    HW125721   0.675   1.484  10.129 -0.6385 -1.7645  0.6894
 4754SOL    HW225722   0.665   1.628  10.166 -0.1628 -0.1844  1.7242
 4755SOL     OW25723   1.102   3.870  14.630  0.4993  0.5609 -0.0350
 4755SOL    HW125724   1.073   3.954  14.595 -0.7800  0.4957  0.8625
 4755SOL    HW225725   1.196   3.868  14.611 -0.0034  1.4447 -2.5775
 4756SOL     OW25726   3.153   2.208   8.018 -0.2315  0.3290  0.0538
 4756SOL    HW125727   3.159   2.129   7.964  0.0507 -0.0618  0.6543
 4756SOL    HW225728   3.130   2.167   8.101  2.2988  1.0172  1.1020
 4757SOL     OW25729   3.840   4.125   7.426  0.1817  0.0573 -0.2010
 4757SOL    HW125730   3.778   4.062   7.462 -0.8771 -0.2629 -2.5688
 4757SOL    HW225731   3.841   4.091   7.336  1.4228 -2.3525  0.7066
 4758SOL     OW25732   1.076   0.950  13.032 -0.3354  0.2260  0.5453
 4758SOL    HW125733   1.033   0.917  12.953 -0.2007  0.0630  0.5399
 4758SOL    HW225734   1.019   0.906  13.095  2.5236 -1.1261  2.1995
 4759SOL     OW25735   2.977   4.351   7.071  0.0647 -0.2128  0.0608
 4759SOL    HW125736   3.022   4.432   7.096  1.7659 -1.1474  0.0108
 4759SOL    HW225737   2.896   4.394   7.044 -0.8648 -1.1123  1.3955
 4760SOL     OW25738   0.514   3.791  13.007  0.3962 -0.2677  0.4620
 4760SOL    HW125739   0.459   3.716  12.981  1.6376 -1.2279  0.6033
 4760SOL    HW225740   0.470   3.846  12.943  0.3483 -0.9867 -0.1290
 4761SOL     OW25741   0.113   4.173  12.862  0.2040 -0.2065  0.0234
 4761SOL    HW125742   0.202   4.192  12.831 -0.8484  0.4981 -2.6256
 4761SOL    HW225743   0.059   4.195  12.786 -0.7583 -0.8781  0.5169
 4762SOL     OW25744   4.248   2.673   1.021 -0.2959 -0.1803 -0.2294
 4762SOL    HW125745   4.228   2.712   0.936  1.0237 -0.7343 -0.8017
 4762SOL    HW225746   4.324   2.619   0.998 -0.7305 -0.1238 -1.8028
 4763SOL     OW25747   1.792   0.035   7.420 -0.4485 -0.2929  0.0223
 4763SOL    HW125748   1.858   0.099   7.442 -0.6704  0.5270 -1.6792
 4763SOL    HW225749   1.841   4.679   7.392  1.0136  0.2166  1.1912
 4764SOL     OW25750   2.376   1.788  13.432 -0.1768  0.6201  0.0482
 4764SOL    HW125751   2.367   1.786  13.337  1.0017  2.6734 -0.1207
 4764SOL    HW225752   2.282   1.796  13.446 -0.0250  0.8925  0.9587
 4765SOL     OW25753   4.234   0.045   2.648  0.1557  0.3668  0.4188
 4765SOL    HW125754   4.313   0.026   2.598 -0.5792  0.6055 -0.8363
 4765SOL    HW225755   4.227   0.136   2.618 -2.3536 -0.3189 -1.1578
 4766SOL     OW25756   1.932   1.247   5.862  0.0552 -0.5481 -0.1548
 4766SOL    HW125757   1.892   1.177   5.913  1.0616  0.7133  2.3734
 4766SOL    HW225758   2.006   1.262   5.922 -0.2823 -0.5788  0.2688
 4767SOL     OW25759   1.890   0.465  16.251  0.2752 -0.3952 -0.1124
 4767SOL    HW125760   1.877   0.553  16.287  2.3149  0.7012 -2.0515
 4767SOL    HW225761   1.955   0.469  16.181 -0.1203  0.8747 -0.4094
 4768SOL     OW25762   1.007   3.354   6.237 -0.3772  0.1676  0.1459
 4768SOL    HW125763   0.924   3.307   6.229 -0.1605  0.4546 -3.6033
 4768SOL    HW225764   1.073   3.286   6.242 -0.2404  0.3482  0.8993
 4769SOL     OW25765   4.711   2.837  14.526  0.4318 -0.2183 -0.0684
 4769SOL    HW125766   4.635   2.892  14.503  0.2806 -0.7540 -0.8553
 4769SOL    HW225767   0.049   2.865  14.457 -1.1976 -0.2835 -1.5119
 4770SOL     OW25768   4.275   3.212  12.487 -0.2531  0.1741  0.0980
 4770SOL    HW125769   4.275   3.271  12.562  1.1629 -0.1871  0.3922
 4770SOL    HW225770   4.238   3.265  12.417 -2.2580  1.0036  1.8099
 4771SOL     OW25771   3.976   2.006   5.868 -0.7909 -0.9009  0.5111
 4771SOL    HW125772   4.014   1.930   5.825  0.6286 -0.6635  1.3504
 4771SOL    HW225773   3.925   2.037   5.793  1.1631 -1.9233 -1.2430
 4772SOL     OW25774   0.526   2.897   5.848 -0.5831 -0.1828 -0.1419
 4772SOL    HW125775   0.593   2.831   5.867  0.1943  0.2454 -1.3365
 4772SOL    HW225776   0.529   2.889   5.752  0.4988  0.1526 -0.1447
 4773SOL     OW25777   3.634   3.677   4.156  0.1435  0.3442 -0.3144
 4773SOL    HW125778   3.603   3.669   4.066  1.4987  1.0783 -0.8491
 4773SOL    HW225779   3.555   3.716   4.195  1.6568  3.8976 -0.8309
 4774SOL     OW25780   4.151   2.078   4.534  0.2276  0.0571  0.7720
 4774SOL    HW125781   4.060   2.062   4.556 -0.9503  1.3342 -3.0741
 4774SOL    HW225782   4.139   2.124   4.451 -0.5433  0.1298  0.9221
 4775SOL     OW25783   1.801   1.407  17.316  0.6278  0.2422 -0.4663
 4775SOL    HW125784   1.724   1.424  17.262 -0.0545 -0.3782  0.3073
 4775SOL    HW225785   1.762   1.415  17.403  3.4349 -0.7359  0.8849
 4776SOL     OW25786   3.432   2.361  15.690 -0.1447  0.2952  0.1160
 4776SOL    HW125787   3.514   2.402  15.718 -0.0513  0.8788 -0.9884
 4776SOL    HW225788   3.367   2.426  15.718 -1.1986  0.0567 -1.7754
 4777SOL     OW25789   4.279   2.927   8.890 -0.2964 -0.1559  0.1457
 4777SOL    HW125790   4.280   2.933   8.985  0.4561 -1.4940  0.2230
 4777SOL    HW225791   4.240   3.011   8.867  1.1439  0.5860  0.3952
 4778SOL     OW25792   1.687   1.462   0.938 -0.2238  0.0492 -1.1293
 4778SOL    HW125793   1.780   1.438   0.938  0.1048  1.3173 -1.0496
 4778SOL    HW225794   1.694   1.544   0.987 -2.0785 -1.1310  1.0906
 4779SOL     OW25795   2.910   1.159   1.914  0.0376  0.0463 -0.5220
 4779SOL    HW125796   2.938   1.091   1.975  0.5966 -1.3845 -2.3602
 4779SOL    HW225797   2.906   1.113   1.830  0.2918  0.5871 -0.8370
 4780SOL     OW25798   4.277   3.035  11.236 -0.4715 -0.1266  0.0249
 4780SOL    HW125799   4.266   3.017  11.142  3.0590  1.9099 -0.7549
 4780SOL    HW225800   4.216   3.109  11.233  1.0752  1.1255 -0.4352
 4781SOL     OW25801   3.872   3.281   8.151 -0.5769 -0.5513  0.6303
 4781SOL    HW125802   3.790   3.251   8.110 -1.1983  0.4032  1.1778
 4781SOL    HW225803   3.849   3.363   8.195 -1.1421 -0.0260 -0.6496
 4782SOL     OW25804   3.800   0.139   0.731 -0.0077  0.3561 -0.0600
 4782SOL    HW125805   3.871   0.076   0.747  1.6265  1.7562 -1.7330
 4782SOL    HW225806   3.750   0.086   0.669  0.0968  2.1658 -1.6892
 4783SOL     OW25807   3.633   1.300  17.574 -0.5042 -0.3324 -0.3915
 4783SOL    HW125808   3.670   1.384  17.547 -0.6670 -1.0066 -2.7624
 4783SOL    HW225809   3.596   1.266  17.492  0.5099  0.1252 -1.0313
 4784SOL     OW25810   3.838   3.156  16.294  1.0139  0.2534  0.2166
 4784SOL    HW125811   3.855   3.078  16.241 -1.9516  0.7896 -1.5658
 4784SOL    HW225812   3.745   3.171  16.277  1.0317  1.0464  0.8359
 4785SOL     OW25813   2.041   4.316  11.735  0.5567  0.0650 -0.2765
 4785SOL    HW125814   2.110   4.254  11.711  1.9519  2.6619 -2.8572
 4785SOL    HW225815   1.968   4.255  11.727  0.1047  0.6737 -0.7967
 4786SOL     OW25816   1.680   1.069  13.785 -0.1078 -0.2430 -0.8313
 4786SOL    HW125817   1.739   1.072  13.861 -2.4492 -0.3218  1.0102
 4786SOL    HW225818   1.692   1.153  13.741  1.1112 -0.3956 -0.7978
 4787SOL     OW25819   3.228   3.730   1.035 -0.1957 -0.1324 -0.3137
 4787SOL    HW125820   3.188   3.745   0.949 -0.1297  0.9163 -0.1627
 4787SOL    HW225821   3.191   3.806   1.080  0.4123  0.4539 -0.7974
 4788SOL     OW25822   1.783   1.762  10.874  0.2837  0.3826  0.4325
 4788SOL    HW125823   1.805   1.854  10.860  0.6020  0.3726  0.8745
 4788SOL    HW225824   1.773   1.742  10.781 -1.1837 -0.5302  0.7912
 4789SOL     OW25825   3.826   0.189   0.110  0.0674 -0.1603 -0.4343
 4789SOL    HW125826   3.861   0.149   0.190 -1.6388  1.1470  0.9544
 4789SOL    HW225827   3.796   0.105   0.076 -3.5834  1.5718 -1.5117
 4790SOL     OW25828   0.033   0.453   4.831 -0.4889  0.6946  0.0308
 4790SOL    HW125829   4.659   0.443   4.838 -0.1934 -0.5604  2.0469
 4790SOL    HW225830   0.046   0.538   4.873 -0.9197  0.9232 -0.2953
 4791SOL     OW25831   4.641   1.234  16.136  0.0782 -0.2389  0.3986
 4791SOL    HW125832   4.695   1.170  16.183  2.0137  1.1332  0.0816
 4791SOL    HW225833   4.675   1.317  16.170  2.3455 -0.2825 -1.7692
 4792SOL     OW25834   0.258   0.277   6.678  0.1013  0.1863  0.1886
 4792SOL    HW125835   0.284   0.339   6.746 -0.2591  1.3562 -0.7370
 4792SOL    HW225836   0.164   0.272   6.695  0.3356 -0.8689  1.1458
 4793SOL     OW25837   4.408   2.906  15.647  0.2074  0.0094  0.2003
 4793SOL    HW125838   4.450   2.933  15.728  0.0464  2.3508 -0.4907
 4793SOL    HW225839   4.399   2.996  15.617 -1.4758 -0.4615 -0.7342
 4794SOL     OW25840   4.501   4.284  10.219  0.3505  0.2678  0.0084
 4794SOL    HW125841   4.497   4.272  10.125 -0.5867  0.3109  0.0414
 4794SOL    HW225842   4.411   4.273  10.249  0.6063  0.9432  1.0526
 4795SOL     OW25843   0.306   3.205   3.540 -0.5979 -0.1827 -0.1705
 4795SOL    HW125844   0.258   3.157   3.473 -0.1835 -1.5298  0.5035
 4795SOL    HW225845   0.342   3.280   3.493 -1.2543  1.5659  2.1115
 4796SOL     OW25846   1.294   1.882   4.727  0.1484  0.0817 -0.3622
 4796SOL    HW125847   1.213   1.873   4.777 -0.0087  1.7723 -0.3161
 4796SOL    HW225848   1.346   1.815   4.772 -1.2597 -1.2463 -0.7154
 4797SOL     OW25849   2.818   4.705  11.300 -0.0441 -0.1740 -0.6972
 4797SOL    HW125850   2.744   0.030  11.338  0.3904 -0.9056  1.0477
 4797SOL    HW225851   2.772   4.645  11.241 -3.1303 -1.9545  3.4846
 4798SOL     OW25852   2.237   1.959  11.940  0.6866  0.1594 -0.0950
 4798SOL    HW125853   2.277   1.931  11.858 -0.1512 -0.9979 -0.1141
 4798SOL    HW225854   2.143   1.948  11.921  0.6714  0.9138 -0.4450
 4799SOL     OW25855   3.731   3.180   7.320 -0.2694 -0.2857  0.2893
 4799SOL    HW125856   3.809   3.129   7.297  0.4120  1.4384 -1.2223
 4799SOL    HW225857   3.681   3.112   7.366  0.1679  0.7801  2.3457
 4800SOL     OW25858   4.141   4.501   8.536 -0.2152 -0.0495 -0.5699
 4800SOL    HW125859   4.200   4.481   8.609 -0.0399  0.7115 -0.5025
 4800SOL    HW225860   4.122   4.594   8.551 -0.6795 -0.2429  0.0292
 4801SOL     OW25861   0.166   1.575  10.170 -0.2850 -0.0119  0.0212
 4801SOL    HW125862   0.073   1.593  10.156 -0.5450 -2.5446 -1.3266
 4801SOL    HW225863   0.165   1.481  10.154  2.2785  0.2361 -1.6131
 4802SOL     OW25864   0.407   3.117   4.530 -0.4367  0.0179  0.7150
 4802SOL    HW125865   0.457   3.199   4.529 -1.1569  0.4632  0.7855
 4802SOL    HW225866   0.476   3.055   4.551 -0.2014 -0.5869 -1.8936
 4803SOL     OW25867   1.687   3.883   6.119  0.2988  0.0500 -0.0570
 4803SOL    HW125868   1.779   3.858   6.107  0.4104  0.0604  0.7414
 4803SOL    HW225869   1.694   3.927   6.204  2.8097  0.2860 -0.4053
 4804SOL     OW25870   4.211   0.242   7.679  0.4154  0.0878  0.1259
 4804SOL    HW125871   4.169   0.304   7.740  1.2647  1.5453 -0.7754
 4804SOL    HW225872   4.272   0.184   7.725  1.7617  0.1150 -1.6220
 4805SOL     OW25873   3.604   2.704   2.619  0.1915 -0.6704 -0.1029
 4805SOL    HW125874   3.682   2.673   2.572 -0.0949 -0.7745 -0.5071
 4805SOL    HW225875   3.547   2.627   2.613  0.8450 -0.9544 -2.4442
 4806SOL     OW25876   1.937   1.761  14.753  0.4117  0.1122 -0.2701
 4806SOL    HW125877   1.941   1.668  14.775 -2.8493  0.1847  0.5748
 4806SOL    HW225878   1.844   1.782  14.746 -0.4398 -3.6471 -0.5969
 4807SOL     OW25879   0.314   3.241  17.071  0.0797  0.2002 -0.1417
 4807SOL    HW125880   0.383   3.304  17.051  0.7645 -0.5829 -0.2268
 4807SOL    HW225881   0.258   3.248  16.994  1.2548  0.4019 -0.9762
 4808SOL     OW25882   1.841   2.817  11.706  0.5267 -0.3648 -0.7719
 4808SOL    HW125883   1.836   2.903  11.663 -0.0363  0.3265  0.6705
 4808SOL    HW225884   1.781   2.779  11.641  1.2412 -0.2018 -1.5311
 4809SOL     OW25885   1.531   3.861   4.201 -0.1735  0.6092  0.4068
 4809SOL    HW125886   1.489   3.933   4.155  1.0281  1.2426  0.3244
 4809SOL    HW225887   1.567   3.905   4.278 -0.4003  1.9708 -0.2729
 4810SOL     OW25888   4.400   2.472   5.876  0.0743 -0.3716 -0.5478
 4810SOL    HW125889   4.329   2.470   5.940 -1.4938 -1.0355 -2.2865
 4810SOL    HW225890   4.352   2.520   5.807 -0.3735 -0.9563 -0.6401
 4811SOL     OW25891   2.305   1.913   9.779 -0.4604  0.1667  0.2676
 4811SOL    HW125892   2.349   1.830   9.791 -1.0799 -0.3056 -0.7282
 4811SOL    HW225893   2.372   1.954   9.725 -0.4668  0.2511  0.3234
 4812SOL     OW25894   1.626   1.732   8.290 -0.4742  0.5273  0.0676
 4812SOL    HW125895   1.698   1.730   8.353  0.2787 -0.3719 -0.8202
 4812SOL    HW225896   1.576   1.803   8.330 -1.3816 -0.6157  0.9315
 4813SOL     OW25897   4.502   1.560   9.968  0.8540  0.3809 -0.3542
 4813SOL    HW125898   4.517   1.579   9.875  1.3669  1.9914  0.0644
 4813SOL    HW225899   4.531   1.472   9.989  0.6482 -0.1691 -2.3676
 4814SOL     OW25900   0.954   3.550  12.875  0.1812  0.2785 -0.0109
 4814SOL    HW125901   0.932   3.469  12.829  2.5739  0.1986 -0.9856
 4814SOL    HW225902   1.026   3.530  12.933 -1.5707 -0.3307  1.9432
 4815SOL     OW25903   0.423   3.925   3.174  0.1273  0.0185 -0.1083
 4815SOL    HW125904   0.413   3.871   3.096 -2.7270  1.0431 -0.4307
 4815SOL    HW225905   0.344   3.895   3.219  1.1351 -2.3863  0.0681
 4816SOL     OW25906   2.630   3.277   9.143  0.4565  0.1707  0.1267
 4816SOL    HW125907   2.654   3.351   9.087  0.9555 -1.3010 -1.6159
 4816SOL    HW225908   2.668   3.303   9.226  2.0784 -2.3025  0.1655
 4817SOL     OW25909   1.646   2.632   2.041 -0.4873  0.6463  0.0604
 4817SOL    HW125910   1.624   2.632   1.948 -1.4726 -1.9039  0.2851
 4817SOL    HW225911   1.560   2.612   2.078 -0.5834  0.7177 -0.1270
 4818SOL     OW25912   2.015   4.059  13.614  0.1950 -0.5891 -0.7047
 4818SOL    HW125913   2.065   4.115  13.673 -0.0938 -2.7667  1.5867
 4818SOL    HW225914   1.925   4.088  13.630  0.4502  0.4187 -1.1355
 4819SOL     OW25915   0.001   4.083   6.733  0.0340 -0.3777  0.1121
 4819SOL    HW125916   4.671   4.108   6.657  1.2746  0.6653 -0.4059
 4819SOL    HW225917   4.658   4.094   6.803 -1.3651 -0.6362 -1.1524
 4820SOL     OW25918   1.136   3.083   2.518  0.1511  0.1704  0.3189
 4820SOL    HW125919   1.151   3.014   2.453 -0.2191  0.3716  0.0245
 4820SOL    HW225920   1.143   3.025   2.594  0.2913  1.1555  1.0588
 4821SOL     OW25921   0.260   3.678   4.343 -0.1194 -0.6979  0.9187
 4821SOL    HW125922   0.281   3.739   4.273  0.5545 -0.6238  1.1844
 4821SOL    HW225923   0.320   3.607   4.321  2.1908  1.7425 -0.6915
 4822SOL     OW25924   4.589   0.041   5.313 -0.5414 -0.0149 -0.6016
 4822SOL    HW125925   4.522   0.085   5.367 -1.7729 -1.5149 -0.9100
 4822SOL    HW225926   4.602   0.098   5.237  0.4011  1.5734  0.7350
 4823SOL     OW25927   3.440   4.323   8.061 -0.3011 -0.3469 -0.4796
 4823SOL    HW125928   3.534   4.335   8.048 -0.5678  0.7769 -1.3742
 4823SOL    HW225929   3.449   4.321   8.156  0.7298  0.4702 -0.5558
 4824SOL     OW25930   3.282   4.535   7.386 -0.4764 -0.1162 -0.2861
 4824SOL    HW125931   3.197   4.512   7.424 -1.4752 -1.4474 -3.3658
 4824SOL    HW225932   3.298   4.615   7.436  0.8522 -0.5488 -0.0189
 4825SOL     OW25933   3.940   2.070  11.390 -0.2305 -0.1238  0.0444
 4825SOL    HW125934   3.946   2.149  11.444 -1.3141 -0.0233  0.0083
 4825SOL    HW225935   3.895   2.009  11.448  1.4100 -0.6468  0.7767
 4826SOL     OW25936   0.650   2.914  17.440 -0.2372  0.4563 -0.3528
 4826SOL    HW125937   0.744   2.934  17.449 -0.3157  0.1362  1.3358
 4826SOL    HW225938   0.611   2.954  17.518  2.6778  0.1119  1.3211
 4827SOL     OW25939   2.397   3.508   3.757  0.4307 -0.3164  0.2395
 4827SOL    HW125940   2.369   3.436   3.814  1.5592 -1.3253 -0.4930
 4827SOL    HW225941   2.318   3.538   3.713 -0.6559 -1.6009  1.3039
 4828SOL     OW25942   0.353   1.582   8.534 -0.4292 -0.5853 -0.0365
 4828SOL    HW125943   0.289   1.632   8.584 -0.3340 -0.4624 -0.0389
 4828SOL    HW225944   0.408   1.548   8.605 -0.0475  0.1060 -0.0062
 4829SOL     OW25945   1.617   2.841   5.528 -0.0941 -0.0526 -0.4238
 4829SOL    HW125946   1.550   2.904   5.553 -0.6749 -0.4978 -0.8895
 4829SOL    HW225947   1.688   2.889   5.572 -1.1553  2.2901 -1.2873
 4830SOL     OW25948   3.082   1.741   3.651  0.3682  0.5912  1.2029
 4830SOL    HW125949   3.173   1.716   3.638  0.2067 -0.3088  1.7884
 4830SOL    HW225950   3.062   1.702   3.736 -1.0834  0.0797  0.6215
 4831SOL     OW25951   3.263   1.266   0.057 -0.5705  0.4411  0.3622
 4831SOL    HW125952   3.350   1.274   0.095  0.1147 -1.5344 -0.7916
 4831SOL    HW225953   3.256   1.344   0.002  0.6709 -1.2395 -2.1904
 4832SOL     OW25954   4.214   1.244   4.615  0.5384 -0.2841 -0.7615
 4832SOL    HW125955   4.155   1.320   4.616  1.6995  0.6231 -1.0177
 4832SOL    HW225956   4.224   1.238   4.520  0.6934 -2.8478 -0.5847
 4833SOL     OW25957   4.003   2.823   2.255  0.5824  0.5437  0.5988
 4833SOL    HW125958   3.946   2.884   2.209 -0.4512 -1.1216 -0.2959
 4833SOL    HW225959   3.961   2.737   2.254  0.7244  0.4223  3.6015
 4834SOL     OW25960   1.669   2.575  13.797 -0.4440  0.4814  0.1548
 4834SOL    HW125961   1.681   2.587  13.891 -0.6287  0.4004  0.1882
 4834SOL    HW225962   1.736   2.630  13.756 -0.3265 -0.5931 -1.1081
 4835SOL     OW25963   4.458   0.738   0.223 -0.0850 -0.5509  0.0046
 4835SOL    HW125964   4.545   0.709   0.196  0.8773  0.4258  2.0501
 4835SOL    HW225965   4.454   0.819   0.173  1.9599 -0.1455  0.4923
 4836SOL     OW25966   2.853   1.470   8.639  0.5227  0.2579 -0.5826
 4836SOL    HW125967   2.833   1.379   8.660  2.0662  0.5274  2.1333
 4836SOL    HW225968   2.925   1.477   8.703  1.2949  0.4725 -1.4694
 4837SOL     OW25969   0.536   1.032   4.571  0.2094  0.6683  0.4465
 4837SOL    HW125970   0.494   1.100   4.519  1.8920  1.1812 -0.2396
 4837SOL    HW225971   0.615   1.016   4.519 -1.5799  0.3795 -2.1254
 4838SOL     OW25972   0.791   2.960  10.633  0.4017  0.0507 -0.0050
 4838SOL    HW125973   0.711   2.926  10.673  0.9468 -0.0230  1.0473
 4838SOL    HW225974   0.843   2.976  10.712  0.6714  1.5977 -0.4885
 4839SOL     OW25975   2.043   1.718   3.934 -0.3344 -0.2438  0.2709
 4839SOL    HW125976   2.093   1.736   4.014 -0.3275  0.6358  0.0772
 4839SOL    HW225977   2.113   1.728   3.869 -0.3532  1.8804  0.5631
 4840SOL     OW25978   3.132   0.681  11.936  0.3308 -0.2037  0.4026
 4840SOL    HW125979   3.207   0.716  11.986  0.3896  1.5589 -0.9174
 4840SOL    HW225980   3.174   0.666  11.852 -0.2187 -0.4164  0.1680
 4841SOL     OW25981   1.270   3.252   8.020 -0.1674  0.0634 -0.2184
 4841SOL    HW125982   1.255   3.280   7.929  0.4503  0.0116 -0.3405
 4841SOL    HW225983   1.237   3.328   8.067  0.2175 -1.0720  1.8522
 4842SOL     OW25984   1.813   3.228   2.584 -0.2066  0.3140  0.5059
 4842SOL    HW125985   1.763   3.200   2.507  0.5807  0.2098  0.0402
 4842SOL    HW225986   1.829   3.317   2.554  1.3649 -0.7980 -1.9682
 4843SOL     OW25987   0.891   0.315  14.702 -0.1518 -0.3853  0.1522
 4843SOL    HW125988   0.930   0.399  14.678 -1.1398  0.4548  1.5518
 4843SOL    HW225989   0.832   0.288  14.632  0.1526  1.1104 -0.6907
 4844SOL     OW25990   0.087   2.024   6.514 -0.3648 -0.2955  0.1126
 4844SOL    HW125991   0.168   2.055   6.473 -0.7603  0.8917  0.2341
 4844SOL    HW225992   0.032   2.010   6.437 -0.3587 -0.8155  0.2041
 4845SOL     OW25993   2.559   0.971   6.256  0.1801  0.4589  0.7130
 4845SOL    HW125994   2.538   0.973   6.163  1.7290 -0.5463  0.3508
 4845SOL    HW225995   2.654   0.967   6.253  0.0858 -0.7499 -0.3880
 4846SOL     OW25996   0.557   0.823   9.547  0.0215  0.0981 -0.2021
 4846SOL    HW125997   0.554   0.752   9.484  0.3872 -0.5199  0.4772
 4846SOL    HW225998   0.558   0.778   9.632 -2.1444  1.0392  0.3451
 4847SOL     OW25999   0.931   0.418  14.944  0.1041 -0.0136 -0.3474
 4847SOL    HW126000   0.875   0.366  15.003 -1.6692  1.6872 -0.5646
 4847SOL    HW226001   0.910   0.374  14.862 -0.8588  2.8035 -1.6011
 4848SOL     OW26002   0.060   2.081  11.151  0.3072 -0.3560  0.0517
 4848SOL    HW126003   4.710   2.144  11.143  1.6793  1.0837 -0.7077
 4848SOL    HW226004   0.119   2.110  11.082  0.3601  1.3615  0.8207
 4849SOL     OW26005   0.541   0.006   4.465 -0.0628 -0.2234 -0.0124
 4849SOL    HW126006   0.506   0.018   4.377 -0.9176  0.0775  0.3667
 4849SOL    HW226007   0.619   0.061   4.472  0.3769 -0.9612  0.9426
 4850SOL     OW26008   0.107   0.871   0.400 -0.4212 -0.0659  0.1618
 4850SOL    HW126009   0.123   0.820   0.479 -2.0082 -0.5521  0.1731
 4850SOL    HW226010   0.014   0.850   0.392  0.3000 -3.6497  1.0015
 4851SOL     OW26011   3.167   3.465  15.673  0.2460 -0.3787  0.1840
 4851SOL    HW126012   3.143   3.382  15.632 -2.1209  1.8588 -3.0087
 4851SOL    HW226013   3.185   3.515  15.592  1.9732 -0.9513  0.2126
 4852SOL     OW26014   0.868   1.095   6.408  0.4492 -0.8316 -0.0450
 4852SOL    HW126015   0.817   1.027   6.452 -1.0760 -0.2621 -0.9291
 4852SOL    HW226016   0.957   1.082   6.440  0.3195 -0.5569  0.4238
 4853SOL     OW26017   2.877   1.369  13.707 -0.1055 -0.0839  0.7278
 4853SOL    HW126018   2.948   1.349  13.645 -0.6207  2.3769 -0.6674
 4853SOL    HW226019   2.871   1.283  13.749 -0.2634 -0.7337 -0.6287
 4854SOL     OW26020   0.834   4.179  10.460  0.2839 -0.1870 -0.4230
 4854SOL    HW126021   0.859   4.173  10.552 -0.6581  1.3965 -0.0555
 4854SOL    HW226022   0.903   4.240  10.432  2.4559 -1.4409  2.2639
 4855SOL     OW26023   0.973   0.298   8.253 -0.4318 -0.2324  0.0319
 4855SOL    HW126024   0.955   0.356   8.328 -0.3581 -1.6069  1.1232
 4855SOL    HW226025   1.016   0.362   8.198 -0.5796  0.9249  1.2569
 4856SOL     OW26026   2.435   3.157   3.560 -0.0119 -0.0038 -0.3555
 4856SOL    HW126027   2.461   3.236   3.513  0.0578  0.1640 -0.0334
 4856SOL    HW226028   2.400   3.101   3.490  0.0872  1.2358 -1.3866
 4857SOL     OW26029   0.903   0.860  12.813 -0.2695  0.1983 -0.2063
 4857SOL    HW126030   0.809   0.872  12.796 -0.3594  0.1965  0.2946
 4857SOL    HW226031   0.941   0.867  12.725 -1.1999 -0.6432 -0.6816
 4858SOL     OW26032   1.083   4.567  14.731  0.5491  0.3955  0.4278
 4858SOL    HW126033   1.020   4.616  14.678  1.6107  0.6426 -0.5925
 4858SOL    HW226034   1.048   4.586  14.819 -0.1268  2.2400 -0.2244
 4859SOL     OW26035   0.552   3.781   0.057  0.0387 -0.3657 -0.1045
 4859SOL    HW126036   0.616   3.844   0.023  1.3176 -0.2610  2.5236
 4859SOL    HW226037   0.592   3.758   0.140 -2.6427 -0.2288  1.2387
 4860SOL     OW26038   0.730   2.020   1.015  0.4172  0.6794  0.4728
 4860SOL    HW126039   0.642   1.987   1.034  0.6741 -0.3355 -0.0976
 4860SOL    HW226040   0.749   1.990   0.926  1.1004 -0.8634  1.1495
 4861SOL     OW26041   4.548   2.820  10.096 -0.5404 -0.4623 -0.2777
 4861SOL    HW126042   4.592   2.840  10.179  0.0925  0.3027 -0.7858
 4861SOL    HW226043   4.625   2.836  10.040 -0.9591  1.4945 -0.2805
 4862SOL     OW26044   0.409   4.636   7.698 -0.4606  0.6355  0.1675
 4862SOL    HW126045   0.371   4.706   7.752 -1.3819 -0.9118  1.5235
 4862SOL    HW226046   0.337   4.575   7.686  1.0296 -1.0879 -0.0401
 4863SOL     OW26047   1.589   3.611   1.939 -0.0812 -0.4894 -0.2179
 4863SOL    HW126048   1.673   3.621   1.983  1.4952 -1.7698 -3.0095
 4863SOL    HW226049   1.535   3.668   1.994  0.3464 -0.6753  0.4017
 4864SOL     OW26050   0.332   0.239   7.670 -0.0168 -0.1726  0.4136
 4864SOL    HW126051   0.418   0.198   7.657  0.2633  0.3091  0.7666
 4864SOL    HW226052   0.364   0.317   7.716  1.8883 -1.7323  1.7118
 4865SOL     OW26053   1.307   2.726  15.932  0.0585  0.2726  0.4412
 4865SOL    HW126054   1.304   2.809  15.885 -2.0421  0.9023  1.7168
 4865SOL    HW226055   1.275   2.764  16.014 -0.5735 -0.2706  0.4386
 4866SOL     OW26056   4.715   0.811   7.024  0.7174 -0.1902  0.1229
 4866SOL    HW126057   0.077   0.853   7.001 -0.2093  1.6356  0.0452
 4866SOL    HW226058   4.684   0.847   7.107  0.0197 -0.3637 -0.0658
 4867SOL     OW26059   3.391   3.755   7.409  0.1940 -0.2181 -0.4598
 4867SOL    HW126060   3.372   3.664   7.385  0.1698 -0.3013 -0.1125
 4867SOL    HW226061   3.435   3.791   7.332  0.7609 -2.3805 -1.1326
 4868SOL     OW26062   2.599   3.961  13.043  0.2049 -0.0567  0.3183
 4868SOL    HW126063   2.534   3.983  13.110  1.6001 -0.6493  1.8431
 4868SOL    HW226064   2.577   3.873  13.013  3.8466 -0.2915 -1.6576
 4869SOL     OW26065   3.316   4.705   2.873  0.0539  0.2400  0.1554
 4869SOL    HW126066   3.303   0.028   2.958  1.8049  0.6870  0.1884
 4869SOL    HW226067   3.316   4.616   2.907 -0.2255  0.2659  0.2218
 4870SOL     OW26068   0.399   4.696  10.861  0.1683  0.3138  0.2699
 4870SOL    HW126069   0.325   0.002  10.807  0.7071  0.2039 -0.5230
 4870SOL    HW226070   0.375   0.002  10.950  4.8416 -0.9801  1.9232
 4871SOL     OW26071   0.885   1.833   0.056 -0.1630 -0.1449 -0.1516
 4871SOL    HW126072   0.821   1.772   0.020 -0.1810 -0.0226 -0.3311
 4871SOL    HW226073   0.859   1.842   0.147  0.4059  0.2817 -0.0302
 4872SOL     OW26074   1.228   1.809   5.599 -0.0589  0.3216 -0.0367
 4872SOL    HW126075   1.158   1.759   5.557  0.6462  0.2995 -1.1993
 4872SOL    HW226076   1.249   1.854   5.517  0.2802 -1.3804 -0.8892
 4873SOL     OW26077   4.233   1.152   2.581  0.5934  0.1523 -0.3324
 4873SOL    HW126078   4.230   1.193   2.494 -1.4534 -1.9316 -1.2561
 4873SOL    HW226079   4.320   1.176   2.611  1.2568 -0.6514 -1.6159
 4874SOL     OW26080   3.267   2.593   8.680 -0.3162  0.0628 -1.0939
 4874SOL    HW126081   3.352   2.582   8.721 -1.3146 -1.8153  0.4458
 4874SOL    HW226082   3.225   2.593   8.766  0.3033 -1.8913 -0.7931
 4875SOL     OW26083   0.834   0.425  16.155 -0.1673  0.1807 -0.3670
 4875SOL    HW126084   0.766   0.372  16.113  0.8637 -1.3281 -0.1143
 4875SOL    HW226085   0.787   0.447  16.235 -0.0919 -0.2359 -0.2088
 4876SOL     OW26086   0.984   0.469   0.168  0.0155  0.9524  0.2157
 4876SOL    HW126087   1.062   0.458   0.222 -0.8002 -0.1093  1.1748
 4876SOL    HW226088   0.980   0.378   0.139  2.5021  0.4933  1.2984
 4877SOL     OW26089   3.905   1.966  15.426  0.3053  0.0750 -0.1719
 4877SOL    HW126090   3.970   2.035  15.412 -0.1481  0.6145  0.3950
 4877SOL    HW226091   3.837   2.011  15.475 -0.0731 -0.2629 -0.3865
 4878SOL     OW26092   0.192   0.909   8.448 -0.0163 -0.0881 -0.1861
 4878SOL    HW126093   0.121   0.852   8.479 -0.7747  2.1637  2.2279
 4878SOL    HW226094   0.160   0.930   8.360  2.2261 -0.1713 -1.0093
 4879SOL     OW26095   3.940   2.486   6.136 -0.1445  0.3812 -0.3313
 4879SOL    HW126096   3.919   2.405   6.090 -0.3218  0.4959 -0.4504
 4879SOL    HW226097   3.972   2.466   6.224 -2.9823  0.8378  0.8349
 4880SOL     OW26098   3.207   2.328   4.339  0.2396  0.3047  0.2022
 4880SOL    HW126099   3.289   2.290   4.371  0.5760  1.0283  0.2130
 4880SOL    HW226100   3.227   2.418   4.365 -1.7144  1.1418 -1.2672
 4881SOL     OW26101   4.460   2.715   9.009  0.0018 -0.3840  0.5514
 4881SOL    HW126102   4.546   2.750   9.029  0.7572 -1.8396 -0.1855
 4881SOL    HW226103   4.475   2.644   8.947  1.0340  1.7169 -1.5888
 4882SOL     OW26104   2.805   3.142   8.351 -0.1128 -0.0477 -0.0398
 4882SOL    HW126105   2.780   3.117   8.440  0.1200 -1.2468 -0.3198
 4882SOL    HW226106   2.725   3.139   8.299  1.1813  4.4615 -2.3124
 4883SOL     OW26107   2.834   2.635   5.881 -0.7353  0.3702  0.2455
 4883SOL    HW126108   2.780   2.713   5.870  1.0293  1.7242  1.2293
 4883SOL    HW226109   2.890   2.640   5.804 -0.9838  0.5513  0.0793
 4884SOL     OW26110   2.972   1.863   7.221 -0.0086 -0.1026  0.3143
 4884SOL    HW126111   2.920   1.940   7.243 -0.0394 -0.1015  0.2381
 4884SOL    HW226112   2.997   1.900   7.136 -1.8838  0.8485  0.1715
 4885SOL     OW26113   1.771   3.635   7.757  0.7335  0.2054 -0.2876
 4885SOL    HW126114   1.775   3.560   7.697 -0.3558  2.0668 -2.6920
 4885SOL    HW226115   1.859   3.672   7.749  0.3711  0.7779 -1.5519
 4886SOL     OW26116   0.130   3.707   8.603 -0.0339  0.8272 -0.0083
 4886SOL    HW126117   0.076   3.648   8.551  0.0207  0.4439  0.3714
 4886SOL    HW226118   0.069   3.758   8.656  0.0068 -0.4414  1.2637
 4887SOL     OW26119   3.640   0.471   0.280  0.5458  0.2430  0.0910
 4887SOL    HW126120   3.702   0.519   0.334  1.0043 -0.6431  0.3576
 4887SOL    HW226121   3.554   0.494   0.314  0.5916 -0.1543  0.4752
 4888SOL     OW26122   1.737   2.219  12.695 -0.5639 -0.1838 -0.7368
 4888SOL    HW126123   1.807   2.282  12.680 -0.1877  0.1405  2.3139
 4888SOL    HW226124   1.764   2.165  12.769  0.5257  0.4737 -0.6542
 4889SOL     OW26125   3.880   3.165   4.521  0.2113 -0.3119 -0.3292
 4889SOL    HW126126   3.926   3.200   4.445 -3.3365  1.1488 -1.7885
 4889SOL    HW226127   3.850   3.249   4.554 -0.4954 -0.1826 -1.3180
 4890SOL     OW26128   0.317   3.989   1.788  0.2547 -0.4518  0.1932
 4890SOL    HW126129   0.391   4.050   1.788 -0.2191  0.1120 -3.3086
 4890SOL    HW226130   0.365   3.911   1.816  0.9796 -0.5698 -1.4193
 4891SOL     OW26131   2.705   1.627  14.532  0.2072  0.0038  0.1654
 4891SOL    HW126132   2.798   1.648  14.536  0.5209 -1.4262  0.1545
 4891SOL    HW226133   2.695   1.535  14.557 -0.8301 -1.0173 -4.1148
 4892SOL     OW26134   1.823   2.412   4.835  0.0100 -0.2484  0.1137
 4892SOL    HW126135   1.840   2.476   4.904 -0.7219 -0.6576  0.6820
 4892SOL    HW226136   1.846   2.328   4.876 -1.3266 -1.2644 -1.2332
 4893SOL     OW26137   1.280   2.179   3.428  0.1584  0.3799  0.1833
 4893SOL    HW126138   1.353   2.134   3.471  1.4137  2.3957  0.1505
 4893SOL    HW226139   1.283   2.133   3.344 -0.5905 -0.1249  0.4323
 4894SOL     OW26140   0.005   0.733   2.781 -0.0248  0.0246 -0.1703
 4894SOL    HW126141   0.018   0.667   2.712 -0.4979  0.1912 -0.4187
 4894SOL    HW226142   4.717   0.674   2.856  0.1496 -3.5652 -2.9560
 4895SOL     OW26143   1.579   4.009   2.414 -0.4485 -0.8389 -0.1237
 4895SOL    HW126144   1.525   4.087   2.409  0.4483 -0.3490 -1.8930
 4895SOL    HW226145   1.641   4.038   2.481 -0.6754  0.0845 -0.3276
 4896SOL     OW26146   4.674   4.546   4.257 -0.0400  0.2244 -0.5130
 4896SOL    HW126147   4.625   4.628   4.262  1.0067  0.8047  0.1973
 4896SOL    HW226148   4.607   4.482   4.283 -0.4739 -0.7572 -4.0214
 4897SOL     OW26149   0.129   0.804   9.355  0.1800  0.7528  0.2644
 4897SOL    HW126150   0.045   0.758   9.355  0.2529  0.6086 -0.5851
 4897SOL    HW226151   0.197   0.737   9.366 -1.1182 -0.3871  1.2654
 4898SOL     OW26152   2.824   0.847  15.627  0.9212  0.6104 -0.5262
 4898SOL    HW126153   2.761   0.835  15.555  1.8452 -1.2183 -1.0382
 4898SOL    HW226154   2.903   0.872  15.579  1.5851 -2.5023 -1.0397
 4899SOL     OW26155   0.181   3.778  16.260  0.0044  0.3182 -0.0724
 4899SOL    HW126156   0.105   3.791  16.317  0.4285  1.9465  0.1260
 4899SOL    HW226157   0.140   3.756  16.176  0.4226 -0.0341 -0.1874
 4900SOL     OW26158   2.582   3.556   4.561  0.3057 -0.3239  0.2633
 4900SOL    HW126159   2.586   3.637   4.613 -0.8109 -0.0486 -0.0835
 4900SOL    HW226160   2.540   3.584   4.479  1.1087  2.8110  0.9166
 4901SOL     OW26161   2.364   3.230   0.293  0.4927 -0.3373 -0.4014
 4901SOL    HW126162   2.446   3.279   0.303 -0.1521  0.7220 -0.2283
 4901SOL    HW226163   2.350   3.260   0.203  0.7315  0.5659 -0.1427
 4902SOL     OW26164   2.972   0.530   8.117  0.3138 -0.1070 -0.6522
 4902SOL    HW126165   2.926   0.593   8.173 -2.0167 -2.6802  0.3111
 4902SOL    HW226166   3.060   0.564   8.129 -0.2859  1.6940 -1.3261
 4903SOL     OW26167   1.706   3.049   6.799  0.6780 -0.0833  0.1187
 4903SOL    HW126168   1.748   3.132   6.773  0.5176 -0.0821 -0.1346
 4903SOL    HW226169   1.621   3.083   6.826  0.6377  0.3993 -0.6031
 4904SOL     OW26170   4.644   2.003  14.824  0.1475 -0.9543  0.0276
 4904SOL    HW126171   4.621   2.092  14.849 -1.0190 -0.9751 -0.9713
 4904SOL    HW226172   4.627   1.947  14.900 -0.7612  1.4216  1.5602
 4905SOL     OW26173   3.647   1.622   6.121  1.2834 -0.0224 -0.6278
 4905SOL    HW126174   3.658   1.590   6.211 -1.4421 -1.5960 -0.8452
 4905SOL    HW226175   3.705   1.698   6.119  1.2124  0.0651  0.5703
 4906SOL     OW26176   2.617   3.000  14.550  0.1173 -0.4502 -0.0838
 4906SOL    HW126177   2.598   3.001  14.644  1.0462 -0.7637  0.1048
 4906SOL    HW226178   2.627   2.907  14.529  0.2847 -0.5775  0.5540
 4907SOL     OW26179   1.128   1.061   3.891  0.2437  0.0746  0.1621
 4907SOL    HW126180   1.205   1.077   3.837 -0.8433  0.6839 -1.2132
 4907SOL    HW226181   1.073   1.133   3.861 -2.4203 -1.0768  2.1951
 4908SOL     OW26182   4.049   2.460   2.458 -0.2720 -0.6351 -0.2188
 4908SOL    HW126183   4.021   2.413   2.379 -0.0529  0.4869 -0.9687
 4908SOL    HW226184   4.121   2.510   2.419 -0.0004 -1.5253 -0.8508
 4909SOL     OW26185   0.573   0.578   2.663 -0.0564 -0.2726  0.0330
 4909SOL    HW126186   0.662   0.597   2.693 -0.2267 -0.5452  0.7041
 4909SOL    HW226187   0.567   0.484   2.678  1.0364 -0.0775  1.7380
 4910SOL     OW26188   1.644   2.202   4.272  0.1166 -0.0263  0.0718
 4910SOL    HW126189   1.597   2.270   4.321  0.0429 -2.5796  3.5472
 4910SOL    HW226190   1.567   2.145   4.267  0.1097 -0.2169  2.2115
 4911SOL     OW26191   4.547   2.586   3.072  0.1676 -0.1772  0.9518
 4911SOL    HW126192   4.463   2.545   3.053  0.3945 -0.4701  0.5790
 4911SOL    HW226193   4.516   2.676   3.082 -0.1229 -0.3039  1.1784
 4912SOL     OW26194   4.483   0.400   4.914 -0.1891  0.5558 -0.5511
 4912SOL    HW126195   4.469   0.359   4.829  2.3091  0.4114 -0.8951
 4912SOL    HW226196   4.397   0.422   4.951 -0.2223 -0.0192 -0.2698
 4913SOL     OW26197   3.141   4.480   5.067  0.4486  0.9143  0.0531
 4913SOL    HW126198   3.186   4.400   5.095 -1.4865 -1.0051 -2.4019
 4913SOL    HW226199   3.142   4.471   4.972  0.2237 -0.7344  0.2055
 4914SOL     OW26200   2.346   3.413   2.255  0.3465 -0.3509  0.1337
 4914SOL    HW126201   2.338   3.384   2.346  1.0393 -1.9952 -0.3135
 4914SOL    HW226202   2.429   3.460   2.258  0.5662 -0.8366  1.6766
 4915SOL     OW26203   2.311   2.818   3.637 -0.2207  0.1746 -0.1633
 4915SOL    HW126204   2.229   2.770   3.646 -0.7293  1.2142  0.6284
 4915SOL    HW226205   2.297   2.868   3.556 -0.2177 -0.1593 -0.3743
 4916SOL     OW26206   1.131   1.194   7.630 -0.4309 -0.3443 -0.2044
 4916SOL    HW126207   1.156   1.161   7.544 -1.1927 -1.2397 -0.0889
 4916SOL    HW226208   1.212   1.225   7.669  0.0585 -1.3387 -0.4312
 4917SOL     OW26209   0.062   1.229   2.827 -0.0706  0.0864  0.0846
 4917SOL    HW126210   0.116   1.163   2.870 -0.5490 -0.3937 -0.0404
 4917SOL    HW226211   0.093   1.213   2.738  0.0807 -1.4827  0.4195
 4918SOL     OW26212   1.140   1.355   3.526  0.6006  0.6311 -0.5402
 4918SOL    HW126213   1.053   1.386   3.503  0.8834  1.5585 -0.3478
 4918SOL    HW226214   1.188   1.420   3.475  2.1387  0.2046  0.3424
 4919SOL     OW26215   1.110   2.032   1.598  0.7250  0.2623  0.5316
 4919SOL    HW126216   1.016   2.051   1.600  0.7640  0.4601  0.5500
 4919SOL    HW226217   1.112   1.950   1.549  0.8694 -0.9427  2.5659
 4920SOL     OW26218   0.916   4.386   4.018 -0.4841  0.1484 -0.9731
 4920SOL    HW126219   1.005   4.412   4.042 -0.5526  0.4348 -1.0211
 4920SOL    HW226220   0.922   4.293   4.039 -0.4162  1.3704  4.3701
 4921SOL     OW26221   0.640   2.018   5.576 -0.0818 -0.4233 -0.4605
 4921SOL    HW126222   0.583   2.064   5.637  0.9485  0.8610 -0.4678
 4921SOL    HW226223   0.633   1.929   5.610  2.9845 -0.4028  0.2160
 4922SOL     OW26224   1.011   1.304  10.194 -0.2183 -0.1645 -0.4634
 4922SOL    HW126225   1.042   1.278  10.107  0.5725 -0.1726 -0.1761
 4922SOL    HW226226   0.918   1.285  10.183 -0.7726  0.8100  2.4616
 4923SOL     OW26227   2.416   2.209   6.492 -0.4498 -1.0466  0.2272
 4923SOL    HW126228   2.416   2.300   6.520  0.2252 -1.7949  2.6845
 4923SOL    HW226229   2.454   2.209   6.404  0.0439 -0.9257  0.4440
 4924SOL     OW26230   0.572   4.439   5.693  0.3393 -0.5331  0.8180
 4924SOL    HW126231   0.657   4.403   5.720  1.5223  1.1917 -0.6101
 4924SOL    HW226232   0.515   4.363   5.703 -0.2583 -0.1826  0.0585
 4925SOL     OW26233   1.798   2.887   7.203 -0.1053 -0.1657  0.2478
 4925SOL    HW126234   1.755   2.801   7.207 -0.0280 -0.2134  0.0140
 4925SOL    HW226235   1.727   2.948   7.220 -0.3395 -0.7915  1.5654
 4926SOL     OW26236   4.371   2.795   3.136  0.2718 -0.2843  0.0449
 4926SOL    HW126237   4.281   2.828   3.135  0.0200 -1.0115 -0.7638
 4926SOL    HW226238   4.376   2.760   3.226 -2.0878  1.6633  0.9226
 4927SOL     OW26239   1.670   1.098  10.786 -0.6587  0.1535 -0.2142
 4927SOL    HW126240   1.763   1.098  10.810 -0.8706  1.5780  0.6128
 4927SOL    HW226241   1.634   1.099  10.875  0.4821 -2.1305  0.2738
 4928SOL     OW26242   3.406   3.010  16.807 -0.4345  0.0687 -0.0821
 4928SOL    HW126243   3.352   3.074  16.761 -0.5935  1.4964  2.0451
 4928SOL    HW226244   3.407   3.049  16.895 -1.7658 -2.7564  1.1883
 4929SOL     OW26245   1.808   0.651  10.200 -0.1996  0.0164 -0.3633
 4929SOL    HW126246   1.722   0.649  10.241 -0.7815  2.0166 -1.4744
 4929SOL    HW226247   1.793   0.609  10.115 -2.6183 -2.7961  1.4591
 4930SOL     OW26248   1.755   1.063  17.056 -0.6329 -0.1290 -0.6569
 4930SOL    HW126249   1.706   1.145  17.062  0.0716  0.2054  0.5659
 4930SOL    HW226250   1.720   1.039  16.970 -0.0837  1.9027 -1.4622
 4931SOL     OW26251   0.968   1.416  12.432 -0.1217  0.0462  0.0733
 4931SOL    HW126252   0.999   1.422  12.341  0.4016 -0.1419  0.2394
 4931SOL    HW226253   1.053   1.412  12.476 -0.0239  1.7141  0.0632
 4932SOL     OW26254   0.495   3.880   2.747  0.3629 -0.1024 -0.4916
 4932SOL    HW126255   0.473   3.801   2.698 -0.2898  0.4232 -1.0453
 4932SOL    HW226256   0.455   3.863   2.832  1.2625  4.0462  0.7972
 4933SOL     OW26257   0.912   1.985  11.227 -0.0217  0.5127  0.7679
 4933SOL    HW126258   0.872   1.959  11.310 -2.5842  0.7504 -0.4103
 4933SOL    HW226259   0.983   1.922  11.215 -1.4063 -0.7474 -0.7910
 4934SOL     OW26260   4.013   2.592  14.229 -0.1290  0.0985 -0.0896
 4934SOL    HW126261   4.041   2.650  14.300 -0.6810  1.7529 -1.2348
 4934SOL    HW226262   4.066   2.515  14.251  0.8081  1.2304  1.5674
 4935SOL     OW26263   2.765   2.269   2.430 -0.1827  0.0047  0.8159
 4935SOL    HW126264   2.844   2.216   2.440 -1.1318 -1.9954 -2.3880
 4935SOL    HW226265   2.770   2.308   2.518 -1.5176 -1.7515  1.6652
 4936SOL     OW26266   0.294   2.554   5.861 -0.3588 -0.0238  0.6777
 4936SOL    HW126267   0.278   2.649   5.858 -0.4926 -0.0767 -0.6374
 4936SOL    HW226268   0.204   2.529   5.881 -0.3247 -1.1520 -0.5641
 4937SOL     OW26269   2.807   3.121  11.693 -0.2341 -0.1308 -0.4051
 4937SOL    HW126270   2.844   3.203  11.659  0.1603 -0.6160 -1.1443
 4937SOL    HW226271   2.714   3.142  11.689 -0.2878 -0.0508  1.6017
 4938SOL     OW26272   3.247   3.269   6.448 -0.9082 -0.0836 -0.0365
 4938SOL    HW126273   3.303   3.281   6.525  1.8678 -0.3737 -2.0350
 4938SOL    HW226274   3.298   3.316   6.383 -0.2443 -1.2516 -0.3595
 4939SOL     OW26275   1.056   1.951   6.152  0.5572 -0.2838 -0.2520
 4939SOL    HW126276   1.072   2.014   6.222 -1.9744  0.9794 -0.8035
 4939SOL    HW226277   1.145   1.918   6.145  0.0241 -1.4588 -1.6097
 4940SOL     OW26278   2.924   2.522  11.505  0.1183 -0.4177 -0.6357
 4940SOL    HW126279   2.970   2.593  11.551 -1.2837 -0.2119  0.4408
 4940SOL    HW226280   2.895   2.461  11.573  0.7634 -1.7233 -1.5326
 4941SOL     OW26281   2.747   3.149   7.220  0.5140 -0.2427 -0.0411
 4941SOL    HW126282   2.658   3.115   7.221  0.8221 -1.0682 -0.4316
 4941SOL    HW226283   2.757   3.182   7.309 -1.9863  1.2382 -0.3121
 4942SOL     OW26284   0.691   3.339  16.181  0.5015 -0.1095 -0.3052
 4942SOL    HW126285   0.767   3.343  16.239  0.1773  1.2515  0.0237
 4942SOL    HW226286   0.712   3.403  16.113  0.5135  2.2834  1.9625
 4943SOL     OW26287   3.991   2.025  10.427  0.2679  0.6301 -0.0231
 4943SOL    HW126288   3.928   2.093  10.402 -2.8620 -3.0330 -2.2448
 4943SOL    HW226289   4.066   2.042  10.371  0.7107  1.2505  0.7639
 4944SOL     OW26290   3.931   1.419   5.946 -0.2412  0.4987  0.0365
 4944SOL    HW126291   3.977   1.412   6.030  0.9410 -0.2558 -0.6633
 4944SOL    HW226292   3.855   1.363   5.958 -0.0671  0.0981 -0.7357
 4945SOL     OW26293   2.598   0.360   5.253 -0.1158 -0.1239  0.1192
 4945SOL    HW126294   2.669   0.385   5.193 -1.1731 -1.0901 -1.5523
 4945SOL    HW226295   2.599   0.429   5.319 -1.5503  0.6548 -0.6710
 4946SOL     OW26296   2.171   2.891  15.443  0.1864  0.1867 -0.0058
 4946SOL    HW126297   2.256   2.935  15.449 -0.1963  0.9698 -0.3129
 4946SOL    HW226298   2.168   2.861  15.534  2.6538  0.3288  0.1251
 4947SOL     OW26299   3.862   4.704   9.757  0.3701  0.2085 -1.1268
 4947SOL    HW126300   3.896   4.645   9.824 -1.6094  1.1821  0.7176
 4947SOL    HW226301   3.865   0.062   9.810  3.6376  0.3987 -1.5947
 4948SOL     OW26302   3.824   4.660   7.312 -0.0247  0.3545 -0.3922
 4948SOL    HW126303   3.733   4.688   7.326 -0.5527 -1.1445 -0.8658
 4948SOL    HW226304   3.856   4.670   7.401 -1.1082 -1.6746  0.2329
 4949SOL     OW26305   2.021   3.743   7.767  0.5637  0.2693 -0.1473
 4949SOL    HW126306   2.011   3.806   7.838 -0.5352 -0.4680  0.3622
 4949SOL    HW226307   2.080   3.782   7.702  1.0207  0.8532  0.6228
 4950SOL     OW26308   4.235   1.273   6.150  0.2880  0.2808 -0.1102
 4950SOL    HW126309   4.255   1.210   6.081 -1.6494  0.4382 -0.8445
 4950SOL    HW226310   4.323   1.301   6.174  0.3087  0.4843 -0.4188
 4951SOL     OW26311   2.878   2.280   3.626  0.3775  0.2897 -0.1967
 4951SOL    HW126312   2.965   2.312   3.602  1.5785 -2.6530  0.1406
 4951SOL    HW226313   2.910   2.192   3.649 -1.7206 -0.7453 -1.2678
 4952SOL     OW26314   1.653   1.825  14.679  0.2199  0.2680 -0.3511
 4952SOL    HW126315   1.641   1.887  14.751  0.2002  3.5495 -3.1699
 4952SOL    HW226316   1.580   1.768  14.704  1.7445 -2.0770 -1.2662
 4953SOL     OW26317   3.068   3.383  16.711 -0.1275 -0.2796  0.2575
 4953SOL    HW126318   2.978   3.379  16.678  0.6077 -0.8254 -1.6869
 4953SOL    HW226319   3.044   3.374  16.803  0.8787  0.3027  0.5701
 4954SOL     OW26320   4.473   2.516   3.646 -0.5970  0.1746 -0.6004
 4954SOL    HW126321   4.440   2.536   3.733  1.1613  2.1059 -0.3908
 4954SOL    HW226322   4.459   2.421   3.647  0.9442 -0.0513 -0.3554
 4955SOL     OW26323   0.448   1.651   5.505 -0.3054 -0.7155 -0.0043
 4955SOL    HW126324   0.438   1.559   5.481 -0.4190 -1.0071  1.1294
 4955SOL    HW226325   0.459   1.701   5.424 -0.0301  1.5932  1.4334
 4956SOL     OW26326   1.050   0.347   8.547 -0.3505  0.2884 -0.3374
 4956SOL    HW126327   0.999   0.422   8.578  2.0214  1.2431  1.2929
 4956SOL    HW226328   1.138   0.381   8.529 -0.2710 -1.0961 -2.6536
 4957SOL     OW26329   2.919   1.299   4.626 -0.4845 -0.0701  0.1974
 4957SOL    HW126330   2.833   1.267   4.654 -0.8100 -2.2545 -3.2665
 4957SOL    HW226331   2.933   1.363   4.695 -0.0771 -0.8182  0.8162
 4958SOL     OW26332   3.802   3.225   5.461  0.4239  0.0223  0.6019
 4958SOL    HW126333   3.814   3.195   5.551 -0.6692  0.2152  0.8244
 4958SOL    HW226334   3.714   3.196   5.436 -0.5017  2.8436  0.5429
 4959SOL     OW26335   4.061   1.555   1.816  0.4868 -0.2819 -0.0004
 4959SOL    HW126336   3.968   1.563   1.836 -0.1516  0.7332 -3.3064
 4959SOL    HW226337   4.100   1.642   1.824  2.5740 -1.3312  1.1482
 4960SOL     OW26338   0.980   1.618  17.241  0.4896 -0.5744  0.0108
 4960SOL    HW126339   1.017   1.630  17.328  0.1580 -2.3727  0.3950
 4960SOL    HW226340   0.957   1.709  17.220 -0.9623 -0.7947  0.6762
 4961SOL     OW26341   3.061   0.957   2.069  0.1686  0.2202 -0.5847
 4961SOL    HW126342   3.151   0.954   2.102 -0.3191 -0.7563  0.6636
 4961SOL    HW226343   3.055   0.885   2.005 -2.1472  1.1954 -1.4705
 4962SOL     OW26344   3.690   2.445   5.826 -0.1927 -0.3728 -0.1900
 4962SOL    HW126345   3.704   2.440   5.920  1.2006 -0.8737 -0.4198
 4962SOL    HW226346   3.775   2.465   5.785 -0.3702  0.1417 -0.3003
 4963SOL     OW26347   3.654   0.308   5.602  0.2598 -0.3379  0.1714
 4963SOL    HW126348   3.570   0.268   5.626  1.9538 -2.9385  1.7649
 4963SOL    HW226349   3.612   0.382   5.558 -0.5579 -0.7675  0.2153
 4964SOL     OW26350   1.084   1.705   6.498  0.1766 -0.0102 -0.3452
 4964SOL    HW126351   1.067   1.798   6.508  0.1407 -0.1294  0.7821
 4964SOL    HW226352   0.999   1.668   6.524 -0.1435 -0.1223 -1.5722
 4965SOL     OW26353   4.075   3.167   6.201  0.1679  0.7332  0.2182
 4965SOL    HW126354   4.034   3.253   6.207 -0.4485  0.5805 -1.9581
 4965SOL    HW226355   4.141   3.164   6.271  1.3117 -0.1239 -0.8857
 4966SOL     OW26356   2.928   2.548   1.424 -0.1533  0.9663  0.6394
 4966SOL    HW126357   2.910   2.456   1.446  0.8811  0.5484 -0.2858
 4966SOL    HW226358   2.948   2.592   1.506  0.7963  0.4272  0.7028
 4967SOL     OW26359   4.286   0.930   6.105  0.4626 -0.3696 -0.6312
 4967SOL    HW126360   4.339   0.938   6.026 -0.6437  1.2111 -1.2050
 4967SOL    HW226361   4.350   0.925   6.177  1.0284  0.9164 -1.0410
 4968SOL     OW26362   4.271   3.498   5.195  0.4764  0.0229  0.2674
 4968SOL    HW126363   4.317   3.422   5.230 -0.8518 -1.5303 -1.3775
 4968SOL    HW226364   4.233   3.468   5.112  2.8090 -1.8917 -0.1286
 4969SOL     OW26365   2.771   3.289   6.104  0.2998  0.3621 -0.4370
 4969SOL    HW126366   2.759   3.194   6.102  1.3623  0.2202  0.2583
 4969SOL    HW226367   2.734   3.303   6.017  1.2298  0.5046 -0.8080
 4970SOL     OW26368   3.240   0.954  11.472 -0.1851  0.7821  0.4236
 4970SOL    HW126369   3.202   0.901  11.542  0.7872 -0.0705  0.3144
 4970SOL    HW226370   3.170   1.004  11.432 -0.5364  0.3616  0.5140
 4971SOL     OW26371   0.546   4.291   3.946 -0.5618 -0.0497 -0.7082
 4971SOL    HW126372   0.538   4.360   3.881  0.6087  1.1447  0.4104
 4971SOL    HW226373   0.577   4.340   4.022 -0.4158 -0.2289 -0.6495
 4972SOL     OW26374   0.734   2.721   8.283 -0.1087  0.0621  0.3796
 4972SOL    HW126375   0.745   2.746   8.375  0.2999  0.8842  0.1046
 4972SOL    HW226376   0.745   2.804   8.236  3.0439 -1.7120 -1.9660
 4973SOL     OW26377   1.698   0.653   0.357 -0.1292  0.0333 -0.0057
 4973SOL    HW126378   1.619   0.703   0.339  0.5727  1.5203  1.1034
 4973SOL    HW226379   1.689   0.568   0.314 -1.5258 -0.8599  2.0588
 4974SOL     OW26380   0.372   4.381   6.050 -0.5980 -0.5213 -0.0520
 4974SOL    HW126381   0.465   4.359   6.052 -0.4366  0.6886  4.1916
 4974SOL    HW226382   0.376   4.475   6.030 -0.6254 -0.1578  1.6851
 4975SOL     OW26383   2.198   4.622  12.692  0.1032 -0.4008 -0.4308
 4975SOL    HW126384   2.290   4.649  12.687  0.0238  0.5135  2.9881
 4975SOL    HW226385   2.157   4.708  12.703  0.2872 -0.1769 -1.4617
 4976SOL     OW26386   3.640   3.398  15.637 -0.1804  0.3619  0.0818
 4976SOL    HW126387   3.686   3.424  15.716 -0.1510 -0.4536  0.3335
 4976SOL    HW226388   3.681   3.459  15.576 -0.0614  0.0765 -0.1268
 4977SOL     OW26389   1.488   1.544  17.413  0.3491 -0.1386  0.2022
 4977SOL    HW126390   1.566   1.595  17.393  0.6479 -0.5766  0.2544
 4977SOL    HW226391   1.459   1.523  17.324  1.0986 -1.4888  0.2793
 4978SOL     OW26392   0.658   3.900   3.307  0.7379  0.1202  0.7345
 4978SOL    HW126393   0.675   3.807   3.294 -0.7708 -0.1672  0.8132
 4978SOL    HW226394   0.571   3.913   3.270  0.8752  1.2535  0.8054
 4979SOL     OW26395   2.636   1.975  13.728  0.2798 -0.0080  0.3994
 4979SOL    HW126396   2.555   1.992  13.775  0.9098  3.2106  0.2939
 4979SOL    HW226397   2.703   2.023  13.776 -1.4592  1.2764  1.5126
 4980SOL     OW26398   0.685   2.123   2.306 -0.2429  0.2902  0.5780
 4980SOL    HW126399   0.625   2.134   2.232  1.0722  2.6680 -0.1218
 4980SOL    HW226400   0.766   2.159   2.271 -0.4780  1.0477  0.8151
 4981SOL     OW26401   3.521   4.485  13.151 -0.3163  0.0775  0.3481
 4981SOL    HW126402   3.562   4.567  13.123 -2.2106 -0.0066 -2.6190
 4981SOL    HW226403   3.583   4.416  13.130  0.7311  1.8181 -2.2726
 4982SOL     OW26404   4.180   2.539   7.221  0.3931 -0.0913  0.3191
 4982SOL    HW126405   4.089   2.569   7.220  0.4911  0.1904 -1.0417
 4982SOL    HW226406   4.213   2.589   7.146 -0.1813  0.3556  0.3614
 4983SOL     OW26407   1.425   1.114  14.398 -0.2263 -0.2514 -0.0558
 4983SOL    HW126408   1.460   1.082  14.315  0.1945  2.5566 -0.9364
 4983SOL    HW226409   1.460   1.203  14.392 -0.8700  0.1051  1.5602
 4984SOL     OW26410   2.750   3.992   6.076  0.0717  0.6757 -0.1632
 4984SOL    HW126411   2.769   4.084   6.058  2.5293  0.3599  0.7156
 4984SOL    HW226412   2.661   4.002   6.110 -0.3909 -2.2757 -0.5613
 4985SOL     OW26413   1.548   0.777   5.868  1.0346 -0.4388 -0.1520
 4985SOL    HW126414   1.591   0.745   5.948  0.0126 -0.1286  0.5121
 4985SOL    HW226415   1.454   0.783   5.879  0.8530 -2.9158 -0.3815
 4986SOL     OW26416   3.826   0.004  14.880 -0.3011  0.4195  0.1309
 4986SOL    HW126417   3.859   0.037  14.964  0.2068 -1.7357  0.7567
 4986SOL    HW226418   3.788   4.643  14.907  1.0586  0.1854  1.3209
 4987SOL     OW26419   3.265   3.181  16.681  0.0259  0.2146 -0.2809
 4987SOL    HW126420   3.313   3.259  16.654  0.3144  0.8409  2.0170
 4987SOL    HW226421   3.191   3.230  16.718 -0.7000 -0.9912 -0.1363
 4988SOL     OW26422   1.747   2.050  14.322 -0.5363  0.0257 -0.4657
 4988SOL    HW126423   1.700   2.081  14.245 -1.3018 -0.7882 -0.3278
 4988SOL    HW226424   1.835   2.084  14.304 -0.6651 -0.8565 -2.7747
 4989SOL     OW26425   3.777   0.583   2.143 -0.1330  0.0478 -0.2765
 4989SOL    HW126426   3.683   0.575   2.122 -0.1897  0.9496 -0.3574
 4989SOL    HW226427   3.783   0.500   2.190  1.3237  0.5816  0.4496
 4990SOL     OW26428   3.751   4.368   1.811 -0.0605  0.0064 -0.0577
 4990SOL    HW126429   3.838   4.344   1.842 -1.3859  0.0830  3.6597
 4990SOL    HW226430   3.698   4.348   1.888 -1.3596  0.3834 -0.8540
 4991SOL     OW26431   3.003   3.400   6.668  0.5493 -0.1215  0.7443
 4991SOL    HW126432   2.951   3.365   6.595  0.7632  2.0127 -0.4325
 4991SOL    HW226433   3.053   3.325   6.702  1.6569  0.3668  0.1871
 4992SOL     OW26434   4.629   2.781   9.672  0.3401 -0.4153 -0.0295
 4992SOL    HW126435   4.575   2.710   9.638 -1.4822  0.3520  1.2901
 4992SOL    HW226436   4.640   2.836   9.594  1.0889  1.3467  1.3185
 4993SOL     OW26437   1.545   4.254   6.531 -0.2498  0.2002  0.3019
 4993SOL    HW126438   1.640   4.261   6.526 -0.1580 -1.7260 -0.9456
 4993SOL    HW226439   1.526   4.291   6.618 -0.0986  1.6959 -0.3096
 4994SOL     OW26440   2.414   0.656   5.473 -0.2947 -0.0933  0.1878
 4994SOL    HW126441   2.433   0.699   5.556  0.4664  0.0693 -0.0690
 4994SOL    HW226442   2.332   0.610   5.491 -1.0414  0.2969 -2.2687
 4995SOL     OW26443   3.164   3.178   3.568 -0.0804  0.0839 -0.5373
 4995SOL    HW126444   3.105   3.250   3.592  0.9299  0.6322  0.3049
 4995SOL    HW226445   3.162   3.140   3.656  3.1063 -1.0623 -0.9532
 4996SOL     OW26446   4.666   3.876   3.949 -0.3887 -0.0051  0.0741
 4996SOL    HW126447   0.007   3.943   3.921  2.7404 -2.2246  1.7358
 4996SOL    HW226448   4.583   3.919   3.928  0.2953  0.1123 -2.4997
 4997SOL     OW26449   2.868   0.638   0.369  0.5361  0.0653  0.7230
 4997SOL    HW126450   2.867   0.717   0.422  0.4010 -1.8946  3.6273
 4997SOL    HW226451   2.808   0.665   0.300 -0.3875 -0.4999  1.3165
 4998SOL     OW26452   2.213   0.331  14.176  0.2666  0.1358 -0.2519
 4998SOL    HW126453   2.238   0.420  14.153  0.7705 -0.4420 -1.9325
 4998SOL    HW226454   2.155   0.309  14.103 -1.5447  1.0674  0.9245
 4999SOL     OW26455   3.994   0.048   4.141 -0.6233 -0.3474  0.4601
 4999SOL    HW126456   4.005   0.126   4.196 -1.9786 -0.3354  0.7317
 4999SOL    HW226457   4.028   4.702   4.200 -1.0128  0.6668  1.8637
 5000SOL     OW26458   0.169   0.715  10.441  0.5197 -0.4942  0.5801
 5000SOL    HW126459   0.201   0.744  10.527 -1.3269  0.4088  0.9528
 5000SOL    HW226460   0.087   0.679  10.474  0.0087 -0.9958 -1.2333
 5001SOL     OW26461   0.711   3.627   4.828 -0.2252  0.6954  0.0909
 5001SOL    HW126462   0.677   3.585   4.749  0.2584  0.1755  0.1582
 5001SOL    HW226463   0.725   3.550   4.883  1.1919  0.3894 -0.7146
 5002SOL     OW26464   4.516   3.357   8.246 -0.0059 -0.1907 -0.3091
 5002SOL    HW126465   4.478   3.443   8.226 -3.1290 -1.9441 -1.9871
 5002SOL    HW226466   4.494   3.354   8.339  2.6260 -0.6624  0.2916
 5003SOL     OW26467   2.256   1.829   5.950  0.3482  0.0192 -0.3311
 5003SOL    HW126468   2.300   1.856   5.870  3.1562  0.3294  1.3521
 5003SOL    HW226469   2.207   1.756   5.912  0.4079  0.3986 -1.1183
 5004SOL     OW26470   0.169   2.700   4.594 -0.2287 -0.6996 -0.3269
 5004SOL    HW126471   0.211   2.777   4.555 -0.5005  1.0037  2.7355
 5004SOL    HW226472   0.219   2.626   4.560 -0.4185 -1.4912  1.1222
 5005SOL     OW26473   2.979   1.721   7.439 -0.4747  0.3440  0.1736
 5005SOL    HW126474   2.995   1.796   7.381 -0.4885 -0.2326 -0.5758
 5005SOL    HW226475   3.051   1.664   7.411 -1.5407 -0.1423 -1.5681
 5006SOL     OW26476   0.428   1.567  12.504  0.3513  0.5088  0.4348
 5006SOL    HW126477   0.371   1.641  12.523 -1.5385 -0.2399 -2.2757
 5006SOL    HW226478   0.365   1.509  12.460  0.4787  0.8959 -0.2636
 5007SOL     OW26479   1.301   1.751   2.519  0.5107 -0.0467 -0.3856
 5007SOL    HW126480   1.331   1.663   2.500 -0.5056 -0.0630 -1.9042
 5007SOL    HW226481   1.358   1.808   2.467  1.6072  0.5924  1.4825
 5008SOL     OW26482   0.481   1.145  10.204 -0.0627  0.2285 -0.1277
 5008SOL    HW126483   0.482   1.153  10.109  0.2898 -2.0081 -0.3033
 5008SOL    HW226484   0.464   1.237  10.223 -0.0518  0.4989 -1.4642
 5009SOL     OW26485   3.286   2.837   8.163 -0.3128 -0.6356 -0.2893
 5009SOL    HW126486   3.348   2.893   8.116 -0.5312 -1.3168 -1.3910
 5009SOL    HW226487   3.232   2.893   8.218 -1.5828 -1.3202 -0.8405
 5010SOL     OW26488   2.605   0.828   2.274  0.0259  0.0219 -0.0524
 5010SOL    HW126489   2.660   0.850   2.199  2.1200 -2.6447  0.7331
 5010SOL    HW226490   2.636   0.889   2.341 -0.7138  1.9926 -1.5030
 5011SOL     OW26491   1.013   4.534   2.926  0.8700 -0.6903  0.4946
 5011SOL    HW126492   1.022   4.503   2.836  0.7770  1.5887 -0.3001
 5011SOL    HW226493   1.098   4.514   2.964 -0.7667 -0.8746  4.0920
 5012SOL     OW26494   1.834   3.536   1.129  0.1619  0.3868  0.0349
 5012SOL    HW126495   1.892   3.611   1.141 -0.4189  0.7617  0.4911
 5012SOL    HW226496   1.778   3.553   1.205  1.0569 -0.6653  0.9257
 5013SOL     OW26497   1.358   2.808   7.904  0.4563  0.0064  0.3848
 5013SOL    HW126498   1.324   2.756   7.978  0.4859 -0.1449  0.2914
 5013SOL    HW226499   1.296   2.773   7.840 -1.0800  0.3515  1.6869
 5014SOL     OW26500   1.548   0.468   3.257 -0.3183  0.2134  0.0806
 5014SOL    HW126501   1.479   0.441   3.318  0.7327 -0.2657  1.0711
 5014SOL    HW226502   1.550   0.387   3.206 -1.5176 -0.5916  1.3112
 5015SOL     OW26503   1.574   3.313   7.099  0.3868  0.2414  0.7063
 5015SOL    HW126504   1.501   3.350   7.049  1.7081  2.6075  0.5223
 5015SOL    HW226505   1.522   3.261   7.159 -2.2978  1.4555 -0.5562
 5016SOL     OW26506   0.004   4.442   5.109  0.0940  0.8512 -0.0116
 5016SOL    HW126507   4.694   4.352   5.103 -1.0217  1.1237  1.8059
 5016SOL    HW226508   0.077   4.430   5.048  1.1227 -0.7994  1.5102
 5017SOL     OW26509   0.212   2.690   7.396 -0.1632 -0.4872  0.4972
 5017SOL    HW126510   0.165   2.705   7.314  0.7454 -0.7900 -0.0855
 5017SOL    HW226511   0.297   2.726   7.372  0.8688 -2.8724  0.5787
 5018SOL     OW26512   4.575   3.737   2.265  0.4880 -0.4344  0.3365
 5018SOL    HW126513   4.501   3.706   2.213  0.8853  2.4939 -1.9425
 5018SOL    HW226514   4.541   3.761   2.351 -0.8856  1.3520 -0.7042
 5019SOL     OW26515   1.276   1.769   0.005  0.2583 -0.4754  0.0209
 5019SOL    HW126516   1.291   1.741   0.096 -0.3023 -1.0651 -0.0710
 5019SOL    HW226517   1.257   1.687  17.649 -0.1734 -1.6106  2.2744
 5020SOL     OW26518   0.451   2.880  14.433 -0.1902 -0.2115 -0.2482
 5020SOL    HW126519   0.450   2.922  14.519 -1.5453 -2.2878  0.7482
 5020SOL    HW226520   0.377   2.926  14.393  1.4704  0.6455 -2.3520
 5021SOL     OW26521   4.179   1.860   6.180 -0.3212  0.3787  0.1850
 5021SOL    HW126522   4.161   1.811   6.261  1.6754  2.6056  1.9759
 5021SOL    HW226523   4.180   1.792   6.113 -0.8547 -0.3140  0.8778
 5022SOL     OW26524   2.836   0.068  10.125  0.1639 -0.0302  0.0792
 5022SOL    HW126525   2.763   0.082  10.185  2.0581  3.0926  1.6735
 5022SOL    HW226526   2.906   0.078  10.190 -1.1744  0.2007  1.4751
 5023SOL     OW26527   2.350   0.091   1.464 -0.0684 -0.1782 -0.0287
 5023SOL    HW126528   2.380   0.073   1.375  0.8567 -0.5470  0.3577
 5023SOL    HW226529   2.305   0.175   1.459 -0.2040 -0.4201 -3.0449
 5024SOL     OW26530   4.053   3.850   5.200  0.4080  0.1517  0.2199
 5024SOL    HW126531   4.115   3.869   5.270  0.4120 -0.5066  0.3907
 5024SOL    HW226532   3.983   3.908   5.230 -0.8506 -1.3446  0.1672
 5025SOL     OW26533   0.757   3.215   6.320  0.1418  0.1773  0.1990
 5025SOL    HW126534   0.719   3.143   6.269  3.0508 -2.1477  1.3527
 5025SOL    HW226535   0.704   3.288   6.288  0.5768  0.8478  1.0262
 5026SOL     OW26536   0.861   4.244   0.207 -0.0101  0.2206 -0.0029
 5026SOL    HW126537   0.780   4.252   0.258  2.0961  1.1462  3.2282
 5026SOL    HW226538   0.881   4.152   0.222  0.9205  0.0695 -2.1409
 5027SOL     OW26539   1.415   0.921   3.467  0.5247 -0.3943  0.1724
 5027SOL    HW126540   1.444   0.881   3.385 -1.1241  1.5820 -1.3952
 5027SOL    HW226541   1.358   0.851   3.498  1.5284 -1.7159 -1.0087
 5028SOL     OW26542   0.881   2.743   3.334 -0.7645 -0.3093  0.1366
 5028SOL    HW126543   0.942   2.779   3.399  0.4052 -0.7997 -0.7039
 5028SOL    HW226544   0.940   2.675   3.301 -1.0534  0.8186 -2.6793
 5029SOL     OW26545   3.729   0.813   1.423  0.0074 -0.2664  0.1357
 5029SOL    HW126546   3.768   0.875   1.361 -1.2344 -0.3484 -0.7239
 5029SOL    HW226547   3.793   0.742   1.425  0.5269  0.2663  2.1937
 5030SOL     OW26548   3.446   3.864  15.699 -0.1529  0.0184 -0.0329
 5030SOL    HW126549   3.497   3.926  15.751 -0.4813  0.0276  0.2761
 5030SOL    HW226550   3.515   3.797  15.697  0.0008  0.1704  0.1346
 5031SOL     OW26551   1.128   1.687  15.234 -0.0143  0.4063  0.6179
 5031SOL    HW126552   1.045   1.663  15.275  0.3513  0.5661  1.4602
 5031SOL    HW226553   1.177   1.700  15.316 -0.6563  0.2849  1.0217
 5032SOL     OW26554   3.439   4.390  10.569 -0.8460 -0.1494  0.1136
 5032SOL    HW126555   3.509   4.446  10.604 -0.2794  0.6979 -2.3539
 5032SOL    HW226556   3.491   4.337  10.508  1.9342  2.7141 -0.0762
 5033SOL     OW26557   2.736   3.741   7.104  0.3003 -0.1645 -0.1044
 5033SOL    HW126558   2.826   3.736   7.074  0.3122  0.5069 -0.1697
 5033SOL    HW226559   2.743   3.682   7.179  0.2308  0.1574  0.1574
 5034SOL     OW26560   1.561   0.023  12.151 -0.1230 -0.3515  0.0887
 5034SOL    HW126561   1.485   0.010  12.207  0.4457 -2.7831  0.3034
 5034SOL    HW226562   1.609   4.662  12.160 -2.3865 -1.5459  1.1077
 5035SOL     OW26563   0.859   3.444  10.101  0.9153  0.0843 -0.0042
 5035SOL    HW126564   0.888   3.354  10.111  3.3722  0.5348 -3.0594
 5035SOL    HW226565   0.911   3.484  10.171  1.2549  0.4268 -0.4562
 5036SOL     OW26566   3.601   3.226   7.755  0.1837  0.0471  0.2145
 5036SOL    HW126567   3.651   3.163   7.704  0.7523  0.0922  0.7149
 5036SOL    HW226568   3.580   3.296   7.693 -0.2611 -1.7379 -1.6593
 5037SOL     OW26569   4.208   2.490   8.835 -0.3242  0.3384  0.5110
 5037SOL    HW126570   4.175   2.451   8.754 -0.1672 -1.3477  1.2563
 5037SOL    HW226571   4.303   2.498   8.825 -0.0565 -0.9710  1.9510
 5038SOL     OW26572   4.067   4.660   3.723 -0.1428 -0.4610 -0.0272
 5038SOL    HW126573   3.994   4.610   3.684 -0.7321  0.0709  0.3923
 5038SOL    HW226574   4.142   4.603   3.710  1.3384  1.5398 -0.1585
 5039SOL     OW26575   2.503   4.108   2.978  0.0021 -0.2071  0.2250
 5039SOL    HW126576   2.422   4.067   3.007 -0.3427  0.3260  0.0206
 5039SOL    HW226577   2.484   4.191   3.022 -0.9805 -0.4191  0.2050
 5040SOL     OW26578   1.579   3.047   9.988  0.1132 -0.1972 -0.3004
 5040SOL    HW126579   1.534   2.967  10.015  0.6632 -0.9866 -1.7067
 5040SOL    HW226580   1.515   3.090   9.932 -1.0629 -2.5055 -0.7521
 5041SOL     OW26581   1.984   1.908  11.774 -0.2710 -0.1758  0.1758
 5041SOL    HW126582   1.961   1.889  11.683 -0.4901  0.3246  0.1269
 5041SOL    HW226583   1.971   2.003  11.778 -0.7627 -0.2963  1.4186
 5042SOL     OW26584   3.812   2.608   2.476  0.3107 -0.0652 -0.6117
 5042SOL    HW126585   3.893   2.575   2.515 -0.5415 -1.2418  0.1621
 5042SOL    HW226586   3.828   2.594   2.382  0.8861  1.3978 -0.7316
 5043SOL     OW26587   1.371   0.483   7.069  0.2225 -0.4007  0.2458
 5043SOL    HW126588   1.278   0.461   7.059 -0.0674 -0.5641  3.0990
 5043SOL    HW226589   1.390   0.400   7.114  3.1059  0.3621  0.4622
 5044SOL     OW26590   3.560   4.618  16.564 -0.7617 -0.2858 -0.2618
 5044SOL    HW126591   3.642   4.646  16.607 -0.5893 -0.6313 -0.3671
 5044SOL    HW226592   3.564   4.524  16.581 -1.0271 -0.3132 -0.3619
 5045SOL     OW26593   1.020   0.125   5.049 -0.2161  0.1486  0.0851
 5045SOL    HW126594   0.934   0.084   5.054  0.0302 -0.2055  1.3625
 5045SOL    HW226595   1.038   0.125   5.143  3.7030  0.1633 -0.6508
 5046SOL     OW26596   1.908   0.050   4.251  0.3081 -0.0723  0.5560
 5046SOL    HW126597   1.825   0.058   4.298  0.0487 -0.6200  0.1985
 5046SOL    HW226598   1.876   4.691   4.209 -0.0383  0.7307 -0.7429
 5047SOL     OW26599   1.801   3.330   6.824  0.1919 -0.1492 -0.1300
 5047SOL    HW126600   1.736   3.374   6.769 -2.7246  0.7021  4.0006
 5047SOL    HW226601   1.873   3.341   6.763  1.4017  0.7853  1.4788
 5048SOL     OW26602   3.394   2.839   2.216 -0.1616 -0.2784 -0.6119
 5048SOL    HW126603   3.474   2.825   2.268 -1.0634 -0.5674  0.6905
 5048SOL    HW226604   3.420   2.824   2.125 -0.3544 -1.0150 -0.5433
 5049SOL     OW26605   3.922   0.718  16.313 -0.1844 -0.2337 -0.0578
 5049SOL    HW126606   3.873   0.646  16.273  2.3255 -1.0096 -1.7432
 5049SOL    HW226607   3.921   0.698  16.407  0.3492 -0.1944 -0.0424
 5050SOL     OW26608   1.398   2.741   6.815  0.1698  0.8967  1.2163
 5050SOL    HW126609   1.350   2.779   6.741  1.0186  0.3575  0.3913
 5050SOL    HW226610   1.481   2.720   6.773 -1.1904 -2.5687  0.2835
 5051SOL     OW26611   2.264   0.412  12.950 -0.6222  0.3122  0.1104
 5051SOL    HW126612   2.333   0.406  13.016 -0.3316  0.4387 -0.1764
 5051SOL    HW226613   2.286   0.502  12.923  0.6718 -0.2552 -0.6956
 5052SOL     OW26614   1.389   2.320   4.012  0.5337  0.2155 -0.1309
 5052SOL    HW126615   1.385   2.404   3.967  0.4365  0.7281  0.8310
 5052SOL    HW226616   1.345   2.331   4.096 -0.3137  1.6209 -0.7693
 5053SOL     OW26617   1.836   0.430   4.290  0.3427  0.0465  0.0932
 5053SOL    HW126618   1.777   0.503   4.271  1.1193  0.7851  0.5386
 5053SOL    HW226619   1.871   0.414   4.202 -2.4720  0.9511 -1.1889
 5054SOL     OW26620   1.184   1.722   1.521 -0.2626  1.0736 -0.4152
 5054SOL    HW126621   1.226   1.655   1.466  0.9038  0.5994  1.0488
 5054SOL    HW226622   1.142   1.675   1.593  2.9450  0.3227  0.9648
 5055SOL     OW26623   3.021   0.702   1.923 -0.2346  0.4809 -0.2307
 5055SOL    HW126624   3.093   0.645   1.949 -1.2072 -0.5777  0.1351
 5055SOL    HW226625   2.963   0.633   1.890  1.3294  0.2449 -2.5070
 5056SOL     OW26626   3.771   4.446  10.169  0.3954 -0.0726 -0.0404
 5056SOL    HW126627   3.741   4.535  10.152 -2.2751 -1.0171 -0.3232
 5056SOL    HW226628   3.795   4.427  10.078 -2.2660 -0.1005 -0.7449
 5057SOL     OW26629   1.336   4.527  14.121  0.1664 -0.0097 -0.6674
 5057SOL    HW126630   1.370   4.473  14.191 -1.2769  0.9903  0.8079
 5057SOL    HW226631   1.268   4.469  14.085 -1.4276 -0.3693  2.9455
 5058SOL     OW26632   0.195   2.140   7.413 -0.4661 -0.2006  0.3887
 5058SOL    HW126633   0.157   2.110   7.495 -1.2191  0.3528  0.2504
 5058SOL    HW226634   0.165   2.231   7.403  0.8453  0.3502  1.6145
 5059SOL     OW26635   3.149   3.392   7.921 -0.2574  0.2090 -0.0085
 5059SOL    HW126636   3.168   3.298   7.919  2.2747  0.7019  0.0552
 5059SOL    HW226637   3.225   3.419   7.973  1.4113 -1.2210 -1.6652
 5060SOL     OW26638   2.704   3.600  14.306 -0.1813 -0.1353 -0.4538
 5060SOL    HW126639   2.682   3.666  14.372  1.2559  0.1849 -0.2955
 5060SOL    HW226640   2.629   3.620  14.250 -1.0947 -0.8140  0.5484
 5061SOL     OW26641   3.104   2.531   3.648 -0.4559 -0.3449 -0.1118
 5061SOL    HW126642   3.118   2.447   3.606 -0.8248 -0.8237  0.7273
 5061SOL    HW226643   3.142   2.516   3.734  0.2023 -0.0633 -0.3509
 5062SOL     OW26644   3.840   4.411   9.889  0.0530 -0.0235 -0.0970
 5062SOL    HW126645   3.923   4.459   9.889 -0.4641  0.8968  1.7369
 5062SOL    HW226646   3.838   4.384   9.797  0.2685  1.0697 -0.4182
 5063SOL     OW26647   1.910   0.620   9.054 -0.8012  0.5042  0.0422
 5063SOL    HW126648   1.964   0.657   8.985  1.4642 -1.6873  0.6403
 5063SOL    HW226649   1.964   0.547   9.085  0.7587 -0.1110 -4.1210
 5064SOL     OW26650   0.876   1.256   9.447  0.0973 -0.3815  0.1677
 5064SOL    HW126651   0.955   1.217   9.484  1.1080  3.2467  1.7825
 5064SOL    HW226652   0.921   1.316   9.387  0.6236 -0.5010  0.4484
 5065SOL     OW26653   0.317   3.077   6.902 -0.6432 -0.0554  0.0652
 5065SOL    HW126654   0.240   3.133   6.899 -1.5074 -1.2042  0.7730
 5065SOL    HW226655   0.332   3.045   6.813 -3.0670 -0.7864 -0.0827
 5066SOL     OW26656   4.576   2.182   5.433 -0.2619  0.0149  0.9048
 5066SOL    HW126657   4.668   2.162   5.417 -0.7914 -0.6152 -1.4152
 5066SOL    HW226658   4.563   2.205   5.525 -0.4200 -0.9592  1.1261
 5067SOL     OW26659   2.384   0.155  10.697 -0.2619  0.0930  0.1219
 5067SOL    HW126660   2.435   0.105  10.761 -0.1384  0.7433  0.5364
 5067SOL    HW226661   2.298   0.144  10.738 -0.3391 -1.6300 -0.5302
 5068SOL     OW26662   3.042   1.216   7.935 -0.2608 -0.3517 -0.0935
 5068SOL    HW126663   2.954   1.178   7.940 -0.7211  0.6654 -0.3388
 5068SOL    HW226664   3.071   1.192   8.023 -3.1972 -1.0434  0.6963
 5069SOL     OW26665   1.610   1.080   9.725 -0.1005 -0.1962 -0.0144
 5069SOL    HW126666   1.614   1.017   9.797  1.5207 -1.2183 -1.0054
 5069SOL    HW226667   1.698   1.119   9.724 -0.6969  1.1340 -0.6514
 5070SOL     OW26668   1.957   4.306   5.989 -0.4374  0.1914  0.0101
 5070SOL    HW126669   1.944   4.294   6.083  0.4550  2.3831  0.4076
 5070SOL    HW226670   1.998   4.223   5.966  0.1172  0.0415  1.5557
 5071SOL     OW26671   3.030   2.912   5.923 -0.2609  0.4287  0.0207
 5071SOL    HW126672   3.110   2.862   5.910 -1.3134 -1.4848  0.9309
 5071SOL    HW226673   3.037   2.969   5.847  2.4003 -1.7017 -1.3150
 5072SOL     OW26674   0.552   2.924  15.965 -0.2043  0.5201 -0.5419
 5072SOL    HW126675   0.514   2.961  15.886  1.0653  2.2481 -0.3388
 5072SOL    HW226676   0.598   2.845  15.934 -0.6141 -0.2784  0.9216
 5073SOL     OW26677   1.196   2.844   4.360  0.5374  0.5369 -0.0812
 5073SOL    HW126678   1.213   2.750   4.349 -0.3976  0.3518  0.0762
 5073SOL    HW226679   1.260   2.883   4.300 -0.3774  0.8386 -0.8686
 5074SOL     OW26680   2.647   1.266   4.725  0.4076 -0.1123  0.5863
 5074SOL    HW126681   2.656   1.215   4.806  0.6222 -1.0579 -0.0301
 5074SOL    HW226682   2.629   1.198   4.659  2.0179  1.0543 -1.0607
 5075SOL     OW26683   3.974   0.968   4.597  0.9743  0.2380  0.4073
 5075SOL    HW126684   4.025   0.899   4.554 -2.5875 -1.4728 -1.1034
 5075SOL    HW226685   3.951   1.023   4.522  0.5139 -0.4038  0.0735
 5076SOL     OW26686   1.291   3.691   8.956  0.1807 -0.4063  0.1516
 5076SOL    HW126687   1.374   3.645   8.943 -0.3141 -1.3842  0.4155
 5076SOL    HW226688   1.329   3.778   8.968 -1.1217  0.1673  0.0758
 5077SOL     OW26689   0.585   1.108  17.140 -0.3272 -0.7416  0.4598
 5077SOL    HW126690   0.519   1.066  17.195 -2.1784 -0.0137 -1.1895
 5077SOL    HW226691   0.653   1.134  17.202 -0.0636 -0.5038  0.0754
 5078SOL     OW26692   1.518   4.566   2.134 -0.0169 -0.3379  0.1542
 5078SOL    HW126693   1.606   4.595   2.108  0.2337 -1.9961 -0.8570
 5078SOL    HW226694   1.472   4.650   2.136  2.4362  1.0214 -0.4570
 5079SOL     OW26695   1.275   2.573   0.641  0.0042 -0.3604 -0.6440
 5079SOL    HW126696   1.225   2.541   0.566 -2.4030  0.4738  0.5840
 5079SOL    HW226697   1.345   2.508   0.646 -2.3945 -2.7550  1.5832
 5080SOL     OW26698   3.229   1.453   9.134 -0.2267 -0.8377  0.0888
 5080SOL    HW126699   3.293   1.521   9.158  0.9683 -1.3514 -1.6680
 5080SOL    HW226700   3.148   1.504   9.137 -0.2222 -0.8093 -0.3066
 5081SOL     OW26701   0.699   1.409   8.879 -0.4224 -0.2041 -0.0468
 5081SOL    HW126702   0.783   1.456   8.879 -1.3843  1.5355 -0.8152
 5081SOL    HW226703   0.716   1.316   8.870 -1.7436 -0.4508  0.0278
 5082SOL     OW26704   0.814   3.707   7.101 -0.1441 -0.1360  0.3044
 5082SOL    HW126705   0.905   3.716   7.072  0.1730  0.4177  1.5020
 5082SOL    HW226706   0.794   3.614   7.088  0.1038 -0.2108  0.4754
 5083SOL     OW26707   4.559   1.282   6.489 -0.1530  0.0831  0.5201
 5083SOL    HW126708   4.480   1.242   6.526 -1.2952  0.2428 -1.7958
 5083SOL    HW226709   4.514   1.312   6.411  0.2970  0.2788  0.3381
 5084SOL     OW26710   4.627   3.248   3.565  0.3230  0.3373 -0.0047
 5084SOL    HW126711   4.615   3.278   3.475  1.9627 -1.5595 -0.8522
 5084SOL    HW226712   4.584   3.163   3.562  2.7698 -0.9388  0.9448
 5085SOL     OW26713   1.941   2.413  15.257 -0.9067  0.2836 -0.3029
 5085SOL    HW126714   2.004   2.458  15.312 -1.2524  0.7060 -0.2475
 5085SOL    HW226715   1.863   2.457  15.291 -0.5430 -1.1466  2.3568
 5086SOL     OW26716   3.547   2.759  10.734  0.3343 -0.4223 -0.0719
 5086SOL    HW126717   3.552   2.800  10.648 -0.5638 -0.0341  0.0587
 5086SOL    HW226718   3.610   2.807  10.788 -1.5109  1.1590  0.6858
 5087SOL     OW26719   4.080   1.026   3.449 -0.0186 -0.2264 -0.2235
 5087SOL    HW126720   4.080   0.932   3.464  1.7683 -0.2293 -0.2651
 5087SOL    HW226721   4.166   1.044   3.411  0.6228 -2.4522  0.1912
 5088SOL     OW26722   3.033   0.396  12.552 -0.1012  0.2211  0.1784
 5088SOL    HW126723   3.104   0.381  12.615 -2.1574  2.5769  3.0733
 5088SOL    HW226724   3.044   0.329  12.484  1.2336 -2.0095  2.5711
 5089SOL     OW26725   1.193   1.325  11.851 -0.6517 -0.0435  0.2202
 5089SOL    HW126726   1.179   1.419  11.855 -2.1840 -0.3525  2.2916
 5089SOL    HW226727   1.249   1.313  11.775  0.3376  0.7480  0.8256
 5090SOL     OW26728   1.375   3.883  14.883  0.0091  0.0074 -0.4527
 5090SOL    HW126729   1.429   3.805  14.880 -0.6312 -0.3434 -2.3158
 5090SOL    HW226730   1.300   3.849  14.932 -2.8861  3.3071 -2.5492
 5091SOL     OW26731   2.597   0.402   3.927  0.1885 -0.0294 -0.4588
 5091SOL    HW126732   2.573   0.471   3.989  0.6230  0.7002 -1.1154
 5091SOL    HW226733   2.554   0.331   3.975  1.8988 -1.7976 -1.5217
 5092SOL     OW26734   0.391   3.097  13.925  0.3224  0.1276  0.3302
 5092SOL    HW126735   0.451   3.022  13.918 -0.7542 -0.7967  0.9508
 5092SOL    HW226736   0.385   3.107  13.830 -0.0517  0.0755  0.3469
 5093SOL     OW26737   1.745   0.377   7.379 -0.3071 -0.4414 -0.5531
 5093SOL    HW126738   1.800   0.360   7.303 -2.8346  0.7801 -2.6525
 5093SOL    HW226739   1.789   0.333   7.452 -1.9300 -0.4335  0.4343
 5094SOL     OW26740   0.749   4.340   9.581 -0.1455 -0.1393 -0.6459
 5094SOL    HW126741   0.723   4.409   9.642  0.3499 -0.8480  0.3720
 5094SOL    HW226742   0.793   4.288   9.648  0.7030  0.2554 -0.8934
 5095SOL     OW26743   0.859   3.150   1.561 -0.3781 -0.0121  0.0512
 5095SOL    HW126744   0.777   3.102   1.546  0.2388 -0.0597 -3.1995
 5095SOL    HW226745   0.828   3.237   1.536 -1.4431 -0.8756 -1.6793
 5096SOL     OW26746   1.478   2.695   7.290  0.6301 -0.0987 -0.1884
 5096SOL    HW126747   1.496   2.680   7.197  2.0997 -2.6765  0.5181
 5096SOL    HW226748   1.525   2.618   7.322  1.5499  1.1656  1.4970
 5097SOL     OW26749   2.495   3.045   1.106  0.6184 -0.1849  0.7460
 5097SOL    HW126750   2.450   3.031   1.022 -1.7378  1.3904  1.7178
 5097SOL    HW226751   2.562   3.109   1.083 -0.3244  0.4379 -0.3285
 5098SOL     OW26752   3.710   4.712  17.647 -0.0998 -0.0544  0.0790
 5098SOL    HW126753   3.684   4.679  17.561  0.4314 -0.1932 -0.0290
 5098SOL    HW226754   3.623   0.001  17.685 -0.7607  0.7806 -1.6878
 5099SOL     OW26755   4.610   1.000  10.897 -0.1139 -0.1806 -0.3684
 5099SOL    HW126756   4.699   1.028  10.915 -0.5902  0.8900  0.3505
 5099SOL    HW226757   4.559   1.069  10.939 -0.0122 -0.8939  0.9301
 5100SOL     OW26758   1.688   1.033   3.444 -0.2616 -0.9177  0.5423
 5100SOL    HW126759   1.612   0.979   3.466  0.8318 -1.9153  1.8123
 5100SOL    HW226760   1.662   1.118   3.478 -0.0708 -0.1026 -1.3656
 5101SOL     OW26761   2.303   1.255  15.123 -0.0477 -0.1587 -0.4673
 5101SOL    HW126762   2.377   1.263  15.183  1.4858 -0.4909 -2.3128
 5101SOL    HW226763   2.337   1.313  15.055  0.3796 -1.4578 -1.3746
 5102SOL     OW26764   4.675   1.080   2.507 -0.3457  0.3212 -0.3878
 5102SOL    HW126765   4.706   1.109   2.421  2.1396  2.3926  1.2137
 5102SOL    HW226766   0.040   1.080   2.548  0.2580 -0.5931 -1.6604
 5103SOL     OW26767   1.532   1.791   3.258  0.2519  0.0228  0.1614
 5103SOL    HW126768   1.517   1.775   3.165 -0.3345 -0.8296  0.4051
 5103SOL    HW226769   1.604   1.728   3.272 -1.0766 -1.4127  0.5225
 5104SOL     OW26770   1.406   0.076   0.167  0.7550  0.1962  0.0467
 5104SOL    HW126771   1.325   0.025   0.166  0.5209  0.5295  3.8187
 5104SOL    HW226772   1.441   0.030   0.243  0.3784 -0.6365 -0.2816
 5105SOL     OW26773   0.393   3.352   2.612 -0.7515  0.0607 -0.0551
 5105SOL    HW126774   0.353   3.379   2.694  2.1673  0.9133  1.0969
 5105SOL    HW226775   0.412   3.260   2.633 -1.1830 -0.1690 -0.6759
 5106SOL     OW26776   3.428   4.353   4.011 -0.7953  0.1741  0.3800
 5106SOL    HW126777   3.425   4.258   4.010 -1.7289  0.2268 -1.3946
 5106SOL    HW226778   3.486   4.369   3.937 -0.5095  2.1143  1.0175
 5107SOL     OW26779   1.915   2.659   6.581 -0.3437  0.2467  0.3791
 5107SOL    HW126780   1.998   2.704   6.567 -1.0122  0.7244 -2.0257
 5107SOL    HW226781   1.854   2.732   6.575 -0.3576  0.1687 -0.4372
 5108SOL     OW26782   3.856   2.274   5.281 -0.1633 -0.3230 -0.4296
 5108SOL    HW126783   3.919   2.235   5.341 -0.1137  1.6599  0.8016
 5108SOL    HW226784   3.803   2.327   5.341 -0.1670 -0.0606 -0.6660
 5109SOL     OW26785   0.327   2.018   5.371  0.0630  0.4689  0.1242
 5109SOL    HW126786   0.363   1.933   5.344  0.7722  1.1616 -1.0824
 5109SOL    HW226787   0.386   2.085   5.338 -1.9707  2.3402  0.2729
 5110SOL     OW26788   3.259   0.644   2.129  0.0190  0.3144  0.1595
 5110SOL    HW126789   3.178   0.605   2.161  0.3159 -1.7247 -1.5586
 5110SOL    HW226790   3.292   0.596   2.052 -2.1171 -1.2642  0.2522
 5111SOL     OW26791   4.027   2.089   6.243 -0.9268  0.0235  0.3269
 5111SOL    HW126792   4.096   2.048   6.190 -2.2782 -2.2958  0.3640
 5111SOL    HW226793   4.059   2.178   6.251 -0.0856 -0.3534  1.1845
 5112SOL     OW26794   4.659   3.256   3.910  0.1421 -0.3741  0.8524
 5112SOL    HW126795   4.696   3.314   3.977  1.5590 -1.0598  0.6450
 5112SOL    HW226796   4.607   3.316   3.857 -0.7138 -0.4839  1.5584
 5113SOL     OW26797   1.453   0.614  16.807 -0.6739 -0.9908 -0.5275
 5113SOL    HW126798   1.432   0.541  16.865  0.8795 -1.7197 -0.8859
 5113SOL    HW226799   1.507   0.568  16.744  0.7095  1.8298 -1.4261
 5114SOL     OW26800   1.152   1.379  14.419  0.4476  0.5169 -0.3627
 5114SOL    HW126801   1.136   1.321  14.344  0.8031  0.8153 -0.6695
 5114SOL    HW226802   1.222   1.336  14.467  0.4160 -0.6573 -1.3781
 5115SOL     OW26803   1.951   3.524   2.694 -0.1405  0.0481 -0.0217
 5115SOL    HW126804   2.032   3.561   2.660  0.0046  0.4660  0.7841
 5115SOL    HW226805   1.918   3.506   2.606 -1.3807  1.1694  0.2164
 5116SOL     OW26806   3.714   2.544   9.665  0.5538 -0.1832 -0.1699
 5116SOL    HW126807   3.713   2.551   9.760 -1.3135 -2.1924 -0.0356
 5116SOL    HW226808   3.721   2.638   9.647  1.6306 -0.0556  0.9436
 5117SOL     OW26809   1.919   3.231  14.618 -0.1045  0.1137  0.1522
 5117SOL    HW126810   1.824   3.238  14.617 -0.1192  0.0147  0.9819
 5117SOL    HW226811   1.940   3.212  14.527 -0.2426 -2.3252  0.6360
 5118SOL     OW26812   0.324   2.646   7.975 -0.2071 -0.1390 -0.0967
 5118SOL    HW126813   0.328   2.655   7.879 -0.9212 -0.3789 -0.1436
 5118SOL    HW226814   0.234   2.659   8.005  0.6411 -0.6251  2.6245
 5119SOL     OW26815   2.838   1.006   2.558 -0.2170  0.1354 -0.6810
 5119SOL    HW126816   2.747   1.026   2.580 -0.1305  1.8775 -1.9262
 5119SOL    HW226817   2.837   1.001   2.463 -2.2741 -1.7398 -0.5621
 5120SOL     OW26818   3.450   3.508   4.758  0.4643  0.0734  0.3068
 5120SOL    HW126819   3.507   3.448   4.708 -0.5154 -0.9204  0.3711
 5120SOL    HW226820   3.495   3.538   4.836  1.6179 -1.0940  0.0971
 5121SOL     OW26821   3.613   1.977   4.247 -0.1922  0.1329 -0.1426
 5121SOL    HW126822   3.671   1.914   4.290 -0.0745  0.2585 -0.1204
 5121SOL    HW226823   3.669   2.026   4.188  1.0910 -2.6851 -1.2912
 5122SOL     OW26824   0.847   1.286   2.089  0.5533 -0.1802 -0.0048
 5122SOL    HW126825   0.902   1.225   2.041  0.6408 -0.8353  0.9170
 5122SOL    HW226826   0.869   1.374   2.059 -2.9870  0.8744  0.4301
 5123SOL     OW26827   3.152   1.229   9.801 -0.5002  0.4883 -0.7506
 5123SOL    HW126828   3.058   1.247   9.805 -0.7610 -1.0875  0.3308
 5123SOL    HW226829   3.164   1.258   9.891 -1.1579  1.0918 -0.8530
 5124SOL     OW26830   3.774   0.893   6.077 -0.7042  0.0623 -0.3331
 5124SOL    HW126831   3.716   0.903   6.001 -1.8373 -1.5839  0.3311
 5124SOL    HW226832   3.777   0.798   6.081 -0.5075  0.1752  1.7882
 5125SOL     OW26833   4.451   0.403   3.628 -0.2145  0.2301  0.5750
 5125SOL    HW126834   4.520   0.417   3.694  2.1369 -1.7124 -1.4958
 5125SOL    HW226835   4.406   0.485   3.649  1.2480  1.5364 -1.4736
 5126SOL     OW26836   0.825   0.310   3.514 -0.3484  0.0669  0.7663
 5126SOL    HW126837   0.810   0.221   3.482  0.1693 -0.2924  1.5064
 5126SOL    HW226838   0.847   0.287   3.605 -1.7805 -0.3713  0.9945
 5127SOL     OW26839   3.585   2.031   2.717 -0.2421  0.6234 -0.3234
 5127SOL    HW126840   3.592   2.113   2.669  0.7667  0.8487  0.2107
 5127SOL    HW226841   3.498   1.997   2.693 -0.2921  1.8913 -1.9388
 5128SOL     OW26842   0.599   1.506   3.092 -0.3012  0.1464 -0.7420
 5128SOL    HW126843   0.592   1.492   2.998  0.1819  0.2072 -0.7870
 5128SOL    HW226844   0.658   1.581   3.097  2.2043 -1.9187  0.7549
 5129SOL     OW26845   0.732   1.272   5.549 -0.9295  0.4056 -0.2164
 5129SOL    HW126846   0.744   1.323   5.629  0.3903  1.0173 -0.7973
 5129SOL    HW226847   0.717   1.336   5.480  0.8474  0.6603 -0.3607
 5130SOL     OW26848   0.381   2.726   7.157  0.2049 -0.8243 -0.1337
 5130SOL    HW126849   0.464   2.773   7.155  1.1068 -2.2968  1.6014
 5130SOL    HW226850   0.318   2.797   7.165 -1.8044 -2.5620 -0.4452
 5131SOL     OW26851   3.772   0.691   3.026  0.3450 -0.8315 -0.7717
 5131SOL    HW126852   3.757   0.706   2.933 -1.0320 -1.0707 -0.5854
 5131SOL    HW226853   3.865   0.713   3.035 -0.5652  1.9785  1.9121
 5132SOL     OW26854   4.249   4.315   3.852  0.1727  0.2646  0.2103
 5132SOL    HW126855   4.222   4.285   3.765  1.3748  4.1647 -1.4831
 5132SOL    HW226856   4.275   4.402   3.822  0.4814  0.3949  0.8587
 5133SOL     OW26857   4.486   1.525   7.652 -0.2587 -0.1402 -0.0342
 5133SOL    HW126858   4.493   1.461   7.723 -1.8760 -0.0217  0.2296
 5133SOL    HW226859   4.400   1.508   7.613 -0.5238  0.0791  0.4573
 5134SOL     OW26860   3.924   1.631   0.687  0.5632  0.3647 -0.1110
 5134SOL    HW126861   3.939   1.638   0.593 -1.3166 -0.4403 -0.4699
 5134SOL    HW226862   3.875   1.549   0.693  0.6214  0.4004  0.7683
 5135SOL     OW26863   4.707   1.721  13.579 -0.6082  0.3577 -0.4441
 5135SOL    HW126864   4.670   1.742  13.664 -0.9434 -2.0457 -0.0019
 5135SOL    HW226865   0.045   1.794  13.569  1.2268 -1.1628 -0.5547
 5136SOL     OW26866   1.546   4.447   8.732  0.7547 -0.3018 -0.3527
 5136SOL    HW126867   1.513   4.418   8.647  1.7401 -0.7228 -0.5821
 5136SOL    HW226868   1.468   4.481   8.777  1.0342 -0.3500  0.1672
 5137SOL     OW26869   1.273   4.644  16.093  0.5217 -0.2205 -0.1014
 5137SOL    HW126870   1.357   4.627  16.135  0.1806 -0.7576  0.3725
 5137SOL    HW226871   1.277   0.001  16.039 -1.7141 -0.1305 -0.1665
 5138SOL     OW26872   0.339   2.528   6.988  0.3582 -0.2567  0.0217
 5138SOL    HW126873   0.355   2.602   7.047  1.6312 -1.7708  1.5642
 5138SOL    HW226874   0.352   2.575   6.905  0.3390 -1.3176 -0.5762
 5139SOL     OW26875   2.582   0.070   2.091 -0.2407  0.0116 -0.1724
 5139SOL    HW126876   2.668   0.029   2.083 -0.4015  0.0736 -2.3663
 5139SOL    HW226877   2.550   0.049   2.003 -0.6079  0.5703 -0.1708
 5140SOL     OW26878   0.075   4.400   9.928 -0.1580 -0.2074 -0.4287
 5140SOL    HW126879   0.161   4.441   9.920 -0.1734 -0.0053  0.3699
 5140SOL    HW226880   0.080   4.321   9.876  1.2851 -0.8796  0.7266
 5141SOL     OW26881   0.287   2.911  14.969 -0.1843 -0.2443  0.1382
 5141SOL    HW126882   0.211   2.954  15.007 -0.0847  0.2354 -0.2132
 5141SOL    HW226883   0.238   2.853  14.910  1.4148 -1.3290 -0.1407
 5142SOL     OW26884   3.005   2.139  11.568  0.0861  0.1448  0.0455
 5142SOL    HW126885   2.981   2.178  11.652 -0.4332 -0.5658  0.2226
 5142SOL    HW226886   3.094   2.107  11.584  0.2475 -0.1163 -1.3936
 5143SOL     OW26887   3.834   4.102   8.395 -0.8907 -0.4378 -0.6847
 5143SOL    HW126888   3.759   4.160   8.406 -1.1281 -0.5606 -1.6790
 5143SOL    HW226889   3.910   4.157   8.413 -0.4469 -1.3397  0.2480
 5144SOL     OW26890   3.046   2.029   5.154 -0.4319  0.8995  0.4789
 5144SOL    HW126891   2.978   1.970   5.121  2.4878 -1.6279 -1.0565
 5144SOL    HW226892   3.070   2.062   5.068  3.8183  1.9179  2.0453
 5145SOL     OW26893   4.640   3.848  13.141  0.4568 -0.9357  0.1861
 5145SOL    HW126894   4.604   3.899  13.069 -2.2002 -2.8055  0.1724
 5145SOL    HW226895   4.671   3.771  13.094  1.1529 -0.6783  0.2168
 5146SOL     OW26896   2.111   1.163   8.953  0.4080  0.3928 -0.0180
 5146SOL    HW126897   2.040   1.122   8.905  1.8763 -2.3146  0.0856
 5146SOL    HW226898   2.121   1.101   9.025 -0.8413 -0.4009 -0.5372
 5147SOL     OW26899   2.981   1.270  13.245  0.2873  0.3041  0.1828
 5147SOL    HW126900   2.940   1.351  13.216 -0.7781 -0.1865  0.3371
 5147SOL    HW226901   2.939   1.211  13.182  2.5033  0.3113 -1.3017
 5148SOL     OW26902   0.312   3.953   9.462 -0.6622  0.1226  0.5283
 5148SOL    HW126903   0.277   3.933   9.549 -3.6097  1.9601 -0.2371
 5148SOL    HW226904   0.327   4.047   9.478 -0.6113  0.1952  0.0591
 5149SOL     OW26905   3.145   3.567   3.486 -0.1794  0.8310  0.6639
 5149SOL    HW126906   3.185   3.540   3.569  0.3110 -0.4117  0.0265
 5149SOL    HW226907   3.192   3.641   3.448 -0.0369 -0.1155 -1.0175
 5150SOL     OW26908   0.435   4.611   8.458 -0.1199 -0.1095  0.2663
 5150SOL    HW126909   0.443   4.601   8.552 -2.9354  1.0633  0.6219
 5150SOL    HW226910   0.523   4.587   8.428 -0.2779 -0.8813  0.4300
 5151SOL     OW26911   2.999   2.775  17.627 -0.7099 -0.4269  0.1197
 5151SOL    HW126912   3.080   2.743  17.667 -1.9271 -0.4424  2.5934
 5151SOL    HW226913   3.037   2.826  17.556 -2.0145  1.6590  0.9350
 5152SOL     OW26914   1.702   3.295   5.045  0.5976  0.4691 -0.7631
 5152SOL    HW126915   1.683   3.388   5.053  2.0303  0.4967  2.0557
 5152SOL    HW226916   1.707   3.279   5.139 -1.9693 -0.8297 -0.8275
 5153SOL     OW26917   0.227   1.499   7.040  0.4218 -0.3808  0.1950
 5153SOL    HW126918   0.207   1.444   6.965 -0.3916 -1.9040  1.5199
 5153SOL    HW226919   0.139   1.497   7.078 -0.3362  0.4970 -1.5005
 5154SOL     OW26920   3.432   2.434   8.165 -0.1612  0.2096 -0.3510
 5154SOL    HW126921   3.371   2.463   8.097 -0.3630  0.3977 -0.0906
 5154SOL    HW226922   3.383   2.365   8.209  0.6607 -1.1363 -1.5331
 5155SOL     OW26923   1.027   2.713   5.518  0.1800  0.4362 -0.7072
 5155SOL    HW126924   1.072   2.698   5.601 -2.7395  3.1375  1.3382
 5155SOL    HW226925   1.106   2.739   5.470 -0.4688  0.9461 -1.4906
 5156SOL     OW26926   0.091   3.981   6.177 -0.4550 -0.6222  0.4394
 5156SOL    HW126927   0.088   4.074   6.157  0.9607 -0.1282  2.4789
 5156SOL    HW226928   0.003   3.960   6.146 -0.9896 -1.0304  2.2134
 5157SOL     OW26929   4.228   0.185  16.334 -0.2351  0.5914  0.6695
 5157SOL    HW126930   4.180   0.123  16.280  1.4140  1.8331 -2.1954
 5157SOL    HW226931   4.200   0.274  16.312 -1.7407 -0.1838 -0.5420
 5158SOL     OW26932   1.561   4.680   4.598 -0.1420 -0.3416  0.0775
 5158SOL    HW126933   1.543   4.585   4.597  1.4466 -0.6060 -2.0356
 5158SOL    HW226934   1.555   4.702   4.691 -0.4492 -0.7484  0.1589
 5159SOL     OW26935   4.657   4.171   7.881 -0.0132 -0.2273  0.2929
 5159SOL    HW126936   4.619   4.221   7.953 -1.1878  1.1388 -1.2729
 5159SOL    HW226937   0.023   4.208   7.870  0.5111 -1.1085  1.5402
 5160SOL     OW26938   4.297   0.630   7.041 -0.1388 -0.3395  0.8726
 5160SOL    HW126939   4.373   0.658   6.990  0.2482  0.1757  1.7271
 5160SOL    HW226940   4.266   0.716   7.069 -0.1703  0.3154 -1.1532
 5161SOL     OW26941   3.653   0.068  16.387 -0.3328 -0.1438  0.2017
 5161SOL    HW126942   3.635   4.706  16.430 -0.6041  0.3151  0.9856
 5161SOL    HW226943   3.564   0.104  16.381  0.5251  1.8259 -0.8554
 5162SOL     OW26944   0.149   2.350   7.102  0.3936 -0.1723  0.3188
 5162SOL    HW126945   0.220   2.322   7.043  0.2708  0.9763 -0.3730
 5162SOL    HW226946   0.163   2.444   7.102  1.6969 -0.3632 -0.6112
 5163SOL     OW26947   2.223   3.722   6.778  0.4339  0.2792  0.1205
 5163SOL    HW126948   2.271   3.751   6.700  0.2461 -1.3552 -0.5967
 5163SOL    HW226949   2.149   3.782   6.776 -1.1341 -1.7451 -2.0642
 5164SOL     OW26950   2.460   1.532   7.168  0.0888  0.0245 -0.1623
 5164SOL    HW126951   2.431   1.539   7.077 -0.5807  1.9923  0.1887
 5164SOL    HW226952   2.377   1.553   7.210  0.5466 -0.1519  0.8332
 5165SOL     OW26953   1.778   4.337  16.215 -0.4796  0.1465  0.2297
 5165SOL    HW126954   1.782   4.253  16.261 -0.8707 -0.2184 -0.3896
 5165SOL    HW226955   1.784   4.394  16.291  2.2668 -0.7475  0.6816
 5166SOL     OW26956   1.760   4.019  12.001  0.0910  0.2598  0.5289
 5166SOL    HW126957   1.671   4.036  12.032  0.0507 -0.9608  1.0533
 5166SOL    HW226958   1.808   4.069  12.067  1.8922 -2.9548  1.6240
 5167SOL     OW26959   3.709   1.558  17.478  0.0328  0.4903 -0.0237
 5167SOL    HW126960   3.757   1.601  17.407  0.8414 -1.6024 -0.7393
 5167SOL    HW226961   3.775   1.566  17.546  0.3924 -1.6069 -0.1506
 5168SOL     OW26962   1.179   3.502   2.108 -0.1987 -0.3228  0.0400
 5168SOL    HW126963   1.135   3.491   2.192 -1.2696 -0.7347 -0.5814
 5168SOL    HW226964   1.218   3.416   2.090 -1.0405 -0.2671 -2.0353
 5169SOL     OW26965   1.411   0.409   7.538  0.5662 -0.2645 -0.2471
 5169SOL    HW126966   1.325   0.378   7.509  1.3712 -0.4030 -2.4576
 5169SOL    HW226967   1.434   0.461   7.462  0.4250  2.2640  1.4289
 5170SOL     OW26968   1.176   3.502  17.206  0.2852 -0.7138 -0.0182
 5170SOL    HW126969   1.222   3.476  17.127  1.1848  1.0388 -0.0694
 5170SOL    HW226970   1.212   3.589  17.223 -0.4911 -0.1234 -1.3603
 5171SOL     OW26971   3.690   3.039   6.050 -0.1171 -0.3219  0.2210
 5171SOL    HW126972   3.672   3.001   5.964 -0.5608  0.6891 -0.1347
 5171SOL    HW226973   3.600   3.049   6.081  0.6550 -0.8826  2.6634
 5172SOL     OW26974   2.443   2.884  13.494  0.2706  0.2206  0.0675
 5172SOL    HW126975   2.401   2.914  13.575  0.1057 -0.0263  0.0714
 5172SOL    HW226976   2.499   2.961  13.480  0.6659  0.5220  3.3345
 5173SOL     OW26977   1.439   0.124   5.190 -0.2003 -0.1032  0.8884
 5173SOL    HW126978   1.346   0.101   5.188  0.0133 -0.7648 -1.1993
 5173SOL    HW226979   1.477   0.069   5.258 -1.0740 -3.2313 -1.1539
 5174SOL     OW26980   0.024   0.152   8.362 -0.5409  0.1116  0.2638
 5174SOL    HW126981   4.710   0.213   8.427 -0.7882 -1.2171  1.3891
 5174SOL    HW226982   4.665   0.115   8.327  0.0263 -1.7691  0.9672
 5175SOL     OW26983   3.558   4.158   7.009 -0.2789 -0.7804  0.0622
 5175SOL    HW126984   3.521   4.117   7.087 -1.7251  1.0968  0.3921
 5175SOL    HW226985   3.478   4.192   6.968 -1.0432 -3.4132 -0.6232
 5176SOL     OW26986   1.747   3.334  16.247  0.3424  0.1001 -0.4846
 5176SOL    HW126987   1.837   3.367  16.245  1.5300 -3.0106  2.5700
 5176SOL    HW226988   1.737   3.300  16.158 -0.5533  0.8387 -0.6602
 5177SOL     OW26989   3.653   0.771  16.511  0.1777 -0.4044  0.4121
 5177SOL    HW126990   3.588   0.779  16.581 -2.1385  1.8011 -1.9511
 5177SOL    HW226991   3.732   0.749  16.559 -1.4921 -1.5007  2.6721
 5178SOL     OW26992   1.461   1.942   7.600 -0.2773  0.3918 -0.3802
 5178SOL    HW126993   1.464   1.903   7.688 -0.9498  1.1761 -0.0062
 5178SOL    HW226994   1.453   1.858   7.556 -1.0412  0.4857 -0.4160
 5179SOL     OW26995   0.427   0.855  10.433  0.0598 -0.8851  0.3558
 5179SOL    HW126996   0.387   0.921  10.490  1.6147  2.7286 -2.6854
 5179SOL    HW226997   0.346   0.830  10.388 -0.0355  0.3835 -0.1806
 5180SOL     OW26998   3.797   3.403   2.459 -0.1117 -0.3072 -0.1542
 5180SOL    HW126999   3.808   3.361   2.544  1.9945 -1.2461 -0.9138
 5180SOL    HW227000   3.720   3.362   2.421 -0.6436 -0.2676  0.8543
 5181SOL     OW27001   0.137   1.414   2.409  0.6733  0.2995  0.3292
 5181SOL    HW127002   0.210   1.392   2.351 -0.1137  2.5191 -1.4791
 5181SOL    HW227003   0.081   1.336   2.399  1.9460 -0.8087  1.7906
 5182SOL     OW27004   2.291   1.452   6.509  0.1513  0.1109  0.1805
 5182SOL    HW127005   2.308   1.369   6.556  1.3122  0.2783  0.0576
 5182SOL    HW227006   2.209   1.483   6.546  0.4483 -0.9123  1.7285
 5183SOL     OW27007   1.030   3.170  12.083 -0.3453 -0.2003 -0.3083
 5183SOL    HW127008   1.071   3.084  12.096 -0.3402 -0.3574 -1.3372
 5183SOL    HW227009   1.018   3.193  12.175  0.9149  3.5097 -1.0636
 5184SOL     OW27010   1.847   2.609   1.624  0.3609 -0.1850 -0.2544
 5184SOL    HW127011   1.933   2.634   1.659 -0.3483  1.4150  0.3453
 5184SOL    HW227012   1.855   2.515   1.638 -1.0777 -0.4065 -0.9435
 5185SOL     OW27013   0.157   0.370  14.570  0.4222 -0.0896 -0.2242
 5185SOL    HW127014   0.062   0.381  14.567  0.5322  0.3671 -2.3230
 5185SOL    HW227015   0.164   0.332  14.657  0.7369  0.2698 -0.0940
 5186SOL     OW27016   2.048   3.540   6.954 -0.0687  0.0121  0.0824
 5186SOL    HW127017   2.124   3.482   6.955 -0.8121 -1.0290 -2.8775
 5186SOL    HW227018   1.970   3.491   6.928 -0.9539  1.1865  0.5215
 5187SOL     OW27019   0.376   3.106   8.347  0.4485  0.0455 -0.5429
 5187SOL    HW127020   0.398   3.053   8.423  0.9961 -1.6180 -1.8586
 5187SOL    HW227021   0.362   3.038   8.280 -0.8780 -1.6294  1.4473
 5188SOL     OW27022   1.046   4.495   8.142 -0.3673  0.2021  0.0955
 5188SOL    HW127023   1.041   4.453   8.056 -1.6004 -0.9425  0.7249
 5188SOL    HW227024   1.041   4.589   8.129  1.3042  0.1578 -0.9255
 5189SOL     OW27025   1.812   4.513   1.402 -0.5014  0.1925  0.1765
 5189SOL    HW127026   1.803   4.434   1.455  3.1847  0.0234  0.5699
 5189SOL    HW227027   1.826   4.480   1.313 -1.4057 -0.6699  0.3623
 5190SOL     OW27028   3.637   0.540   8.273  0.1529 -0.3804  0.2463
 5190SOL    HW127029   3.626   0.628   8.237 -1.3240 -0.6563  0.0527
 5190SOL    HW227030   3.680   0.497   8.199 -0.4642  0.3328 -0.5171
 5191SOL     OW27031   4.429   0.841   3.116 -0.1742 -0.1285 -0.3735
 5191SOL    HW127032   4.429   0.749   3.088 -0.7776 -0.2356 -0.0240
 5191SOL    HW227033   4.341   0.865   3.085  0.5919 -0.5517 -2.9100
 5192SOL     OW27034   3.736   4.485   2.146  0.1302  0.3422  0.0046
 5192SOL    HW127035   3.699   4.428   2.078  0.9685 -1.6455  1.2259
 5192SOL    HW227036   3.707   4.572   2.122 -3.3831 -0.6782  0.5029
 5193SOL     OW27037   1.978   1.680   3.011  0.1737  0.5648  0.0518
 5193SOL    HW127038   2.043   1.704   3.077 -1.2686  2.0600  0.9301
 5193SOL    HW227039   1.921   1.757   3.008  1.1386  1.2984  0.4062
 5194SOL     OW27040   3.507   1.457   5.905 -0.3022 -0.0398  0.5349
 5194SOL    HW127041   3.519   1.501   5.990 -1.2603  1.3307 -0.0589
 5194SOL    HW227042   3.550   1.372   5.919 -1.3922 -0.9205 -1.5496
 5195SOL     OW27043   4.637   3.838   4.988 -0.4558 -0.1288  0.0199
 5195SOL    HW127044   4.588   3.803   5.062 -0.2172 -0.1339  0.1754
 5195SOL    HW227045   4.608   3.929   4.988  0.6824  0.2271 -3.7536
 5196SOL     OW27046   2.189   0.843   3.163  0.5610 -0.1099 -0.1800
 5196SOL    HW127047   2.104   0.811   3.133 -0.0430  0.4689  0.9338
 5196SOL    HW227048   2.202   0.909   3.094 -2.7666  0.7470  0.0370
 5197SOL     OW27049   3.247   4.053   0.771 -0.0841 -0.2692 -0.4057
 5197SOL    HW127050   3.227   4.002   0.849  3.6468  0.6472  1.1438
 5197SOL    HW227051   3.341   4.044   0.759 -0.0042  0.6882 -0.4808
 5198SOL     OW27052   0.250   2.761  10.160  0.3787  0.2211  0.2675
 5198SOL    HW127053   0.244   2.802  10.246 -0.9910 -0.3757  0.4467
 5198SOL    HW227054   0.213   2.831  10.105  1.6266 -0.7908 -1.8867
 5199SOL     OW27055   4.710   0.439   4.075 -0.4504 -0.3471 -0.2310
 5199SOL    HW127056   4.685   0.351   4.045 -0.9257 -1.1503  2.5229
 5199SOL    HW227057   0.066   0.446   4.019 -0.5237 -3.8802 -0.7603
 5200SOL     OW27058   0.818   0.542   6.734 -0.3892  0.2228 -0.0652
 5200SOL    HW127059   0.832   0.633   6.761  0.8389  0.5653 -1.8897
 5200SOL    HW227060   0.819   0.543   6.638  1.2707 -0.1743 -0.0387
 5201SOL     OW27061   1.940   2.196   7.928  0.1041  0.3870 -0.3367
 5201SOL    HW127062   1.974   2.252   7.998  0.1327  1.0810 -0.9058
 5201SOL    HW227063   1.988   2.115   7.945  1.0696  1.3986  1.7375
 5202SOL     OW27064   2.934   1.327   1.053  0.2548 -0.4381 -0.6634
 5202SOL    HW127065   3.009   1.290   1.008  0.3504 -0.4697 -0.4808
 5202SOL    HW227066   2.900   1.387   0.987  1.4360  0.4235 -0.4834
 5203SOL     OW27067   1.489   0.761   2.374  1.0475 -0.4792  0.2685
 5203SOL    HW127068   1.470   0.839   2.321 -0.5046 -0.7643  0.3963
 5203SOL    HW227069   1.397   0.744   2.393  0.9434  1.0342  1.1016
 5204SOL     OW27070   1.889   1.778   0.620 -0.5520 -0.4822 -0.6401
 5204SOL    HW127071   1.979   1.794   0.590 -0.7081  0.7862 -0.4484
 5204SOL    HW227072   1.850   1.855   0.578  0.0788  0.0044 -0.3536
 5205SOL     OW27073   0.062   2.304   6.277 -0.8603 -0.2843  0.3294
 5205SOL    HW127074   4.705   2.351   6.247  0.0047  2.4295  2.3576
 5205SOL    HW227075   0.029   2.216   6.294 -2.3891  0.3615  0.7274
 5206SOL     OW27076   0.527   3.520  10.936  0.1068 -0.2815 -0.0973
 5206SOL    HW127077   0.604   3.541  10.989 -1.1282  0.6969  1.2949
 5206SOL    HW227078   0.533   3.424  10.940 -1.0345 -0.5234 -3.7257
 5207SOL     OW27079   1.187   0.524   4.583 -0.1369 -0.0602  0.2618
 5207SOL    HW127080   1.266   0.548   4.535 -0.4098 -0.8589 -0.5854
 5207SOL    HW227081   1.183   0.608   4.628 -0.8207  0.1304 -0.1549
 5208SOL     OW27082   2.901   0.334  12.998  0.4915  0.0563 -0.0244
 5208SOL    HW127083   2.990   0.363  13.018  0.1115  1.1600  0.0682
 5208SOL    HW227084   2.883   0.349  12.905 -1.0312  0.4545  0.3270
 5209SOL     OW27085   0.585   3.155   7.915  0.2336  0.1965 -0.0221
 5209SOL    HW127086   0.625   3.230   7.958 -3.1458  0.8061  2.0395
 5209SOL    HW227087   0.495   3.147   7.947 -0.9516 -1.4263 -3.6593
 5210SOL     OW27088   2.854   3.298   0.163  0.5353  0.0648 -0.2694
 5210SOL    HW127089   2.919   3.284   0.231  0.3972 -1.3025 -0.4243
 5210SOL    HW227090   2.825   3.207   0.152 -0.5881  0.4354 -0.3622
 5211SOL     OW27091   4.209   2.253   3.533 -0.2771  0.1639 -0.3631
 5211SOL    HW127092   4.222   2.201   3.454 -0.8086 -1.1645  0.4296
 5211SOL    HW227093   4.294   2.243   3.575 -0.1041  2.3112 -0.1974
 5212SOL     OW27094   1.321   2.314   6.397  0.2022 -0.0305  0.1532
 5212SOL    HW127095   1.267   2.355   6.466  0.8050  1.1983 -0.1025
 5212SOL    HW227096   1.354   2.246   6.456  1.5987 -0.3222 -0.9917
 5213SOL     OW27097   2.015   0.700   1.262 -0.0411 -0.0727  0.5679
 5213SOL    HW127098   1.990   0.759   1.333  1.1125  0.9507  0.1237
 5213SOL    HW227099   1.980   0.749   1.188 -0.5516  0.0314  0.8807
 5214SOL     OW27100   0.916   2.236   2.174  0.6181 -0.4443 -0.2924
 5214SOL    HW127101   0.988   2.233   2.111  2.5337  1.4082  1.8048
 5214SOL    HW227102   0.866   2.307   2.133  0.8493 -1.3341 -2.1163
 5215SOL     OW27103   3.072   0.685   0.026  0.2058 -0.4871 -0.4700
 5215SOL    HW127104   3.014   0.717  17.646  1.1989 -1.8180 -1.9184
 5215SOL    HW227105   3.052   0.740   0.102 -0.4460  0.9003 -1.6291
 5216SOL     OW27106   0.793   0.062   6.937  0.0539  0.2879  0.2319
 5216SOL    HW127107   0.741   0.122   6.989 -1.3502 -2.5396  2.1328
 5216SOL    HW227108   0.730   0.037   6.870  0.7849 -1.1755  0.0760
 5217SOL     OW27109   3.734   0.918  11.222  0.1544  0.1214 -0.6030
 5217SOL    HW127110   3.707   0.865  11.148 -1.1261  1.3737 -1.0258
 5217SOL    HW227111   3.655   0.952  11.264  0.2746 -2.2430  1.5350
 5218SOL     OW27112   3.313   3.535   2.403 -0.2105  0.0634  0.1941
 5218SOL    HW127113   3.226   3.514   2.438 -1.6963  0.4706 -3.2474
 5218SOL    HW227114   3.289   3.620   2.367  2.9711  0.2264 -1.4891
 5219SOL     OW27115   1.253   3.132   7.339  0.0188 -0.5421 -0.0886
 5219SOL    HW127116   1.310   3.057   7.355  0.6173 -0.4163 -1.6367
 5219SOL    HW227117   1.233   3.116   7.247  1.0685 -0.8674 -0.2585
 5220SOL     OW27118   4.053   2.730   8.799  0.2114  0.0879  0.0002
 5220SOL    HW127119   4.093   2.643   8.790  1.9547  0.8132  0.8636
 5220SOL    HW227120   4.128   2.780   8.832  0.4533  0.4856 -1.1524
 5221SOL     OW27121   0.268   3.359   8.404 -0.7603 -0.0860  0.2229
 5221SOL    HW127122   0.244   3.366   8.496 -0.9762  2.7951 -0.0735
 5221SOL    HW227123   0.290   3.267   8.389 -0.6868  0.3756 -2.5669
 5222SOL     OW27124   0.826   3.673  14.605  0.4032  0.7534 -0.0092
 5222SOL    HW127125   0.846   3.715  14.522  1.8307 -0.7300 -0.4201
 5222SOL    HW227126   0.772   3.600  14.577  1.8286  0.2695 -1.4850
 5223SOL     OW27127   0.857   1.255   8.103  0.6918 -0.0119 -0.3321
 5223SOL    HW127128   0.825   1.212   8.024 -1.0334  0.6689 -0.0097
 5223SOL    HW227129   0.847   1.176   8.156 -1.6312  0.4870 -0.0221
 5224SOL     OW27130   2.358   1.908   2.687 -0.2243 -0.2532 -0.4845
 5224SOL    HW127131   2.268   1.892   2.715 -0.2072  1.1870  0.4043
 5224SOL    HW227132   2.382   1.820   2.660  0.7103 -0.3376  0.6783
 5225SOL     OW27133   1.140   3.266  10.431 -0.0097  0.0783 -0.1846
 5225SOL    HW127134   1.118   3.258  10.338 -0.5275  0.2038 -0.0726
 5225SOL    HW227135   1.224   3.311  10.429  0.0565 -0.0387 -0.0579
 5226SOL     OW27136   1.469   0.711  15.256  0.2666 -0.1110 -0.0763
 5226SOL    HW127137   1.385   0.755  15.271 -1.5496 -3.5599 -0.0547
 5226SOL    HW227138   1.439   0.649  15.189 -2.7269  1.1964  0.0127
 5227SOL     OW27139   2.546   2.437  13.286 -0.1098  0.0618  0.3115
 5227SOL    HW127140   2.638   2.447  13.261 -0.8305 -0.2887 -2.4627
 5227SOL    HW227141   2.494   2.466  13.211 -1.9033  0.3573  1.6646
 5228SOL     OW27142   2.788   1.834  16.100 -0.4608  0.4988 -0.0979
 5228SOL    HW127143   2.883   1.836  16.111 -0.7771  1.1196  2.5067
 5228SOL    HW227144   2.757   1.790  16.179  1.3974 -0.9467 -0.1769
 5229SOL     OW27145   1.280   1.649   1.189  0.0238 -0.0932  0.6180
 5229SOL    HW127146   1.279   1.555   1.169  2.6261 -0.4979  2.4536
 5229SOL    HW227147   1.341   1.685   1.124 -0.4115  3.1133  1.9820
 5230SOL     OW27148   0.247   0.860   5.679 -0.0981 -0.2507  0.0583
 5230SOL    HW127149   0.307   0.918   5.725 -2.1203  1.2353  0.8330
 5230SOL    HW227150   0.251   0.784   5.738  1.3791 -0.7331 -0.6542
 5231SOL     OW27151   3.557   0.843  14.993 -0.0473  0.0887  0.3967
 5231SOL    HW127152   3.463   0.832  15.007 -0.1831 -1.1692 -1.5025
 5231SOL    HW227153   3.563   0.791  14.913 -0.3803 -0.7265  0.9022
 5232SOL     OW27154   4.204   3.741   4.069 -0.0926 -0.3527  0.4213
 5232SOL    HW127155   4.195   3.658   4.023 -1.7077 -1.9903  3.7592
 5232SOL    HW227156   4.112   3.770   4.068 -0.3421 -1.1675 -0.5654
 5233SOL     OW27157   3.039   1.228   0.205  0.3873 -0.6706 -0.4415
 5233SOL    HW127158   3.126   1.225   0.163 -0.4019  1.2488 -2.2024
 5233SOL    HW227159   3.066   1.253   0.293  1.0416 -1.5401 -0.3933
 5234SOL     OW27160   0.570   3.888   7.520 -0.3127  0.0809  0.0920
 5234SOL    HW127161   0.561   3.965   7.464 -1.4155  0.6899  1.0918
 5234SOL    HW227162   0.608   3.825   7.459 -1.5298  0.4168 -1.0078
 5235SOL     OW27163   0.799   2.789   0.027  0.4640 -0.2045  0.1800
 5235SOL    HW127164   0.705   2.791   0.013  0.1326  0.2090  2.3421
 5235SOL    HW227165   0.822   2.737  17.639  3.8530 -0.7500  1.5507
 5236SOL     OW27166   1.321   2.457   7.666  0.1839 -0.2565 -0.6318
 5236SOL    HW127167   1.292   2.480   7.578  1.6211 -0.6965 -1.2138
 5236SOL    HW227168   1.336   2.364   7.648  0.1774 -0.4199  0.2109
 5237SOL     OW27169   4.452   0.422   5.615 -0.4534 -0.0936  0.4838
 5237SOL    HW127170   4.544   0.443   5.601 -0.5919  1.0855  1.3781
 5237SOL    HW227171   4.430   0.498   5.668 -2.1150 -0.4682  0.3100
 5238SOL     OW27172   1.253   2.041   7.422  0.1705 -0.1892  0.5815
 5238SOL    HW127173   1.311   2.012   7.352  0.9279 -1.2296  1.6348
 5238SOL    HW227174   1.167   2.008   7.394 -0.4021  1.8735 -0.0718
 5239SOL     OW27175   4.601   1.625  10.230 -0.0714  0.4386  0.3506
 5239SOL    HW127176   4.598   1.538  10.269  2.7775  0.0713 -0.2648
 5239SOL    HW227177   4.558   1.609  10.146 -1.8030  0.8408  1.1728
 5240SOL     OW27178   0.507   1.673  17.430  0.3006  0.8581  0.0747
 5240SOL    HW127179   0.427   1.624  17.409  0.4652  0.1829  1.0486
 5240SOL    HW227180   0.567   1.629  17.369 -1.9575 -2.1745  0.0573
 5241SOL     OW27181   2.687   1.571   6.472  0.2991  0.1966 -0.4972
 5241SOL    HW127182   2.639   1.499   6.431 -0.5742 -0.8604  2.3385
 5241SOL    HW227183   2.719   1.612   6.392  1.5557 -0.5776 -0.4095
 5242SOL     OW27184   0.603   1.020   2.930 -0.1532 -0.5724  0.5503
 5242SOL    HW127185   0.508   1.018   2.929 -0.2048  1.7187 -1.3560
 5242SOL    HW227186   0.627   1.061   2.847  1.4790  1.1046  1.8466
 5243SOL     OW27187   4.262   2.693   9.235  0.6803  0.5760 -0.0984
 5243SOL    HW127188   4.323   2.673   9.164  0.4014  0.9142 -0.4340
 5243SOL    HW227189   4.205   2.623   9.205  0.2489 -0.1062  2.2981
 5244SOL     OW27190   2.168   3.706  16.635  0.5164  0.0362 -0.1358
 5244SOL    HW127191   2.084   3.729  16.675  0.6086 -0.9337  0.5994
 5244SOL    HW227192   2.230   3.732  16.703  1.7041  0.7905 -1.4771
 5245SOL     OW27193   0.505   0.850   5.179  0.0250  0.7483  0.1708
 5245SOL    HW127194   0.449   0.854   5.257 -0.4365 -1.4938 -0.0487
 5245SOL    HW227195   0.441   0.830   5.111 -2.5538  1.6074  2.3588
 5246SOL     OW27196   3.601   2.472  16.095  0.2972  0.3610 -0.1084
 5246SOL    HW127197   3.554   2.414  16.155  0.6201 -2.4715 -2.6420
 5246SOL    HW227198   3.630   2.414  16.025 -0.2900  0.5627 -0.5186
 5247SOL     OW27199   1.249   1.886   5.305  0.3823  0.0378 -0.1814
 5247SOL    HW127200   1.156   1.899   5.286 -0.1155 -1.9948  0.8760
 5247SOL    HW227201   1.278   1.928   5.224 -0.3388 -0.4169 -0.6664
 5248SOL     OW27202   3.452   1.135  15.808 -0.1768 -0.5207  0.0354
 5248SOL    HW127203   3.441   1.217  15.857  1.7811  0.4082 -1.0671
 5248SOL    HW227204   3.415   1.077  15.874 -0.9141 -0.8347 -0.6451
 5249SOL     OW27205   1.620   2.232   2.123 -0.0584  0.2833 -0.0921
 5249SOL    HW127206   1.678   2.169   2.167  0.1952  0.6557  0.1145
 5249SOL    HW227207   1.614   2.300   2.190  1.3475  0.4782 -0.1586
 5250SOL     OW27208   1.583   1.727   8.644 -0.6992 -0.0036  0.0741
 5250SOL    HW127209   1.603   1.820   8.641 -3.3984  0.5580 -0.7365
 5250SOL    HW227210   1.672   1.691   8.639 -1.5209 -1.9040 -1.0936
 5251SOL     OW27211   2.019   2.069   0.783  0.2283 -0.0537  0.6281
 5251SOL    HW127212   2.087   2.045   0.719  0.4690  1.1134  0.4541
 5251SOL    HW227213   1.993   2.158   0.759 -2.4443 -0.5155  1.8366
 5252SOL     OW27214   2.250   0.194   3.460  0.7502  0.0272  0.4931
 5252SOL    HW127215   2.342   0.185   3.486  0.3238 -2.3418  1.1533
 5252SOL    HW227216   2.222   0.103   3.474 -0.7456  0.3818 -0.2395
 5253SOL     OW27217   3.801   2.913   3.056 -0.2748  0.2825 -0.3740
 5253SOL    HW127218   3.739   2.953   3.117  0.6067 -0.9133  1.2973
 5253SOL    HW227219   3.737   2.861   3.008  1.2184 -0.0818 -1.9752
 5254SOL     OW27220   0.900   3.884   5.112 -0.0643  0.4107 -0.1208
 5254SOL    HW127221   0.995   3.868   5.116 -0.3524 -1.5397 -1.2763
 5254SOL    HW227222   0.892   3.924   5.026  0.9992 -0.3000 -0.5520
 5255SOL     OW27223   2.692   1.350   2.171  0.2079  0.0687 -0.4716
 5255SOL    HW127224   2.651   1.271   2.136 -1.0919 -0.1267  1.4482
 5255SOL    HW227225   2.739   1.384   2.095 -0.2203  3.3445  0.7422
 5256SOL     OW27226   3.326   4.602   2.531  0.4304 -0.3089 -0.6095
 5256SOL    HW127227   3.272   4.600   2.610  0.0623 -0.0588 -0.8562
 5256SOL    HW227228   3.385   4.673   2.557  0.7107  0.5784 -3.7479
 5257SOL     OW27229   3.161   2.196   7.179  0.2975  0.5706 -0.1882
 5257SOL    HW127230   3.116   2.145   7.246 -0.3202 -1.8237 -2.4243
 5257SOL    HW227231   3.117   2.279   7.194  0.5813  1.0723 -2.1730
 5258SOL     OW27232   4.657   4.282   4.795  0.0554  0.1969  0.3240
 5258SOL    HW127233   0.017   4.257   4.753  0.5559  2.0716  0.1652
 5258SOL    HW227234   4.586   4.233   4.752  0.0201  1.7971 -1.4443
 5259SOL     OW27235   3.404   0.706  12.116  0.7783  0.2799 -0.2723
 5259SOL    HW127236   3.419   0.617  12.083  1.0081 -0.0357  0.7037
 5259SOL    HW227237   3.410   0.768  12.044  1.4998  1.9861  1.2757
 5260SOL     OW27238   4.318   3.787   8.150 -0.6674 -0.4476  0.1079
 5260SOL    HW127239   4.250   3.719   8.144 -3.0724  1.8950  0.4595
 5260SOL    HW227240   4.266   3.848   8.203  1.5269  0.5044  1.1357
 5261SOL     OW27241   1.297   3.833   0.899 -0.2789 -0.6274 -0.6155
 5261SOL    HW127242   1.319   3.744   0.928 -0.6289  0.1903  2.1853
 5261SOL    HW227243   1.219   3.824   0.843  0.8254 -2.4975 -1.8460
 5262SOL     OW27244   2.762   3.142   4.705  0.3159 -0.1431  0.3767
 5262SOL    HW127245   2.672   3.166   4.688 -0.3617 -1.6581  1.7632
 5262SOL    HW227246   2.780   3.217   4.761  2.9654 -2.3295  2.5159
 5263SOL     OW27247   2.923   0.067   7.807 -0.2271 -0.2147 -0.0100
 5263SOL    HW127248   2.960   4.708   7.771  1.3259  0.0686  0.9305
 5263SOL    HW227249   2.997   0.123   7.831 -0.2569  0.6271 -1.8479
 5264SOL     OW27250   2.549   0.093   1.633 -0.1275  0.2717  0.6925
 5264SOL    HW127251   2.475   0.076   1.575 -0.6667 -2.1875  2.0971
 5264SOL    HW227252   2.599   0.150   1.575  1.1625 -0.4782  1.0828
 5265SOL     OW27253   4.015   0.870   2.674 -0.3456  0.1612  0.6261
 5265SOL    HW127254   4.053   0.799   2.726  3.7273  2.0142  0.1509
 5265SOL    HW227255   4.075   0.876   2.600  0.9292 -0.5828  1.5983
 5266SOL     OW27256   1.805   0.343   3.637  0.3073 -0.0391  0.2164
 5266SOL    HW127257   1.778   0.385   3.719 -0.9014 -2.1421  0.9005
 5266SOL    HW227258   1.758   0.260   3.646  1.3502 -0.8314 -1.6271
 5267SOL     OW27259   2.214   1.539  13.039  0.1137 -0.4630 -0.0391
 5267SOL    HW127260   2.230   1.463  12.982 -1.2040 -1.3022  0.7276
 5267SOL    HW227261   2.192   1.492  13.119  0.5957 -0.7161 -0.0555
 5268SOL     OW27262   2.012   1.927   6.511 -0.2291  0.4976  0.1366
 5268SOL    HW127263   1.976   1.973   6.435  0.8134  0.4027 -0.4004
 5268SOL    HW227264   2.091   1.888   6.475 -0.5370  0.0252 -0.0202
 5269SOL     OW27265   1.631   0.528   1.768  0.0265  0.4328 -0.8100
 5269SOL    HW127266   1.601   0.609   1.727  0.3695  1.2899  0.6429
 5269SOL    HW227267   1.545   0.489   1.782  1.8353 -2.4858  2.1789
 5270SOL     OW27268   3.230   1.319   8.196  0.9344  0.3682  0.3584
 5270SOL    HW127269   3.316   1.327   8.237  1.4028 -0.4755 -0.4701
 5270SOL    HW227270   3.180   1.255   8.246 -1.5960  2.1644  0.1302
 5271SOL     OW27271   2.292   4.655   7.187  0.1925 -0.1134  0.0395
 5271SOL    HW127272   2.337   0.017   7.175  0.1184 -0.0986 -0.1437
 5271SOL    HW227273   2.297   4.644   7.282 -1.8887 -0.6060  0.0936
 5272SOL     OW27274   3.135   2.996   6.386  0.3280  0.1292  0.1974
 5272SOL    HW127275   3.181   3.077   6.407  0.6733 -0.4989  1.8290
 5272SOL    HW227276   3.141   2.997   6.290 -0.7072  0.6993  0.1352
 5273SOL     OW27277   3.079   2.964   6.826  0.6712 -0.5458  0.5672
 5273SOL    HW127278   3.016   2.905   6.784  0.6654  1.5224 -2.2736
 5273SOL    HW227279   3.045   2.968   6.916 -0.2475 -1.1585  0.2467
 5274SOL     OW27280   1.490   0.515   6.702 -0.1447  0.1499 -0.8535
 5274SOL    HW127281   1.440   0.511   6.621 -1.3158  0.2071 -0.1358
 5274SOL    HW227282   1.572   0.546   6.664  0.3160  2.8177  2.3097
 5275SOL     OW27283   0.391   1.374   2.279 -0.4593 -0.8062 -0.3762
 5275SOL    HW127284   0.344   1.393   2.198  0.4899 -1.4637 -1.0748
 5275SOL    HW227285   0.481   1.395   2.256 -0.8440  2.2743  0.9631
 5276SOL     OW27286   2.287   2.706   9.729 -0.1050 -0.6875 -0.3157
 5276SOL    HW127287   2.262   2.704   9.822  1.6457  0.6959  0.1828
 5276SOL    HW227288   2.303   2.799   9.716 -2.2142 -0.2285  0.4528
 5277SOL     OW27289   3.805   3.758   5.472 -0.7850 -0.0474  0.0952
 5277SOL    HW127290   3.876   3.808   5.513  0.2757 -1.8671  0.4591
 5277SOL    HW227291   3.851   3.701   5.410 -0.9969  1.1207 -1.1399
 5278SOL     OW27292   0.023   2.021  13.242 -0.0417 -0.1581  0.2945
 5278SOL    HW127293   4.660   1.990  13.272  0.9755 -3.9998 -0.7312
 5278SOL    HW227294   0.061   2.031  13.329  0.7262  2.7315 -0.3438
 5279SOL     OW27295   3.121   0.990  13.735  0.2656  0.9177 -0.2216
 5279SOL    HW127296   3.181   1.000  13.660  1.2776  0.6530  0.5577
 5279SOL    HW227297   3.039   0.980  13.686  1.5006 -0.8105 -1.9758
 5280SOL     OW27298   2.181   0.724   9.123 -0.0687  0.0902  0.0874
 5280SOL    HW127299   2.142   0.640   9.146 -0.2785 -1.0686 -4.5578
 5280SOL    HW227300   2.209   0.762   9.207 -2.0056 -1.0215  1.2473
 5281SOL     OW27301   4.682   0.979  12.063  0.5610 -0.1459  0.2486
 5281SOL    HW127302   4.693   0.942  11.975 -1.5959 -2.2223  0.8631
 5281SOL    HW227303   4.588   0.985  12.075  0.4304  1.4660 -1.4357
 5282SOL     OW27304   3.868   3.386  11.526 -0.2996 -0.7632  0.7093
 5282SOL    HW127305   3.908   3.326  11.463 -0.4884  0.6100 -0.7302
 5282SOL    HW227306   3.879   3.469  11.478 -1.6696  0.3568  2.3473
 5283SOL     OW27307   2.338   4.693   8.254 -0.4303  0.5448 -0.8544
 5283SOL    HW127308   2.421   0.014   8.234  0.1954  0.0849  0.8371
 5283SOL    HW227309   2.287   0.038   8.300 -2.4416 -3.1620  2.3275
 5284SOL     OW27310   4.010   3.793   4.948  0.3221 -0.2622 -0.0457
 5284SOL    HW127311   4.026   3.787   5.042 -1.4939  1.3877  0.3667
 5284SOL    HW227312   4.103   3.794   4.924 -0.6131  0.1778 -3.5915
 5285SOL     OW27313   2.419   1.276   6.104  0.2378 -0.0605  0.5192
 5285SOL    HW127314   2.335   1.321   6.096  1.1464  1.1396 -2.2550
 5285SOL    HW227315   2.408   1.204   6.041  0.4021  1.2616 -1.0205
 5286SOL     OW27316   4.642   2.180   5.956 -0.2695 -0.0046  0.2216
 5286SOL    HW127317   4.577   2.111   5.945 -1.4332  0.8450  1.7369
 5286SOL    HW227318   4.622   2.216   6.042 -0.6188  3.3236 -1.2247
 5287SOL     OW27319   2.227   1.122  10.824  0.1667 -1.1406  0.3361
 5287SOL    HW127320   2.320   1.126  10.847  0.4040 -1.8915 -0.5019
 5287SOL    HW227321   2.185   1.106  10.908 -0.0261 -1.9612  0.0765
 5288SOL     OW27322   1.279   0.444   2.874  0.1912  0.5998  0.2440
 5288SOL    HW127323   1.274   0.521   2.931  0.2918  2.2814 -2.0172
 5288SOL    HW227324   1.257   0.371   2.933  0.4385  2.1411  2.2538
 5289SOL     OW27325   3.736   2.783  13.783 -0.1713  0.2004 -0.3009
 5289SOL    HW127326   3.775   2.699  13.807  0.5470  0.8602  0.8431
 5289SOL    HW227327   3.650   2.772  13.824  0.4675 -0.5034  0.8543
 5290SOL     OW27328   2.860   3.086   6.356 -0.0131 -0.6174  0.4461
 5290SOL    HW127329   2.946   3.044   6.357 -0.7129 -2.0690  0.9247
 5290SOL    HW227330   2.812   3.037   6.290  1.0176  0.7860 -1.3332
 5291SOL     OW27331   4.655   0.263  14.331 -0.1471 -0.3903  0.4001
 5291SOL    HW127332   4.659   0.234  14.422  0.4163 -1.8574 -0.0937
 5291SOL    HW227333   4.629   0.354  14.340  2.4713  0.3326  0.5558
 5292SOL     OW27334   0.767   4.595  10.809  0.3465  0.4546 -0.8076
 5292SOL    HW127335   0.723   4.533  10.868  0.6432  0.5638 -0.4759
 5292SOL    HW227336   0.761   4.676  10.860  0.1513 -1.4220  2.2161
 5293SOL     OW27337   0.448   4.673  15.557  0.0898  0.0692 -0.2245
 5293SOL    HW127338   0.415   4.616  15.488 -1.0615  1.3551 -0.7463
 5293SOL    HW227339   0.497   4.617  15.617 -2.2344 -2.6115 -0.8417
 5294SOL     OW27340   1.961   0.142   5.143  0.3506  0.7523  0.2047
 5294SOL    HW127341   2.056   0.146   5.140  0.3503  0.8436  0.3240
 5294SOL    HW227342   1.953   0.202   5.069 -0.4183 -0.1518 -0.4466
 5295SOL     OW27343   3.007   3.528   3.248 -0.2842  0.0981  0.1682
 5295SOL    HW127344   3.084   3.560   3.296  2.2950 -4.0375 -1.1999
 5295SOL    HW227345   3.048   3.525   3.162  2.4017 -1.6214  1.4999
 5296SOL     OW27346   1.793   0.038   6.412 -0.0858 -0.1247 -0.3343
 5296SOL    HW127347   1.753   0.055   6.497 -0.5542  3.3455 -1.2561
 5296SOL    HW227348   1.727   0.081   6.356 -0.5248  0.0202  0.2979
 5297SOL     OW27349   3.859   2.625   7.865 -0.3346  0.2755 -0.0701
 5297SOL    HW127350   3.927   2.578   7.914 -1.3601 -0.6265  0.4877
 5297SOL    HW227351   3.866   2.580   7.781 -0.5011  0.4354 -0.1702
 5298SOL     OW27352   2.623   4.637  13.715  0.5512 -0.1700 -0.0292
 5298SOL    HW127353   2.604   4.583  13.639  2.8187 -0.4527 -0.4102
 5298SOL    HW227354   2.710   4.665  13.685 -0.0519  2.5772  0.8204
 5299SOL     OW27355   1.230   4.105   3.780  0.0596 -0.5484 -0.4347
 5299SOL    HW127356   1.301   4.100   3.716  2.1735  2.6132  1.6782
 5299SOL    HW227357   1.281   4.094   3.861  3.2357 -0.5980 -2.4280
 5300SOL     OW27358   2.108   1.265  11.876 -0.8793 -0.6257  0.6040
 5300SOL    HW127359   2.087   1.345  11.924 -1.0313  0.7718 -1.7733
 5300SOL    HW227360   2.201   1.263  11.902 -1.0653 -0.6701  1.2597
 5301SOL     OW27361   4.588   3.644   2.853 -0.3244  0.1567  1.1641
 5301SOL    HW127362   4.516   3.706   2.847 -0.3999  0.0677  1.1390
 5301SOL    HW227363   4.600   3.650   2.948 -0.7962 -0.9483  1.3012
 5302SOL     OW27364   0.687   4.086   8.377 -0.0833  0.1031 -0.0188
 5302SOL    HW127365   0.632   4.154   8.415  1.3699  1.7186 -0.8334
 5302SOL    HW227366   0.623   4.045   8.318 -0.0329 -0.1774  0.1178
 5303SOL     OW27367   4.341   0.774   1.528 -0.4598  0.2809  0.0847
 5303SOL    HW127368   4.340   0.867   1.507 -1.9402  0.3801  0.5982
 5303SOL    HW227369   4.297   0.772   1.613 -0.2255  0.1403  0.2016
 5304SOL     OW27370   2.170   1.635  12.614  0.9664 -0.7665 -0.1153
 5304SOL    HW127371   2.234   1.705  12.606 -0.5245  0.5986 -0.0839
 5304SOL    HW227372   2.132   1.646  12.701  0.2068  0.4812 -0.6125
 5305SOL     OW27373   0.805   1.635  12.815  1.0850  0.4998  0.3474
 5305SOL    HW127374   0.835   1.553  12.775  1.2630  0.5416  0.3933
 5305SOL    HW227375   0.863   1.627  12.891  0.2074 -1.2023  0.8557
 5306SOL     OW27376   1.134   1.832  13.747 -0.4288 -0.2344  0.2454
 5306SOL    HW127377   1.075   1.863  13.678  0.5061 -0.5445 -0.6842
 5306SOL    HW227378   1.093   1.747  13.759  0.5174 -0.4893  1.5992
 5307SOL     OW27379   4.374   1.850  10.945  0.1396 -0.1758 -0.6869
 5307SOL    HW127380   4.377   1.778  10.882 -1.3421 -1.5458  0.8262
 5307SOL    HW227381   4.299   1.893  10.903  1.1819  1.1256 -1.2135
 5308SOL     OW27382   2.514   1.981   9.967 -0.2742 -0.1629 -0.1013
 5308SOL    HW127383   2.570   1.937   9.903  0.5743 -0.2350  0.6847
 5308SOL    HW227384   2.483   2.055   9.915  1.2508  0.4084 -0.1986
 5309SOL     OW27385   0.772   2.253   4.192 -0.1953 -0.3303  0.6597
 5309SOL    HW127386   0.805   2.279   4.106  0.6899  1.1594  1.4405
 5309SOL    HW227387   0.683   2.230   4.165  1.3572 -2.0996 -2.9098
 5310SOL     OW27388   3.682   0.024  17.235 -0.5093  0.6285 -0.2399
 5310SOL    HW127389   3.619   4.709  17.296  1.5121 -1.0255  0.8487
 5310SOL    HW227390   3.665   4.692  17.157 -1.6449  0.1397  0.3524
 5311SOL     OW27391   4.415   3.767   7.208  0.1763 -0.1633  0.4289
 5311SOL    HW127392   4.419   3.800   7.119 -1.1113 -2.0474 -0.3046
 5311SOL    HW227393   4.499   3.806   7.232  0.7451 -1.1708  0.0908
 5312SOL     OW27394   0.925   3.858  11.818 -0.0809  0.2629 -0.5001
 5312SOL    HW127395   0.944   3.925  11.752  1.2466  1.8482  1.5016
 5312SOL    HW227396   0.976   3.904  11.885  0.6762 -0.8588 -0.3043
 5313SOL     OW27397   1.753   3.756   0.834  0.0430 -0.4877 -0.5120
 5313SOL    HW127398   1.715   3.783   0.918 -1.8761 -0.4655 -1.3880
 5313SOL    HW227399   1.698   3.801   0.770 -0.6468  1.8226  1.6921
 5314SOL     OW27400   3.807   2.389   0.851  0.2344  0.4282 -0.1774
 5314SOL    HW127401   3.862   2.383   0.772 -0.8568  1.5529 -1.0258
 5314SOL    HW227402   3.827   2.480   0.874  1.7917  0.0823 -0.1376
 5315SOL     OW27403   1.613   0.090   4.980  0.5428  0.1083  0.3834
 5315SOL    HW127404   1.560   0.079   5.059  1.0206  4.0705  1.2880
 5315SOL    HW227405   1.548   0.086   4.910 -0.8052 -0.0345  1.6474
 5316SOL     OW27406   4.162   3.370  10.343 -0.0243 -0.2069 -0.1571
 5316SOL    HW127407   4.138   3.277  10.335 -2.8605  0.5478 -0.6257
 5316SOL    HW227408   4.172   3.383  10.248  0.5012  1.2188  0.1071
 5317SOL     OW27409   3.615   1.776   3.978  0.3174  0.5102 -0.3598
 5317SOL    HW127410   3.681   1.841   3.953 -0.4339  0.5613 -2.1846
 5317SOL    HW227411   3.537   1.826   3.952  1.5974  2.4263 -0.5392
 5318SOL     OW27412   0.797   2.435   5.146 -0.2920 -0.3601  0.3576
 5318SOL    HW127413   0.825   2.459   5.234  1.9936 -1.4803 -0.0773
 5318SOL    HW227414   0.844   2.355   5.125  1.3979  0.1118  2.3203
 5319SOL     OW27415   2.998   1.630   9.066 -0.6075  0.4954  0.7156
 5319SOL    HW127416   3.057   1.703   9.084 -0.9017  0.8426  0.2748
 5319SOL    HW227417   2.917   1.668   9.101 -0.3859 -0.9552  2.8315
 5320SOL     OW27418   4.378   2.433   8.476 -0.6169 -0.1459 -0.4339
 5320SOL    HW127419   4.470   2.458   8.462 -0.8630  2.0835  1.9975
 5320SOL    HW227420   4.374   2.345   8.439 -0.2544 -0.6421  0.7284
 5321SOL     OW27421   2.907   0.808   0.591 -0.2405  0.4583 -0.6847
 5321SOL    HW127422   2.839   0.875   0.586 -2.0199 -1.2597  0.5757
 5321SOL    HW227423   2.881   0.754   0.666  1.3492  0.8499  0.1498
 5322SOL     OW27424   3.359   1.538   8.811  0.5305 -0.1191  0.2820
 5322SOL    HW127425   3.308   1.498   8.882 -3.0138 -0.7393 -2.5763
 5322SOL    HW227426   3.382   1.622   8.851 -0.3084  0.9854 -1.5736
 5323SOL     OW27427   1.115   1.332   8.362  0.7481  0.4687  0.2623
 5323SOL    HW127428   1.116   1.340   8.457  2.6593 -1.2042  0.3710
 5323SOL    HW227429   1.121   1.420   8.324 -0.0607  0.4142  0.0013
 5324SOL     OW27430   0.689   0.444  15.225  0.0825  0.0961 -0.0795
 5324SOL    HW127431   0.728   0.370  15.179 -0.2978 -0.1941  0.0646
 5324SOL    HW227432   0.764   0.497  15.251  1.0871 -2.1975  1.7491
 5325SOL     OW27433   4.261   1.120   5.910  0.0236  0.4114 -0.2864
 5325SOL    HW127434   4.200   1.055   5.946 -0.4152  0.2856 -1.2643
 5325SOL    HW227435   4.193   1.172   5.867 -0.1998  1.3299  1.1979
 5326SOL     OW27436   4.324   4.564   9.804  0.3193 -0.2793 -0.0149
 5326SOL    HW127437   4.321   4.656   9.779  2.2323  0.0338  0.9220
 5326SOL    HW227438   4.403   4.569   9.859  2.0171 -2.9350 -2.2369
 5327SOL     OW27439   3.607   2.721   5.658 -0.0989  0.1076  0.0980
 5327SOL    HW127440   3.700   2.734   5.644 -0.0642 -1.5421 -1.1553
 5327SOL    HW227441   3.590   2.661   5.586 -1.0882 -0.7655  1.0475
 5328SOL     OW27442   2.555   2.709   8.071 -0.5272 -0.3445 -0.2737
 5328SOL    HW127443   2.471   2.750   8.091 -0.0767  0.0191  0.9091
 5328SOL    HW227444   2.611   2.786   8.060  1.6039 -1.7174  0.8839
 5329SOL     OW27445   3.660   1.985   4.895  0.2703  0.1047 -0.4433
 5329SOL    HW127446   3.719   1.913   4.872  1.0717  0.0612  1.8185
 5329SOL    HW227447   3.711   2.066   4.896  0.9230 -0.3061 -0.7876
 5330SOL     OW27448   1.335   2.877   7.410  0.5743 -0.6505 -0.4778
 5330SOL    HW127449   1.388   2.889   7.489 -0.7327  1.3471  0.0883
 5330SOL    HW227450   1.389   2.816   7.360 -0.3595 -2.0347  0.2237
 5331SOL     OW27451   3.048   2.016   7.000  0.0138 -0.5064  0.8109
 5331SOL    HW127452   3.067   2.109   7.010  0.0499 -0.3492 -0.7061
 5331SOL    HW227453   3.070   1.995   6.909 -1.0936 -1.4480  0.7662
 5332SOL     OW27454   4.668   1.243   4.952  0.5758 -0.0096 -0.0234
 5332SOL    HW127455   4.595   1.268   4.897  1.7355  1.4758 -0.8857
 5332SOL    HW227456   4.707   1.168   4.907 -0.3766  0.6481 -1.9437
 5333SOL     OW27457   1.520   3.934   4.525 -0.3291 -0.0140 -0.5030
 5333SOL    HW127458   1.520   4.028   4.506  1.5152  0.1035  0.0296
 5333SOL    HW227459   1.547   3.934   4.617 -0.2874 -2.7968 -0.4970
 5334SOL     OW27460   4.311   1.689  10.720  1.0894 -0.3094  0.0134
 5334SOL    HW127461   4.318   1.680  10.625  0.4960  3.3684 -0.3853
 5334SOL    HW227462   4.272   1.607  10.750  0.8560  0.4142  1.6709
 5335SOL     OW27463   1.322   0.234   6.270 -0.2647  0.2483  0.0241
 5335SOL    HW127464   1.248   0.210   6.213 -1.5792 -1.6202  2.5200
 5335SOL    HW227465   1.279   0.233   6.355 -0.3643 -0.8628 -0.0319
 5336SOL     OW27466   2.158   4.068   4.332 -0.3067 -0.3235 -0.7593
 5336SOL    HW127467   2.165   3.974   4.314  0.4645 -0.3185 -0.4752
 5336SOL    HW227468   2.070   4.084   4.365 -0.2891 -0.7059 -0.5200
 5337SOL     OW27469   3.279   1.742   6.106 -0.0831  0.4147 -0.2263
 5337SOL    HW127470   3.274   1.817   6.166 -0.6424  0.1687  0.0290
 5337SOL    HW227471   3.347   1.686   6.143  0.0003  0.2749 -0.5901
 5338SOL     OW27472   2.029   1.366   7.621 -0.4563 -0.3228  0.0345
 5338SOL    HW127473   2.019   1.456   7.654  0.0214 -0.3359  0.2179
 5338SOL    HW227474   1.943   1.328   7.640 -0.7053  0.7433  1.0663
 5339SOL     OW27475   1.845   4.532   2.475  0.5618  0.6258 -0.0916
 5339SOL    HW127476   1.889   4.497   2.397 -0.2090 -3.2168  1.1938
 5339SOL    HW227477   1.760   4.555   2.438 -0.0842 -1.6946 -0.0395
 5340SOL     OW27478   1.587   2.634   1.749 -0.6607  0.3599 -0.6214
 5340SOL    HW127479   1.567   2.547   1.715  1.7362 -0.3217 -0.3136
 5340SOL    HW227480   1.667   2.656   1.701  0.1532  0.0930  0.5929
 5341SOL     OW27481   0.714   1.482  16.966 -1.1075  0.2494  0.0586
 5341SOL    HW127482   0.717   1.576  16.946 -2.0660  0.1556 -0.5150
 5341SOL    HW227483   0.648   1.478  17.035 -0.2956 -1.8257  0.7193
 5342SOL     OW27484   1.415   4.225   7.744 -0.6562 -0.1916  0.2537
 5342SOL    HW127485   1.330   4.254   7.708 -0.7634  0.8888  1.3884
 5342SOL    HW227486   1.439   4.158   7.680 -0.5140  0.7495 -0.6931
 5343SOL     OW27487   0.776   4.022  11.522  0.3051 -0.7188 -0.3585
 5343SOL    HW127488   0.727   4.064  11.593  1.4961  2.4066 -1.3874
 5343SOL    HW227489   0.864   4.025  11.560 -0.5402  1.3487  1.4409
 5344SOL     OW27490   3.991   2.228   9.065 -0.0256  0.0587 -0.0361
 5344SOL    HW127491   3.990   2.150   9.120  3.0052 -0.9595 -1.3961
 5344SOL    HW227492   4.011   2.203   8.974  1.7740  0.2315  0.3155
 5345SOL     OW27493   4.369   2.628   2.800  0.5635 -0.0913  0.4151
 5345SOL    HW127494   4.450   2.595   2.759 -0.3552 -2.7548  0.7664
 5345SOL    HW227495   4.358   2.569   2.874 -0.8342 -1.1449 -0.6274
 5346SOL     OW27496   4.470   0.061   8.860  0.3104  0.8030  0.0501
 5346SOL    HW127497   4.433   0.051   8.948 -0.4612  0.4156 -0.3130
 5346SOL    HW227498   4.548   0.107   8.891 -0.4319  0.8719  1.8523
 5347SOL     OW27499   0.552   0.656   5.531 -0.0010 -0.0736 -0.1163
 5347SOL    HW127500   0.567   0.621   5.618  0.5863  1.6074  0.4568
 5347SOL    HW227501   0.568   0.582   5.472  2.7573 -0.0413  0.6328
 5348SOL     OW27502   3.991   2.317  16.007  0.3009  0.3414 -0.3845
 5348SOL    HW127503   3.978   2.307  15.913 -0.4970  0.0228 -0.2329
 5348SOL    HW227504   3.970   2.228  16.033 -2.8598  0.7500 -1.5730
 5349SOL     OW27505   2.170   4.595   1.461 -0.8950 -0.2807 -0.3410
 5349SOL    HW127506   2.205   4.683   1.444  0.1985 -0.5500  0.4577
 5349SOL    HW227507   2.089   4.615   1.508 -1.1404 -2.5939  0.2089
 5350SOL     OW27508   3.655   4.091  13.347  0.6971  0.2714  0.3922
 5350SOL    HW127509   3.706   4.015  13.376  0.0716 -0.1747  0.3223
 5350SOL    HW227510   3.607   4.108  13.428 -2.3259 -1.9770 -0.9331
 5351SOL     OW27511   1.691   4.131   8.146 -0.3353 -0.3485 -0.5360
 5351SOL    HW127512   1.650   4.096   8.225  0.2565  3.5397  1.4609
 5351SOL    HW227513   1.702   4.045   8.105 -1.4005 -1.5535  1.6948
 5352SOL     OW27514   2.182   0.543   7.570 -0.0738 -0.0694 -0.3022
 5352SOL    HW127515   2.132   0.476   7.616 -1.4344  1.5580  0.5678
 5352SOL    HW227516   2.227   0.583   7.645 -0.8604  2.0756 -0.9855
 5353SOL     OW27517   1.053   2.963  17.213  0.4377 -0.1962  0.1366
 5353SOL    HW127518   1.075   3.053  17.235  0.8581 -0.1057 -0.6648
 5353SOL    HW227519   0.997   2.947  17.289  0.0648  2.4595  0.4138
 5354SOL     OW27520   1.722   3.569   6.111  0.4879  0.4120 -0.0434
 5354SOL    HW127521   1.751   3.487   6.149 -1.3274  0.1768  0.8248
 5354SOL    HW227522   1.766   3.639   6.159  0.0091  0.2019  0.6944
 5355SOL     OW27523   3.901   3.592   7.821  0.0592 -0.0498 -0.9970
 5355SOL    HW127524   3.899   3.534   7.745 -0.1715  0.7043 -1.5639
 5355SOL    HW227525   3.808   3.582   7.840  0.6067 -0.2794  1.5065
 5356SOL     OW27526   3.626   2.428   6.341 -0.4744 -0.0629 -0.0835
 5356SOL    HW127527   3.530   2.435   6.348 -0.2423  1.6290  1.2944
 5356SOL    HW227528   3.654   2.516   6.317  0.7218 -1.0028 -2.1017
 5357SOL     OW27529   3.813   1.624   2.201 -0.2990  0.1571 -0.3047
 5357SOL    HW127530   3.888   1.684   2.196  0.7620 -1.1439 -0.1000
 5357SOL    HW227531   3.727   1.665   2.203  0.0907  1.0261 -1.4886
 5358SOL     OW27532   3.887   1.668  11.156  0.0456 -0.8470  0.1445
 5358SOL    HW127533   3.797   1.636  11.148  0.4949 -1.4601 -2.3788
 5358SOL    HW227534   3.886   1.685  11.250  0.3612  0.2947 -0.0636
 5359SOL     OW27535   2.294   3.892   3.042 -0.2931  0.0473  0.2776
 5359SOL    HW127536   2.218   3.934   3.083  0.7898  1.0426  1.2674
 5359SOL    HW227537   2.339   3.879   3.126  1.3471  1.7509 -0.3534
 5360SOL     OW27538   2.152   0.516   0.627  0.4834 -0.4531 -0.6384
 5360SOL    HW127539   2.235   0.542   0.668 -1.3897  3.1177  0.8336
 5360SOL    HW227540   2.187   0.466   0.553 -0.6003 -3.2318  0.7364
 5361SOL     OW27541   4.532   2.517  15.410  0.0050  0.8220  0.1795
 5361SOL    HW127542   4.539   2.612  15.403  0.2262  0.9379  2.0902
 5361SOL    HW227543   4.555   2.495  15.500 -0.1698 -1.3893 -0.3200
 5362SOL     OW27544   3.583   4.562   3.513 -0.2765 -0.0952  0.0525
 5362SOL    HW127545   3.501   4.602   3.484  0.7002  0.6787 -1.6178
 5362SOL    HW227546   3.622   4.558   3.426 -0.7210 -0.8763 -0.1051
 5363SOL     OW27547   0.087   2.297  16.621 -0.2210  0.5556 -0.8447
 5363SOL    HW127548   0.047   2.370  16.573 -0.6960  1.5350  1.0333
 5363SOL    HW227549   0.016   2.238  16.646 -1.4539  0.7493 -3.9173
 5364SOL     OW27550   4.513   3.073   0.384  0.4036  0.4027 -0.5649
 5364SOL    HW127551   4.512   3.000   0.322  2.0898  0.4366 -0.6335
 5364SOL    HW227552   4.526   3.035   0.470  0.4447 -0.9233 -1.1588
 5365SOL     OW27553   1.269   2.020   5.037  0.1384 -0.3613  0.0711
 5365SOL    HW127554   1.246   2.113   5.031 -0.3508 -0.5562 -1.1824
 5365SOL    HW227555   1.199   1.989   4.980  0.4026  2.6657 -1.9244
 5366SOL     OW27556   3.269   3.538   3.015 -0.1198 -0.5545 -0.6321
 5366SOL    HW127557   3.274   3.631   2.993 -1.9213 -0.0378  1.1026
 5366SOL    HW227558   3.340   3.504   2.960  1.6264  2.5449 -0.3201
 5367SOL     OW27559   1.272   0.495  16.331 -0.0648 -0.4653  0.1772
 5367SOL    HW127560   1.233   0.460  16.251  0.3790  1.2654 -0.7722
 5367SOL    HW227561   1.201   0.554  16.352  0.8548  0.4222  0.8132
 5368SOL     OW27562   0.814   2.217   1.775 -0.9810 -0.1168 -0.5175
 5368SOL    HW127563   0.866   2.294   1.799 -2.0531  1.0990 -2.1680
 5368SOL    HW227564   0.790   2.236   1.685 -3.0377  0.1512  0.1032
 5369SOL     OW27565   3.700   2.276   6.072  0.0401  0.3414 -0.3106
 5369SOL    HW127566   3.707   2.326   6.154  1.4500  0.3635 -0.4517
 5369SOL    HW227567   3.669   2.189   6.096  1.2606  0.0710  0.3110
 5370SOL     OW27568   3.362   4.435  16.456 -0.0445 -0.1712  0.1441
 5370SOL    HW127569   3.453   4.461  16.447 -0.1835  0.3123  0.0902
 5370SOL    HW227570   3.359   4.341  16.472 -0.6910 -0.3508 -1.0329
 5371SOL     OW27571   4.204   4.451   2.327 -0.4384  0.0192 -0.0193
 5371SOL    HW127572   4.271   4.403   2.279  0.7610  0.7514  0.9362
 5371SOL    HW227573   4.128   4.397   2.306 -1.0493  0.3847  1.2429
 5372SOL     OW27574   0.248   3.856   0.187 -0.5937  0.2409  0.3259
 5372SOL    HW127575   0.193   3.816   0.255 -0.6030 -0.7171 -0.2303
 5372SOL    HW227576   0.205   3.941   0.186 -1.5916 -0.2724 -1.5316
 5373SOL     OW27577   0.582   2.305   7.015 -0.7758 -0.1179 -0.6431
 5373SOL    HW127578   0.665   2.264   6.992 -0.2235  0.4312  0.3928
 5373SOL    HW227579   0.592   2.388   6.970  1.9840 -0.2888 -0.2958
 5374SOL     OW27580   4.108   2.557  15.671 -0.2720 -0.1247 -0.2828
 5374SOL    HW127581   4.116   2.645  15.706  0.6272  0.3132 -1.6141
 5374SOL    HW227582   4.198   2.542  15.643 -0.1880 -0.9364  0.4101
 5375SOL     OW27583   4.158   3.297   2.031  0.3521 -0.3657  0.0383
 5375SOL    HW127584   4.237   3.247   2.049  1.6721  1.5442 -0.4160
 5375SOL    HW227585   4.085   3.268   2.087  1.0268 -3.4793 -0.7117
 5376SOL     OW27586   1.804   2.916   5.311  0.0735 -0.2338 -0.4665
 5376SOL    HW127587   1.719   2.875   5.322 -0.4511  0.4890 -1.8388
 5376SOL    HW227588   1.857   2.836   5.312 -0.3344 -0.5033 -0.6366
 5377SOL     OW27589   3.195   0.844  13.970 -0.1099 -0.6013  0.3080
 5377SOL    HW127590   3.151   0.879  13.892 -0.7449 -1.4533  0.2785
 5377SOL    HW227591   3.120   0.841  14.030  1.1531  3.4963  2.0672
 5378SOL     OW27592   0.084   3.489   4.436  0.1307 -0.0370 -0.3248
 5378SOL    HW127593   0.116   3.579   4.424 -0.3849  0.2143  0.1621
 5378SOL    HW227594   0.165   3.441   4.421  0.0548 -0.7375  1.5431
 5379SOL     OW27595   3.374   1.008  17.652 -0.2242  0.4881 -0.0661
 5379SOL    HW127596   3.356   1.086   0.015  1.4098  1.6241 -1.2477
 5379SOL    HW227597   3.348   0.953   0.038  0.5643 -0.2186 -0.3089
 5380SOL     OW27598   0.074   0.902   2.991  0.3864 -0.4771  0.1403
 5380SOL    HW127599   0.064   0.824   3.045  1.6807  0.1339  1.2831
 5380SOL    HW227600   0.059   0.861   2.906  0.2795 -0.9855  0.4044
 5381SOL     OW27601   3.228   1.725   6.926 -0.0693  0.0958 -0.0748
 5381SOL    HW127602   3.204   1.652   6.869  0.5420 -0.6995  0.6894
 5381SOL    HW227603   3.303   1.748   6.871  0.5979 -1.0616  0.3507
 5382SOL     OW27604   0.872   3.509   5.073  0.0745 -0.2005  0.1079
 5382SOL    HW127605   0.908   3.512   5.162 -0.5337  1.9398  0.3003
 5382SOL    HW227606   0.945   3.552   5.028 -0.4121  2.2003  1.5604
 5383SOL     OW27607   2.039   0.416   5.812  0.0135 -0.3724 -0.3100
 5383SOL    HW127608   2.088   0.402   5.893  1.9752  2.3116 -1.0106
 5383SOL    HW227609   2.018   0.330   5.776  2.3521 -0.8605 -0.5486
 5384SOL     OW27610   3.054   3.276   0.389  0.5673  0.9224 -0.2022
 5384SOL    HW127611   3.062   3.181   0.400  1.7428  0.9199 -1.0817
 5384SOL    HW227612   3.135   3.302   0.432  1.4397 -1.1157 -0.6078
 5385SOL     OW27613   0.692   0.404  12.534  0.2023 -0.2961 -0.2650
 5385SOL    HW127614   0.752   0.455  12.480 -0.0815  0.4302  0.0997
 5385SOL    HW227615   0.746   0.327  12.547 -1.3835 -1.7022 -1.9400
 5386SOL     OW27616   1.764   0.777   3.624  0.0707  0.3595 -0.0450
 5386SOL    HW127617   1.741   0.701   3.571 -2.8163  1.7242 -0.7789
 5386SOL    HW227618   1.771   0.843   3.555 -1.7387  0.3630 -0.2429
 5387SOL     OW27619   4.089   3.300   5.088 -0.7374  0.0160  0.0376
 5387SOL    HW127620   3.995   3.286   5.102 -0.5142 -0.1433  1.3484
 5387SOL    HW227621   4.116   3.216   5.124 -1.2014 -0.2359 -0.1932
 5388SOL     OW27622   1.835   2.281  13.254 -0.1448  0.0141  0.0028
 5388SOL    HW127623   1.844   2.333  13.334 -1.0550  0.8839 -0.4595
 5388SOL    HW227624   1.770   2.221  13.290 -0.6824  0.0268 -0.9727
 5389SOL     OW27625   4.425   2.325   6.439 -0.3373  0.5617 -0.0759
 5389SOL    HW127626   4.445   2.291   6.352  2.6296 -0.9234  1.1733
 5389SOL    HW227627   4.410   2.418   6.423  0.6701  1.0336  1.7703
 5390SOL     OW27628   4.541   1.998   7.078  0.6960  0.2759 -0.3394
 5390SOL    HW127629   4.636   2.008   7.087  0.7042 -0.5209  0.4291
 5390SOL    HW227630   4.525   2.029   6.989  0.1892 -0.2135 -0.4194
 5391SOL     OW27631   1.797   2.942   9.817  0.1252 -0.1459  0.0446
 5391SOL    HW127632   1.711   2.962   9.854 -0.6943 -1.0436 -1.3723
 5391SOL    HW227633   1.796   3.006   9.745  2.0484  2.5202  2.3720
 5392SOL     OW27634   1.065   2.941   3.034 -0.7294  0.0005 -0.6974
 5392SOL    HW127635   1.035   3.027   3.065 -0.3647  0.8216 -2.5904
 5392SOL    HW227636   0.984   2.913   2.991 -1.3372  1.5970 -0.5914
 5393SOL     OW27637   1.588   4.051   5.260 -0.0777  0.3087  0.2332
 5393SOL    HW127638   1.534   4.113   5.310  0.8890  1.8828 -0.6774
 5393SOL    HW227639   1.672   4.096   5.255  0.7657 -1.5790 -2.2007
 5394SOL     OW27640   1.562   4.246  16.084 -0.2946  0.0949 -0.0741
 5394SOL    HW127641   1.638   4.291  16.120  0.8804 -0.9665 -1.2393
 5394SOL    HW227642   1.597   4.160  16.060 -0.3295 -0.1134  0.6184
 5395SOL     OW27643   3.949   2.521  12.608  1.1006 -0.2928 -0.1940
 5395SOL    HW127644   3.986   2.567  12.684  1.0583  1.8018 -1.4237
 5395SOL    HW227645   4.026   2.508  12.552  1.1932 -2.3786  0.4210
 5396SOL     OW27646   0.170   4.224   2.380 -0.2664 -0.6056 -0.0616
 5396SOL    HW127647   0.264   4.217   2.392 -0.0930 -0.3432 -1.2509
 5396SOL    HW227648   0.173   4.278   2.301 -2.5329 -2.3163 -1.3297
 5397SOL     OW27649   4.157   2.477   9.115  0.1880  0.2355  0.8066
 5397SOL    HW127650   4.090   2.409   9.123  1.5434 -0.8322  3.1459
 5397SOL    HW227651   4.196   2.452   9.031  0.3234  1.1085  0.6084
 5398SOL     OW27652   3.216   0.179  11.814  0.0839 -0.5522  0.1270
 5398SOL    HW127653   3.237   0.111  11.878  0.3537 -0.9991 -0.4360
 5398SOL    HW227654   3.292   0.151  11.763  0.7691  0.3646  0.6451
 5399SOL     OW27655   1.159   0.202  12.464  0.0923 -0.0591 -0.2920
 5399SOL    HW127656   1.099   0.240  12.528 -0.1020 -2.7741  1.1342
 5399SOL    HW227657   1.222   0.274  12.455  0.3062 -0.5695 -3.0594
 5400SOL     OW27658   3.563   3.686   1.381 -0.2312 -0.4460 -0.4409
 5400SOL    HW127659   3.518   3.727   1.307 -1.3785  0.1262  0.5847
 5400SOL    HW227660   3.651   3.705   1.351  0.1318  0.9647  1.5417
 5401SOL     OW27661   4.522   1.787   1.881  0.6371  0.1356  0.3206
 5401SOL    HW127662   4.581   1.779   1.805  1.8676  3.7725  0.9032
 5401SOL    HW227663   4.550   1.715   1.937 -1.3425  0.5412  1.8128
 5402SOL     OW27664   0.031   1.406  12.877  0.4396 -0.1147 -0.0244
 5402SOL    HW127665   0.097   1.457  12.830 -0.2389  1.6708  0.9548
 5402SOL    HW227666   0.007   1.345  12.807 -1.1283  2.5168 -1.7679
 5403SOL     OW27667   1.547   3.120  11.450  0.5321 -0.4538 -0.6726
 5403SOL    HW127668   1.623   3.083  11.495  0.7640  0.2454 -0.4943
 5403SOL    HW227669   1.474   3.079  11.497  1.2590 -1.0620 -0.0608
 5404SOL     OW27670   3.490   1.435   7.549  0.5685 -0.3940  0.3978
 5404SOL    HW127671   3.525   1.492   7.616 -0.0949 -1.2130  1.4487
 5404SOL    HW227672   3.495   1.481   7.465  1.7595 -3.4865 -1.2640
 5405SOL     OW27673   2.748   1.833  12.999  0.6150 -0.5805  0.1107
 5405SOL    HW127674   2.779   1.892  13.067 -1.2715  0.7028 -0.1321
 5405SOL    HW227675   2.810   1.845  12.927 -2.0467 -2.3432 -2.5044
 5406SOL     OW27676   3.198   0.021   5.354  0.0714  0.3192  0.0427
 5406SOL    HW127677   3.184   0.077   5.430  2.5099  1.1517 -0.1275
 5406SOL    HW227678   3.131   4.679   5.379  0.2987  0.1066  0.1127
 5407SOL     OW27679   0.079   0.068  13.958  0.0955  0.1085  0.1545
 5407SOL    HW127680   0.174   0.069  13.945  0.0440 -0.9732 -0.3123
 5407SOL    HW227681   0.040   0.083  13.872  2.8460 -1.7678 -1.4373
 5408SOL     OW27682   0.080   0.303   3.765  0.4034 -0.4885  0.7687
 5408SOL    HW127683   0.164   0.283   3.807  0.3978 -1.2705  0.3985
 5408SOL    HW227684   0.009   0.266   3.817 -1.3693  0.0956 -1.2651
 5409SOL     OW27685   2.983   2.223  15.279  0.6729  0.0546 -0.5175
 5409SOL    HW127686   2.912   2.193  15.222  1.3461 -2.1374 -0.1918
 5409SOL    HW227687   3.054   2.216  15.215  0.9226  2.8029 -0.5438
 5410SOL     OW27688   1.416   3.243   3.289  0.1949 -0.0920 -0.4108
 5410SOL    HW127689   1.396   3.254   3.196  3.5528  3.2598 -0.7822
 5410SOL    HW227690   1.432   3.333   3.317  3.3058 -0.8092  0.1747
 5411SOL     OW27691   3.163   3.855  17.123  0.3334 -0.0885 -0.1487
 5411SOL    HW127692   3.135   3.909  17.196 -2.5537 -2.2661  0.3614
 5411SOL    HW227693   3.084   3.835  17.073  0.7695 -0.7073 -0.6005
 5412SOL     OW27694   2.770   4.433   6.716 -0.2177 -0.1714 -0.4801
 5412SOL    HW127695   2.775   4.434   6.812  0.6180 -0.2524 -0.5262
 5412SOL    HW227696   2.757   4.341   6.697  0.1080 -0.1848 -0.6234
 5413SOL     OW27697   3.808   4.395  16.097 -0.2581 -0.0111 -0.4802
 5413SOL    HW127698   3.813   4.315  16.150 -1.3432  0.7606  0.7761
 5413SOL    HW227699   3.745   4.453  16.139  0.4668 -0.7074  1.5757
 5414SOL     OW27700   3.466   1.533  10.927  0.3715  0.1404 -0.1453
 5414SOL    HW127701   3.397   1.592  10.897 -0.7991  0.0042  2.3268
 5414SOL    HW227702   3.410   1.457  10.941 -1.8048  1.6990 -0.4994
 5415SOL     OW27703   0.694   3.665   4.027 -0.4947  0.1471 -0.4278
 5415SOL    HW127704   0.658   3.712   3.951  2.5103  1.3764 -1.0861
 5415SOL    HW227705   0.737   3.589   3.988  0.9151  0.4010  0.6643
 5416SOL     OW27706   1.754   4.048  11.173 -0.4625  0.5499  0.3413
 5416SOL    HW127707   1.708   4.128  11.200 -1.5741 -0.4297  1.3734
 5416SOL    HW227708   1.681   3.990  11.195  0.2608 -0.6254 -0.3836
 5417SOL     OW27709   1.249   0.198   8.380  0.1631  0.0964  0.0187
 5417SOL    HW127710   1.219   0.188   8.470  0.9940 -1.2960  0.1432
 5417SOL    HW227711   1.171   0.229   8.333  0.2603  0.1931 -0.0798
 5418SOL     OW27712   2.145   3.116  15.149  0.3715  0.2668 -0.0594
 5418SOL    HW127713   2.062   3.162  15.165  0.5840 -0.0877  2.0675
 5418SOL    HW227714   2.145   3.050  15.218 -2.0679 -0.1199 -0.4311
 5419SOL     OW27715   1.643   0.297   5.868 -0.4930 -0.0001  0.0402
 5419SOL    HW127716   1.588   0.368   5.834 -3.1617 -1.8079  0.5753
 5419SOL    HW227717   1.676   0.328   5.952 -3.0759 -0.6548  1.3214
 5420SOL     OW27718   2.980   3.594  11.505  0.0332  0.5300  0.3379
 5420SOL    HW127719   3.039   3.576  11.431 -0.7982 -1.3036  0.1126
 5420SOL    HW227720   3.016   3.529  11.566  0.1653  1.1502  0.9196
 5421SOL     OW27721   0.530   1.919  12.374 -0.2013 -0.0580  0.0272
 5421SOL    HW127722   0.481   1.922  12.456  1.3555  2.0354  0.9079
 5421SOL    HW227723   0.471   1.885  12.307 -1.3619 -1.2671  1.6972
 5422SOL     OW27724   2.058   1.641  11.775  0.5838 -0.3523 -0.6277
 5422SOL    HW127725   2.005   1.716  11.799  1.8857  0.4180 -0.1863
 5422SOL    HW227726   1.996   1.589  11.724  1.5525 -1.1863 -0.9623
 5423SOL     OW27727   1.923   0.881  15.466  0.0534 -0.1210 -0.7117
 5423SOL    HW127728   2.003   0.863  15.418  1.2580 -0.7164  1.5199
 5423SOL    HW227729   1.860   0.878  15.394  1.0651  1.6475 -1.6747
 5424SOL     OW27730   2.150   2.034   7.968  0.6816  0.2636  0.1482
 5424SOL    HW127731   2.214   2.057   7.900 -0.4194 -4.1908 -2.3859
 5424SOL    HW227732   2.161   1.940   7.952 -0.8703 -0.2765  2.1915
 5425SOL     OW27733   0.628   3.301  14.884  0.0629 -0.2261 -0.2550
 5425SOL    HW127734   0.619   3.392  14.912  1.3597  0.1786 -1.1022
 5425SOL    HW227735   0.623   3.240  14.958 -0.8555  1.3190  0.9589
 5426SOL     OW27736   1.972   2.581  17.621 -0.2458 -0.3294 -0.1007
 5426SOL    HW127737   1.902   2.595  17.557 -0.6939  1.1689  0.7132
 5426SOL    HW227738   2.033   2.643  17.578 -1.6102  1.0627 -0.0251
 5427SOL     OW27739   3.389   2.665   9.764  0.0981  0.2807  0.7019
 5427SOL    HW127740   3.344   2.625   9.838 -0.2976 -1.1638 -0.3372
 5427SOL    HW227741   3.334   2.739   9.738 -0.3394  0.2415  1.5247
 5428SOL     OW27742   4.264   2.991   7.762 -0.4543  0.2602 -0.2836
 5428SOL    HW127743   4.246   2.936   7.685  0.4676 -1.0163  0.4041
 5428SOL    HW227744   4.230   3.075   7.733  1.1265  0.3464 -1.8899
 5429SOL     OW27745   4.199   3.067   5.172  0.0629  0.1884 -0.0911
 5429SOL    HW127746   4.272   3.124   5.194 -0.2538  0.4754  0.2191
 5429SOL    HW227747   4.230   3.035   5.087  0.2687 -2.7523  1.0935
 5430SOL     OW27748   1.814   0.870   7.896 -0.6090  0.3372  0.1310
 5430SOL    HW127749   1.883   0.803   7.903 -0.7154  0.4191  2.1515
 5430SOL    HW227750   1.837   0.921   7.973 -1.8810 -1.0211  1.4249
 5431SOL     OW27751   2.897   2.773   3.816  0.1952  0.1770  0.2433
 5431SOL    HW127752   2.952   2.784   3.894 -0.8546 -0.9931  1.1475
 5431SOL    HW227753   2.855   2.689   3.832  0.1062  0.0571 -0.6143
 5432SOL     OW27754   1.187   2.058   2.713  0.2303 -0.8850  0.0226
 5432SOL    HW127755   1.247   2.103   2.653  1.6412 -2.2644  0.4145
 5432SOL    HW227756   1.100   2.074   2.675  0.1445  0.5585  0.8113
 5433SOL     OW27757   0.455   3.092   5.367 -0.2456  0.5344 -0.3123
 5433SOL    HW127758   0.438   3.186   5.377  1.6159  0.9668 -1.2385
 5433SOL    HW227759   0.454   3.081   5.271 -0.9730 -1.5952 -0.0585
 5434SOL     OW27760   0.520   1.085   9.421  0.5584 -0.1799 -0.2370
 5434SOL    HW127761   0.541   0.996   9.451  0.1465 -0.4396 -0.7278
 5434SOL    HW227762   0.467   1.062   9.345  0.2727  0.5826 -0.2626
 5435SOL     OW27763   3.439   1.961   2.356  0.3563  0.0857 -0.2852
 5435SOL    HW127764   3.482   1.880   2.329  3.0719  1.7636 -1.0211
 5435SOL    HW227765   3.507   1.998   2.412 -0.2108  0.6880  0.0107
 5436SOL     OW27766   4.622   1.980   4.370  0.8720  0.0317 -0.4049
 5436SOL    HW127767   4.650   2.024   4.290  0.5985  0.2916 -0.3566
 5436SOL    HW227768   4.580   2.055   4.412  0.9717  0.0085 -0.2603
 5437SOL     OW27769   1.393   4.566   4.058  0.2689 -0.4266  0.0933
 5437SOL    HW127770   1.439   4.505   4.000  0.7662 -1.3783  1.5146
 5437SOL    HW227771   1.442   4.558   4.139 -1.6104 -1.0560  1.1554
 5438SOL     OW27772   1.408   1.323   1.657  0.0086 -0.2772  0.0434
 5438SOL    HW127773   1.430   1.260   1.726 -0.4609  1.1664  1.5159
 5438SOL    HW227774   1.313   1.319   1.665 -0.1671  0.2986 -1.7835
 5439SOL     OW27775   3.970   3.605   2.489 -0.0545  0.0600 -0.0297
 5439SOL    HW127776   3.903   3.544   2.457 -0.7800 -0.0267  1.6838
 5439SOL    HW227777   3.935   3.636   2.572 -1.5320 -2.5032  0.3185
 5440SOL     OW27778   2.094   4.523   6.055 -0.3842 -0.2206  0.0660
 5440SOL    HW127779   2.054   4.440   6.029  0.3423 -0.7853  0.7376
 5440SOL    HW227780   2.057   4.575   5.984  1.0802  0.3331 -0.2775
 5441SOL     OW27781   4.418   2.578   1.466 -0.0703  0.2173  1.1598
 5441SOL    HW127782   4.348   2.564   1.530 -1.5569  0.9494 -0.2949
 5441SOL    HW227783   4.419   2.674   1.459 -2.6078 -0.0636 -3.3592
 5442SOL     OW27784   4.718   2.674   1.992  0.3773 -0.3980  0.1452
 5442SOL    HW127785   0.040   2.606   1.940 -0.4269  1.1906 -2.6485
 5442SOL    HW227786   0.055   2.749   1.987  0.8906 -0.9094 -1.7879
 5443SOL     OW27787   2.305   3.903   3.824  0.5413  0.2000  0.5345
 5443SOL    HW127788   2.318   3.992   3.790 -0.0535  0.7535  1.7541
 5443SOL    HW227789   2.347   3.843   3.763 -2.5642 -0.1058 -1.3119
 5444SOL     OW27790   4.662   1.569   8.494 -0.0789 -0.2200 -0.0427
 5444SOL    HW127791   4.718   1.492   8.497 -0.4402 -0.4441  1.1973
 5444SOL    HW227792   4.584   1.523   8.466  0.7562 -1.6140 -0.0803
 5445SOL     OW27793   1.655   0.799   1.678 -0.2108 -0.0743  0.1267
 5445SOL    HW127794   1.709   0.836   1.747  0.5480 -0.0243 -0.4903
 5445SOL    HW227795   1.583   0.862   1.683 -0.4729 -0.4436  1.0559
 5446SOL     OW27796   2.582   1.963  17.648 -0.7486  0.1791 -0.4539
 5446SOL    HW127797   2.530   2.039  17.622  1.6018  0.9344 -2.9048
 5446SOL    HW227798   2.562   1.964   0.053  2.6499  3.3803  0.2575
 5447SOL     OW27799   1.027   0.674   7.770  0.1451  0.0628  0.3102
 5447SOL    HW127800   1.040   0.597   7.716  2.3911  0.9829 -0.4651
 5447SOL    HW227801   1.086   0.736   7.727  0.2699 -1.6235 -1.8962
 5448SOL     OW27802   3.786   0.586   6.975  0.4594  0.2178 -0.3005
 5448SOL    HW127803   3.713   0.542   6.931  0.2567 -0.2509  0.4947
 5448SOL    HW227804   3.853   0.609   6.911  0.9099 -1.0621 -0.2873
 5449SOL     OW27805   4.503   0.547  17.497 -0.1311 -0.0745 -0.3644
 5449SOL    HW127806   4.585   0.561  17.544  0.5029 -0.8118 -1.2453
 5449SOL    HW227807   4.434   0.570  17.559  1.2472  2.5150  0.2071
 5450SOL     OW27808   0.575   0.440   1.691  0.4496  0.7000  0.5195
 5450SOL    HW127809   0.487   0.476   1.700  0.5042  0.7187  0.9888
 5450SOL    HW227810   0.566   0.348   1.716 -1.3433  0.5491 -0.7030
 5451SOL     OW27811   0.443   3.436   6.511  0.2676  0.2700 -0.4725
 5451SOL    HW127812   0.380   3.466   6.576 -1.6400  0.7778 -2.5683
 5451SOL    HW227813   0.387   3.466   6.440 -0.8170 -0.7968 -0.0560
 5452SOL     OW27814   1.858   0.877   1.830 -0.3462 -0.1438  0.1820
 5452SOL    HW127815   1.924   0.897   1.763  0.8623 -2.7992  0.5909
 5452SOL    HW227816   1.861   0.952   1.890  0.8394 -0.4223  0.4833
 5453SOL     OW27817   3.430   0.006   0.360  0.0313  0.1423 -0.2614
 5453SOL    HW127818   3.519   4.698   0.339 -0.2191  2.4513 -4.5790
 5453SOL    HW227819   3.400   0.023   0.271 -1.4692  0.6891  0.3514
 5454SOL     OW27820   0.923   4.127   6.190  0.3325 -0.5848  0.1542
 5454SOL    HW127821   1.012   4.112   6.221  0.9152  1.4272 -0.5035
 5454SOL    HW227822   0.913   4.044   6.144  0.0871 -1.7466  2.3179
 5455SOL     OW27823   2.558   1.303   7.376  0.6516 -0.0366 -0.8461
 5455SOL    HW127824   2.542   1.307   7.470 -0.7787 -0.7420 -1.0642
 5455SOL    HW227825   2.493   1.237   7.352  0.2202  0.2622 -0.4850
 5456SOL     OW27826   3.070   4.442  17.527  0.6685  0.3126  0.0934
 5456SOL    HW127827   3.048   4.528  17.563  0.0297  0.1140  0.1843
 5456SOL    HW227828   3.162   4.452  17.502  0.3017  4.0560  0.1534
 5457SOL     OW27829   0.799   2.852   1.412 -0.5026  0.2303 -0.0092
 5457SOL    HW127830   0.721   2.898   1.443  0.9557  1.3906  1.9164
 5457SOL    HW227831   0.827   2.909   1.340 -1.1386 -1.7368 -1.7941
 5458SOL     OW27832   3.207   3.308  16.161  0.2251  0.4592 -0.2802
 5458SOL    HW127833   3.177   3.305  16.253  2.1549 -0.5920  0.3155
 5458SOL    HW227834   3.146   3.369  16.120  0.9838  1.8737  0.7081
 5459SOL     OW27835   2.363   1.058   6.419 -0.0426  0.4393  0.1381
 5459SOL    HW127836   2.271   1.064   6.392  0.3850 -3.1006 -2.2224
 5459SOL    HW227837   2.408   1.020   6.343  1.0221  1.8456  0.0766
 5460SOL     OW27838   1.331   3.722  13.499 -0.3971  0.2189  1.1256
 5460SOL    HW127839   1.240   3.701  13.479 -0.0466 -2.8420  2.7758
 5460SOL    HW227840   1.323   3.811  13.532 -0.1868  1.2290 -1.5672
 5461SOL     OW27841   4.206   0.297  12.315 -0.9004 -0.0791  0.1908
 5461SOL    HW127842   4.178   0.388  12.324  0.2076  0.3906 -1.1579
 5461SOL    HW227843   4.220   0.279  12.408  0.1241  1.0136  0.2514
 5462SOL     OW27844   2.929   3.809   3.017  0.1871 -0.1350  0.3046
 5462SOL    HW127845   2.942   3.733   2.960  2.2180  0.8080 -0.4952
 5462SOL    HW227846   2.862   3.853   2.965 -1.1138 -1.8674  0.5231
 5463SOL     OW27847   0.110   3.042   7.855 -0.0482 -0.4891  0.0537
 5463SOL    HW127848   0.016   3.041   7.836 -0.0166 -1.3167 -0.0266
 5463SOL    HW227849   0.144   3.000   7.777 -1.9753  0.2951 -1.2064
 5464SOL     OW27850   1.114   0.517   2.174  0.2881 -0.7227 -0.4800
 5464SOL    HW127851   1.182   0.450   2.171 -0.5052 -1.4866 -1.0019
 5464SOL    HW227852   1.107   0.536   2.080  1.1370  0.4171 -0.3213
 5465SOL     OW27853   3.077   0.864   3.525 -0.1504  0.2988  0.5292
 5465SOL    HW127854   3.017   0.799   3.560  1.2378 -0.9970  0.5401
 5465SOL    HW227855   3.105   0.814   3.448 -2.2648 -2.1428  1.3422
 5466SOL     OW27856   4.113   0.841   5.070  0.6933  0.2994 -0.3117
 5466SOL    HW127857   4.157   0.913   5.115  3.3977 -1.7286  0.2785
 5466SOL    HW227858   4.082   0.786   5.142  0.3579  0.9014  0.0051
 5467SOL     OW27859   1.146   1.323   1.737 -0.4550  0.3030 -0.0250
 5467SOL    HW127860   1.118   1.309   1.828  0.7951  1.0393  0.4889
 5467SOL    HW227861   1.102   1.249   1.696  1.4872 -0.6192 -0.4728
 5468SOL     OW27862   2.099   2.269  13.153 -0.0653 -0.1019 -0.3932
 5468SOL    HW127863   2.073   2.339  13.093  0.8740  1.4255  0.9824
 5468SOL    HW227864   2.016   2.268  13.199  0.6970 -0.0448  0.9844
 5469SOL     OW27865   4.695   1.616   2.418 -0.4426  0.1551 -0.2285
 5469SOL    HW127866   4.652   1.559   2.482 -2.1346  2.5079  0.7570
 5469SOL    HW227867   0.053   1.564   2.407 -0.8179 -0.5172  0.2245
 5470SOL     OW27868   2.808   3.966   2.230 -0.3835  0.1649 -0.1322
 5470SOL    HW127869   2.832   4.038   2.172 -0.3630  0.0700 -0.2423
 5470SOL    HW227870   2.732   3.937   2.180  1.3465 -0.1824 -2.6079
 5471SOL     OW27871   1.354   2.037  13.662 -0.2417 -0.2289  0.5151
 5471SOL    HW127872   1.296   1.961  13.669 -0.1814 -0.2908  0.3414
 5471SOL    HW227873   1.287   2.094  13.624  0.0535  0.1531  0.5630
 5472SOL     OW27874   3.164   0.316  16.345  0.5981  0.8829  0.0235
 5472SOL    HW127875   3.215   0.381  16.392  1.7663 -1.4466  1.9805
 5472SOL    HW227876   3.078   0.343  16.378 -0.6274 -1.0343 -1.5802
 5473SOL     OW27877   1.657   3.797   1.084 -0.6048  0.0013  0.1197
 5473SOL    HW127878   1.574   3.762   1.115 -0.3779  0.8246  1.6132
 5473SOL    HW227879   1.698   3.806   1.170  0.2266 -0.9231 -0.1720
 5474SOL     OW27880   1.872   1.078   2.026  0.0190 -0.0809  0.3933
 5474SOL    HW127881   1.883   1.112   2.114 -0.5636  0.8950  0.0929
 5474SOL    HW227882   1.949   1.115   1.981 -1.0673  0.1830 -1.2745
 5475SOL     OW27883   0.065   1.792   3.229 -0.5229 -0.1154 -0.4017
 5475SOL    HW127884   0.073   1.699   3.252 -1.8495 -0.8925 -3.1788
 5475SOL    HW227885   0.070   1.815   3.322 -2.1515 -0.6531 -0.1850
 5476SOL     OW27886   1.244   4.274  12.256  0.0907 -0.2245 -0.0672
 5476SOL    HW127887   1.171   4.316  12.302  1.6128  1.3999  0.8513
 5476SOL    HW227888   1.309   4.344  12.248  0.6865 -0.4568  2.6144
 5477SOL     OW27889   4.274   4.163   0.276 -0.4579 -0.0856  0.4843
 5477SOL    HW127890   4.322   4.091   0.235  1.7228  1.0248  1.0726
 5477SOL    HW227891   4.275   4.134   0.367  3.3141  0.3014  0.5957
 5478SOL     OW27892   3.958   0.522   8.446 -0.4002  0.3056 -0.5025
 5478SOL    HW127893   3.927   0.542   8.358 -1.9855  0.2178  0.0206
 5478SOL    HW227894   3.945   0.608   8.487 -3.6288  0.3342 -1.5583
 5479SOL     OW27895   3.421   2.591   0.800  0.5482  0.3230  0.2780
 5479SOL    HW127896   3.445   2.500   0.784  1.4788  0.5589  0.3100
 5479SOL    HW227897   3.342   2.582   0.853  1.4717 -0.6030  1.4985
 5480SOL     OW27898   3.082   2.436   6.551 -0.1609  0.0351  0.2835
 5480SOL    HW127899   3.057   2.524   6.579 -0.6250  0.1220 -0.3993
 5480SOL    HW227900   3.060   2.451   6.459 -0.0501  1.4353  0.4804
 5481SOL     OW27901   0.183   4.625   4.773  0.2342 -0.2236  0.6406
 5481SOL    HW127902   0.108   4.578   4.807  0.0144 -1.4123 -1.5102
 5481SOL    HW227903   0.207   4.689   4.840 -0.0528 -0.9321  1.4129
 5482SOL     OW27904   4.359   2.052   9.590  0.0549 -0.9461 -0.3136
 5482SOL    HW127905   4.419   1.980   9.571  0.4794 -0.7497  0.3003
 5482SOL    HW227906   4.365   2.091   9.503 -2.0959  2.3839  0.9988
 5483SOL     OW27907   1.856   1.891   7.971 -0.0927  0.3549  0.0486
 5483SOL    HW127908   1.866   1.817   8.032 -0.7301 -0.4905 -0.8706
 5483SOL    HW227909   1.812   1.963   8.015  0.3377  0.3629  0.4652
 5484SOL     OW27910   2.975   2.752   7.861 -0.3088 -0.5628 -0.4476
 5484SOL    HW127911   3.065   2.749   7.894 -1.0338 -0.9920  1.4654
 5484SOL    HW227912   2.965   2.662   7.831 -0.9936 -0.9197  0.8679
 5485SOL     OW27913   1.047   3.687   2.861  0.4953  0.2365  0.4306
 5485SOL    HW127914   1.136   3.688   2.827  0.4904  2.3356  0.4893
 5485SOL    HW227915   0.991   3.684   2.783 -1.1325 -3.1704  1.7314
 5486SOL     OW27916   1.715   3.867   8.119  0.1975  0.6731  0.1709
 5486SOL    HW127917   1.661   3.822   8.054  0.6809  2.7329 -1.6565
 5486SOL    HW227918   1.737   3.791   8.173  1.4162 -0.4332 -1.8922
 5487SOL     OW27919   1.110   3.186   7.559 -0.3491 -0.6765  0.0372
 5487SOL    HW127920   1.142   3.159   7.473  2.8609  0.5814  0.8338
 5487SOL    HW227921   1.148   3.117   7.612  0.4180  0.6440  1.2092
 5488SOL     OW27922   4.704   0.153   9.024 -0.1891 -0.4240 -0.2968
 5488SOL    HW127923   4.672   0.241   9.046  0.9516 -0.1410  0.2310
 5488SOL    HW227924   0.066   0.173   8.982 -0.0414  0.1795  0.2809
 5489SOL     OW27925   0.545   0.181   6.186 -0.0263 -0.4780  0.0994
 5489SOL    HW127926   0.567   0.089   6.203 -2.4397 -1.0840 -0.0388
 5489SOL    HW227927   0.451   0.167   6.177  0.3252 -2.5253 -0.4932
 5490SOL     OW27928   0.407   2.922  16.207 -0.0505 -0.4289 -0.0007
 5490SOL    HW127929   0.420   3.015  16.226  2.3135 -0.4180 -1.6553
 5490SOL    HW227930   0.425   2.918  16.113  0.2160  2.3605 -0.0553
 5491SOL     OW27931   4.683   1.088   8.473 -0.0986 -0.3489 -0.0957
 5491SOL    HW127932   4.682   1.006   8.425 -0.5327 -0.0919 -0.5254
 5491SOL    HW227933   4.704   1.055   8.560  1.8682 -0.5522 -0.6388
 5492SOL     OW27934   3.105   0.046  11.196 -0.4313  0.0780 -0.1557
 5492SOL    HW127935   3.141   4.709  11.129 -1.2989 -0.0047 -0.5480
 5492SOL    HW227936   3.026   4.717  11.213 -1.1467  0.6861 -1.7214
 5493SOL     OW27937   0.440   2.013   0.205  0.3121 -0.4572  0.2377
 5493SOL    HW127938   0.365   1.967   0.243 -0.7030  0.8153 -0.2209
 5493SOL    HW227939   0.404   2.078   0.144 -0.5836 -2.1935 -1.0712
 5494SOL     OW27940   2.942   3.730   3.687  0.0249  0.1520  0.7249
 5494SOL    HW127941   2.972   3.641   3.703  2.4424  0.8580  0.1705
 5494SOL    HW227942   3.025   3.765   3.654 -0.6126  1.3933  0.4195
 5495SOL     OW27943   0.174   4.242  16.692  0.1524 -0.4476  0.0986
 5495SOL    HW127944   0.261   4.204  16.687  0.0589 -0.5809 -0.5174
 5495SOL    HW227945   0.119   4.183  16.744  1.0770 -0.6561  0.8278
 5496SOL     OW27946   3.846   0.205   2.869  0.1650  0.0939  0.1007
 5496SOL    HW127947   3.925   0.255   2.887 -0.4563 -0.0988  3.3107
 5496SOL    HW227948   3.868   0.112   2.870  2.7506  0.7296  2.1598
 5497SOL     OW27949   0.804   3.333  14.294 -0.2847  0.0475 -0.4972
 5497SOL    HW127950   0.793   3.242  14.322 -1.1104  0.3599  0.1808
 5497SOL    HW227951   0.744   3.331  14.218  0.7177  0.6497 -1.2958
 5498SOL     OW27952   1.971   3.525  15.313 -0.1163  0.0823  0.0779
 5498SOL    HW127953   1.999   3.615  15.293  2.4825 -0.7201  0.0491
 5498SOL    HW227954   1.999   3.482  15.232  1.2438 -1.5707  1.4375
 5499SOL     OW27955   3.329   2.240   2.437 -0.0557 -0.3047  0.2427
 5499SOL    HW127956   3.310   2.205   2.350  2.2481 -0.7605 -0.0620
 5499SOL    HW227957   3.424   2.231   2.446  0.3673  2.0278 -1.7760
 5500SOL     OW27958   2.121   4.300   8.217 -0.3901 -0.3976  0.2318
 5500SOL    HW127959   2.100   4.303   8.310 -0.5212  0.6415  0.1651
 5500SOL    HW227960   2.210   4.332   8.236 -0.0359 -1.8898  1.1165
 5501SOL     OW27961   4.652   0.032  13.445 -0.0468 -1.1214 -0.6877
 5501SOL    HW127962   4.629   4.662  13.427 -0.3667 -1.0198 -0.8049
 5501SOL    HW227963   4.693   0.024  13.531 -0.0866 -1.7792 -0.7273
 5502SOL     OW27964   2.914   2.640   1.150 -0.0322 -0.1429 -0.2832
 5502SOL    HW127965   2.953   2.727   1.161 -0.1129 -0.1375 -0.0443
 5502SOL    HW227966   2.914   2.610   1.241 -1.7363  0.6084 -0.0183
 5503SOL     OW27967   2.790   3.625   5.116 -0.2054 -0.3181 -0.0649
 5503SOL    HW127968   2.779   3.549   5.172  2.1173 -1.3009 -0.9844
 5503SOL    HW227969   2.884   3.628   5.100 -0.1944 -1.6103 -0.1945
 5504SOL     OW27970   1.145   4.357   1.104  0.2591  0.0127 -0.0648
 5504SOL    HW127971   1.060   4.376   1.144  0.1409  0.6639 -0.6286
 5504SOL    HW227972   1.201   4.374   1.180 -0.3166  0.6834  0.2120
 5505SOL     OW27973   1.903   0.325  11.691  0.0701  0.2470 -0.0228
 5505SOL    HW127974   1.892   0.401  11.633  1.5140  0.1086 -0.4627
 5505SOL    HW227975   1.841   0.362  11.754  0.3713 -0.8790  0.9213
 5506SOL     OW27976   3.330   0.507   8.972  0.7048  0.3610  0.2736
 5506SOL    HW127977   3.407   0.557   8.945  0.2699  0.7973 -0.1545
 5506SOL    HW227978   3.381   0.455   9.035 -0.7118 -2.0976 -0.6202
 5507SOL     OW27979   0.039   3.649   4.069 -0.1347 -0.3447  0.6026
 5507SOL    HW127980   0.120   3.625   4.023 -2.3630 -2.2898 -2.2203
 5507SOL    HW227981   0.005   3.718   4.013  0.7395 -0.4340 -0.0381
 5508SOL     OW27982   0.693   2.903  15.003 -0.0300  0.5910  0.3445
 5508SOL    HW127983   0.759   2.972  15.004  0.0776  0.4798  1.0325
 5508SOL    HW227984   0.621   2.944  15.051 -1.1420  0.3087 -1.1032
 5509SOL     OW27985   0.320   2.823   9.683  0.6508 -0.1131 -0.3627
 5509SOL    HW127986   0.415   2.817   9.682  0.6389 -0.7485  2.0868
 5509SOL    HW227987   0.287   2.756   9.743  1.5029 -2.1360 -2.1612
 5510SOL     OW27988   0.783   3.974  16.208 -0.3852 -0.2314  0.2382
 5510SOL    HW127989   0.780   3.993  16.115  0.2357  2.7124  0.8204
 5510SOL    HW227990   0.876   3.959  16.225 -0.4338  1.6398  2.2491
 5511SOL     OW27991   1.410   4.110   6.954  0.6096  0.0948  0.3167
 5511SOL    HW127992   1.325   4.069   6.966 -0.4799  2.1609 -0.3494
 5511SOL    HW227993   1.474   4.046   6.984  0.4183  0.2962  1.1789
 5512SOL     OW27994   1.626   0.979   8.528 -0.1924  0.4794  0.1790
 5512SOL    HW127995   1.622   0.947   8.618 -0.0241 -3.2452 -1.1190
 5512SOL    HW227996   1.658   0.900   8.483 -0.9661  0.7008 -0.7700
 5513SOL     OW27997   3.463   3.513   5.129  0.0364  0.0247 -0.0163
 5513SOL    HW127998   3.403   3.582   5.156  0.4714  0.2318  0.4274
 5513SOL    HW227999   3.533   3.559   5.081  0.1895  1.3995  1.5172
 5514SOL     OW28000   4.079   0.188   1.711 -0.6410 -0.1773  0.0686
 5514SOL    HW128001   4.059   0.095   1.712  1.3640 -0.6136 -2.6149
 5514SOL    HW228002   3.997   0.218   1.672 -0.6700 -0.1127  0.1768
 5515SOL     OW28003   0.842   3.492  17.522 -0.2982 -0.4365  0.3864
 5515SOL    HW128004   0.875   3.447  17.445 -1.1291  4.1597 -2.6422
 5515SOL    HW228005   0.828   3.580  17.487 -1.3156 -0.3989  0.8619
 5516SOL     OW28006   1.925   4.346  11.098 -0.0992 -0.5969  0.3985
 5516SOL    HW128007   1.960   4.277  11.043  0.1443 -0.3071  0.1883
 5516SOL    HW228008   1.837   4.314  11.115 -0.4435  0.0042 -0.2316
 5517SOL     OW28009   2.493   1.090   7.932  0.5944 -0.2145 -0.4466
 5517SOL    HW128010   2.516   0.997   7.933 -2.6301 -0.9854  1.7664
 5517SOL    HW228011   2.579   1.123   7.904  1.6491  0.8468  3.9649
 5518SOL     OW28012   3.587   2.002   6.130 -0.5710 -0.3138 -0.3512
 5518SOL    HW128013   3.590   1.994   6.034  1.7407 -0.2107 -0.2955
 5518SOL    HW228014   3.654   1.941   6.159  1.4259  1.3853 -1.3434
 5519SOL     OW28015   3.524   0.551  10.651  0.2660 -0.0789  0.1245
 5519SOL    HW128016   3.506   0.644  10.639  0.9024  0.0617  0.2375
 5519SOL    HW228017   3.438   0.524  10.621  1.2890 -2.3366 -0.7739
 5520SOL     OW28018   1.383   0.037   8.102  0.0150 -0.1671 -0.0676
 5520SOL    HW128019   1.386   0.123   8.059  0.6072 -0.4706 -0.6311
 5520SOL    HW228020   1.474   0.012   8.085  0.3533 -0.4912  2.1559
 5521SOL     OW28021   0.371   2.272   0.098  0.2483 -0.3362  0.5032
 5521SOL    HW128022   0.410   2.252   0.013 -1.4006  2.2993 -0.9015
 5521SOL    HW228023   0.341   2.361   0.077  1.4158 -0.1858 -0.5588
 5522SOL     OW28024   2.450   4.384   5.563  0.0435 -0.0420  0.2891
 5522SOL    HW128025   2.377   4.436   5.595 -1.5816 -0.3133 -2.9331
 5522SOL    HW228026   2.442   4.298   5.605  0.3387 -0.5481 -0.6891
 5523SOL     OW28027   2.540   3.381  10.459  0.5626  0.0195 -0.0803
 5523SOL    HW128028   2.505   3.423  10.537 -1.0954 -0.6609 -0.4560
 5523SOL    HW228029   2.574   3.299  10.495  0.0612  0.3198  1.0777
 5524SOL     OW28030   2.533   0.942   5.997 -0.2029  0.1732  0.4445
 5524SOL    HW128031   2.474   1.006   5.958  1.6043  1.3859 -0.2639
 5524SOL    HW228032   2.608   0.951   5.939 -0.8281  1.2487 -0.1941
 5525SOL     OW28033   0.978   2.372  11.611  0.4020 -0.2134  0.4429
 5525SOL    HW128034   0.884   2.365  11.629  0.4796  0.6258  1.1337
 5525SOL    HW228035   1.006   2.286  11.642  0.4126 -1.3197 -2.5488
 5526SOL     OW28036   0.903   1.014   9.889 -0.1389 -0.5921 -0.6976
 5526SOL    HW128037   0.910   0.970   9.973  2.0630 -1.3456 -1.2923
 5526SOL    HW228038   0.811   1.042   9.896 -0.7820 -3.4180  2.0921
 5527SOL     OW28039   2.555   0.729  11.367  0.1551  0.1280 -0.0687
 5527SOL    HW128040   2.541   0.798  11.302 -1.8337 -0.7741 -0.5820
 5527SOL    HW228041   2.557   0.786  11.444 -2.0140  0.7560 -0.4956
 5528SOL     OW28042   0.129   3.586   6.045 -0.2537 -0.0427  0.1091
 5528SOL    HW128043   0.090   3.530   5.978 -0.4155 -0.6167  0.6821
 5528SOL    HW228044   0.198   3.633   5.997 -1.2815  1.6585  0.2957
 5529SOL     OW28045   2.878   3.542  16.242 -0.3721  0.0522  0.5110
 5529SOL    HW128046   2.916   3.603  16.305 -0.8561 -1.1626  1.9894
 5529SOL    HW228047   2.958   3.508  16.202  1.4520  4.7765  0.1710
 5530SOL     OW28048   0.227   1.215  11.351  0.5105 -0.4713  0.0937
 5530SOL    HW128049   0.207   1.122  11.362  0.9456 -0.5698  0.0123
 5530SOL    HW228050   0.231   1.244  11.442 -0.0205 -2.0776  0.6410
 5531SOL     OW28051   0.520   3.979   9.257 -0.1954  0.1240  0.0074
 5531SOL    HW128052   0.471   3.991   9.338  0.1859 -2.1069  0.5741
 5531SOL    HW228053   0.571   3.899   9.270  1.4685  0.9803 -1.2054
 5532SOL     OW28054   3.729   2.834   0.239 -0.2614  0.1461  0.7875
 5532SOL    HW128055   3.704   2.808   0.150  2.1778  2.8713 -0.6857
 5532SOL    HW228056   3.799   2.770   0.252 -0.1357  0.2061  0.4176
 5533SOL     OW28057   0.873   0.415   0.412 -0.5566  0.0812 -0.2052
 5533SOL    HW128058   0.944   0.459   0.365 -1.1615 -1.8420 -2.9080
 5533SOL    HW228059   0.848   0.344   0.353  0.8900 -0.6103  0.0157
 5534SOL     OW28060   1.285   3.222  11.960  0.2264 -0.0381 -0.5146
 5534SOL    HW128061   1.207   3.270  11.990 -0.9469  0.6875 -4.8057
 5534SOL    HW228062   1.250   3.133  11.966 -1.8954  0.7357 -1.2680
 5535SOL     OW28063   0.215   2.191   3.997 -0.1158 -0.1368  0.1790
 5535SOL    HW128064   0.240   2.257   4.062 -1.2584  0.0037  0.4896
 5535SOL    HW228065   0.295   2.152   3.963 -0.0481  0.1989 -0.0435
 5536SOL     OW28066   1.147   0.505   5.567  0.1855 -0.5936 -0.0691
 5536SOL    HW128067   1.061   0.523   5.529 -1.0458 -1.4879  2.3259
 5536SOL    HW228068   1.117   0.475   5.652  0.4544 -1.4995 -0.2905
 5537SOL     OW28069   4.200   3.933   6.371 -0.1385  0.5051  0.1963
 5537SOL    HW128070   4.213   3.963   6.461 -0.3899  0.3925  0.2700
 5537SOL    HW228071   4.293   3.947   6.353 -0.5693  0.2057 -2.2380
 5538SOL     OW28072   0.163   3.882   5.395 -0.3299 -0.7706  0.0527
 5538SOL    HW128073   0.145   3.951   5.330  1.8853 -2.3872 -2.2885
 5538SOL    HW228074   0.217   3.817   5.349  2.3896  0.6625  1.1771
 5539SOL     OW28075   1.474   2.591   9.573 -0.7687  0.8670  0.1047
 5539SOL    HW128076   1.490   2.634   9.489  1.1031 -1.9810 -1.0063
 5539SOL    HW228077   1.472   2.495   9.562 -0.7370  0.5702  2.6664
 5540SOL     OW28078   3.678   0.418   8.983 -0.3066  0.5579  0.2953
 5540SOL    HW128079   3.600   0.382   9.025 -0.9811  0.2001 -1.2620
 5540SOL    HW228080   3.646   0.492   8.931 -3.1927  0.4046  1.8857
 5541SOL     OW28081   0.571   4.635   8.888 -0.9060 -0.7460  0.7517
 5541SOL    HW128082   0.553   4.648   8.981  1.5300 -0.1170  1.1172
 5541SOL    HW228083   0.480   4.627   8.858 -0.1786  0.9770 -1.9201
 5542SOL     OW28084   2.131   4.204   6.233 -0.1786  0.4508 -0.1873
 5542SOL    HW128085   2.037   4.205   6.251  0.1130 -3.8481  1.5884
 5542SOL    HW228086   2.133   4.163   6.146 -1.4752 -0.1840  0.0820
 5543SOL     OW28087   1.010   1.642   4.996  0.3079 -0.0151 -0.3957
 5543SOL    HW128088   1.084   1.586   5.017 -0.0092 -0.7530 -1.2639
 5543SOL    HW228089   0.983   1.596   4.917 -0.3100  1.1792 -0.8841
 5544SOL     OW28090   1.091   1.887   4.893  0.1622  0.0533  0.3247
 5544SOL    HW128091   1.082   1.802   4.937 -3.1795  0.1658 -0.1543
 5544SOL    HW228092   1.011   1.889   4.842  0.7224 -0.2653 -0.5748
 5545SOL     OW28093   3.931   2.866  15.498 -0.4752  0.4014  0.6172
 5545SOL    HW128094   3.952   2.867  15.592  3.0905 -1.3492 -0.1823
 5545SOL    HW228095   4.015   2.841  15.461  0.2979  2.5251  0.9427
 5546SOL     OW28096   2.267   1.132   1.536  0.5074  0.2156 -0.3337
 5546SOL    HW128097   2.326   1.194   1.579  2.3469 -1.3595 -0.5915
 5546SOL    HW228098   2.320   1.124   1.457 -0.3505  0.4201 -0.9358
 5547SOL     OW28099   4.213   1.441  12.478 -0.6004  0.6075 -0.1096
 5547SOL    HW128100   4.200   1.534  12.498  0.0705  0.1421  2.4654
 5547SOL    HW228101   4.163   1.444  12.396  0.1342 -1.2799 -0.6183
 5548SOL     OW28102   0.185   0.704   5.919  0.0586  0.2290 -0.2772
 5548SOL    HW128103   0.106   0.665   5.881 -0.5914 -1.0105  2.3780
 5548SOL    HW228104   0.245   0.629   5.920  0.2929  0.4056 -0.8509
 5549SOL     OW28105   1.726   3.553  10.068 -0.3032 -0.2110  0.5887
 5549SOL    HW128106   1.806   3.593  10.102 -1.1157 -0.8396  3.2660
 5549SOL    HW228107   1.659   3.614  10.099 -0.3739  0.2872 -0.5251
 5550SOL     OW28108   2.174   3.311   5.904  0.5559 -0.1956  0.1853
 5550SOL    HW128109   2.175   3.401   5.938 -0.5765 -0.2636  0.3886
 5550SOL    HW228110   2.263   3.302   5.870 -0.2233 -1.0760 -1.6107
 5551SOL     OW28111   4.023   0.273   4.317  0.3270 -0.1042 -0.4869
 5551SOL    HW128112   4.050   0.319   4.397  0.6899  0.1770 -0.7711
 5551SOL    HW228113   3.928   0.276   4.310  0.3155  0.3312 -0.0772
 5552SOL     OW28114   1.682   2.387   6.517 -0.2792  0.2777 -0.0776
 5552SOL    HW128115   1.637   2.367   6.599  1.2676  1.4962  1.0490
 5552SOL    HW228116   1.768   2.350   6.533 -0.2581  1.3935  2.3821
 5553SOL     OW28117   3.831   0.317   5.874 -0.5924  0.0016  0.1399
 5553SOL    HW128118   3.835   0.261   5.797  1.0294 -0.0303  0.2358
 5553SOL    HW228119   3.922   0.349   5.876 -1.0946  1.6063 -3.4863
 5554SOL     OW28120   0.316   3.969  10.671 -0.3732  0.0299  0.7008
 5554SOL    HW128121   0.384   3.904  10.655  0.6142  1.3543 -0.4376
 5554SOL    HW228122   0.354   4.052  10.643 -1.2243  0.4614  0.8037
 5555SOL     OW28123   1.830   4.631   5.001  0.0028  0.0860 -0.2116
 5555SOL    HW128124   1.754   4.689   4.999  0.8180  1.1475 -0.3542
 5555SOL    HW228125   1.893   4.696   5.033  0.5785 -0.1935 -0.7800
 5556SOL     OW28126   0.738   1.401   4.988  0.2006  0.2143 -0.1482
 5556SOL    HW128127   0.687   1.433   5.063 -1.4671 -3.5253  0.3237
 5556SOL    HW228128   0.794   1.337   5.032  1.4700  0.8273 -0.8692
 5557SOL     OW28129   3.930   2.647   8.400 -0.5111  0.5336 -0.4218
 5557SOL    HW128130   3.858   2.585   8.382  0.3369 -0.8054  0.7993
 5557SOL    HW228131   3.888   2.727   8.432  0.4148  1.1552 -0.7541
 5558SOL     OW28132   3.182   1.858   8.115 -0.0006 -0.2408 -0.2552
 5558SOL    HW128133   3.165   1.853   8.208 -1.8100  1.2354 -0.4970
 5558SOL    HW228134   3.179   1.765   8.094  2.1616 -0.7600  1.7922
 5559SOL     OW28135   4.634   2.192   0.464 -0.4161 -0.5492  0.2694
 5559SOL    HW128136   4.561   2.208   0.525  0.7844 -0.4827  1.6744
 5559SOL    HW228137   4.619   2.240   0.383  1.3640  0.7254  0.6975
 5560SOL     OW28138   4.066   2.238   5.480 -0.7222  0.2288 -0.4281
 5560SOL    HW128139   4.128   2.210   5.547  0.0490 -0.4542 -1.4223
 5560SOL    HW228140   4.028   2.155   5.450 -0.5776 -0.0973  0.2882
 5561SOL     OW28141   3.432   2.523   4.037  0.0574  0.3078 -0.5105
 5561SOL    HW128142   3.476   2.457   4.089  0.0217  0.2952 -0.4966
 5561SOL    HW228143   3.365   2.468   3.998  2.0296 -0.0567 -3.4044
 5562SOL     OW28144   1.987   4.562   7.325 -0.6675 -0.1090 -0.3156
 5562SOL    HW128145   2.016   4.552   7.234  3.4382  3.0560  0.6469
 5562SOL    HW228146   2.067   4.533   7.368 -0.5546 -0.6243 -0.8778
 5563SOL     OW28147   3.009   3.573   9.434 -0.0194  0.1478  0.0966
 5563SOL    HW128148   3.101   3.596   9.423 -0.5440  1.9312 -0.5109
 5563SOL    HW228149   2.980   3.655   9.474 -1.5705  0.0023 -0.7186
 5564SOL     OW28150   1.350   3.642   8.340  0.0790 -0.1016  0.4074
 5564SOL    HW128151   1.427   3.591   8.317  0.7105  0.8235  0.4851
 5564SOL    HW228152   1.358   3.716   8.280 -0.1030 -2.2109 -2.2036
 5565SOL     OW28153   0.637   4.217   2.289 -0.0543  0.2160 -0.1875
 5565SOL    HW128154   0.590   4.242   2.369  0.4198  2.1486 -0.5089
 5565SOL    HW228155   0.647   4.304   2.251 -0.0148  0.7668  1.0790
 5566SOL     OW28156   1.252   1.710  16.425 -0.6066  0.5449 -0.1275
 5566SOL    HW128157   1.211   1.738  16.507 -3.2536  0.7444 -1.4948
 5566SOL    HW228158   1.184   1.668  16.372 -0.3056 -1.4252  1.0495
 5567SOL     OW28159   4.349   3.328   9.474  0.2432  0.5064 -0.4574
 5567SOL    HW128160   4.360   3.268   9.400  0.6401 -0.4767  0.3959
 5567SOL    HW228161   4.277   3.289   9.524  0.2768  0.7953 -0.1916
 5568SOL     OW28162   1.773   0.914  16.537  0.2859  0.1801 -0.1467
 5568SOL    HW128163   1.849   0.966  16.509 -0.0029  0.1418 -1.0068
 5568SOL    HW228164   1.818   0.838  16.575  0.3548 -0.9235 -2.4334
 5569SOL     OW28165   2.028   1.052   1.152  0.0965 -0.0490 -0.5553
 5569SOL    HW128166   2.107   0.998   1.157  1.4967  1.9524 -1.3350
 5569SOL    HW228167   1.970   0.992   1.106  1.3857  0.3769 -2.7297
 5570SOL     OW28168   0.233   0.234  13.600 -0.3441 -0.3010 -0.0195
 5570SOL    HW128169   0.161   0.292  13.574 -0.1055  0.9765  2.1800
 5570SOL    HW228170   0.290   0.226  13.524 -1.9540  1.3150 -1.3879
 5571SOL     OW28171   0.412   3.406   3.775  0.1337 -0.1506 -0.5000
 5571SOL    HW128172   0.328   3.379   3.738 -0.5902 -0.5316  1.4123
 5571SOL    HW228173   0.442   3.436   3.689 -1.2204 -0.9994 -1.2793
 5572SOL     OW28174   4.170   1.651  11.720 -0.2140  0.2922 -0.4741
 5572SOL    HW128175   4.128   1.590  11.659 -0.2629 -0.5555  0.4071
 5572SOL    HW228176   4.246   1.682  11.672 -1.2467  0.1228 -2.2070
 5573SOL     OW28177   0.070   1.081  16.289 -0.1864  0.2833 -0.6243
 5573SOL    HW128178   0.019   1.089  16.370 -0.6672  0.6806 -0.9670
 5573SOL    HW228179   0.096   0.989  16.290  2.1296  0.9248 -1.2916
 5574SOL     OW28180   0.524   1.884   7.080 -0.0704  0.3478  0.1561
 5574SOL    HW128181   0.567   1.905   7.163  0.1876  0.3548  0.0217
 5574SOL    HW228182   0.588   1.916   7.017  0.7910  0.1247  0.9151
 5575SOL     OW28183   2.946   0.208   2.121  0.0022 -0.3919  0.5920
 5575SOL    HW128184   2.898   0.127   2.102 -0.3909  0.1801 -0.7985
 5575SOL    HW228185   2.885   0.253   2.179  2.0504  3.3526 -0.2096
 5576SOL     OW28186   0.311   0.115  13.040  0.0055  0.2860  0.2873
 5576SOL    HW128187   0.234   0.104  12.984  1.6640  1.7365 -2.2100
 5576SOL    HW228188   0.331   0.023  13.060 -0.4986 -0.0684 -0.8704
 5577SOL     OW28189   3.897   1.893   1.943 -0.7676 -0.5373 -0.1037
 5577SOL    HW128190   3.931   1.901   2.032  1.6582  0.7529 -1.1591
 5577SOL    HW228191   3.875   1.985   1.929 -0.6779 -0.9260 -2.7844
 5578SOL     OW28192   1.762   0.463   6.908 -1.4153  0.5641  0.1409
 5578SOL    HW128193   1.769   0.425   6.820  0.5829  1.0965  0.0657
 5578SOL    HW228194   1.739   0.554   6.887 -2.2367  0.3252  0.0337
 5579SOL     OW28195   4.399   1.126   3.564 -0.2311  0.1560  0.1316
 5579SOL    HW128196   4.382   1.080   3.482  0.5519 -0.8960  0.5581
 5579SOL    HW228197   4.431   1.054   3.618  0.5795  1.9574  2.0596
 5580SOL     OW28198   2.015   0.326   4.963  0.4105  0.0335  0.6681
 5580SOL    HW128199   1.973   0.391   4.907  0.2772  0.2777  1.0493
 5580SOL    HW228200   2.102   0.358   4.986  0.7700  0.4870 -1.3183
 5581SOL     OW28201   2.192   0.637   7.246  0.1492  0.8526  0.1926
 5581SOL    HW128202   2.231   0.675   7.167  0.4399 -0.1362 -0.1357
 5581SOL    HW228203   2.158   0.556   7.208  2.3226 -0.0151  0.0852
 5582SOL     OW28204   2.045   3.369  10.890 -0.0162 -0.2117 -0.3198
 5582SOL    HW128205   2.050   3.277  10.916  1.1436 -0.3850 -1.1126
 5582SOL    HW228206   1.966   3.397  10.934 -0.0804 -0.3968 -0.3166
 5583SOL     OW28207   2.639   4.643   8.362 -0.8191 -0.7637  0.0357
 5583SOL    HW128208   2.680   0.005   8.342 -0.3466 -0.7009  1.2216
 5583SOL    HW228209   2.598   4.656   8.448 -0.1025 -2.0707  0.5938
 5584SOL     OW28210   4.697   2.078   4.123 -0.0309  0.5409 -0.1270
 5584SOL    HW128211   4.684   2.052   4.032 -0.0589 -1.6323  0.4924
 5584SOL    HW228212   0.050   2.136   4.110 -0.0838  0.5081 -0.5748
 5585SOL     OW28213   0.921   2.197   2.582  0.1985 -0.5564  0.4468
 5585SOL    HW128214   0.942   2.148   2.502 -0.5599  0.2539 -0.2414
 5585SOL    HW228215   0.830   2.170   2.584  0.1328 -0.3004  0.8429
 5586SOL     OW28216   1.095   0.168   5.691 -0.1733  0.0440 -0.3462
 5586SOL    HW128217   1.176   0.119   5.705 -0.8078 -1.2407 -1.1670
 5586SOL    HW228218   1.119   0.253   5.727 -3.3223  1.3406 -1.2813
 5587SOL     OW28219   3.304   3.489   1.928 -0.2481 -0.6002 -0.2470
 5587SOL    HW128220   3.390   3.449   1.912 -0.5743 -1.1931 -0.5513
 5587SOL    HW228221   3.273   3.493   1.838  0.0755  0.3769 -0.3084
 5588SOL     OW28222   2.819   4.125   3.827 -0.3757 -0.4561  0.0201
 5588SOL    HW128223   2.749   4.190   3.817 -0.7939 -0.6480  1.7166
 5588SOL    HW228224   2.764   4.048   3.812  0.5860 -1.0275 -0.5482
 5589SOL     OW28225   2.401   0.979   7.595 -0.0419  0.1564 -0.3536
 5589SOL    HW128226   2.368   1.012   7.511 -1.9706 -1.4728 -0.2522
 5589SOL    HW228227   2.335   0.915   7.623  0.3934 -0.3790 -0.5301
 5590SOL     OW28228   0.816   3.860  17.684  0.6700 -0.1815 -0.2008
 5590SOL    HW128229   0.822   3.857  17.588 -0.1682  0.2934 -0.2733
 5590SOL    HW228230   0.863   3.943   0.009  0.3065 -0.0284  0.1102
 5591SOL     OW28231   3.733   0.080   6.717  0.3157 -0.7444 -0.1169
 5591SOL    HW128232   3.756   4.716   6.753  2.1409 -0.4119 -0.5011
 5591SOL    HW228233   3.761   0.137   6.789  2.0250 -1.1025 -0.4928
 5592SOL     OW28234   1.846   4.578   8.262  0.3815  0.1326  0.0069
 5592SOL    HW128235   1.901   4.650   8.232  0.8634 -0.1356  0.2557
 5592SOL    HW228236   1.876   4.583   8.353 -2.1825  0.8237  0.8154
 5593SOL     OW28237   4.046   3.646   1.175  0.1799  0.2887  0.2902
 5593SOL    HW128238   4.066   3.619   1.086  1.3298  3.0796 -0.3191
 5593SOL    HW228239   4.131   3.685   1.194  1.1139 -0.2135 -2.8947
 5594SOL     OW28240   1.735   2.738   0.783  0.5417  0.0945 -0.0842
 5594SOL    HW128241   1.769   2.800   0.719 -1.4328  1.1209 -0.1493
 5594SOL    HW228242   1.747   2.655   0.736  0.8274 -0.9455  1.7784
 5595SOL     OW28243   3.503   1.804   7.825  0.1798  0.1945 -0.0065
 5595SOL    HW128244   3.433   1.790   7.761 -0.1460  0.9970  0.1775
 5595SOL    HW228245   3.551   1.875   7.782  1.1800 -0.6145 -0.2453
 5596SOL     OW28246   0.126   1.685   8.680 -0.6580 -0.6056  0.7601
 5596SOL    HW128247   0.102   1.644   8.597  0.7674  2.7092 -1.2654
 5596SOL    HW228248   0.098   1.615   8.739 -2.2416  0.2123  0.9863
 5597SOL     OW28249   2.407   4.427   7.640 -0.2324 -0.5898 -0.0185
 5597SOL    HW128250   2.397   4.366   7.713 -0.3868 -0.2690  0.2225
 5597SOL    HW228251   2.461   4.496   7.678 -0.5300 -1.6923  2.4271
 5598SOL     OW28252   0.334   2.807   6.446  0.0054  0.4683  0.1244
 5598SOL    HW128253   0.323   2.822   6.352 -2.2044  2.8349  0.7583
 5598SOL    HW228254   0.250   2.762   6.457 -0.9130  1.7957 -1.4988
 5599SOL     OW28255   0.433   1.203  10.857 -0.4420  0.2353  0.1488
 5599SOL    HW128256   0.419   1.126  10.912 -0.2231  1.0000  1.2759
 5599SOL    HW228257   0.396   1.271  10.913 -0.4152 -0.7256  1.3429
 5600SOL     OW28258   1.424   0.187   1.669 -0.0575  0.2251 -0.1468
 5600SOL    HW128259   1.369   0.109   1.675  1.7209 -1.0455 -0.2008
 5600SOL    HW228260   1.377   0.260   1.708  1.1672 -0.3075  2.3088
 5601SOL     OW28261   0.993   2.400   4.317 -1.1946 -0.5735 -0.2441
 5601SOL    HW128262   0.907   2.361   4.301 -0.8303 -1.2630 -0.5331
 5601SOL    HW228263   0.991   2.471   4.253 -0.7730  1.8957  2.4755
 5602SOL     OW28264   2.845   4.688   2.021  0.2448  0.3330  0.2864
 5602SOL    HW128265   2.850   4.706   1.927  1.1764  0.1314  0.3006
 5602SOL    HW228266   2.912   4.621   2.034  0.1025 -0.0748 -1.0430
 5603SOL     OW28267   3.374   4.054   4.539 -0.4430 -0.5574  0.2639
 5603SOL    HW128268   3.400   3.962   4.542 -0.3616 -0.6251 -2.2105
 5603SOL    HW228269   3.281   4.051   4.515  0.2109 -2.3663 -2.0307
 5604SOL     OW28270   0.225   2.692   2.667  0.0876  0.3875 -0.2240
 5604SOL    HW128271   0.194   2.625   2.728 -1.2823 -0.0078 -1.3406
 5604SOL    HW228272   0.230   2.645   2.584  1.3295 -1.7137  1.0433
 5605SOL     OW28273   3.939   0.069  11.087 -0.0256  0.4065  0.1747
 5605SOL    HW128274   4.005   0.137  11.072  0.6347 -0.4766 -0.8814
 5605SOL    HW228275   3.965   0.039  11.174 -0.0802  0.3855  0.1833
 5606SOL     OW28276   1.710   2.871   1.222  0.1497  0.0034 -0.2445
 5606SOL    HW128277   1.616   2.871   1.239  0.2281 -1.0285  0.1746
 5606SOL    HW228278   1.715   2.795   1.163 -1.6877  1.0466 -1.7248
 5607SOL     OW28279   3.098   0.483  14.986  0.1872 -0.2718  0.7367
 5607SOL    HW128280   3.154   0.408  15.009  2.7567  0.9693 -1.3559
 5607SOL    HW228281   3.130   0.496  14.897  1.4360 -2.6417  0.8398
 5608SOL     OW28282   1.754   3.281   2.217 -0.3678 -0.3440  0.4845
 5608SOL    HW128283   1.827   3.223   2.197 -0.2456 -0.2938  0.7782
 5608SOL    HW228284   1.730   3.313   2.130 -0.3303 -2.4021 -0.2819
 5609SOL     OW28285   2.428   3.340   5.285 -0.0094  0.0665  0.2938
 5609SOL    HW128286   2.334   3.328   5.270 -0.1439  0.7833  0.5252
 5609SOL    HW228287   2.431   3.435   5.301 -2.7820  0.5318 -1.9681
 5610SOL     OW28288   2.940   3.551  10.612 -0.1959 -0.1807  0.3717
 5610SOL    HW128289   2.932   3.533  10.518  0.5729  2.1072 -0.1261
 5610SOL    HW228290   3.010   3.487  10.628 -1.9115 -2.4670 -1.3458
 5611SOL     OW28291   3.884   0.568   6.189  0.1255  0.0408  0.5567
 5611SOL    HW128292   3.948   0.514   6.235  0.2690  0.3362  0.7058
 5611SOL    HW228293   3.826   0.499   6.156  1.1599 -0.2620 -0.5981
 5612SOL     OW28294   2.239   2.385  12.295 -0.1817  0.2926 -0.8582
 5612SOL    HW128295   2.266   2.329  12.222  1.4825  0.2505 -0.2069
 5612SOL    HW228296   2.203   2.317  12.352  0.6384  1.7601  1.3848
 5613SOL     OW28297   2.028   2.598   1.373 -0.5812  0.4978  0.4138
 5613SOL    HW128298   1.954   2.566   1.425 -0.1651  0.2120  0.8335
 5613SOL    HW228299   2.083   2.520   1.366  0.1123  1.0989 -0.8953
 5614SOL     OW28300   4.308   3.589   2.137  0.1768  0.3724  0.3705
 5614SOL    HW128301   4.303   3.510   2.191  0.6003  1.0978  1.4677
 5614SOL    HW228302   4.215   3.593   2.116  0.6658  1.2487 -1.5599
 5615SOL     OW28303   1.499   2.705  17.277  0.3095  0.1417  0.1017
 5615SOL    HW128304   1.457   2.732  17.359  0.4812  1.2846 -0.1787
 5615SOL    HW228305   1.478   2.782  17.223 -1.1040 -1.9729 -2.3385
 5616SOL     OW28306   0.828   0.071  15.426 -0.0303  0.0966 -0.3345
 5616SOL    HW128307   0.875   0.100  15.348  0.1225  2.6425  0.7067
 5616SOL    HW228308   0.869   4.709  15.448 -1.7615 -0.7781 -0.4367
 5617SOL     OW28309   0.647   2.811   3.793  0.1733  0.1949 -0.2818
 5617SOL    HW128310   0.559   2.787   3.765  0.2088 -1.6729  1.2411
 5617SOL    HW228311   0.684   2.854   3.716 -0.7455  0.0536 -0.7972
 5618SOL     OW28312   2.649   1.182  14.782 -0.0275  0.1115  0.4538
 5618SOL    HW128313   2.554   1.184  14.768 -0.3050 -2.7248  1.8798
 5618SOL    HW228314   2.683   1.257  14.733 -1.1832 -0.4486 -1.2100
 5619SOL     OW28315   3.364   0.438  12.063  0.5373 -0.1756  0.9286
 5619SOL    HW128316   3.417   0.438  11.984 -1.8166  1.3392 -0.6563
 5619SOL    HW228317   3.419   0.387  12.122  0.1274  0.5331  1.9333
 5620SOL     OW28318   4.029   0.335   3.063 -0.2171 -0.3250  0.5568
 5620SOL    HW128319   4.087   0.315   2.990 -2.2055  3.5118 -2.0753
 5620SOL    HW228320   4.093   0.366   3.128 -1.5599  0.9226  1.2786
 5621SOL     OW28321   3.274   2.019  15.718 -0.3869 -0.2419 -0.5849
 5621SOL    HW128322   3.355   2.033  15.668  0.1679 -0.9088  0.1223
 5621SOL    HW228323   3.208   2.059  15.662 -1.2998  0.9527  1.3689
 5622SOL     OW28324   2.416   2.646  10.102  0.8038  0.0333  0.5565
 5622SOL    HW128325   2.400   2.699  10.180  0.1527  1.3395 -0.4879
 5622SOL    HW228326   2.339   2.588  10.100  2.0276 -1.5330 -1.3218
 5623SOL     OW28327   1.866   2.632   2.787 -0.5880 -0.1238 -0.0620
 5623SOL    HW128328   1.818   2.693   2.842 -2.0174 -1.8220  0.5977
 5623SOL    HW228329   1.818   2.646   2.705  1.5388  0.3902 -1.2008
 5624SOL     OW28330   0.307   0.708   4.654  0.3064  0.3359  0.0522
 5624SOL    HW128331   0.220   0.719   4.617  0.9090  0.4581 -1.3079
 5624SOL    HW228332   0.305   0.614   4.673 -0.0757  0.3006 -0.1722
 5625SOL     OW28333   4.579   1.556  13.021  0.5689 -0.4490  0.5832
 5625SOL    HW128334   4.553   1.612  12.947  2.5675 -2.4411 -1.6469
 5625SOL    HW228335   4.625   1.492  12.967 -0.1864 -0.7066  0.2410
 5626SOL     OW28336   3.738   0.038   4.509  0.3694  0.3480 -0.2488
 5626SOL    HW128337   3.746   0.111   4.448  1.5092  0.9901  0.6525
 5626SOL    HW228338   3.777   4.677   4.480  2.2896  1.0848  0.1827
 5627SOL     OW28339   0.889   3.957   6.480 -0.0629 -0.0098 -0.5823
 5627SOL    HW128340   0.907   4.017   6.551 -1.8677 -0.2647  0.0848
 5627SOL    HW228341   0.953   3.986   6.415  2.0025 -0.6649  1.1586
 5628SOL     OW28342   2.858   1.867  15.163  1.0108 -0.1000  0.1616
 5628SOL    HW128343   2.778   1.816  15.171  0.8146  0.0640 -0.7364
 5628SOL    HW228344   2.868   1.878  15.069  1.7031  3.4922  0.6360
 5629SOL     OW28345   2.314   1.098   7.357 -0.3342  0.4762  0.5330
 5629SOL    HW128346   2.312   1.116   7.263  1.9848 -0.6510  0.2663
 5629SOL    HW228347   2.220   1.104   7.375 -1.1900  0.1128 -3.9688
 5630SOL     OW28348   4.477   3.608   9.716  0.7394 -0.1009 -0.2209
 5630SOL    HW128349   4.384   3.614   9.735  1.0890  0.1984  1.4529
 5630SOL    HW228350   4.516   3.638   9.799  3.0224 -3.3022 -0.1545
 5631SOL     OW28351   4.156   3.654   0.883  0.0290 -0.1753  0.3316
 5631SOL    HW128352   4.251   3.641   0.879 -0.3537 -2.2766 -1.5262
 5631SOL    HW228353   4.118   3.573   0.849 -1.2329  0.4846  0.1646
 5632SOL     OW28354   1.577   3.342   1.957 -0.0906 -0.0647 -0.5145
 5632SOL    HW128355   1.580   3.430   1.918 -0.8680  0.3134  0.2770
 5632SOL    HW228356   1.538   3.364   2.041  0.1370 -1.4662 -0.0581
 5633SOL     OW28357   0.283   3.053   3.965 -0.0223  0.0361  0.5279
 5633SOL    HW128358   0.341   3.035   3.891 -1.1474 -0.5050 -0.2130
 5633SOL    HW228359   0.197   3.063   3.925 -0.8326 -0.0856  2.2519
 5634SOL     OW28360   2.635   3.641   4.902 -0.0496 -0.4739  0.2833
 5634SOL    HW128361   2.681   3.681   4.829  0.9317  0.3617  1.3577
 5634SOL    HW228362   2.706   3.624   4.964 -0.0475 -0.5425  0.2617
 5635SOL     OW28363   2.325   3.310   0.046  0.4237 -0.1480  0.1802
 5635SOL    HW128364   2.230   3.315   0.059  0.7197  0.7359  2.0106
 5635SOL    HW228365   2.351   3.399   0.023  0.5374  0.3006  1.9912
 5636SOL     OW28366   3.204   0.546  13.207 -0.5393 -0.0521 -0.4048
 5636SOL    HW128367   3.149   0.599  13.150 -0.5620  3.8422  3.1697
 5636SOL    HW228368   3.181   0.461  13.171  1.4521 -1.3296  1.3334
 5637SOL     OW28369   1.462   4.235   2.011 -0.5217 -0.4455 -0.1891
 5637SOL    HW128370   1.428   4.148   2.030  0.4755 -1.2307 -1.9970
 5637SOL    HW228371   1.552   4.235   2.043 -0.5050 -0.8748 -0.2430
 5638SOL     OW28372   4.538   4.212   5.689 -0.0543  0.7980 -0.0695
 5638SOL    HW128373   4.612   4.171   5.645  0.1334  0.7204  0.3167
 5638SOL    HW228374   4.521   4.145   5.755  2.8381  2.6727  2.5939
 5639SOL     OW28375   1.575   3.375   9.633 -0.5269  0.2312 -0.4081
 5639SOL    HW128376   1.497   3.320   9.645 -0.1272 -0.2576 -0.0359
 5639SOL    HW228377   1.594   3.426   9.711 -1.0364 -0.0113 -0.1216
 5640SOL     OW28378   2.116   0.184   2.951 -0.3358  0.8693 -0.1978
 5640SOL    HW128379   2.157   0.158   3.033 -0.0351 -0.3662 -0.7310
 5640SOL    HW228380   2.198   0.155   2.910 -0.5351 -0.8788  0.6557
 5641SOL     OW28381   3.216   1.360   7.525  0.0884 -0.0040  0.2273
 5641SOL    HW128382   3.304   1.347   7.560 -0.0527  0.0394  0.5958
 5641SOL    HW228383   3.221   1.445   7.480 -3.2142  0.6271  1.0903
 5642SOL     OW28384   4.550   2.273   5.699 -0.1561  0.8517  0.5373
 5642SOL    HW128385   4.576   2.276   5.791 -1.6894 -4.0254  1.1378
 5642SOL    HW228386   4.490   2.347   5.703  0.7276  1.6451 -0.9754
 5643SOL     OW28387   3.295   1.301   1.194 -0.2020 -0.1615 -0.0783
 5643SOL    HW128388   3.259   1.286   1.106  1.1089 -1.2288 -0.4281
 5643SOL    HW228389   3.220   1.286   1.251  0.6689 -1.0532  0.8427
 5644SOL     OW28390   1.830   0.727  15.150  0.0892 -0.2796 -0.1060
 5644SOL    HW128391   1.874   0.796  15.101 -1.2514  1.4440  1.0914
 5644SOL    HW228392   1.769   0.783  15.199  1.0046 -0.3826  1.1585
 5645SOL     OW28393   0.058   4.572  14.547  0.0954 -0.4262 -0.3867
 5645SOL    HW128394   0.025   4.485  14.568  0.5163 -0.5642 -0.2982
 5645SOL    HW228395   0.082   4.606  14.633 -0.0838 -0.0392 -0.4872
 5646SOL     OW28396   1.162   3.781   2.275  0.0264 -0.3300  0.4709
 5646SOL    HW128397   1.095   3.843   2.246  0.2884  0.0998  0.7987
 5646SOL    HW228398   1.112   3.706   2.309 -0.2035  0.4474  1.8247
 5647SOL     OW28399   4.232   3.987   4.709 -0.7780 -0.0371  0.0672
 5647SOL    HW128400   4.146   4.021   4.687 -0.8097 -0.2267 -0.0906
 5647SOL    HW228401   4.282   4.055   4.663  1.0213 -2.8255 -2.0597
 5648SOL     OW28402   4.473   1.947   5.663  0.0070  0.2243  0.4676
 5648SOL    HW128403   4.487   2.035   5.697 -0.4331  0.4017  0.1777
 5648SOL    HW228404   4.561   1.909   5.654 -0.8643 -1.4188 -1.0896
 5649SOL     OW28405   4.602   1.669   6.767  0.5314  0.2008  0.0445
 5649SOL    HW128406   4.682   1.714   6.739  0.4229  1.0618  1.1272
 5649SOL    HW228407   4.629   1.579   6.749  1.3957  1.0064 -2.7495
 5650SOL     OW28408   4.642   1.936  10.933 -0.3765  0.4583  0.4627
 5650SOL    HW128409   4.569   1.912  10.875  1.4084  0.0061 -1.5779
 5650SOL    HW228410   4.600   2.008  10.979  0.0170  0.0811  1.4156
 5651SOL     OW28411   4.308   0.915   3.351  0.1834  0.1165 -0.3325
 5651SOL    HW128412   4.331   0.832   3.393 -1.6733 -0.3239 -0.1682
 5651SOL    HW228413   4.350   0.901   3.267  3.1609 -1.7345  1.4564
 5652SOL     OW28414   0.695   3.300  12.431 -0.2668  0.3489  0.6120
 5652SOL    HW128415   0.777   3.346  12.444 -0.3018  0.0217  2.0212
 5652SOL    HW228416   0.647   3.356  12.492  0.7660  1.0020  0.8259
 5653SOL     OW28417   3.131   1.691  13.855  0.1930  0.0243 -0.1201
 5653SOL    HW128418   3.151   1.657  13.768  4.0716 -1.9154  1.5460
 5653SOL    HW228419   3.081   1.623  13.901 -0.6697  1.4446  1.0283
 5654SOL     OW28420   0.164   2.357   7.950 -0.1149 -0.0415  0.6377
 5654SOL    HW128421   0.121   2.436   7.982  0.4510 -0.5225  2.5874
 5654SOL    HW228422   0.246   2.362   8.000  0.8625  2.1500 -1.2017
 5655SOL     OW28423   1.697   4.379   7.955 -0.2174 -0.2644 -0.1408
 5655SOL    HW128424   1.681   4.369   7.861  0.3655 -1.4200 -0.1192
 5655SOL    HW228425   1.674   4.300   8.005 -0.1552  0.5898  1.2325
 5656SOL     OW28426   4.310   4.203   1.261 -0.4945 -0.2659  0.0010
 5656SOL    HW128427   4.350   4.119   1.281  2.0273  0.9530  0.0183
 5656SOL    HW228428   4.236   4.204   1.321  0.9067 -0.2242  1.7144
 5657SOL     OW28429   0.839   1.731  11.329 -0.5654  0.1809  0.3890
 5657SOL    HW128430   0.903   1.672  11.368 -0.4593  1.0928  1.5865
 5657SOL    HW228431   0.779   1.671  11.286  1.3460 -1.6459  0.2534
 5658SOL     OW28432   0.353   3.504   7.631 -0.1850  0.1056  0.4330
 5658SOL    HW128433   0.358   3.598   7.647  0.5418  0.1350  0.0357
 5658SOL    HW228434   0.412   3.499   7.555 -1.0333 -3.3230 -0.0134
 5659SOL     OW28435   4.534   0.121   3.177 -0.3919  0.1592  0.6715
 5659SOL    HW128436   4.629   0.105   3.178 -0.5652 -0.8759 -0.1453
 5659SOL    HW228437   4.537   0.197   3.236  2.0584  1.1860 -0.7712
 5660SOL     OW28438   1.517   3.645   5.545 -0.1215  0.4151 -0.0926
 5660SOL    HW128439   1.569   3.726   5.545 -0.4557  0.6339  1.3624
 5660SOL    HW228440   1.580   3.585   5.504  0.0983 -0.4673  1.5356
 5661SOL     OW28441   0.708   4.440   3.701  0.0221 -0.5625  0.4693
 5661SOL    HW128442   0.640   4.479   3.646 -0.4357 -1.1329  0.6293
 5661SOL    HW228443   0.786   4.469   3.655  0.8439 -3.1325  0.2789
 5662SOL     OW28444   0.264   0.325   6.953 -0.1454  0.1653  0.0922
 5662SOL    HW128445   0.205   0.398   6.971  0.9355  1.0939 -0.1582
 5662SOL    HW228446   0.345   0.372   6.975  0.2333 -0.7137  0.5755
 5663SOL     OW28447   2.726   3.111   8.624  0.2209 -0.5040  0.0158
 5663SOL    HW128448   2.723   3.030   8.675 -0.0387 -0.5705 -0.1022
 5663SOL    HW228449   2.649   3.148   8.668  0.6219 -2.1321  2.0564
 5664SOL     OW28450   0.275   1.785  12.977  0.2171 -0.0499 -0.3737
 5664SOL    HW128451   0.236   1.754  13.059  0.0684  2.0787  0.3587
 5664SOL    HW228452   0.211   1.853  12.958  0.2686 -0.7564 -3.1430
 5665SOL     OW28453   3.481   0.461   7.252  0.3427 -0.2234 -0.0652
 5665SOL    HW128454   3.473   0.468   7.347  1.7799 -1.6935  0.1597
 5665SOL    HW228455   3.572   0.489   7.244  0.4604 -0.1368  1.7283
 5666SOL     OW28456   1.799   2.683   2.523  0.4107  0.0586  0.1657
 5666SOL    HW128457   1.764   2.742   2.456 -1.7601  0.3316  1.5543
 5666SOL    HW228458   1.878   2.654   2.478  0.2463 -1.8345  1.1165
 5667SOL     OW28459   4.355   0.681  16.941  0.0955  0.6243  0.0856
 5667SOL    HW128460   4.349   0.630  17.021  1.1889  1.0905  0.4757
 5667SOL    HW228461   4.319   0.614  16.884  0.8051 -0.9977  1.5603
 5668SOL     OW28462   2.556   3.673   5.734  0.3705  0.5499 -0.8451
 5668SOL    HW128463   2.614   3.746   5.712  0.6602  0.6325  0.1845
 5668SOL    HW228464   2.563   3.683   5.829 -2.0493 -0.4450 -0.5592
 5669SOL     OW28465   0.919   4.073   3.870 -0.1554  0.2174  0.4433
 5669SOL    HW128466   0.889   4.118   3.791 -1.3169  0.8442  1.2542
 5669SOL    HW228467   1.001   4.119   3.887 -0.7215  1.4133 -0.0798
 5670SOL     OW28468   0.477   1.180   9.078 -0.0912 -0.2633  0.0941
 5670SOL    HW128469   0.456   1.092   9.108 -0.4494  1.1029  3.9207
 5670SOL    HW228470   0.435   1.234   9.145 -1.6737  1.9558 -2.6735
 5671SOL     OW28471   1.889   3.289  11.629  0.1716  0.1265  0.4520
 5671SOL    HW128472   1.896   3.347  11.552  0.0252 -0.4720 -0.0100
 5671SOL    HW228473   1.852   3.353  11.690  0.0873 -0.0785  0.6127
 5672SOL     OW28474   1.413   2.439   7.179  0.1904  0.2728  0.1982
 5672SOL    HW128475   1.474   2.438   7.253 -0.1834  1.5144  0.5204
 5672SOL    HW228476   1.474   2.448   7.106 -0.8183  2.0195 -0.4099
 5673SOL     OW28477   2.374   3.153   2.142 -0.0274  0.3488 -0.0745
 5673SOL    HW128478   2.361   3.234   2.191  0.9707 -0.2239  1.1415
 5673SOL    HW228479   2.428   3.102   2.202 -1.6399 -2.1175 -0.7125
 5674SOL     OW28480   2.772   4.078   8.448  0.1433 -0.1390  0.3802
 5674SOL    HW128481   2.796   4.021   8.374 -0.3158  3.0069 -2.2059
 5674SOL    HW228482   2.841   4.056   8.510  1.6532  2.4255 -0.3688
 5675SOL     OW28483   2.716   3.085   0.110  0.0280 -0.6772 -0.0641
 5675SOL    HW128484   2.732   2.991   0.104  0.6363 -0.7152  1.9376
 5675SOL    HW228485   2.632   3.095   0.066  0.0014  2.0082  0.5853
 5676SOL     OW28486   4.013   1.382   3.841 -0.4657  0.0852 -0.4219
 5676SOL    HW128487   4.085   1.431   3.881 -0.6332  0.1874 -0.2457
 5676SOL    HW228488   4.060   1.331   3.774  2.7714 -0.2426  2.0752
 5677SOL     OW28489   2.277   1.810  11.718 -0.4977  0.0886  0.1210
 5677SOL    HW128490   2.198   1.757  11.730  0.5012 -1.9027 -1.9800
 5677SOL    HW228491   2.269   1.799  11.623 -2.5723  0.4575  0.2546
 5678SOL     OW28492   2.570   1.553  13.289  0.3322  0.6404  0.2237
 5678SOL    HW128493   2.534   1.475  13.330  0.9220  0.9019  1.2221
 5678SOL    HW228494   2.572   1.612  13.364 -0.8418  1.3401 -0.2814
 5679SOL     OW28495   1.248   0.082   2.421 -0.4610 -0.8468 -0.3939
 5679SOL    HW128496   1.183   0.120   2.480  0.3501  0.5404 -0.4032
 5679SOL    HW228497   1.252   4.714   2.455 -0.2747 -0.2783  1.0589
 5680SOL     OW28498   0.874   2.735   3.903 -0.3204 -0.2320  0.8878
 5680SOL    HW128499   0.922   2.806   3.859 -0.7181 -0.6641 -0.2430
 5680SOL    HW228500   0.788   2.739   3.861  0.2812  2.1574 -0.1547
 5681SOL     OW28501   4.009   1.708   2.997 -0.0290 -0.2077 -0.2615
 5681SOL    HW128502   4.073   1.778   3.013  0.0995 -0.1754 -0.9366
 5681SOL    HW228503   3.996   1.665   3.082 -0.7636 -0.7292 -0.6478
 5682SOL     OW28504   0.468   4.369  15.049  0.2811  0.6113 -0.0694
 5682SOL    HW128505   0.394   4.334  14.999  0.5051  0.8412 -0.5614
 5682SOL    HW228506   0.531   4.359  14.977 -0.1249  0.7098 -0.4400
 5683SOL     OW28507   3.929   2.803  10.881  0.0947  0.1284  0.0090
 5683SOL    HW128508   3.949   2.888  10.842 -1.0924  0.4770  0.1575
 5683SOL    HW228509   3.980   2.745  10.824  3.2513  1.0814  1.9032
 5684SOL     OW28510   1.398   3.182  10.912 -0.1219 -0.5387 -0.0842
 5684SOL    HW128511   1.426   3.148  10.997 -1.9808 -0.9559  0.3577
 5684SOL    HW228512   1.316   3.225  10.937  0.0659 -0.2803  0.1038
 5685SOL     OW28513   1.633   2.103  13.990 -0.1804 -0.5519  0.1934
 5685SOL    HW128514   1.675   2.032  13.943  0.5732  0.8345 -1.2113
 5685SOL    HW228515   1.699   2.172  13.978  0.2757 -0.5611  2.5136
 5686SOL     OW28516   0.915   3.510  17.239 -0.0364  0.2068  0.3989
 5686SOL    HW128517   1.008   3.501  17.218 -0.2882 -0.3185 -0.5122
 5686SOL    HW228518   0.882   3.498  17.149  0.4747  1.0196  0.1029
 5687SOL     OW28519   1.971   2.397   6.567 -0.1849  0.2018 -0.1942
 5687SOL    HW128520   1.965   2.491   6.552  1.3060 -0.0541 -2.3460
 5687SOL    HW228521   1.971   2.360   6.479  1.5231  0.0776 -0.1374
 5688SOL     OW28522   1.045   1.142  12.675  0.2049  0.1577 -0.3122
 5688SOL    HW128523   1.138   1.144  12.653  0.5083 -1.2593  0.8155
 5688SOL    HW228524   1.025   1.050  12.655 -0.7176  0.5314 -1.1101
 5689SOL     OW28525   0.536   0.070   9.961 -0.0097 -0.6450  0.0261
 5689SOL    HW128526   0.526   0.126   9.884 -0.5013  1.2510  1.4709
 5689SOL    HW228527   0.476   0.118  10.018  1.8753  0.8136  0.7954
 5690SOL     OW28528   3.909   2.270  12.540 -0.0112 -0.0923  0.5461
 5690SOL    HW128529   3.936   2.360  12.557 -1.4476  0.4547  0.0029
 5690SOL    HW228530   3.864   2.245  12.621  3.2407 -2.8242  1.4737
 5691SOL     OW28531   2.422   1.189   2.226 -0.6512 -0.0841 -0.5013
 5691SOL    HW128532   2.426   1.276   2.188  1.1154 -0.1323 -0.4168
 5691SOL    HW228533   2.331   1.195   2.256 -0.1779  1.0021  0.6984
 5692SOL     OW28534   3.874   0.369   4.734  0.0899  0.3539  0.4196
 5692SOL    HW128535   3.940   0.310   4.698 -0.9239 -1.2647  1.2133
 5692SOL    HW228536   3.849   0.315   4.809 -0.0761 -2.1696 -1.4334
 5693SOL     OW28537   1.488   4.203   5.491  0.3025 -0.1854 -0.3174
 5693SOL    HW128538   1.532   4.247   5.564 -1.7622 -0.4820  1.0889
 5693SOL    HW228539   1.410   4.175   5.538 -0.2936  0.0485 -1.1599
 5694SOL     OW28540   4.012   2.337   7.861  0.3917  0.8284 -0.0460
 5694SOL    HW128541   4.000   2.385   7.943 -0.0280 -1.8249  1.4452
 5694SOL    HW228542   4.079   2.396   7.827  1.5284 -0.7137 -0.4368
 5695SOL     OW28543   3.507   4.615   0.761  0.7005 -0.3050  0.0865
 5695SOL    HW128544   3.562   4.587   0.834  0.5504  0.6519  0.5698
 5695SOL    HW228545   3.582   4.628   0.703  0.4649  0.3529 -0.0787
 5696SOL     OW28546   1.457   0.935   5.457 -0.2668  0.5139  1.0072
 5696SOL    HW128547   1.403   0.867   5.496 -1.4245  1.5102  1.1204
 5696SOL    HW228548   1.548   0.906   5.465 -0.2179  0.0503 -1.2120
 5697SOL     OW28549   3.075   4.486  12.643 -0.0026 -0.0569 -0.0679
 5697SOL    HW128550   3.012   4.434  12.693  0.1064 -0.8704 -0.7675
 5697SOL    HW228551   3.102   4.423  12.576 -0.3531  1.6573 -1.8324
 5698SOL     OW28552   3.174   3.967   5.854  0.1221 -0.1047  1.0005
 5698SOL    HW128553   3.083   3.966   5.886  0.2831  1.0882  1.5172
 5698SOL    HW228554   3.199   3.888   5.902 -0.4975  0.3728  2.1208
 5699SOL     OW28555   4.444   1.366   7.865  0.2373  0.1014 -0.0507
 5699SOL    HW128556   4.360   1.320   7.857 -0.6343  1.7646 -0.3118
 5699SOL    HW228557   4.422   1.440   7.921  1.6129  0.5850 -0.1533
 5700SOL     OW28558   1.053   4.167   5.523 -0.1780  0.3665  0.0200
 5700SOL    HW128559   1.089   4.078   5.529 -1.0120 -0.0832 -1.8190
 5700SOL    HW228560   1.117   4.224   5.566  0.2040 -0.5275  0.6550
 5701SOL     OW28561   4.694   0.592   6.553  0.4229  0.0584  0.2223
 5701SOL    HW128562   4.665   0.676   6.518  0.8466  0.1637  0.1266
 5701SOL    HW228563   4.604   0.563   6.567  0.0480  1.0563 -0.1403
 5702SOL     OW28564   3.358   4.081   8.001  0.5334 -0.2368 -0.0625
 5702SOL    HW128565   3.386   4.152   8.058 -3.3917  1.0882  0.1860
 5702SOL    HW228566   3.292   4.126   7.948 -1.5651 -1.9602  1.1054
 5703SOL     OW28567   3.486   3.936  14.590 -0.3464  0.3225  0.2489
 5703SOL    HW128568   3.549   3.863  14.584  0.6303  1.0615  1.4875
 5703SOL    HW228569   3.497   3.974  14.503 -0.7519  0.2334  0.1565
 5704SOL     OW28570   3.197   1.183  15.338  0.2219 -0.2959  0.6169
 5704SOL    HW128571   3.254   1.159  15.412  1.4056  0.2539 -0.1256
 5704SOL    HW228572   3.219   1.115  15.274  0.3566  0.3670 -0.0332
 5705SOL     OW28573   3.349   1.409   4.128 -0.5989 -0.2520 -0.1768
 5705SOL    HW128574   3.255   1.401   4.143 -0.4810 -2.2309 -0.4310
 5705SOL    HW228575   3.370   1.393   4.220  0.0096 -0.9044 -0.4271
 5706SOL     OW28576   1.256   1.548   3.926 -0.3378 -0.3120  0.4380
 5706SOL    HW128577   1.298   1.586   4.002 -1.9270  1.6403  0.3434
 5706SOL    HW228578   1.329   1.495   3.894  0.5768  0.3124  1.4959
 5707SOL     OW28579   4.428   4.352   9.666  0.5156  0.0455 -0.2013
 5707SOL    HW128580   4.384   4.435   9.685 -0.9216 -0.7802  0.0892
 5707SOL    HW228581   4.366   4.321   9.600  1.2070 -1.6973 -0.0443
 5708SOL     OW28582   4.143   4.497   5.517  0.1003 -0.8667  0.1993
 5708SOL    HW128583   4.171   4.573   5.467  2.3347 -1.4722  0.5138
 5708SOL    HW228584   4.106   4.449   5.442 -0.4464  0.0175 -0.0933
 5709SOL     OW28585   1.684   2.552   3.237  0.2174  0.2052 -0.2699
 5709SOL    HW128586   1.705   2.507   3.319  1.7603  0.0753 -0.7343
 5709SOL    HW228587   1.653   2.635   3.273 -0.6734  1.0212 -2.9024
 5710SOL     OW28588   1.570   2.006   7.364 -0.2981  0.5432 -0.1154
 5710SOL    HW128589   1.495   1.959   7.330 -0.4416  0.6963 -0.0079
 5710SOL    HW228590   1.544   2.017   7.455  1.2533  0.9786  0.2736
 5711SOL     OW28591   1.415   2.353  17.485  0.3385  0.2490  0.3830
 5711SOL    HW128592   1.455   2.296  17.550  0.0770 -1.6934 -1.1259
 5711SOL    HW228593   1.367   2.295  17.426 -1.1694  0.0213  1.8505
 5712SOL     OW28594   3.094   0.121   4.824  0.3676  0.7421  0.0414
 5712SOL    HW128595   3.189   0.133   4.831  0.3919  1.1124 -0.8761
 5712SOL    HW228596   3.079   0.090   4.913 -0.7781  2.1795  0.3456
 5713SOL     OW28597   0.855   3.267  15.779  0.2071  0.0264 -0.0507
 5713SOL    HW128598   0.834   3.337  15.841  1.0254  0.7904 -0.6293
 5713SOL    HW228599   0.845   3.321  15.701 -0.7177  0.7426  0.5616
 5714SOL     OW28600   1.824   3.011   5.651  0.1808 -0.1163  0.4150
 5714SOL    HW128601   1.766   3.070   5.700 -1.8763  0.1961 -2.3746
 5714SOL    HW228602   1.888   3.073   5.616 -1.5021  1.1619 -0.3941
 5715SOL     OW28603   1.914   0.807   4.131  0.2260  0.1730 -0.7417
 5715SOL    HW128604   1.903   0.736   4.068 -3.1173  0.2968 -0.3008
 5715SOL    HW228605   2.007   0.830   4.125 -0.3162  3.1659  2.1098
 5716SOL     OW28606   3.321   4.385   0.823  0.3957  0.6216  0.0595
 5716SOL    HW128607   3.360   4.335   0.752 -0.4730 -0.0292  0.0469
 5716SOL    HW228608   3.391   4.449   0.836  0.5352  0.4694  0.0491
 5717SOL     OW28609   0.304   0.296  13.853  0.7765  0.1959 -0.3899
 5717SOL    HW128610   0.284   0.277  13.762  0.2216  0.6114 -0.3564
 5717SOL    HW228611   0.399   0.302  13.862  0.5757  0.1011  1.9046
 5718SOL     OW28612   0.579   0.931   3.184  0.2155 -0.1940 -0.3386
 5718SOL    HW128613   0.569   0.967   3.096  1.1359  1.3356  0.1826
 5718SOL    HW228614   0.595   0.843   3.150  2.6157  0.5248 -1.0749
 5719SOL     OW28615   3.557   0.188   6.508 -0.1369 -0.3298 -0.2181
 5719SOL    HW128616   3.608   0.186   6.427  0.5139  0.7988  0.1689
 5719SOL    HW228617   3.628   0.175   6.571 -1.8425  1.0310  1.9893
 5720SOL     OW28618   4.363   3.267   5.375 -0.1440  0.1124 -0.1449
 5720SOL    HW128619   4.425   3.318   5.427 -0.2680  0.3151 -0.1935
 5720SOL    HW228620   4.402   3.181   5.363 -2.4088 -1.1621  1.4400
 5721SOL     OW28621   4.659   3.916   7.888  0.1454  0.4438  0.2905
 5721SOL    HW128622   4.599   3.928   7.814  0.2199  2.0854  0.5030
 5721SOL    HW228623   4.660   4.010   7.907  0.6767  0.6697 -0.7907
 5722SOL     OW28624   0.834   2.972   4.763 -1.0708 -0.5771 -0.3115
 5722SOL    HW128625   0.904   2.921   4.804  0.2144  2.2889  1.1127
 5722SOL    HW228626   0.881   3.055   4.756  0.0273 -1.2772 -1.3016
 5723SOL     OW28627   4.014   1.855   8.018  0.1266  0.0790  0.3980
 5723SOL    HW128628   3.963   1.926   8.058  1.7354  0.2991  2.1149
 5723SOL    HW228629   4.107   1.880   8.026  0.5875 -1.1740 -1.2609
 5724SOL     OW28630   0.143   3.323   7.161  0.2710  0.1734  0.1924
 5724SOL    HW128631   0.226   3.283   7.183  0.8791  0.8928 -0.7761
 5724SOL    HW228632   0.139   3.385   7.234  0.5754 -0.4258  0.7117
 5725SOL     OW28633   0.027   1.164  10.493 -0.1206  0.4190 -0.5429
 5725SOL    HW128634   0.041   1.177  10.587  3.1379 -0.0703 -0.9697
 5725SOL    HW228635   0.063   1.247  10.462 -1.4017  0.9801 -0.5322
 5726SOL     OW28636   3.879   4.213   7.159 -0.8399 -1.0918 -0.3162
 5726SOL    HW128637   3.854   4.179   7.073 -1.4485  0.6862 -0.8334
 5726SOL    HW228638   3.837   4.298   7.149  1.8552  0.2197 -0.3867
 5727SOL     OW28639   1.615   3.994  13.605  0.2645  0.0451  0.0017
 5727SOL    HW128640   1.573   3.975  13.689 -0.1331  0.6711 -0.0620
 5727SOL    HW228641   1.680   4.062  13.623 -0.9661  0.6170  2.2958
 5728SOL     OW28642   2.143   1.910   7.112 -0.5236 -0.5506  0.2075
 5728SOL    HW128643   2.061   1.957   7.117 -0.8105 -0.7923 -2.1008
 5728SOL    HW228644   2.179   1.928   7.025 -0.3772  1.2911  0.6608
 5729SOL     OW28645   1.801   4.451  16.443 -0.4499  0.0845 -0.2417
 5729SOL    HW128646   1.775   4.537  16.477 -1.8867 -1.0277  1.5158
 5729SOL    HW228647   1.832   4.410  16.523 -1.2469  0.7627  0.4183
 5730SOL     OW28648   4.087   2.761  16.088  0.2154 -0.0790  0.1295
 5730SOL    HW128649   4.050   2.680  16.122 -0.4217 -0.1566 -0.7385
 5730SOL    HW228650   4.092   2.745  15.994 -0.8646  0.2413  0.0150
 5731SOL     OW28651   4.315   2.148   7.536  0.2305 -0.7637 -0.4695
 5731SOL    HW128652   4.261   2.132   7.614  0.8969 -1.2604 -0.1059
 5731SOL    HW228653   4.366   2.221   7.572 -1.1173 -0.1845  0.2582
 5732SOL     OW28654   4.484   1.357   3.769 -0.1139 -0.4201 -0.1928
 5732SOL    HW128655   4.431   1.429   3.733  0.6522 -0.2529 -0.9895
 5732SOL    HW228656   4.452   1.368   3.859 -2.5702  1.1269 -1.2315
 5733SOL     OW28657   0.315   3.815   6.903  0.4273  0.8088  0.9336
 5733SOL    HW128658   0.304   3.830   6.809 -1.2043  0.3193  1.0447
 5733SOL    HW228659   0.376   3.885   6.925 -0.5102  1.6381  0.9030
 5734SOL     OW28660   1.444   4.411   4.608  0.9132 -0.3410  0.1246
 5734SOL    HW128661   1.417   4.320   4.594 -0.6366  0.1795 -0.2404
 5734SOL    HW228662   1.451   4.407   4.704 -1.9483 -0.5472  0.3279
 5735SOL     OW28663   1.169   1.873   3.341 -1.0815 -0.4318  0.0186
 5735SOL    HW128664   1.239   1.855   3.404 -1.3018  0.9586  0.6500
 5735SOL    HW228665   1.181   1.797   3.284 -0.0456  0.4316 -0.9085
 5736SOL     OW28666   1.636   3.338   1.083  0.1268 -0.5932 -0.1178
 5736SOL    HW128667   1.709   3.398   1.069 -0.7239  0.5220  0.2196
 5736SOL    HW228668   1.624   3.332   1.178 -1.8905  0.7691 -0.2964
 5737SOL     OW28669   1.370   3.403   0.060 -0.0707 -0.4232  0.4852
 5737SOL    HW128670   1.385   3.340  17.678  0.1504 -0.8809  0.9474
 5737SOL    HW228671   1.287   3.448   0.039 -0.5287 -0.0042  3.2496
 5738SOL     OW28672   0.040   2.828   3.822 -0.3663  0.1569  0.2643
 5738SOL    HW128673   4.706   2.859   3.894 -0.2545  0.5681  0.1755
 5738SOL    HW228674   0.081   2.911   3.797  0.2487 -0.8206 -1.9686
 5739SOL     OW28675   2.242   3.847   8.627 -0.1630  0.1171 -0.0201
 5739SOL    HW128676   2.254   3.755   8.604  2.3982  1.0341 -2.3117
 5739SOL    HW228677   2.275   3.901   8.555 -2.1416  1.8005  0.3638
 5740SOL     OW28678   4.635   0.218   2.909 -0.0620  0.5159  0.6519
 5740SOL    HW128679   4.645   0.147   2.846  3.0708  4.6660 -3.5424
 5740SOL    HW228680   4.596   0.175   2.984  0.5335 -0.9641  0.1206
 5741SOL     OW28681   0.533   2.686   7.712  0.2790 -0.3024  0.6299
 5741SOL    HW128682   0.521   2.768   7.665  2.6769 -0.3762 -0.1464
 5741SOL    HW228683   0.447   2.652   7.689  0.9878 -0.5648 -1.6441
 5742SOL     OW28684   3.076   1.477   8.818 -0.6958 -0.0653  0.1146
 5742SOL    HW128685   3.066   1.400   8.875 -0.8192 -1.7283 -2.1767
 5742SOL    HW228686   3.049   1.548   8.877 -2.2085 -0.0254 -0.6309
 5743SOL     OW28687   2.821   0.541   4.671  0.1717  0.0623  0.3176
 5743SOL    HW128688   2.876   0.477   4.715  0.6811  1.4406  1.6837
 5743SOL    HW228689   2.833   0.513   4.580  1.7126 -0.0651  0.5625
 5744SOL     OW28690   0.963   1.350   2.697  0.3867  0.1537  0.0548
 5744SOL    HW128691   0.898   1.394   2.752  1.2529  1.6805 -0.1499
 5744SOL    HW228692   0.902   1.353   2.623  0.6871 -2.0378 -0.2865
 5745SOL     OW28693   2.654   2.003   8.670  0.2732  0.1699  0.0566
 5745SOL    HW128694   2.576   1.948   8.676  1.3268 -1.1043  1.8505
 5745SOL    HW228695   2.627   2.080   8.721  0.6806  0.8414 -0.7383
 5746SOL     OW28696   1.572   1.302  12.760 -0.5719 -0.0379 -0.0008
 5746SOL    HW128697   1.573   1.242  12.685  2.6510  0.4484 -0.3289
 5746SOL    HW228698   1.547   1.380  12.710 -2.5918  0.9849  2.5569
 5747SOL     OW28699   2.967   0.973  15.929  0.5623  0.5032  0.2399
 5747SOL    HW128700   2.968   1.024  16.010  1.5217 -0.5762  0.9050
 5747SOL    HW228701   2.892   0.915  15.939  2.0452 -1.0426  2.3008
 5748SOL     OW28702   2.831   3.191   5.524 -0.1251  0.2059 -0.0780
 5748SOL    HW128703   2.842   3.279   5.559 -0.6053  0.3956 -0.4137
 5748SOL    HW228704   2.768   3.211   5.456  0.6631  2.0796 -0.2538
 5749SOL     OW28705   0.572   4.191   8.766  0.0289  1.0986  0.3065
 5749SOL    HW128706   0.606   4.279   8.753  2.1614  0.2064 -0.1270
 5749SOL    HW228707   0.576   4.182   8.861  1.8641 -1.3912  0.0108
 5750SOL     OW28708   2.285   3.037   4.794 -0.4466  0.2652 -0.0499
 5750SOL    HW128709   2.211   3.050   4.735  0.6058 -2.2108 -1.9391
 5750SOL    HW228710   2.300   2.943   4.787  2.3654  0.8698 -2.2761
 5751SOL     OW28711   2.860   2.465  10.146  0.3205  0.2130 -0.2802
 5751SOL    HW128712   2.829   2.418  10.223  1.5972  0.8944  0.6372
 5751SOL    HW228713   2.951   2.442  10.162  1.1200  2.1058 -2.0924
 5752SOL     OW28714   4.357   3.538   7.656 -0.4083  0.2042  0.1403
 5752SOL    HW128715   4.320   3.563   7.571 -2.0384  0.2115  0.8577
 5752SOL    HW228716   4.313   3.603   7.711 -2.3181 -1.3709  0.4715
 5753SOL     OW28717   0.915   1.923   4.128 -0.1435 -0.3020 -0.6654
 5753SOL    HW128718   0.964   1.863   4.072  0.5507 -1.0546  0.7176
 5753SOL    HW228719   0.963   2.002   4.104 -1.7988  0.7259 -0.5648
 5754SOL     OW28720   2.196   1.410   3.847  0.4171 -0.5960  0.4679
 5754SOL    HW128721   2.238   1.412   3.933 -1.6850  0.4063  1.4765
 5754SOL    HW228722   2.243   1.335   3.811  0.8766  0.0830 -0.3289
 5755SOL     OW28723   0.472   2.411   5.687 -0.2490 -0.1535 -0.2788
 5755SOL    HW128724   0.492   2.456   5.604  0.2542  1.1993  0.5856
 5755SOL    HW228725   0.414   2.472   5.734  1.0913  1.9305 -1.3224
 5756SOL     OW28726   1.722   0.627   2.488  0.2235  1.1525  0.1724
 5756SOL    HW128727   1.629   0.609   2.473  1.2842 -1.6304 -3.0308
 5756SOL    HW228728   1.764   0.658   2.407 -1.7699 -1.8579 -2.0152
 5757SOL     OW28729   4.402   3.150   9.285 -0.0607 -0.2423  0.2499
 5757SOL    HW128730   4.451   3.181   9.209  1.5608 -1.2936  0.8560
 5757SOL    HW228731   4.338   3.087   9.252 -0.2285  0.5918 -0.9897
 5758SOL     OW28732   1.076   0.187   3.701  0.3329 -0.3813 -0.0960
 5758SOL    HW128733   1.089   0.107   3.650 -1.7259 -0.5862 -0.3147
 5758SOL    HW228734   0.987   0.173   3.735 -0.0944  2.5895  0.0120
 5759SOL     OW28735   0.574   3.489  17.605  0.1110  0.2032 -0.0586
 5759SOL    HW128736   0.587   3.584  17.612  1.0947  0.3402 -3.7847
 5759SOL    HW228737   0.660   3.455  17.580  1.1079  2.2875  0.5735
 5760SOL     OW28738   0.829   3.877   4.823  0.5265 -0.2707 -0.2265
 5760SOL    HW128739   0.904   3.828   4.789  1.4281  0.8173  0.2094
 5760SOL    HW228740   0.773   3.801   4.842  0.3404 -0.2986 -0.8618
 5761SOL     OW28741   4.218   4.560   0.543 -0.3421 -0.4471  0.5271
 5761SOL    HW128742   4.242   4.543   0.634 -0.3796  1.3600  0.8590
 5761SOL    HW228743   4.284   4.625   0.520 -1.4589  0.3103 -0.5455
 5762SOL     OW28744   3.202   1.105   2.365 -0.5414 -0.1601 -0.6798
 5762SOL    HW128745   3.250   1.174   2.318 -0.2024 -1.7115 -2.6277
 5762SOL    HW228746   3.210   1.032   2.304 -0.4691 -1.8890  1.3915
 5763SOL     OW28747   4.437   0.022   0.528 -0.0292 -0.3684  0.1337
 5763SOL    HW128748   4.430   0.058   0.616 -0.7698 -0.7567  0.2397
 5763SOL    HW228749   4.526   4.714   0.509  0.3417  1.1806 -0.5452
 5764SOL     OW28750   3.359   4.185   2.984  0.2636 -0.9808  0.2170
 5764SOL    HW128751   3.396   4.104   3.020  0.0896 -0.9131  0.5466
 5764SOL    HW228752   3.324   4.163   2.898  1.2708  0.2139 -0.5032
 5765SOL     OW28753   3.778   4.036   2.520  0.3565  0.4646  0.1368
 5765SOL    HW128754   3.734   3.974   2.578  0.0266  0.0782 -0.5209
 5765SOL    HW228755   3.868   4.004   2.530  0.2166  0.7070  2.2270
 5766SOL     OW28756   1.106   4.454   2.640  0.4228 -0.6980 -0.1472
 5766SOL    HW128757   1.201   4.462   2.624  0.6675 -2.6098  0.4362
 5766SOL    HW228758   1.070   4.469   2.553  1.1251  0.9293 -0.1766
 5767SOL     OW28759   3.306   2.943   4.639 -0.1105 -0.1887 -0.0212
 5767SOL    HW128760   3.219   2.907   4.660 -0.6575  0.6346 -0.8674
 5767SOL    HW228761   3.360   2.873   4.676  0.2051 -0.0822 -0.2847
 5768SOL     OW28762   4.407   3.915  14.578  0.8038  0.2389  0.2751
 5768SOL    HW128763   4.457   3.834  14.587 -2.7637 -1.7572  2.0703
 5768SOL    HW228764   4.478   3.980  14.574 -0.7296  1.8224 -1.1624
 5769SOL     OW28765   4.357   0.569  11.532  0.3384  0.3626 -0.2888
 5769SOL    HW128766   4.351   0.535  11.443 -0.1214 -0.0777 -0.0936
 5769SOL    HW228767   4.413   0.504  11.576  0.1213  0.3402 -0.0415
 5770SOL     OW28768   3.540   1.282   2.794 -0.5148  0.2415 -0.3188
 5770SOL    HW128769   3.562   1.375   2.797  0.1441  0.0931 -0.3811
 5770SOL    HW228770   3.530   1.285   2.699 -0.3234 -0.5654 -0.3611
 5771SOL     OW28771   0.294   2.836   5.202 -0.4155 -0.3063  0.4323
 5771SOL    HW128772   0.288   2.931   5.204  0.6893 -0.2125 -0.5769
 5771SOL    HW228773   0.204   2.814   5.178  0.0903 -3.2923  1.2327
 5772SOL     OW28774   4.642   1.495  14.531  0.2767  0.0329  0.5365
 5772SOL    HW128775   0.014   1.475  14.537  0.0802 -1.1846 -0.3596
 5772SOL    HW228776   4.619   1.427  14.468 -0.4270 -0.8006  1.6946
 5773SOL     OW28777   3.099   1.374   6.145  0.1708 -0.0496 -0.2113
 5773SOL    HW128778   3.130   1.338   6.228  0.3034  0.6087  0.0235
 5773SOL    HW228779   3.051   1.447   6.184  0.4809 -0.1967  0.4356
 5774SOL     OW28780   4.186   0.684   6.031 -0.0040  0.1520 -0.1725
 5774SOL    HW128781   4.214   0.769   6.066  2.4858 -0.7828  0.1415
 5774SOL    HW228782   4.164   0.720   5.945 -0.6777 -1.9114 -0.8641
 5775SOL     OW28783   0.061   4.109   8.670  0.5353 -0.2451  0.0291
 5775SOL    HW128784   0.055   4.050   8.594  0.2480  0.6137 -0.6143
 5775SOL    HW228785   0.140   4.073   8.711  0.1738 -0.0367  0.9049
 5776SOL     OW28786   2.252   0.276   6.871  0.3548  0.2587 -0.3077
 5776SOL    HW128787   2.347   0.267   6.872  0.3836  0.4967 -1.5353
 5776SOL    HW228788   2.234   0.186   6.845 -0.7615  0.8462 -1.5807
 5777SOL     OW28789   0.978   4.540  17.533  0.3954 -0.2438 -0.3021
 5777SOL    HW128790   0.931   4.461  17.558 -0.4339  0.3192 -0.0735
 5777SOL    HW228791   0.932   4.564  17.453  1.9495  0.4058 -0.9973
 5778SOL     OW28792   2.712   2.949   9.463 -0.0709 -0.1880 -0.0888
 5778SOL    HW128793   2.765   3.003   9.522 -2.4074 -0.2115  2.0630
 5778SOL    HW228794   2.626   2.964   9.503 -0.3184 -1.4835 -0.1456
 5779SOL     OW28795   1.232   3.659   9.987  0.0985 -0.3127 -0.9246
 5779SOL    HW128796   1.213   3.712   9.909  1.9773  0.5791 -0.7723
 5779SOL    HW228797   1.197   3.717  10.054 -0.8662 -2.1812  0.1891
 5780SOL     OW28798   1.290   0.000   3.158 -0.7681 -0.0299  0.2509
 5780SOL    HW128799   1.216   4.700   3.102  1.6417  1.1561 -3.3935
 5780SOL    HW228800   1.352   0.023   3.088 -0.0794 -0.5768  0.6846
 5781SOL     OW28801   0.368   3.256   7.411 -0.3445  0.4229  0.3774
 5781SOL    HW128802   0.393   3.264   7.503  0.2824  0.9124  0.1643
 5781SOL    HW228803   0.422   3.314   7.358  0.9157 -0.6441  0.5089
 5782SOL     OW28804   3.326   3.735  16.294 -0.0629 -0.2484  0.2863
 5782SOL    HW128805   3.256   3.704  16.237 -0.6463 -0.5678  1.1899
 5782SOL    HW228806   3.409   3.696  16.264  0.1676  1.7758 -1.7174
 5783SOL     OW28807   0.320   4.499   2.598 -0.4724 -0.2330 -0.0784
 5783SOL    HW128808   0.341   4.547   2.518  0.6494 -1.2773 -0.4118
 5783SOL    HW228809   0.375   4.551   2.657 -3.1114  2.1744  0.2727
 5784SOL     OW28810   4.159   2.184   8.086 -0.2341 -0.4071  0.2554
 5784SOL    HW128811   4.210   2.153   8.010 -1.7944 -0.3050 -0.8344
 5784SOL    HW228812   4.092   2.120   8.106 -1.6198  0.5374 -1.3397
 5785SOL     OW28813   0.852   3.194   7.289  0.3322 -0.5041 -0.1265
 5785SOL    HW128814   0.869   3.102   7.271 -0.2252 -1.0735  2.3558
 5785SOL    HW228815   0.936   3.236   7.268  1.5994 -2.9344  0.0994
 5786SOL     OW28816   0.151   1.290   8.030  0.2567 -0.5840 -0.3968
 5786SOL    HW128817   0.198   1.368   8.001  1.2960 -0.6740  1.0456
 5786SOL    HW228818   0.177   1.226   7.963  0.9726 -0.4337 -0.2705
 5787SOL     OW28819   3.662   0.843   7.629 -0.4263  0.0921 -0.1982
 5787SOL    HW128820   3.706   0.924   7.605  1.6533 -0.9600  0.0693
 5787SOL    HW228821   3.607   0.878   7.698  1.3331  1.2007  0.6368
 5788SOL     OW28822   0.502   2.170   4.189  0.4998  0.1757 -0.1789
 5788SOL    HW128823   0.444   2.098   4.213  2.1963 -1.0631  0.2342
 5788SOL    HW228824   0.466   2.239   4.245  3.5944  1.9168 -0.3090
 5789SOL     OW28825   4.675   4.317   8.486  0.2397  0.5280 -0.7543
 5789SOL    HW128826   4.586   4.339   8.458 -0.7609  1.2518  2.9879
 5789SOL    HW228827   4.654   4.285   8.573 -2.8766  1.2199 -1.2703
 5790SOL     OW28828   3.554   1.198   5.664 -0.1522 -0.0560 -0.1629
 5790SOL    HW128829   3.566   1.105   5.681 -0.3041 -0.8996 -4.5398
 5790SOL    HW228830   3.643   1.232   5.663  0.2870 -1.2115  0.6709
 5791SOL     OW28831   2.645   1.026   7.140  0.0205  0.1994  0.0492
 5791SOL    HW128832   2.656   0.939   7.102 -1.9409 -0.3378  0.7128
 5791SOL    HW228833   2.656   1.001   7.232  0.2133  1.7839  0.4667
 5792SOL     OW28834   3.687   3.406   2.099  0.2720  0.0850  0.2032
 5792SOL    HW128835   3.631   3.388   2.174  0.3141  0.3716  0.3061
 5792SOL    HW228836   3.639   3.368   2.026  1.2490  2.3235 -1.6176
 5793SOL     OW28837   4.297   1.458   3.008 -0.3070 -0.9388 -0.1060
 5793SOL    HW128838   4.271   1.519   2.939 -0.5400  1.9063  2.4606
 5793SOL    HW228839   4.377   1.421   2.971 -0.1451 -0.4715 -0.2200
 5794SOL     OW28840   1.946   1.399   7.259  0.0366  0.6251 -0.2055
 5794SOL    HW128841   1.929   1.353   7.342  2.7632 -1.3562 -0.7346
 5794SOL    HW228842   2.037   1.429   7.266 -0.5196  1.6477  2.6449
 5795SOL     OW28843   3.025   2.297   2.829  0.3962  0.0753 -0.6733
 5795SOL    HW128844   3.054   2.372   2.881  0.7562 -2.8692  3.3581
 5795SOL    HW228845   2.966   2.254   2.891  0.9027  0.5596  0.1548
 5796SOL     OW28846   3.470   2.029   8.089  0.0379 -0.0392 -0.1480
 5796SOL    HW128847   3.511   1.945   8.109  0.1556  0.4587  1.7399
 5796SOL    HW228848   3.383   2.007   8.057 -0.3384  2.8485 -1.1386
 5797SOL     OW28849   1.501   2.068   0.354  0.3561 -0.2342  0.0427
 5797SOL    HW128850   1.467   2.003   0.416 -1.2490  1.0219  0.4887
 5797SOL    HW228851   1.527   2.018   0.277 -0.4936 -0.9440  0.2116
 5798SOL     OW28852   2.703   0.624  12.751 -0.2727  0.3478 -0.1267
 5798SOL    HW128853   2.758   0.549  12.773 -0.5237 -0.2981 -1.6573
 5798SOL    HW228854   2.729   0.632  12.659 -0.8414  1.9520 -0.1514
 5799SOL     OW28855   2.329   4.186   5.715  0.0172 -0.3335 -0.3302
 5799SOL    HW128856   2.256   4.149   5.665 -0.8381  2.2979 -1.0274
 5799SOL    HW228857   2.334   4.145   5.801 -0.8372  2.1466  0.9128
 5800SOL     OW28858   3.296   0.999  15.148 -0.1097 -0.6223  0.2789
 5800SOL    HW128859   3.282   0.905  15.139  0.0914 -0.5627 -0.6453
 5800SOL    HW228860   3.391   1.005  15.159  0.1173  0.1215 -2.2498
 5801SOL     OW28861   1.972   0.273   0.662 -0.2336  0.0279 -0.3076
 5801SOL    HW128862   1.895   0.294   0.714  1.1922  1.2687  1.2967
 5801SOL    HW228863   1.965   0.178   0.670  1.0336 -0.3276 -3.4822
 5802SOL     OW28864   4.039   3.966  14.133  0.0529  0.6976  0.0024
 5802SOL    HW128865   4.014   4.010  14.214 -0.8777  1.4174 -0.6734
 5802SOL    HW228866   4.074   3.883  14.165 -1.3005 -0.2821 -1.0155
 5803SOL     OW28867   4.380   0.941   2.140  0.2605  0.0466  0.3992
 5803SOL    HW128868   4.360   0.849   2.155 -1.5802  0.3149 -0.3086
 5803SOL    HW228869   4.406   0.929   2.049 -1.2746 -2.9723  0.3638
 5804SOL     OW28870   0.257   2.404   7.383  0.4109 -0.0477  0.3330
 5804SOL    HW128871   0.223   2.398   7.294  0.6323  0.7309  0.1929
 5804SOL    HW228872   0.234   2.494   7.406  0.6295  0.2744 -0.7356
 5805SOL     OW28873   1.312   0.073   2.147 -0.0493  0.8277 -0.1607
 5805SOL    HW128874   1.298   0.073   2.242 -3.0688 -0.3277 -0.5893
 5805SOL    HW228875   1.223   0.078   2.111 -0.5285 -1.6162  0.7266
 5806SOL     OW28876   1.494   1.992   4.558 -0.0743  0.1821  0.1527
 5806SOL    HW128877   1.405   1.991   4.522 -0.5225 -1.4786  1.3068
 5806SOL    HW228878   1.481   1.975   4.651  1.1008  1.7206  0.6014
 5807SOL     OW28879   3.738   4.634   1.767 -0.0349  0.7062  0.6247
 5807SOL    HW128880   3.741   4.540   1.784  1.0342  0.8526  1.2676
 5807SOL    HW228881   3.829   4.653   1.789 -0.0559  0.0267  1.2985
 5808SOL     OW28882   3.141   2.231   1.199  0.4518  0.4338  0.0470
 5808SOL    HW128883   3.110   2.258   1.112 -0.1873  0.4585  0.2859
 5808SOL    HW228884   3.159   2.315   1.241 -3.0777  1.1631  0.0969
 5809SOL     OW28885   2.607   3.083   6.809 -0.1001 -0.0106 -0.1973
 5809SOL    HW128886   2.587   3.023   6.881  5.0162 -3.5806 -1.7874
 5809SOL    HW228887   2.565   3.162   6.844  3.5137  1.2248  1.3139
 5810SOL     OW28888   4.131   2.426   8.580 -0.1715  0.4917  0.5488
 5810SOL    HW128889   4.210   2.435   8.527  1.1496  1.8120  2.7359
 5810SOL    HW228890   4.068   2.399   8.514 -0.9985 -1.7601  2.2807
 5811SOL     OW28891   1.394   4.178   4.719  0.1958  0.1199 -0.0883
 5811SOL    HW128892   1.314   4.143   4.757  0.1006 -1.4044 -1.6583
 5811SOL    HW228893   1.460   4.135   4.773  1.1556 -0.2036 -1.5174
 5812SOL     OW28894   3.618   1.841  11.076 -0.1584  0.2794  0.1679
 5812SOL    HW128895   3.529   1.858  11.106  0.3855 -1.7614  2.9529
 5812SOL    HW228896   3.618   1.747  11.061  3.2383  0.1142  1.2178
 5813SOL     OW28897   0.165   0.340   5.741 -0.1091  0.4452  0.2511
 5813SOL    HW128898   0.235   0.284   5.707  0.1413  1.2358 -0.5367
 5813SOL    HW228899   0.199   0.369   5.826  2.0233 -0.0071 -0.4427
 5814SOL     OW28900   1.506   2.952  17.147 -0.2431  0.0169 -0.1219
 5814SOL    HW128901   1.536   3.015  17.212  2.4735  0.0009 -1.3698
 5814SOL    HW228902   1.586   2.946  17.095 -0.7330 -0.1695 -0.8679
 5815SOL     OW28903   4.404   4.174  12.737  0.3999  0.0283 -0.1247
 5815SOL    HW128904   4.354   4.256  12.743  0.2218 -0.1546  0.8185
 5815SOL    HW228905   4.357   4.121  12.672 -1.9953  0.7456  1.0169
 5816SOL     OW28906   0.849   1.818   2.661 -0.2543 -0.2923  0.5653
 5816SOL    HW128907   0.788   1.829   2.587  1.9363 -0.6949 -1.3057
 5816SOL    HW228908   0.911   1.766   2.610 -2.5035 -1.7247 -0.7490
 5817SOL     OW28909   3.071   0.059   4.550  0.2179 -0.0691  0.1574
 5817SOL    HW128910   3.144   0.121   4.542 -0.1280  0.1701 -1.1274
 5817SOL    HW228911   3.066   0.056   4.645  1.1814 -1.4523  0.1664
 5818SOL     OW28912   3.705   1.558   9.701 -0.9244  0.1846  0.4389
 5818SOL    HW128913   3.761   1.590   9.630 -0.7815  0.7905  0.8266
 5818SOL    HW228914   3.725   1.624   9.767  3.0997 -1.1668  0.5494
 5819SOL     OW28915   1.796   0.691   2.042  0.1164  0.4794  0.2733
 5819SOL    HW128916   1.829   0.714   1.955 -0.0379 -1.0722 -0.1863
 5819SOL    HW228917   1.720   0.749   2.044  0.0415  0.3726  0.4418
 5820SOL     OW28918   0.333   2.239   8.713 -0.0826 -0.0407 -0.6778
 5820SOL    HW128919   0.423   2.252   8.742 -0.7842  0.9832  1.0276
 5820SOL    HW228920   0.344   2.168   8.650  0.4326 -0.0199 -0.6092
 5821SOL     OW28921   3.991   2.423   5.713  0.9869  0.9280  0.3075
 5821SOL    HW128922   4.072   2.467   5.736  0.8405  1.7969 -0.8801
 5821SOL    HW228923   4.015   2.376   5.633 -1.9027 -0.3917  0.1844
 5822SOL     OW28924   4.227   3.363  10.075 -0.3094 -0.1187  0.3851
 5822SOL    HW128925   4.249   3.271  10.060  0.4984  0.0522  0.5172
 5822SOL    HW228926   4.133   3.345  10.076  0.0021 -1.5273  3.7135
 5823SOL     OW28927   0.279   1.474   4.812  0.3457  0.2880  0.6575
 5823SOL    HW128928   0.217   1.503   4.879  0.8411  0.1943  1.1606
 5823SOL    HW228929   0.230   1.501   4.734 -1.1299 -0.9311  1.1894
 5824SOL     OW28930   1.761   0.613   5.014 -0.1921  0.2982  0.3112
 5824SOL    HW128931   1.711   0.687   5.049 -3.6399 -2.4548  1.1840
 5824SOL    HW228932   1.756   0.544   5.080 -0.5942  0.2759  0.2584
 5825SOL     OW28933   4.252   0.611   8.146 -0.4243 -0.4728  0.2774
 5825SOL    HW128934   4.248   0.654   8.231 -0.5141  0.5612 -0.2499
 5825SOL    HW228935   4.212   0.683   8.096 -1.5269 -0.3228  1.3949
 5826SOL     OW28936   3.341   1.834   7.206 -0.2894  0.3137  0.5458
 5826SOL    HW128937   3.249   1.825   7.181  0.4413  0.6717 -2.3394
 5826SOL    HW228938   3.374   1.890   7.135 -0.2025 -0.4895 -0.0542
 5827SOL     OW28939   2.117   2.933   2.931  0.7474  0.2830  0.1781
 5827SOL    HW128940   2.194   2.895   2.973  0.1068 -0.3059  0.8185
 5827SOL    HW228941   2.049   2.892   2.983  2.4121  0.2815  2.3529
 5828SOL     OW28942   3.687   1.967   7.698 -0.5360  0.7946 -0.5261
 5828SOL    HW128943   3.745   1.978   7.623 -0.4468  0.7637 -0.4613
 5828SOL    HW228944   3.700   2.054   7.734 -1.2148  1.0703 -0.9405
 5829SOL     OW28945   3.635   1.303  10.679 -0.3588 -0.1624  0.4145
 5829SOL    HW128946   3.683   1.223  10.698 -0.2881 -0.1942  0.0906
 5829SOL    HW228947   3.710   1.363  10.677 -1.0984  0.7712  0.6286
 5830SOL     OW28948   0.361   4.536  12.700 -0.5349  0.3251 -0.1600
 5830SOL    HW128949   0.301   4.472  12.663 -0.0974  0.2548 -0.7469
 5830SOL    HW228950   0.327   4.617  12.662 -0.4760  0.3568 -0.1453
 5831SOL     OW28951   2.314   3.128   3.168  0.0577 -0.2870  1.0822
 5831SOL    HW128952   2.371   3.136   3.092 -1.0813 -0.8619  0.1675
 5831SOL    HW228953   2.315   3.222   3.187  0.7534  0.2652 -1.7430
 5832SOL     OW28954   3.029   2.284  12.733  0.1922 -0.2456 -0.6106
 5832SOL    HW128955   3.062   2.300  12.821  1.3253 -3.5051 -0.4550
 5832SOL    HW228956   3.093   2.331  12.679 -1.6782  2.1919 -0.6848
 5833SOL     OW28957   4.341   0.638   3.417 -1.1029 -0.0603 -0.2018
 5833SOL    HW128958   4.419   0.617   3.367  0.0479 -0.4017  1.7549
 5833SOL    HW228959   4.385   0.671   3.494 -0.9848 -0.7940  0.0463
 5834SOL     OW28960   0.325   1.555   7.553  0.0439 -0.4600  0.1398
 5834SOL    HW128961   0.351   1.512   7.471 -1.0161  0.7379 -0.8301
 5834SOL    HW228962   0.259   1.498   7.592  1.2945  0.0133  2.9022
 5835SOL     OW28963   3.072   2.177  10.999  0.1532  0.1093 -0.1316
 5835SOL    HW128964   3.113   2.211  11.079 -1.3509  0.8477  0.3177
 5835SOL    HW228965   3.014   2.251  10.984  0.5083  0.2417 -0.8365
 5836SOL     OW28966   3.308   0.816   4.122 -0.7456  0.4134  0.9917
 5836SOL    HW128967   3.366   0.797   4.049 -2.0604  1.2467 -0.2741
 5836SOL    HW228968   3.242   0.877   4.088 -1.3622 -0.6165  0.3427
 5837SOL     OW28969   0.635   1.763   5.017  0.1249  0.5032  0.5769
 5837SOL    HW128970   0.630   1.726   4.929 -0.9619  2.2470 -0.0975
 5837SOL    HW228971   0.603   1.853   5.007 -0.2813  0.0318 -2.4689
 5838SOL     OW28972   0.844   1.089  15.773  0.0825  0.3003  0.4459
 5838SOL    HW128973   0.867   1.099  15.680  3.1598  0.9865  1.2738
 5838SOL    HW228974   0.766   1.144  15.763 -1.1478 -1.2541  1.7315
 5839SOL     OW28975   4.433   0.627   8.504 -0.2188  0.4223 -0.3910
 5839SOL    HW128976   4.423   0.657   8.595  0.4075 -1.5768  0.3345
 5839SOL    HW228977   4.362   0.563   8.512 -0.3894  0.5858 -0.6283
 5840SOL     OW28978   4.302   2.480   3.006 -0.5592 -0.2213 -0.3361
 5840SOL    HW128979   4.208   2.501   3.006 -0.0639  2.0369 -1.5095
 5840SOL    HW228980   4.295   2.385   3.012  0.7078 -0.2761  0.1679
 5841SOL     OW28981   2.875   3.385  14.317  0.4260  0.5465  0.6692
 5841SOL    HW128982   2.827   3.468  14.315 -0.6751 -0.1834 -2.2397
 5841SOL    HW228983   2.834   3.329  14.383 -0.0896  0.0134 -0.1031
 5842SOL     OW28984   4.387   2.739   5.189 -0.2004  0.1789 -0.3950
 5842SOL    HW128985   4.433   2.687   5.123  1.8336 -0.2894  1.4002
 5842SOL    HW228986   4.330   2.789   5.130  1.6292  1.5340 -1.0524
 5843SOL     OW28987   1.834   3.026  16.102  0.6766  0.2279 -0.1895
 5843SOL    HW128988   1.829   3.117  16.070  0.2230  0.9716  2.0252
 5843SOL    HW228989   1.793   3.033  16.188 -0.9196 -0.8288 -0.8537
 5844SOL     OW28990   2.742   4.676   2.925 -0.1435  0.6777 -0.3555
 5844SOL    HW128991   2.689   0.026   2.958 -2.1064 -0.5762 -0.7812
 5844SOL    HW228992   2.704   4.600   2.970 -0.1373  0.0856 -1.3548
 5845SOL     OW28993   1.385   2.931   5.159 -0.4817  0.3613  0.1110
 5845SOL    HW128994   1.346   2.878   5.089 -2.6062  0.9419  0.8559
 5845SOL    HW228995   1.469   2.886   5.168 -0.0066  1.1230 -0.5236
 5846SOL     OW28996   4.238   4.215   4.992  0.0982  0.0510  0.3052
 5846SOL    HW128997   4.287   4.297   4.991  0.2989 -0.0897 -2.2875
 5846SOL    HW228998   4.169   4.239   4.929  0.3339 -0.6017 -0.2088
 5847SOL     OW28999   3.982   3.523   5.293 -0.0579 -0.1456  0.3072
 5847SOL    HW129000   3.985   3.481   5.379  1.2853 -2.2724 -0.7820
 5847SOL    HW229001   4.069   3.517   5.253  0.1315  0.6766  0.5869
 5848SOL     OW29002   1.992   3.883   8.400  0.1402  0.2047  0.8049
 5848SOL    HW129003   2.061   3.908   8.462  0.2812  2.4026 -0.2495
 5848SOL    HW229004   2.001   3.949   8.332 -1.0093 -1.0586 -0.5588
 5849SOL     OW29005   0.245   3.013   8.697 -0.1694  0.3006 -0.6453
 5849SOL    HW129006   0.312   2.983   8.635  0.3017  0.9164 -0.4362
 5849SOL    HW229007   0.201   2.929   8.705  0.0759  0.2790  0.3894
 5850SOL     OW29008   4.665   2.840   7.544 -0.4642  0.1603 -0.2808
 5850SOL    HW129009   0.031   2.869   7.571  0.5104 -1.2332 -1.9435
 5850SOL    HW229010   4.695   2.819   7.456 -0.7028 -1.5987  0.0509
 5851SOL     OW29011   0.335   0.320  14.388 -0.8321  0.2810  0.2606
 5851SOL    HW129012   0.378   0.242  14.424 -1.0267 -0.5718 -1.3712
 5851SOL    HW229013   0.260   0.323  14.448 -0.0039  2.6837  1.1644
 5852SOL     OW29014   2.361   4.705   6.555 -0.4888  0.1959 -0.6415
 5852SOL    HW129015   2.340   0.061   6.503  1.7095 -1.3831 -3.8428
 5852SOL    HW229016   2.385   4.649   6.482 -0.4615  0.4870 -0.8552
 5853SOL     OW29017   1.301   3.669   2.748  0.4881 -0.2293 -0.4312
 5853SOL    HW129018   1.284   3.579   2.722  1.3630 -1.0453  1.8217
 5853SOL    HW229019   1.337   3.695   2.663  0.4485 -1.6549 -0.8828
 5854SOL     OW29020   3.662   4.630   0.298  0.0805 -0.1152 -0.1353
 5854SOL    HW129021   3.708   4.557   0.338  2.5752  2.0052  0.8772
 5854SOL    HW229022   3.744   4.676   0.281  0.3958  0.1436  2.0005
 5855SOL     OW29023   2.272   1.927  10.105  0.1359 -0.1900 -0.1206
 5855SOL    HW129024   2.297   1.866  10.175 -2.2548 -0.7364  0.2423
 5855SOL    HW229025   2.358   1.949  10.070 -0.2291  0.5598 -0.5298
 5856SOL     OW29026   0.626   1.872  15.765  0.0284  0.5073 -0.1942
 5856SOL    HW129027   0.560   1.937  15.738  0.5009  1.1653  0.2274
 5856SOL    HW229028   0.566   1.811  15.806 -1.6856  2.2460 -0.1087
 5857SOL     OW29029   4.001   3.104   7.269  0.0811 -0.0537 -0.4427
 5857SOL    HW129030   4.035   3.047   7.200  0.9594 -0.1593  0.0738
 5857SOL    HW229031   4.074   3.107   7.331 -0.0365  0.2628 -0.3180
 5858SOL     OW29032   4.678   1.509   9.717  0.0040 -0.1448 -0.0859
 5858SOL    HW129033   0.048   1.489   9.698 -0.2962 -1.8208  0.2869
 5858SOL    HW229034   4.645   1.431   9.760 -1.7483  0.1794 -0.8318
 5859SOL     OW29035   4.358   0.899   1.228  0.8679  0.2413 -0.0415
 5859SOL    HW129036   4.275   0.940   1.252 -0.8701 -2.2924 -1.6359
 5859SOL    HW229037   4.326   0.812   1.202 -0.4246  0.5627  0.4819
 5860SOL     OW29038   2.141   1.318  10.039  0.1327  0.0712 -0.0057
 5860SOL    HW129039   2.103   1.238  10.075  2.6001 -0.7872  0.7031
 5860SOL    HW229040   2.089   1.331   9.959  2.6453 -0.3405 -1.6957
 5861SOL     OW29041   1.206   3.552   1.838 -0.1449  0.0653  0.3438
 5861SOL    HW129042   1.220   3.559   1.933  1.3099  1.3031  0.0319
 5861SOL    HW229043   1.138   3.485   1.837 -1.1610  1.1586 -1.7853
 5862SOL     OW29044   4.336   1.807  10.464  0.0451 -0.1924  0.3031
 5862SOL    HW129045   4.350   1.715  10.440 -1.4784  0.1164 -1.7084
 5862SOL    HW229046   4.301   1.848  10.385 -1.0530 -3.9940 -1.1969
 5863SOL     OW29047   0.690   1.955   6.557  0.1285  0.0173 -0.5651
 5863SOL    HW129048   0.602   1.966   6.593  0.5965  1.4425  0.1359
 5863SOL    HW229049   0.699   1.860   6.550 -2.3708 -0.3588  1.5822
 5864SOL     OW29050   3.538   2.762   7.264 -0.4766  0.2860 -0.6028
 5864SOL    HW129051   3.563   2.670   7.261 -0.6003  0.2298  0.0614
 5864SOL    HW229052   3.607   2.818   7.230  0.0785 -0.6640 -1.0160
 5865SOL     OW29053   2.449   1.862   6.865  0.3136  0.0027  0.4864
 5865SOL    HW129054   2.504   1.811   6.924  1.0352 -0.5551 -0.6665
 5865SOL    HW229055   2.383   1.796   6.846  0.4877  0.5218 -1.9193
 5866SOL     OW29056   2.422   3.930   7.478 -0.6851  0.0040  0.0985
 5866SOL    HW129057   2.391   3.867   7.413 -0.5001 -0.5621  0.5604
 5866SOL    HW229058   2.439   3.871   7.552 -1.8016 -1.1623 -0.5759
 5867SOL     OW29059   1.794   0.170   7.975  0.1006  0.2280 -0.1758
 5867SOL    HW129060   1.778   0.149   7.883 -1.1939  0.6389 -0.0393
 5867SOL    HW229061   1.729   0.108   8.009  0.9673 -0.5813  0.0258
 5868SOL     OW29062   4.612   3.361   9.480  0.1698  0.1863  0.4290
 5868SOL    HW129063   4.517   3.370   9.470  0.5289  2.4792 -0.9671
 5868SOL    HW229064   4.621   3.268   9.496  1.0002  0.6482  2.5776
 5869SOL     OW29065   4.116   0.344   2.754 -0.0367  0.8413  0.0243
 5869SOL    HW129066   4.158   0.261   2.779  0.0615  1.4876  2.0206
 5869SOL    HW229067   4.173   0.372   2.683  0.4605  1.9289  0.8493
 5870SOL     OW29068   3.600   0.299   8.407  0.2011  0.2916 -0.4709
 5870SOL    HW129069   3.634   0.372   8.356 -2.0389  0.3406 -1.8769
 5870SOL    HW229070   3.619   0.332   8.495  1.4013  0.6989 -0.8754
 5871SOL     OW29071   1.224   3.241   1.987  0.0804  0.5107  0.2586
 5871SOL    HW129072   1.308   3.205   1.957  0.0323 -0.5442  1.3889
 5871SOL    HW229073   1.175   3.234   1.906  0.3527  2.3365 -0.0670
 5872SOL     OW29074   3.266   1.519   4.859 -0.6447 -0.2763 -0.0874
 5872SOL    HW129075   3.230   1.443   4.814 -1.0073 -1.3215  2.0051
 5872SOL    HW229076   3.358   1.515   4.830 -0.6621  1.4300 -0.3904
 5873SOL     OW29077   4.513   2.112   7.336 -0.5032  0.2052  0.5440
 5873SOL    HW129078   4.433   2.099   7.387  0.5016  1.2587  2.3878
 5873SOL    HW229079   4.505   2.070   7.250  1.6748 -1.0775  0.9560
 5874SOL     OW29080   4.437   2.709   7.647 -0.3591  0.1584 -0.4496
 5874SOL    HW129081   4.506   2.764   7.610 -1.2315  1.1995 -0.5248
 5874SOL    HW229082   4.446   2.625   7.601 -1.0935  0.7398 -1.6707
 5875SOL     OW29083   0.580   0.253   1.209  0.0525  0.0026 -0.1554
 5875SOL    HW129084   0.643   0.318   1.178  1.0455 -0.7897  0.2273
 5875SOL    HW229085   0.533   0.305   1.274 -2.2844 -0.7300 -1.2595
 5876SOL     OW29086   1.459   4.509   4.313  0.1294  0.6144 -0.0932
 5876SOL    HW129087   1.553   4.504   4.331  0.0667  1.5998  0.4780
 5876SOL    HW229088   1.422   4.528   4.399  0.0875  1.7124 -0.3510
 5877SOL     OW29089   0.380   2.859  17.330 -0.0674  0.4936  0.0810
 5877SOL    HW129090   0.365   2.849  17.236  0.7171  0.2866 -0.0294
 5877SOL    HW229091   0.397   2.953  17.341 -1.4536  0.6188  1.1385
 5878SOL     OW29092   1.703   0.618   6.575 -0.4653  0.4688 -0.3327
 5878SOL    HW129093   1.637   0.635   6.508  0.1131  1.2434 -0.7079
 5878SOL    HW229094   1.765   0.687   6.552  0.9545 -0.1280  1.7147
 5879SOL     OW29095   2.282   1.565   8.422  0.1285 -0.1005  0.6528
 5879SOL    HW129096   2.292   1.623   8.346  2.0396 -0.9293  0.2729
 5879SOL    HW229097   2.351   1.596   8.480 -0.9035 -0.9500  2.3502
 5880SOL     OW29098   0.201   1.571   6.408  0.1035 -0.0100  0.0880
 5880SOL    HW129099   0.277   1.625   6.385  0.5459 -1.2920 -1.4433
 5880SOL    HW229100   0.129   1.635   6.410 -0.7042 -0.8134 -2.5482
 5881SOL     OW29101   2.171   3.360   3.127 -0.5122  0.2496 -0.2929
 5881SOL    HW129102   2.211   3.436   3.084  2.3495 -0.7063  0.6928
 5881SOL    HW229103   2.156   3.316   3.044 -2.4932 -1.0814  0.7820
 5882SOL     OW29104   0.640   1.281   9.574 -0.3353 -0.7423 -0.8433
 5882SOL    HW129105   0.600   1.212   9.521 -1.6222 -0.3242 -0.4025
 5882SOL    HW229106   0.716   1.301   9.519  0.4494  1.9627  1.2570
 5883SOL     OW29107   1.352   1.071   4.609 -0.0207 -0.0505 -0.0280
 5883SOL    HW129108   1.341   1.105   4.520  0.5410  0.3873  0.0687
 5883SOL    HW229109   1.410   0.997   4.591  0.9566 -0.0876  3.2586
 5884SOL     OW29110   2.469   1.461   3.013  0.0518 -0.3012  0.7423
 5884SOL    HW129111   2.492   1.539   3.063  3.0943 -0.3489 -0.6252
 5884SOL    HW229112   2.405   1.429   3.077  0.3616 -1.2346  0.5824
 5885SOL     OW29113   1.315   1.637   4.190 -0.8813  0.1810  0.2665
 5885SOL    HW129114   1.367   1.698   4.137 -0.7680 -1.8709 -1.9860
 5885SOL    HW229115   1.362   1.624   4.272 -2.2209 -1.1532  0.8027
 5886SOL     OW29116   3.092   3.960   1.202 -0.2709 -0.2800  0.1743
 5886SOL    HW129117   3.173   4.009   1.189  1.3113 -2.7860  0.6691
 5886SOL    HW229118   3.068   3.986   1.291  1.9533 -0.1606  0.7464
 5887SOL     OW29119   3.473   0.474   3.923  0.5444 -0.3178  0.0612
 5887SOL    HW129120   3.443   0.384   3.910 -1.0919  0.1779  0.5083
 5887SOL    HW229121   3.503   0.505   3.837  1.8943 -1.3333  0.1677
 5888SOL     OW29122   3.305   4.258  10.772 -0.4567  0.0398 -0.0845
 5888SOL    HW129123   3.339   4.319  10.707 -0.3577 -1.5234 -1.5001
 5888SOL    HW229124   3.364   4.271  10.847  1.7452  0.6498 -1.9285
 5889SOL     OW29125   2.871   0.285  12.036 -0.3615  0.4818 -0.3747
 5889SOL    HW129126   2.942   0.349  12.026  0.1213 -0.1828 -1.1946
 5889SOL    HW229127   2.903   0.215  11.979 -0.4781 -0.4196  0.6570
 5890SOL     OW29128   1.931   1.577   4.779  0.0443 -0.3646  0.8135
 5890SOL    HW129129   1.917   1.492   4.819  2.2088 -1.4223 -0.6566
 5890SOL    HW229130   1.977   1.547   4.700 -1.9333  0.0883 -0.5158
 5891SOL     OW29131   0.729   1.657   3.508 -0.2015  0.3928 -0.4969
 5891SOL    HW129132   0.738   1.724   3.440 -1.7547 -2.0535 -3.0971
 5891SOL    HW229133   0.808   1.676   3.558 -0.4474  0.9079 -0.2977
 5892SOL     OW29134   0.414   1.058   4.823 -0.3238  0.1568  0.3222
 5892SOL    HW129135   0.329   1.052   4.779  0.5317  0.3567 -1.3769
 5892SOL    HW229136   0.467   1.047   4.744  0.7688  0.2869  1.0353
 5893SOL     OW29137   3.343   2.211   1.475 -0.1002 -0.1729 -0.2954
 5893SOL    HW129138   3.375   2.237   1.389 -3.1795 -0.6985 -1.5815
 5893SOL    HW229139   3.302   2.126   1.458 -1.3005  0.6021 -1.2315
 5894SOL     OW29140   0.925   3.916   9.921 -0.0513 -0.0240  0.2488
 5894SOL    HW129141   1.007   3.885   9.883  0.6351  2.8736 -0.6720
 5894SOL    HW229142   0.917   3.864  10.001 -2.7384 -0.0197 -0.0231
 5895SOL     OW29143   4.384   0.078  11.868  0.4242 -0.2370 -0.2529
 5895SOL    HW129144   4.290   0.094  11.864 -0.1596 -3.6862 -0.9218
 5895SOL    HW229145   4.394   0.037  11.782  1.4998 -0.9642  0.2113
 5896SOL     OW29146   0.345   1.603   5.111 -0.2776  0.0723  0.1675
 5896SOL    HW129147   0.254   1.630   5.123  0.4027  2.0111  1.0289
 5896SOL    HW229148   0.336   1.531   5.049 -1.1367  1.2807 -1.1157
 5897SOL     OW29149   2.488   2.830   1.564 -0.6692  0.2538  0.4047
 5897SOL    HW129150   2.572   2.877   1.563 -0.3883 -0.2177  1.5470
 5897SOL    HW229151   2.493   2.782   1.647 -0.3069  0.4791  0.5137
 5898SOL     OW29152   1.110   1.767   4.303 -0.5300  0.5971 -0.1763
 5898SOL    HW129153   1.060   1.803   4.229 -2.3780  0.0484  0.8186
 5898SOL    HW229154   1.181   1.717   4.261 -0.8663 -0.1318  0.1194
 5899SOL     OW29155   4.589   4.505   5.336 -0.3281  0.0908  0.1853
 5899SOL    HW129156   4.647   4.506   5.260  0.7785 -1.1304  1.0307
 5899SOL    HW229157   4.564   4.598   5.339 -0.4440  0.0723 -0.2216
 5900SOL     OW29158   3.465   1.567   7.280 -0.1640  0.0697  0.5948
 5900SOL    HW129159   3.451   1.526   7.195  1.7236 -1.1231  0.8769
 5900SOL    HW229160   3.480   1.661   7.266 -0.8311 -0.0652 -1.1092
 5901SOL     OW29161   1.219   4.562   8.366 -0.3044  0.1582  0.1137
 5901SOL    HW129162   1.185   4.575   8.277 -2.2729 -0.2747  0.7849
 5901SOL    HW229163   1.171   4.484   8.393  0.7238 -0.6734 -0.4549
 5902SOL     OW29164   0.835   4.324   5.650  0.3686  0.6399  0.8893
 5902SOL    HW129165   0.897   4.284   5.588  0.2686  0.4505  0.9124
 5902SOL    HW229166   0.852   4.416   5.629  2.9248  0.3349  1.5783
 5903SOL     OW29167   3.110   0.962   4.290  0.0681 -0.2426 -0.7291
 5903SOL    HW129168   3.198   0.978   4.323  0.7226  0.5440 -2.9001
 5903SOL    HW229169   3.110   0.867   4.298  0.7411 -0.1143  0.9183
 5904SOL     OW29170   1.730   3.736   8.663  0.3939 -0.0208  0.0124
 5904SOL    HW129171   1.750   3.643   8.663  0.4727 -0.0059  0.7042
 5904SOL    HW229172   1.821   3.765   8.663  0.4177 -0.0990 -0.3307
 5905SOL     OW29173   0.489   3.542   8.390  0.0141  0.1226  0.2593
 5905SOL    HW129174   0.421   3.481   8.420  0.8668 -0.6662  0.5756
 5905SOL    HW229175   0.561   3.481   8.378 -0.5777 -0.3245 -1.1234
 5906SOL     OW29176   3.876   4.060   4.919 -0.5779 -0.7476  0.0972
 5906SOL    HW129177   3.911   3.974   4.941 -0.0232 -0.5985 -0.2017
 5906SOL    HW229178   3.885   4.108   5.002 -2.5590 -0.9821  0.4537
 5907SOL     OW29179   4.605   1.530   6.025  0.1539 -0.1500 -0.2854
 5907SOL    HW129180   4.670   1.499   6.088 -2.2256 -3.5427  0.5117
 5907SOL    HW229181   4.606   1.454   5.966  1.2646 -1.9643  2.0460
 5908SOL     OW29182   3.851   1.459   1.143 -0.1974  0.2681 -0.1087
 5908SOL    HW129183   3.783   1.392   1.135  1.1785 -1.3213  1.4977
 5908SOL    HW229184   3.806   1.543   1.134  0.6081  0.7306  0.1962
 5909SOL     OW29185   4.246   2.700  13.272  0.0422  0.4425 -0.0720
 5909SOL    HW129186   4.250   2.740  13.359 -1.0408 -1.5036  0.8681
 5909SOL    HW229187   4.296   2.763  13.219 -0.4244  0.9362  0.0753
 5910SOL     OW29188   1.196   3.291  10.151 -0.2823 -0.7413  0.3459
 5910SOL    HW129189   1.242   3.363  10.107 -1.4744  2.4934  4.3602
 5910SOL    HW229190   1.150   3.247  10.080 -0.6432  2.1767 -1.2318
 5911SOL     OW29191   2.786   2.820   8.268 -0.1204 -0.4831 -0.2305
 5911SOL    HW129192   2.710   2.784   8.314 -1.2401  1.7156 -0.3140
 5911SOL    HW229193   2.849   2.842   8.336  1.0466 -1.6817 -0.9448
 5912SOL     OW29194   0.714   4.041   9.583  0.2285 -0.3081 -0.2470
 5912SOL    HW129195   0.653   4.016   9.653 -1.1107 -1.0091 -1.6896
 5912SOL    HW229196   0.659   4.107   9.541 -0.7271 -1.2484 -0.4588
 5913SOL     OW29197   0.341   2.881   6.173  0.0607 -0.0164 -0.1196
 5913SOL    HW129198   0.415   2.822   6.160  2.0845  2.2568  1.2008
 5913SOL    HW229199   0.377   2.962   6.139  0.7626 -0.3643 -0.2061
 5914SOL     OW29200   1.354   2.885  11.357  0.5791 -0.7940 -0.6927
 5914SOL    HW129201   1.353   2.884  11.452  1.7639  0.1510 -0.6676
 5914SOL    HW229202   1.299   2.963  11.343  1.1074 -0.5388 -1.3563
 5915SOL     OW29203   0.990   2.400   6.422  0.5865 -0.1135  0.4288
 5915SOL    HW129204   0.895   2.412   6.431  0.3262 -1.2122 -0.8898
 5915SOL    HW229205   1.016   2.437   6.507  2.2135 -1.4740  0.5273
 5916SOL     OW29206   1.849   1.461   5.067 -0.4470 -0.1520  0.0571
 5916SOL    HW129207   1.791   1.457   5.144 -0.0775 -0.2472  0.3295
 5916SOL    HW229208   1.892   1.544   5.090  0.5200 -1.1339  1.7161
 5917SOL     OW29209   4.000   0.078  12.126 -0.2088  0.1581 -0.2539
 5917SOL    HW129210   4.067   0.050  12.188  1.2830  2.9027 -0.6645
 5917SOL    HW229211   4.051   0.086  12.045  0.7161  0.5866  0.3690
 5918SOL     OW29212   3.623   4.297   7.378  0.1362  0.1896 -0.5375
 5918SOL    HW129213   3.598   4.336   7.462  0.5487 -0.7952  0.0408
 5918SOL    HW229214   3.691   4.231   7.396 -0.5437 -1.1314 -2.7379
 5919SOL     OW29215   2.699   2.664   2.637  0.0044 -0.0870  0.0066
 5919SOL    HW129216   2.636   2.636   2.570  1.7674 -1.6541 -1.0111
 5919SOL    HW229217   2.734   2.581   2.669  2.3585  1.0029  0.2955
 5920SOL     OW29218   0.651   1.077   9.860 -0.6818  0.2913  0.2973
 5920SOL    HW129219   0.558   1.052   9.856 -0.6161 -0.0827  1.2039
 5920SOL    HW229220   0.658   1.150   9.799 -1.7218 -0.8348 -1.1883
 5921SOL     OW29221   2.858   2.727   6.594  0.6302 -0.0889  0.2603
 5921SOL    HW129222   2.849   2.819   6.621 -1.2085 -0.4628  0.9439
 5921SOL    HW229223   2.916   2.702   6.666  1.5060  4.9600  1.3684
 5922SOL     OW29224   4.117   3.444  16.361 -0.0817 -0.0090 -0.3538
 5922SOL    HW129225   4.106   3.373  16.425 -1.1815  0.1208 -0.3991
 5922SOL    HW229226   4.091   3.519  16.416  1.4243 -0.9407  1.6291
 5923SOL     OW29227   0.436   2.600   3.749 -0.2167  0.1432 -0.0244
 5923SOL    HW129228   0.348   2.636   3.745  0.2602  1.1094 -1.7914
 5923SOL    HW229229   0.438   2.542   3.673  1.5116  2.0562 -1.4507
 5924SOL     OW29230   4.277   1.345   1.362 -0.4910 -0.1779 -0.2479
 5924SOL    HW129231   4.235   1.308   1.284 -0.4049  0.7659 -0.7444
 5924SOL    HW229232   4.216   1.414   1.390 -1.1359 -0.5411 -0.7558
 5925SOL     OW29233   3.629   1.532  11.164 -0.0990 -0.3897  0.6221
 5925SOL    HW129234   3.582   1.540  11.247 -1.6706 -1.9702 -0.1186
 5925SOL    HW229235   3.558   1.510  11.104 -0.9866  0.2720  1.4439
 5926SOL     OW29236   3.448   2.267   3.243  0.4209 -0.2360 -0.0240
 5926SOL    HW129237   3.463   2.321   3.320  1.9597 -0.4640 -0.1695
 5926SOL    HW229238   3.352   2.274   3.251  0.3897 -1.4508  0.6634
 5927SOL     OW29239   4.624   1.659  13.273  0.1626  0.1542  0.3734
 5927SOL    HW129240   4.663   1.652  13.186  0.7661  0.8259  0.5830
 5927SOL    HW229241   4.543   1.610  13.259 -0.6870  1.8935 -0.7964
 5928SOL     OW29242   0.798   0.158   3.771 -0.2858 -0.5405  0.4889
 5928SOL    HW129243   0.774   0.074   3.809 -2.2742 -0.8699 -1.5077
 5928SOL    HW229244   0.721   0.216   3.773  1.1651  1.3596  1.5437
 5929SOL     OW29245   0.958   3.571  10.815  0.3842  0.7465  0.0800
 5929SOL    HW129246   0.945   3.559  10.909  0.7526  2.0111  0.2909
 5929SOL    HW229247   0.997   3.491  10.781 -1.2812  0.4962 -1.2630
 5930SOL     OW29248   4.319   4.354   8.121 -0.3114  0.1116 -0.2884
 5930SOL    HW129249   4.225   4.342   8.108 -0.6632  2.7181 -0.2011
 5930SOL    HW229250   4.357   4.298   8.053  0.2905  1.0883 -0.7507
 5931SOL     OW29251   1.346   2.307   3.745 -0.3346  0.0695 -0.0373
 5931SOL    HW129252   1.358   2.238   3.680  1.5167 -0.0497  0.4212
 5931SOL    HW229253   1.377   2.261   3.823 -0.0613  0.3605  0.0259
 5932SOL     OW29254   2.759   4.550   5.226 -0.3942  0.1366 -0.1006
 5932SOL    HW129255   2.801   4.632   5.251 -0.1124  0.4171 -1.4825
 5932SOL    HW229256   2.717   4.520   5.306  0.4015 -0.6724  0.0176
 5933SOL     OW29257   0.347   3.138   1.857  0.5080 -0.2554  0.5029
 5933SOL    HW129258   0.337   3.093   1.941 -2.7277  1.0737  0.8248
 5933SOL    HW229259   0.258   3.169   1.839  0.5069 -1.8198 -2.1804
 5934SOL     OW29260   3.548   2.772   4.655 -0.1725 -0.1437 -0.3189
 5934SOL    HW129261   3.580   2.770   4.745 -1.1288  4.3115  0.1391
 5934SOL    HW229262   3.605   2.706   4.616 -0.1307  1.2750 -2.6144
 5935SOL     OW29263   2.606   4.246   6.470 -0.0728  0.1361 -0.5126
 5935SOL    HW129264   2.653   4.208   6.543 -1.9933  0.9835  1.1675
 5935SOL    HW229265   2.528   4.270   6.520  0.1783 -0.5196  0.1807
 5936SOL     OW29266   1.470   0.545   2.111  0.3492 -0.4704 -0.5128
 5936SOL    HW129267   1.434   0.632   2.125  1.1569 -0.0972 -0.7689
 5936SOL    HW229268   1.525   0.552   2.033 -2.3929 -2.3289 -2.6374
 5937SOL     OW29269   3.674   3.349  16.064  0.2601  0.2004 -0.0602
 5937SOL    HW129270   3.684   3.270  16.011 -0.3780  0.6266 -0.8204
 5937SOL    HW229271   3.580   3.344  16.077  0.4220 -1.9966  0.2905
 5938SOL     OW29272   4.286   3.101   9.993 -0.5214 -0.3701  0.0899
 5938SOL    HW129273   4.367   3.055   9.971  1.6628  2.7002  1.7178
 5938SOL    HW229274   4.284   3.096  10.088  1.3007 -0.8864  0.0969
 5939SOL     OW29275   0.296   4.532   1.211  0.2156 -0.4558  0.4633
 5939SOL    HW129276   0.290   4.534   1.307 -0.1461 -0.4189  0.4420
 5939SOL    HW229277   0.204   4.541   1.184 -0.5270  1.3311  3.5408
 5940SOL     OW29278   1.996   4.084  10.711  0.2567 -0.1295  0.6227
 5940SOL    HW129279   1.964   4.107  10.798 -1.5190  2.9727 -0.8437
 5940SOL    HW229280   1.981   4.171  10.675 -0.5141 -0.6065 -0.2279
 5941SOL     OW29281   4.572   1.429   2.563 -0.3513 -0.4084  0.1308
 5941SOL    HW129282   4.593   1.341   2.597 -3.2890 -0.9533  0.4938
 5941SOL    HW229283   4.527   1.478   2.632  0.7976 -1.6376  1.7486
 5942SOL     OW29284   4.033   3.622  16.578 -0.2127  0.0153 -0.4435
 5942SOL    HW129285   4.055   3.569  16.655 -2.4965  1.2085  1.0217
 5942SOL    HW229286   3.941   3.644  16.595  0.0513  0.4488  0.3768
 5943SOL     OW29287   0.682   0.509   3.381  0.0373  0.2566  0.2803
 5943SOL    HW129288   0.721   0.439   3.434 -1.8387 -2.7127 -2.2323
 5943SOL    HW229289   0.710   0.587   3.429  1.8439 -0.1648 -0.1000
 5944SOL     OW29290   1.888   3.323   3.231 -0.5275 -0.2446  0.2852
 5944SOL    HW129291   1.978   3.319   3.200 -0.4677 -1.6498  0.6462
 5944SOL    HW229292   1.889   3.269   3.311 -1.1899 -0.1871  0.3334
 5945SOL     OW29293   2.434   0.255   7.446  0.6341  0.5100 -0.1573
 5945SOL    HW129294   2.392   0.288   7.525  0.1043  0.5870 -0.4750
 5945SOL    HW229295   2.465   0.172   7.482 -1.5494  0.0196  0.5778
 5946SOL     OW29296   0.295   2.826  14.022 -0.4923  0.1182 -0.3974
 5946SOL    HW129297   0.302   2.732  14.010 -1.5050  0.1524 -1.2390
 5946SOL    HW229298   0.379   2.853  13.984 -1.1452 -0.4765 -2.2235
 5947SOL     OW29299   4.179   0.741  16.615  0.1726  0.0476  0.3980
 5947SOL    HW129300   4.193   0.664  16.670  0.5489  1.7620  2.7209
 5947SOL    HW229301   4.255   0.743  16.556 -2.1755 -1.4427 -2.6552
 5948SOL     OW29302   0.816   2.985   0.261  0.4988 -0.7620 -0.6612
 5948SOL    HW129303   0.805   2.900   0.218  2.6525 -1.0714 -0.5921
 5948SOL    HW229304   0.726   2.995   0.292 -0.2410  2.1205 -3.7617
 5949SOL     OW29305   4.354   1.585   3.666 -0.1344 -0.0722  0.1173
 5949SOL    HW129306   4.396   1.582   3.580  3.4061 -1.3997  1.8622
 5949SOL    HW229307   4.315   1.672   3.673  2.0106  1.0087 -1.2818
 5950SOL     OW29308   0.757   1.880   8.271 -0.1867 -0.0385  0.1042
 5950SOL    HW129309   0.803   1.844   8.348  3.6977  0.7929 -1.8064
 5950SOL    HW229310   0.758   1.969   8.305  0.7103 -0.9113  2.3904
 5951SOL     OW29311   3.560   1.337   1.520 -0.3085 -0.3553  0.3214
 5951SOL    HW129312   3.624   1.378   1.579 -0.1611 -1.7506  1.1311
 5951SOL    HW229313   3.544   1.422   1.478  0.6361 -0.4309 -0.1876
 5952SOL     OW29314   3.757   3.466   8.344  0.2509  0.8090 -0.0920
 5952SOL    HW129315   3.688   3.497   8.403 -1.4502 -0.6551 -1.2886
 5952SOL    HW229316   3.731   3.375   8.362 -1.0114  0.9454 -1.1755
 5953SOL     OW29317   4.702   1.805  14.174  0.2053 -0.0896  0.7795
 5953SOL    HW129318   4.634   1.830  14.237  0.5318  1.0450  0.6748
 5953SOL    HW229319   0.056   1.856  14.202  1.6843 -1.7576 -0.1662
 5954SOL     OW29320   4.432   2.444   4.398  0.0708  0.3766 -0.3359
 5954SOL    HW129321   4.379   2.499   4.342  0.0342 -0.1767 -0.8389
 5954SOL    HW229322   4.420   2.376   4.332 -2.8627  1.0762 -0.5227
 5955SOL     OW29323   2.002   1.099   3.130  0.7733  0.3612  0.4579
 5955SOL    HW129324   2.015   1.177   3.076  0.2563  1.0417  1.3213
 5955SOL    HW229325   2.069   1.047   3.084 -1.0568 -1.1330 -0.5041
 5956SOL     OW29326   1.878   4.521   4.130  0.0301 -0.4086 -0.6526
 5956SOL    HW129327   1.843   4.490   4.213 -0.9821 -1.8075 -1.5974
 5956SOL    HW229328   1.803   4.497   4.075 -0.6817 -0.5599  0.3851
 5957SOL     OW29329   1.099   1.481   6.898  0.6862  0.3449  0.1072
 5957SOL    HW129330   1.109   1.571   6.930 -0.5662  0.7796 -0.6896
 5957SOL    HW229331   1.037   1.443   6.960 -0.1940 -0.8071 -1.4728
 5958SOL     OW29332   1.243   4.259   4.419 -0.1880  0.0896  0.0254
 5958SOL    HW129333   1.249   4.238   4.326 -1.2432 -0.8079  0.1620
 5958SOL    HW229334   1.248   4.173   4.461 -1.1146 -0.3484 -0.7644
 5959SOL     OW29335   2.059   3.481  11.873  0.2401 -0.2839 -0.2736
 5959SOL    HW129336   2.029   3.542  11.941  3.4298 -1.3113  2.0336
 5959SOL    HW229337   2.118   3.536  11.821 -0.9217 -0.7303 -2.0564
 5960SOL     OW29338   1.803   1.507   1.772  0.1472  0.2505  0.3854
 5960SOL    HW129339   1.885   1.460   1.788  0.1693  0.7723  1.7928
 5960SOL    HW229340   1.836   1.593   1.745  1.4513 -0.1299  0.7662
 5961SOL     OW29341   2.544   0.718   9.245 -0.6888 -0.3750 -0.1851
 5961SOL    HW129342   2.607   0.666   9.295 -0.9675  0.1418  0.7153
 5961SOL    HW229343   2.461   0.676   9.271  1.0046 -3.5511  0.0715
 5962SOL     OW29344   3.445   3.462   1.460  0.1295  0.0146 -0.0799
 5962SOL    HW129345   3.401   3.472   1.375 -0.1857  1.7572  0.2862
 5962SOL    HW229346   3.496   3.543   1.456  1.8470 -0.9438  2.9837
 5963SOL     OW29347   1.608   2.811   8.515 -0.0214 -0.3553 -0.0805
 5963SOL    HW129348   1.524   2.805   8.561  0.0639 -0.6053  0.0416
 5963SOL    HW229349   1.653   2.745   8.567  0.6600  0.4349  0.3302
 5964SOL     OW29350   2.642   1.596  12.508  0.0245  0.0288  0.1371
 5964SOL    HW129351   2.728   1.596  12.549  1.4177 -2.3295 -2.7536
 5964SOL    HW229352   2.636   1.520  12.450 -1.8688  1.5805 -1.6965
 5965SOL     OW29353   0.456   3.532   4.221  0.5525 -0.3553 -0.1552
 5965SOL    HW129354   0.515   3.473   4.268  0.2312  0.0188  0.7237
 5965SOL    HW229355   0.521   3.585   4.176  0.2454 -0.1017 -0.3040
 5966SOL     OW29356   4.420   4.667  16.626  0.1735  0.4628 -0.7347
 5966SOL    HW129357   4.373   4.635  16.704  1.3566  0.0894 -0.1684
 5966SOL    HW229358   4.477   4.593  16.605  3.5337  2.4057  1.5101
 5967SOL     OW29359   1.482   2.380   0.680  0.3308 -0.3005  0.2983
 5967SOL    HW129360   1.428   2.301   0.678 -3.3083  2.2710 -1.0388
 5967SOL    HW229361   1.547   2.381   0.610 -0.2653  1.0652 -0.2287
 5968SOL     OW29362   1.259   1.724   2.126 -0.3407  0.3246 -0.4934
 5968SOL    HW129363   1.294   1.670   2.056  0.3191  1.3291 -0.9273
 5968SOL    HW229364   1.313   1.695   2.200 -1.0671 -0.8754 -0.4379
 5969SOL     OW29365   3.725   3.485   5.402  0.8251  0.8020 -0.7789
 5969SOL    HW129366   3.791   3.497   5.334  0.0663  2.1655 -1.2899
 5969SOL    HW229367   3.764   3.409   5.444 -1.1520 -0.5157 -1.3159
 5970SOL     OW29368   0.715   2.015   2.809  0.4625  0.0244  0.1277
 5970SOL    HW129369   0.675   2.055   2.731 -0.8866  0.4588  1.0350
 5970SOL    HW229370   0.751   1.938   2.766 -1.8707 -2.9235  3.4745
 5971SOL     OW29371   1.599   3.539   5.030  0.3419  0.0962 -0.1131
 5971SOL    HW129372   1.558   3.498   4.954 -0.9081 -0.4497  0.8576
 5971SOL    HW229373   1.542   3.514   5.103  2.3440  1.8906  2.0754
 5972SOL     OW29374   4.168   1.264   7.227 -0.0006 -0.9055  0.2908
 5972SOL    HW129375   4.105   1.318   7.273  2.8667  0.5110  2.5867
 5972SOL    HW229376   4.229   1.245   7.299  0.4185  0.2904  0.2605
 5973SOL     OW29377   1.253   1.593  11.887 -0.1292 -0.1339 -0.0377
 5973SOL    HW129378   1.312   1.575  11.960 -1.3652 -1.4552  0.6121
 5973SOL    HW229379   1.290   1.677  11.858  0.3551 -0.7103 -1.1116
 5974SOL     OW29380   2.103   0.881   7.732 -0.2716 -0.0251 -0.4975
 5974SOL    HW129381   2.082   0.914   7.819  2.7605 -1.2423  0.6675
 5974SOL    HW229382   2.057   0.946   7.678 -1.9500  0.1876  1.1854
 5975SOL     OW29383   1.406   0.507   4.173 -1.1524 -0.3873  0.0193
 5975SOL    HW129384   1.346   0.560   4.122 -1.5459 -1.3648 -0.5246
 5975SOL    HW229385   1.361   0.423   4.180  1.6989 -1.8326  1.4174
 5976SOL     OW29386   1.876   4.017   4.467 -0.5168  0.2510 -0.1805
 5976SOL    HW129387   1.928   3.937   4.479 -0.3766  0.3695  0.0111
 5976SOL    HW229388   1.888   4.072   4.545  2.8455  0.2597 -0.7049
 5977SOL     OW29389   3.928   1.100  17.231  0.0036 -0.3233  0.4355
 5977SOL    HW129390   3.958   1.160  17.299  1.1877 -0.0262 -0.3651
 5977SOL    HW229391   3.914   1.169  17.166 -0.8072  3.1731  4.3381
 5978SOL     OW29392   1.218   3.287   3.882  1.1896 -0.1900  0.5674
 5978SOL    HW129393   1.202   3.261   3.791 -1.0575 -0.6389  1.0775
 5978SOL    HW229394   1.163   3.364   3.896  0.0267 -1.4073  2.7491
 5979SOL     OW29395   1.221   4.476   6.624  0.3782 -0.3719 -0.0646
 5979SOL    HW129396   1.302   4.526   6.632  0.1037 -0.0922  0.9368
 5979SOL    HW229397   1.160   4.537   6.665 -0.3510 -1.5779  0.6600
 5980SOL     OW29398   4.075   0.530  17.291 -0.3430  0.4725 -0.4138
 5980SOL    HW129399   4.155   0.527  17.239 -1.1421 -1.4768 -1.5123
 5980SOL    HW229400   4.110   0.497  17.374 -0.9153  4.7431  1.5261
 5981SOL     OW29401   3.795   1.096  13.501  0.3115  0.0952  0.1980
 5981SOL    HW129402   3.716   1.064  13.544 -0.3423 -1.0854 -1.8421
 5981SOL    HW229403   3.862   1.078  13.567  0.3331 -0.6072 -0.0157
 5982SOL     OW29404   1.026   2.873   2.262 -0.3208 -0.3247 -0.0345
 5982SOL    HW129405   1.015   2.953   2.210 -4.0688 -0.8989 -0.1424
 5982SOL    HW229406   0.933   2.857   2.277  0.2352 -1.0955  2.5568
 5983SOL     OW29407   4.101   2.806   7.867  0.2307 -0.0522  0.6018
 5983SOL    HW129408   4.124   2.898   7.855  1.1878 -0.0504  2.5119
 5983SOL    HW229409   4.101   2.796   7.962  0.1842 -2.9890  0.3151
 5984SOL     OW29410   3.926   4.686  17.359 -0.8091 -0.3388  0.7234
 5984SOL    HW129411   3.863   0.021  17.314  0.2707  0.3868  0.1135
 5984SOL    HW229412   3.871   4.616  17.393 -0.1434 -0.7335  0.9904
 5985SOL     OW29413   3.350   1.949   6.308 -0.0322  1.0964 -0.4214
 5985SOL    HW129414   3.389   1.992   6.384 -0.6011  1.7808 -0.5162
 5985SOL    HW229415   3.418   1.966   6.242  1.8290 -0.9985  0.9526
 5986SOL     OW29416   4.450   1.380   3.412  0.5944  0.0778  0.1202
 5986SOL    HW129417   4.390   1.307   3.423  0.3132  0.6083  2.0070
 5986SOL    HW229418   4.501   1.337   3.343 -1.1350  1.0980 -1.7942
 5987SOL     OW29419   2.324   0.885  12.101  0.0296 -0.4801  0.0753
 5987SOL    HW129420   2.388   0.929  12.157 -0.9620  1.0268  0.0582
 5987SOL    HW229421   2.241   0.897  12.148 -0.1897 -1.6643 -0.0148
 5988SOL     OW29422   3.767   4.546   7.728 -0.2691  0.4309 -0.5984
 5988SOL    HW129423   3.814   4.543   7.644 -2.6179  0.2580 -1.9154
 5988SOL    HW229424   3.681   4.585   7.709  0.1411  0.3553 -2.6507
 5989SOL     OW29425   4.394   2.920   2.814  0.2361  0.5503  0.1764
 5989SOL    HW129426   4.417   2.828   2.799  0.7799  0.8842 -1.0053
 5989SOL    HW229427   4.408   2.952   2.725 -3.3039  1.5491 -0.0128
 5990SOL     OW29428   3.371   2.852   5.026 -0.5031  0.1830  0.1642
 5990SOL    HW129429   3.329   2.938   5.033 -0.5256  0.1859 -0.0009
 5990SOL    HW229430   3.343   2.810   5.107 -1.9200 -0.3798 -0.6065
 5991SOL     OW29431   3.145   4.592   7.106 -0.5466 -0.2668 -0.1988
 5991SOL    HW129432   3.191   4.675   7.091 -0.1143 -0.5866 -0.6104
 5991SOL    HW229433   3.188   4.556   7.183 -0.3731 -0.9112 -0.6024
 5992SOL     OW29434   0.797   1.834   3.311 -0.1748  0.1156  0.2326
 5992SOL    HW129435   0.841   1.903   3.261 -1.0242  0.0294 -0.6488
 5992SOL    HW229436   0.713   1.879   3.321 -0.6434 -0.3353 -1.5914
 5993SOL     OW29437   1.504   4.668   0.404  0.4280  0.2013 -0.6989
 5993SOL    HW129438   1.481   4.587   0.450  0.1753  1.8563  2.0744
 5993SOL    HW229439   1.564   4.714   0.463 -0.3511  0.5381 -0.1758
 5994SOL     OW29440   0.694   3.738  10.223 -0.6911  0.4149 -0.2856
 5994SOL    HW129441   0.756   3.767  10.156 -0.2804  1.6400  0.6273
 5994SOL    HW229442   0.703   3.796  10.298  5.0669 -0.0778 -0.6259
 5995SOL     OW29443   3.278   1.453  16.542 -0.3576 -0.7632  0.5273
 5995SOL    HW129444   3.332   1.426  16.468  0.8185 -0.6792  1.3611
 5995SOL    HW229445   3.323   1.400  16.607  0.6740  0.3049  0.6925
 5996SOL     OW29446   0.421   3.423   6.863  0.6339 -0.1299 -0.4114
 5996SOL    HW129447   0.490   3.401   6.800  1.9625  1.7956  0.3972
 5996SOL    HW229448   0.469   3.456   6.938 -0.5869 -0.0077  0.3096
 5997SOL     OW29449   2.756   4.346   8.507 -0.0900 -0.0883  0.0417
 5997SOL    HW129450   2.771   4.253   8.493 -0.6600 -0.2797  0.7106
 5997SOL    HW229451   2.720   4.375   8.423  1.6004 -0.4709 -0.8078
 5998SOL     OW29452   4.253   4.087  13.995  0.3997 -0.1390  0.4314
 5998SOL    HW129453   4.179   4.036  14.028  0.5466 -0.8964 -0.4239
 5998SOL    HW229454   4.286   4.115  14.081 -0.7019 -1.2413  1.2193
 5999SOL     OW29455   0.652   2.265   6.570 -0.3140  0.4695 -0.1207
 5999SOL    HW129456   0.694   2.275   6.485  1.9785  0.7535  1.0314
 5999SOL    HW229457   0.650   2.169   6.580  1.7453  0.3243 -0.9957
 6000SOL     OW29458   1.601   1.723   0.354  0.1267  0.9317 -0.2035
 6000SOL    HW129459   1.581   1.662   0.425  1.1297  1.1519  0.2599
 6000SOL    HW229460   1.662   1.669   0.305  0.0816  0.4966  0.2202
 6001SOL     OW29461   1.126   0.219   6.589 -0.3781  0.4319 -0.1649
 6001SOL    HW129462   1.066   0.232   6.662 -0.9751  0.3535 -0.6459
 6001SOL    HW229463   1.150   0.126   6.597 -3.6441 -0.2790  1.1007
 6002SOL     OW29464   3.912   2.591  17.385  0.1789  0.2544 -0.7429
 6002SOL    HW129465   3.983   2.532  17.412 -0.5597 -0.4939 -0.4194
 6002SOL    HW229466   3.953   2.635  17.311  1.4986  0.3336  0.0372
 6003SOL     OW29467   4.404   4.136   9.198 -0.0173  0.1135  0.0650
 6003SOL    HW129468   4.437   4.065   9.254 -2.5138 -0.7182  0.4853
 6003SOL    HW229469   4.479   4.156   9.142  0.1257  1.0991  0.6169
 6004SOL     OW29470   1.506   1.816   1.098 -0.0566 -0.2262  0.0788
 6004SOL    HW129471   1.546   1.783   1.179  1.8538 -0.4030 -0.9533
 6004SOL    HW229472   1.554   1.893   1.071 -0.2250 -0.6137 -1.2961
 6005SOL     OW29473   2.006   2.765   4.420  0.0470  0.5415  0.2586
 6005SOL    HW129474   1.979   2.857   4.418 -0.0030  0.5077 -0.9436
 6005SOL    HW229475   1.940   2.734   4.482  3.2160 -2.9859  1.8864
 6006SOL     OW29476   3.642   1.562   3.153 -0.1266  0.0047 -0.1577
 6006SOL    HW129477   3.680   1.630   3.097  0.9322 -0.0901  0.4446
 6006SOL    HW229478   3.675   1.485   3.105  1.1134  0.7347 -0.4937
 6007SOL     OW29479   2.526   4.229   7.441 -0.2290  0.7058 -0.1745
 6007SOL    HW129480   2.525   4.148   7.492 -0.0053  0.2094 -0.9646
 6007SOL    HW229481   2.469   4.283   7.496  0.8696  2.2984 -0.5974
 6008SOL     OW29482   4.135   1.464  12.831 -0.5663  0.3958 -0.0605
 6008SOL    HW129483   4.055   1.467  12.883 -0.4667  0.0965  0.1126
 6008SOL    HW229484   4.133   1.552  12.794  1.0010 -0.2497 -1.6655
 6009SOL     OW29485   0.970   2.447   1.810 -0.5431  0.1621  0.0993
 6009SOL    HW129486   0.995   2.487   1.727 -1.2210  0.2796 -0.0500
 6009SOL    HW229487   0.971   2.526   1.865  1.4410  0.5228 -0.4558
 6010SOL     OW29488   1.883   4.276   0.632  0.1176 -0.0273 -0.4947
 6010SOL    HW129489   1.912   4.318   0.551 -0.2311 -1.3416 -1.2834
 6010SOL    HW229490   1.789   4.289   0.619 -0.1095 -0.2315  0.8955
 6011SOL     OW29491   0.579   3.112   2.616  0.1319 -0.0399 -0.0277
 6011SOL    HW129492   0.668   3.106   2.651  0.1268  1.1514  0.1786
 6011SOL    HW229493   0.564   3.018   2.618  0.1595 -0.0569 -0.6475
 6012SOL     OW29494   1.962   2.686   4.121 -0.5161 -0.8540  0.2129
 6012SOL    HW129495   1.983   2.715   4.210 -2.2757 -0.5336  0.5088
 6012SOL    HW229496   1.887   2.741   4.101 -0.3094 -0.3906  0.6937
 6013SOL     OW29497   0.001   1.205   2.270  0.1590 -0.3970 -0.0643
 6013SOL    HW129498   0.031   1.168   2.187  0.6109 -0.7862  0.2764
 6013SOL    HW229499   4.631   1.205   2.239  0.4865 -4.1765 -1.0771
 6014SOL     OW29500   2.313   3.660   1.769 -0.0009  0.2533 -0.0754
 6014SOL    HW129501   2.247   3.609   1.722 -0.7248  0.3553  0.8284
 6014SOL    HW229502   2.319   3.748   1.731  0.5040 -0.5070 -1.7603
 6015SOL     OW29503   0.625   1.203   7.336 -0.0918 -0.1647 -0.2544
 6015SOL    HW129504   0.718   1.215   7.353 -0.2705  0.7017  0.0893
 6015SOL    HW229505   0.586   1.218   7.423  1.3670  2.0220  0.0193
 6016SOL     OW29506   1.418   2.060   2.148  0.6701  0.1074  0.5353
 6016SOL    HW129507   1.506   2.087   2.120  1.0667 -1.5488  0.1963
 6016SOL    HW229508   1.435   2.000   2.220 -0.6727  0.4740  1.1542
 6017SOL     OW29509   4.558   4.559   7.822  0.1900  0.8567  0.1756
 6017SOL    HW129510   4.502   4.526   7.752 -0.2924 -1.1805  1.5166
 6017SOL    HW229511   4.593   4.473   7.847 -1.0612 -0.4654 -2.5738
 6018SOL     OW29512   2.106   0.752   2.053 -0.2500 -0.1830  0.1465
 6018SOL    HW129513   2.013   0.751   2.031 -0.5218 -1.0851  1.3508
 6018SOL    HW229514   2.147   0.710   1.978  0.7932  1.1900 -0.0661
 6019SOL     OW29515   3.612   1.509   3.854  0.5848 -0.3064  0.0767
 6019SOL    HW129516   3.530   1.486   3.810 -0.1614  1.4127  0.5854
 6019SOL    HW229517   3.594   1.594   3.893  0.3940 -0.2340 -0.1693
 6020SOL     OW29518   1.684   2.907   1.599  0.5118  0.0762 -0.6011
 6020SOL    HW129519   1.654   2.996   1.620 -0.3112 -0.1609 -0.7744
 6020SOL    HW229520   1.774   2.925   1.572  1.2840  0.7196  2.3282
 6021SOL     OW29521   4.659   2.092   2.077 -0.5706 -0.2304 -0.1055
 6021SOL    HW129522   4.630   2.005   2.105  0.8419 -0.6060  0.1940
 6021SOL    HW229523   4.719   2.074   2.005  0.8288 -0.7882  1.1949
 6022SOL     OW29524   3.835   2.299   9.755 -0.6537 -0.4044 -0.2957
 6022SOL    HW129525   3.810   2.384   9.719 -0.6139  0.5003  1.7922
 6022SOL    HW229526   3.882   2.280   9.674 -1.6474  1.9384 -1.4332
 6023SOL     OW29527   3.054   1.136   4.049 -0.6567  0.1734 -0.2750
 6023SOL    HW129528   3.061   1.231   4.061 -2.0752 -0.0774  2.5050
 6023SOL    HW229529   3.083   1.111   4.136  1.4064  0.0456 -0.9955
 6024SOL     OW29530   2.000   1.172   1.527  0.5581  0.2144  0.5020
 6024SOL    HW129531   2.078   1.131   1.563  1.3336 -0.9265 -2.4853
 6024SOL    HW229532   2.038   1.244   1.477  0.0049  1.3726  1.7704
 6025SOL     OW29533   4.295   0.141   6.736 -0.2681  0.3136  0.3813
 6025SOL    HW129534   4.257   0.086   6.667  0.6688  0.9607 -0.6444
 6025SOL    HW229535   4.248   0.100   6.809 -0.2153  0.0730  0.2803
 6026SOL     OW29536   4.535   1.709  14.638 -0.0774  0.9139  0.0346
 6026SOL    HW129537   4.565   1.633  14.589 -4.9823 -1.0600  0.1034
 6026SOL    HW229538   4.613   1.765  14.637  1.2436 -0.9338  0.0799
 6027SOL     OW29539   1.302   2.173   2.484 -0.1458 -0.4368  0.6308
 6027SOL    HW129540   1.275   2.204   2.397  2.3478  0.7337  0.2586
 6027SOL    HW229541   1.393   2.199   2.471  0.6036 -2.1471  2.4507
 6028SOL     OW29542   4.650   1.216   0.085 -0.3126 -0.2079  0.4951
 6028SOL    HW129543   4.579   1.280   0.090 -0.0371  0.2499 -1.5228
 6028SOL    HW229544   4.713   1.263   0.139 -1.5085  0.7066  1.1086
 6029SOL     OW29545   4.120   2.654  10.705  0.4728 -0.2827 -0.0995
 6029SOL    HW129546   4.185   2.702  10.654 -0.3902  0.4127 -0.5517
 6029SOL    HW229547   4.177   2.590  10.748  1.3762  0.2096 -0.5757
 6030SOL     OW29548   2.288   1.225   4.461 -0.3006 -0.5457  0.0949
 6030SOL    HW129549   2.243   1.173   4.527 -0.5516  1.8744  1.8485
 6030SOL    HW229550   2.304   1.309   4.504  0.5689 -0.4761 -0.3752
 6031SOL     OW29551   4.267   4.046   8.110  0.3107 -0.0376  0.2691
 6031SOL    HW129552   4.278   4.124   8.057  2.3326 -0.4574  0.0460
 6031SOL    HW229553   4.271   3.971   8.050  2.1425 -0.0554  0.4013
 6032SOL     OW29554   2.553   2.618   2.952  0.3757  0.1202 -0.1166
 6032SOL    HW129555   2.558   2.535   2.998 -0.3240 -1.0291 -2.1331
 6032SOL    HW229556   2.646   2.639   2.945  0.3533  0.3362  0.2232
 6033SOL     OW29557   3.547   3.292   1.880  0.4182  0.3741 -0.7782
 6033SOL    HW129558   3.598   3.231   1.826  1.2604 -0.9719  1.5254
 6033SOL    HW229559   3.497   3.324   1.805 -0.4552  1.3164  0.2283
 6034SOL     OW29560   3.467   4.611   7.860 -0.0479  0.3412 -0.0247
 6034SOL    HW129561   3.392   4.588   7.914  0.1184 -1.0398 -0.3902
 6034SOL    HW229562   3.475   4.703   7.884 -0.6699 -0.1556  2.0279
 6035SOL     OW29563   0.379   1.540  13.907  0.3730  0.7920  0.2316
 6035SOL    HW129564   0.299   1.593  13.904  0.0333  0.1214 -2.5067
 6035SOL    HW229565   0.444   1.607  13.887 -1.0746  1.9369 -0.6246
 6036SOL     OW29566   0.815   1.312   4.689  0.8774 -0.0646 -0.2980
 6036SOL    HW129567   0.845   1.377   4.753 -0.8397 -0.2641  0.7015
 6036SOL    HW229568   0.771   1.251   4.747  1.9017  0.2078  0.7723
 6037SOL     OW29569   3.733   1.629  10.867 -0.7164 -0.2152  0.1574
 6037SOL    HW129570   3.782   1.548  10.859 -2.3410 -1.2760  0.9419
 6037SOL    HW229571   3.656   1.586  10.903  0.5894 -1.3627  1.5414
 6038SOL     OW29572   0.675   1.989  17.062 -0.1250 -0.4022  0.8064
 6038SOL    HW129573   0.677   1.996  17.157 -0.0761  0.4978  0.7387
 6038SOL    HW229574   0.683   2.081  17.036  0.3091 -1.5366 -3.0031
 6039SOL     OW29575   1.291   1.201  13.395  0.2310  0.1023  0.3528
 6039SOL    HW129576   1.205   1.244  13.385  0.6636  1.0494  0.6790
 6039SOL    HW229577   1.318   1.190  13.304 -0.8275  1.5360 -0.1574
 6040SOL     OW29578   1.060   3.343   7.158  0.7750 -0.0578 -0.1745
 6040SOL    HW129579   1.155   3.353   7.148  0.4714  0.3057 -2.8203
 6040SOL    HW229580   1.027   3.399   7.087 -0.0574 -1.6330 -1.0213
 6041SOL     OW29581   0.128   3.453   7.424 -0.4278  0.1179  0.2335
 6041SOL    HW129582   0.085   3.405   7.494  0.7007 -0.2286  0.6834
 6041SOL    HW229583   0.220   3.454   7.450  0.0857  0.6260 -1.5911
 6042SOL     OW29584   3.623   1.789   6.566  0.7265 -0.3103 -0.3024
 6042SOL    HW129585   3.538   1.817   6.532  1.3164  0.3224 -1.2564
 6042SOL    HW229586   3.669   1.872   6.577 -1.5054  0.7507  1.0646
 6043SOL     OW29587   0.534   3.341   1.723  0.0626 -0.1692  0.1587
 6043SOL    HW129588   0.544   3.416   1.782  1.9591 -0.9708  0.8534
 6043SOL    HW229589   0.484   3.289   1.787 -1.6609  1.3578  0.0537
 6044SOL     OW29590   0.650   2.596   7.003 -0.6826 -0.0413  0.1090
 6044SOL    HW129591   0.689   2.554   7.079 -4.0378 -0.5185  1.5893
 6044SOL    HW229592   0.643   2.689   7.027  1.4713 -0.2174  1.3670
 6045SOL     OW29593   2.981   4.666   2.646  0.3768  0.4859 -0.7299
 6045SOL    HW129594   2.923   4.597   2.615  0.0466  0.2121  0.5010
 6045SOL    HW229595   2.989   4.651   2.740 -0.7493 -0.9547 -0.8831
 6046SOL     OW29596   1.200   0.123   6.014  0.1027 -0.3211 -0.0932
 6046SOL    HW129597   1.269   0.167   5.964  1.0901  1.0538  2.4819
 6046SOL    HW229598   1.242   0.039   6.033 -0.6892 -0.8792 -0.8341
 6047SOL     OW29599   1.859   2.454   6.305 -0.1732 -0.5059  0.3065
 6047SOL    HW129600   1.791   2.480   6.368  1.8150 -1.3319  2.8186
 6047SOL    HW229601   1.914   2.532   6.302  0.2951 -0.8534 -0.0560
 6048SOL     OW29602   4.215   2.316   2.635  0.9086  0.5261 -0.1275
 6048SOL    HW129603   4.143   2.355   2.586  1.5977  1.1399 -0.6364
 6048SOL    HW229604   4.295   2.361   2.609  1.8144 -0.8073  0.3493
 6049SOL     OW29605   2.830   3.205  14.824 -0.1550 -0.3411  0.8709
 6049SOL    HW129606   2.734   3.201  14.833 -0.0789 -1.8259  0.8969
 6049SOL    HW229607   2.849   3.258  14.747  1.2433  0.6073  1.8553
 6050SOL     OW29608   3.195   4.505   6.316 -0.0058  0.0556  0.1803
 6050SOL    HW129609   3.140   4.428   6.302  1.2385 -0.9122  0.5998
 6050SOL    HW229610   3.135   4.566   6.360 -2.6884 -1.0880 -1.8761
 6051SOL     OW29611   0.728   2.276  11.727  0.0057 -0.1559  0.1117
 6051SOL    HW129612   0.767   2.266  11.814  0.9632  1.6878 -0.1067
 6051SOL    HW229613   0.636   2.268  11.750 -0.3241  2.9613 -0.2013
 6052SOL     OW29614   1.352   1.755   5.833 -0.1722 -0.3301 -0.0605
 6052SOL    HW129615   1.417   1.825   5.833  0.3202 -0.7910 -0.2289
 6052SOL    HW229616   1.305   1.782   5.754 -0.5810 -3.1884 -0.7917
 6053SOL     OW29617   1.766   0.832   7.484  0.1910 -0.1730  0.1118
 6053SOL    HW129618   1.695   0.799   7.427  0.0007 -0.0511  0.2781
 6053SOL    HW229619   1.837   0.776   7.451 -0.8537  0.3541 -3.0585
 6054SOL     OW29620   2.549   0.097   8.584 -0.6651  0.0463  0.0475
 6054SOL    HW129621   2.588   0.177   8.620 -1.4943  0.6525 -0.4044
 6054SOL    HW229622   2.527   0.053   8.666 -1.8057  2.4279  1.0366
 6055SOL     OW29623   0.533   0.341   5.982  0.0764  0.4137  0.7516
 6055SOL    HW129624   0.582   0.295   6.051 -1.7919 -0.7826  1.3013
 6055SOL    HW229625   0.515   0.260   5.934  0.7299  0.7633 -0.0768
 6056SOL     OW29626   3.280   1.031  17.069 -0.3943 -0.4596 -0.5687
 6056SOL    HW129627   3.307   1.114  17.029 -2.2051  0.9804  1.1888
 6056SOL    HW229628   3.242   1.070  17.148  0.6190  0.8477 -0.7367
 6057SOL     OW29629   4.214   0.331  17.547  0.1479  0.8266  0.6910
 6057SOL    HW129630   4.142   0.274  17.520  0.7387  0.8726 -0.9609
 6057SOL    HW229631   4.181   0.421  17.549  0.5285  0.9552  1.4552
 6058SOL     OW29632   4.448   1.918   3.117 -0.7937 -0.0791  0.4737
 6058SOL    HW129633   4.518   1.868   3.074 -1.4561 -1.3819  0.9099
 6058SOL    HW229634   4.496   1.968   3.183 -0.7847  0.7406 -0.1468
 6059SOL     OW29635   4.291   4.490   8.794 -0.2658 -0.3823  0.6677
 6059SOL    HW129636   4.346   4.569   8.791 -0.5207 -0.1819  1.4391
 6059SOL    HW229637   4.300   4.462   8.885  0.6894 -0.8733  0.4321
 6060SOL     OW29638   2.868   2.325   5.889 -0.7906 -0.2460  0.3533
 6060SOL    HW129639   2.845   2.417   5.900 -0.6575 -0.0810 -0.7379
 6060SOL    HW229640   2.835   2.303   5.801 -1.6885 -0.5230  0.7608
 6061SOL     OW29641   1.478   2.230  13.819 -0.0527  0.3688 -0.2569
 6061SOL    HW129642   1.432   2.164  13.768  0.2873  0.2143 -0.3606
 6061SOL    HW229643   1.518   2.176  13.887 -0.9364  0.9492  0.7337
 6062SOL     OW29644   3.053   1.279   1.310 -0.0301 -0.1438 -0.0356
 6062SOL    HW129645   3.009   1.194   1.307  2.1519 -1.2714 -0.1416
 6062SOL    HW229646   3.025   1.317   1.227 -2.8025  1.0416  1.4416
 6063SOL     OW29647   0.082   1.940   4.665  0.0999 -0.4202 -0.7075
 6063SOL    HW129648   0.048   1.877   4.602 -1.4625 -1.1575  0.8949
 6063SOL    HW229649   0.025   1.950   4.741  0.9295  1.2759 -0.3013
 6064SOL     OW29650   1.842   4.120   1.715 -0.3637 -0.3138 -0.1839
 6064SOL    HW129651   1.900   4.044   1.706 -0.0039 -0.1325  0.5670
 6064SOL    HW229652   1.883   4.158   1.793  1.3626  1.3011 -1.8679
 6065SOL     OW29653   1.576   0.113   6.271 -0.7733  0.2567 -0.6102
 6065SOL    HW129654   1.527   0.036   6.242  1.1021 -0.5172 -1.7664
 6065SOL    HW229655   1.502   0.173   6.260 -0.5675  0.8922  1.5895
 6066SOL     OW29656   3.539   4.601   3.136  0.1901  0.5184  0.2736
 6066SOL    HW129657   3.594   4.603   3.057  1.4949 -4.9546  1.0091
 6066SOL    HW229658   3.463   4.552   3.103  0.5784 -0.2391  0.4915
 6067SOL     OW29659   0.841   2.546   8.528  1.2262 -0.5152  0.0069
 6067SOL    HW129660   0.747   2.559   8.541  1.2182 -1.0371  0.4352
 6067SOL    HW229661   0.870   2.634   8.551  0.1564 -1.2540  4.0494
 6068SOL     OW29662   2.792   2.375   4.631  0.1424 -0.5937  0.3145
 6068SOL    HW129663   2.842   2.370   4.549  1.1863  0.2453  0.8941
 6068SOL    HW229664   2.741   2.454   4.611  2.0585  0.3486 -0.8021
 6069SOL     OW29665   2.610   2.287   3.622 -0.4629 -0.3263  0.0259
 6069SOL    HW129666   2.580   2.359   3.568  0.8856 -0.1735 -0.5317
 6069SOL    HW229667   2.706   2.295   3.623 -0.1696 -3.4030 -1.2309
 6070SOL     OW29668   3.776   2.223   7.782  0.6196 -0.5000  0.1457
 6070SOL    HW129669   3.750   2.207   7.872  1.7787  2.7472  1.0591
 6070SOL    HW229670   3.861   2.267   7.791  0.7656 -0.7276 -0.0986
 6071SOL     OW29671   2.647   0.215   1.391  0.2370 -0.7243  0.0179
 6071SOL    HW129672   2.608   0.271   1.324  1.7462 -0.4607 -0.6393
 6071SOL    HW229673   2.695   0.157   1.332 -3.1184 -2.2063 -1.2544
 6072SOL     OW29674   3.848   4.605  13.739  0.3012 -0.2536 -0.2465
 6072SOL    HW129675   3.849   4.701  13.745 -3.8901 -0.1934 -0.3498
 6072SOL    HW229676   3.779   4.588  13.804 -0.2547  0.6453 -0.5848
 6073SOL     OW29677   0.262   1.786  12.424  0.2065  0.4008 -0.1804
 6073SOL    HW129678   0.229   1.830  12.503 -0.4506 -1.0401  0.3320
 6073SOL    HW229679   0.189   1.786  12.362 -0.3192  1.4054  0.4360
 6074SOL     OW29680   4.421   4.516   4.118  0.0287  0.6165  0.7311
 6074SOL    HW129681   4.364   4.587   4.087  0.1403  1.2528  1.9995
 6074SOL    HW229682   4.362   4.461   4.169 -1.1487  0.7254 -0.5110
 6075SOL     OW29683   2.239   0.918  12.731 -0.5258 -0.2642  0.5934
 6075SOL    HW129684   2.158   0.893  12.774  0.3070 -2.0720  1.1081
 6075SOL    HW229685   2.224   0.899  12.638 -1.5667 -0.8327  0.8770
 6076SOL     OW29686   3.416   2.053  16.016  0.0894 -0.0525 -0.4503
 6076SOL    HW129687   3.465   2.129  16.047  1.7470 -0.6289 -1.6139
 6076SOL    HW229688   3.388   2.083  15.930  1.9148  0.7696 -0.7610
 6077SOL     OW29689   4.284   1.508   4.879  0.9247 -0.0275 -0.0040
 6077SOL    HW129690   4.204   1.466   4.908  1.5081 -1.4486 -0.4393
 6077SOL    HW229691   4.254   1.599   4.874 -0.8263 -0.7208 -1.6400
 6078SOL     OW29692   3.425   1.039   0.446  0.2596 -0.2141 -0.1878
 6078SOL    HW129693   3.424   1.132   0.424  0.8132  0.0163  0.7425
 6078SOL    HW229694   3.446   1.046   0.539  2.5219 -1.0142 -0.6219
 6079SOL     OW29695   3.582   2.597   3.213  0.5291 -0.4134  0.2768
 6079SOL    HW129696   3.546   2.549   3.289 -1.0254  0.0761 -0.1521
 6079SOL    HW229697   3.671   2.563   3.222  1.4421  1.9410  0.0995
 6080SOL     OW29698   2.778   0.838   2.044 -0.7891  0.3955  0.4425
 6080SOL    HW129699   2.760   0.896   1.970  1.2288  0.6457  0.1412
 6080SOL    HW229700   2.859   0.802   2.010 -0.3055  2.0602 -0.1789
 6081SOL     OW29701   4.714   2.473   4.006  0.1521 -0.3035 -0.3741
 6081SOL    HW129702   0.071   2.467   4.060 -1.6330 -0.2557  2.2404
 6081SOL    HW229703   0.010   2.418   3.930  1.2732 -2.4094  1.4207
 6082SOL     OW29704   2.665   4.330   4.157 -0.0948  0.0633 -0.0117
 6082SOL    HW129705   2.719   4.387   4.211 -0.5352  1.2512 -0.8426
 6082SOL    HW229706   2.686   4.241   4.187 -0.2790  0.0038 -0.0601
 6083SOL     OW29707   4.375   4.229  11.790 -0.0423  0.0304 -0.1771
 6083SOL    HW129708   4.396   4.146  11.746 -1.1791 -0.5063  0.2903
 6083SOL    HW229709   4.443   4.231  11.857 -0.0882  1.4660 -0.1689
 6084SOL     OW29710   0.612   3.902  16.811  0.2032 -0.1709 -0.3105
 6084SOL    HW129711   0.545   3.930  16.874 -0.1964 -1.5506 -0.1351
 6084SOL    HW229712   0.635   3.820  16.853  2.2599  1.1770  1.1887
 6085SOL     OW29713   1.286   4.219  16.126  0.1448  0.2539 -0.1396
 6085SOL    HW129714   1.270   4.196  16.034  0.9968 -0.2984 -0.1497
 6085SOL    HW229715   1.382   4.216  16.119 -0.0545 -2.6284 -1.4502
 6086SOL     OW29716   1.495   3.492  17.411  0.0033 -0.4174  0.2123
 6086SOL    HW129717   1.530   3.535  17.333 -2.0225  1.3565  0.2730
 6086SOL    HW229718   1.557   3.523  17.476  1.4021 -1.8586 -0.4237
 6087SOL     OW29719   1.997   2.967  16.934  0.3723 -0.2791 -1.2206
 6087SOL    HW129720   2.025   3.009  17.015 -0.6135 -1.1925 -0.4102
 6087SOL    HW229721   2.066   2.996  16.874  3.5869 -4.0988  0.6312
 6088SOL     OW29722   1.300   2.290  10.434  0.1980  0.4206  0.1270
 6088SOL    HW129723   1.207   2.285  10.414  0.4856  1.6885 -1.5063
 6088SOL    HW229724   1.300   2.242  10.517  2.0024  0.2280  0.0139
 6089SOL     OW29725   2.501   0.185  13.732  0.2747  0.2934  0.3005
 6089SOL    HW129726   2.550   0.104  13.725  2.2659  1.6334 -1.5204
 6089SOL    HW229727   2.473   0.181  13.823  1.6956 -0.0146  0.7189
 6090SOL     OW29728   3.583   3.875   1.853  0.5477  0.1253  0.1979
 6090SOL    HW129729   3.606   3.907   1.766 -2.8879 -0.0891 -0.7581
 6090SOL    HW229730   3.501   3.834   1.825  0.5856  0.1200  0.0955
 6091SOL     OW29731   2.126   2.015  12.690 -0.0587 -0.0703 -0.7597
 6091SOL    HW129732   2.043   1.970  12.704  0.9626 -0.2944  4.4248
 6091SOL    HW229733   2.156   2.027  12.779 -0.0271  2.2112 -1.0785
 6092SOL     OW29734   1.686   1.266  14.702  0.2970 -0.4563  0.6723
 6092SOL    HW129735   1.648   1.222  14.778  0.0613 -0.7100  0.4045
 6092SOL    HW229736   1.780   1.246  14.707  0.5215  0.3790 -0.1368
 6093SOL     OW29737   1.845   1.252   1.126  0.3315 -0.4582 -0.3970
 6093SOL    HW129738   1.897   1.327   1.096  0.2084 -0.8146 -1.5149
 6093SOL    HW229739   1.913   1.187   1.139  2.0424  1.6925  1.3260
 6094SOL     OW29740   1.855   2.717   3.817  0.1851 -0.0683 -0.5168
 6094SOL    HW129741   1.777   2.670   3.788 -0.1899 -0.9622  1.8800
 6094SOL    HW229742   1.828   2.759   3.899  0.7686 -0.6123 -0.0404
 6095SOL     OW29743   3.029   1.481  12.189 -0.2526  0.3113  0.1705
 6095SOL    HW129744   3.075   1.489  12.273 -1.6600 -0.9271  1.0769
 6095SOL    HW229745   3.073   1.553  12.144 -0.0206  1.8717  2.9071
 6096SOL     OW29746   0.086   3.030   9.448 -0.3377 -0.2743 -0.6003
 6096SOL    HW129747   0.048   2.943   9.446  0.8141 -0.7356 -2.5605
 6096SOL    HW229748   0.079   3.069   9.361  0.1299  1.0007 -0.0709
 6097SOL     OW29749   4.183   2.987  16.284 -0.1155  0.2924 -0.6028
 6097SOL    HW129750   4.103   3.021  16.244  0.3012 -0.6936 -2.2225
 6097SOL    HW229751   4.185   2.898  16.251 -1.7623  0.6035 -1.5360
 6098SOL     OW29752   1.063   0.943   8.454 -0.2574  0.1499  0.6062
 6098SOL    HW129753   1.095   0.988   8.376 -2.0037 -1.9028 -1.2932
 6098SOL    HW229754   1.142   0.945   8.508 -0.3555  0.3299  0.7425
 6099SOL     OW29755   3.236   3.644   5.257 -0.1664 -0.2448 -0.3607
 6099SOL    HW129756   3.169   3.648   5.325 -0.1466  0.5879 -0.3871
 6099SOL    HW229757   3.192   3.618   5.176  0.5874  0.9937 -1.1778
 6100SOL     OW29758   0.303   3.607  10.175 -0.0723 -0.4276  0.2719
 6100SOL    HW129759   0.354   3.547  10.228  0.2744 -0.4011 -0.0281
 6100SOL    HW229760   0.294   3.674  10.243  0.6968  1.5093 -1.5230
 6101SOL     OW29761   2.239   0.006   6.805 -0.4728  0.3655 -0.0033
 6101SOL    HW129762   2.255   4.644   6.848  0.6892  0.2732 -0.6072
 6101SOL    HW229763   2.304   0.004   6.735 -0.0288 -0.8021  0.4420
 6102SOL     OW29764   3.075   2.311   2.150  0.3108 -0.4381  0.3280
 6102SOL    HW129765   3.035   2.235   2.191 -0.4241  0.2545  0.8873
 6102SOL    HW229766   3.153   2.278   2.106  0.2597 -1.3260  0.9232
 6103SOL     OW29767   3.684   0.989   6.354  0.1680 -0.2370 -0.0868
 6103SOL    HW129768   3.679   0.980   6.258 -0.5005 -0.5246 -0.0295
 6103SOL    HW229769   3.747   0.925   6.387  0.6501  0.9837  1.3489
 6104SOL     OW29770   4.580   2.223   2.788  0.8378  0.3560 -0.6480
 6104SOL    HW129771   4.674   2.210   2.802  0.8385  0.1667 -0.8287
 6104SOL    HW229772   4.581   2.159   2.716 -0.2401 -0.4934  0.0988
 6105SOL     OW29773   1.074   1.263   6.093  0.0616  0.0010  0.4001
 6105SOL    HW129774   1.060   1.356   6.072  1.7621  0.8142  2.8446
 6105SOL    HW229775   0.985   1.243   6.121  0.6566 -2.3880  0.5374
 6106SOL     OW29776   3.152   2.895   2.118 -0.5045 -0.4118  0.1564
 6106SOL    HW129777   3.079   2.874   2.175 -1.4942 -0.8242 -1.2494
 6106SOL    HW229778   3.230   2.866   2.165  0.8370  1.2474 -1.0160
 6107SOL     OW29779   0.175   1.884  12.648  0.2902  0.2401 -0.1856
 6107SOL    HW129780   0.089   1.898  12.687 -0.5517  0.0868 -1.9745
 6107SOL    HW229781   0.210   1.972  12.661 -1.0807  0.9467 -1.2715
 6108SOL     OW29782   2.062   1.486   2.506 -0.0633 -0.0053 -0.2746
 6108SOL    HW129783   2.068   1.427   2.581 -1.4471 -1.9464 -1.7000
 6108SOL    HW229784   2.039   1.570   2.546  1.2247  0.2493 -0.0598
 6109SOL     OW29785   1.977   3.500   4.211 -0.0473 -0.6357 -0.1496
 6109SOL    HW129786   1.900   3.492   4.155 -0.4259  1.9294  0.0287
 6109SOL    HW229787   1.970   3.429   4.274  0.6603 -0.4597  0.1309
 6110SOL     OW29788   3.527   2.933   7.991  0.4695 -0.2281  0.0656
 6110SOL    HW129789   3.614   2.960   7.962  1.2734 -1.5682  1.2456
 6110SOL    HW229790   3.524   2.852   7.940 -0.7464 -0.1110 -0.0436
 6111SOL     OW29791   2.914   0.033   4.138 -0.8423  0.0278  0.1230
 6111SOL    HW129792   2.875   0.053   4.223 -0.0060 -1.9849  0.9855
 6111SOL    HW229793   2.853   4.690   4.104  2.4266 -1.2742 -3.2934
 6112SOL     OW29794   2.948   3.424   1.873  0.0227  0.4951  0.4225
 6112SOL    HW129795   3.014   3.429   1.942 -0.2436 -3.2970  0.9732
 6112SOL    HW229796   2.865   3.446   1.916 -0.2552  1.1118 -0.4511
 6113SOL     OW29797   1.407   2.582   1.366 -0.6010 -0.2163 -0.4638
 6113SOL    HW129798   1.396   2.563   1.273  0.8124 -1.7479 -0.3118
 6113SOL    HW229799   1.496   2.607   1.389  0.3100 -1.8068 -2.3191
 6114SOL     OW29800   0.788   3.469   0.920  0.0528  0.1650 -0.4579
 6114SOL    HW129801   0.713   3.429   0.877  0.4620 -3.1997  1.9761
 6114SOL    HW229802   0.743   3.537   0.969  3.3070  0.3789  2.2163
 6115SOL     OW29803   1.095   0.061   3.987 -0.1954  0.1920 -0.3314
 6115SOL    HW129804   1.009   0.025   4.008 -0.1122 -0.0567 -0.4235
 6115SOL    HW229805   1.113   0.124   4.057 -1.6925  1.1047 -0.7557
 6116SOL     OW29806   1.153   3.910   2.639 -0.3171  0.5305  0.0906
 6116SOL    HW129807   1.193   3.907   2.726  0.9290  0.6107 -0.4833
 6116SOL    HW229808   1.213   3.881   2.570 -1.0142 -0.1011 -0.2550
 6117SOL     OW29809   0.561   0.547   5.796 -0.2175  0.4310  0.0735
 6117SOL    HW129810   0.611   0.576   5.872  0.3462  0.9748 -0.5050
 6117SOL    HW229811   0.506   0.479   5.834 -1.6732  0.7310 -1.4807
 6118SOL     OW29812   0.902   1.132   1.207 -0.0922  0.0029  0.7018
 6118SOL    HW129813   0.981   1.158   1.159  1.4262 -3.2186  1.4287
 6118SOL    HW229814   0.841   1.198   1.173  2.8114  3.0543  1.4257
 6119SOL     OW29815   3.252   1.359   5.882  0.7533  0.1046  0.0037
 6119SOL    HW129816   3.334   1.405   5.898  0.6991  0.2524 -0.1434
 6119SOL    HW229817   3.203   1.386   5.960 -0.1030 -1.2210 -0.0853
 6120SOL     OW29818   3.313   0.016   9.253  0.0479  0.3043  0.2388
 6120SOL    HW129819   3.300   0.111   9.251 -1.2770  0.0767 -2.6617
 6120SOL    HW229820   3.392   0.006   9.306 -0.3540  2.0443  1.1510
 6121SOL     OW29821   2.695   2.310   1.571  0.5962  0.3539 -0.3754
 6121SOL    HW129822   2.764   2.277   1.513 -0.8893 -4.0341  0.3041
 6121SOL    HW229823   2.619   2.252   1.566  1.8034 -1.4304  1.5236
 6122SOL     OW29824   2.909   4.556   8.196 -0.1099 -0.0108 -0.2288
 6122SOL    HW129825   2.975   4.601   8.250  2.3703 -1.5290 -2.0154
 6122SOL    HW229826   2.829   4.559   8.249  1.0151  0.1687  1.4572
 6123SOL     OW29827   1.765   0.713   5.713  0.2754 -0.0751 -0.1607
 6123SOL    HW129828   1.692   0.754   5.759 -0.1815 -0.7979 -0.2345
 6123SOL    HW229829   1.773   0.774   5.640 -0.7471  0.7907  0.4574
 6124SOL     OW29830   1.040   2.658   0.122 -0.5294  0.2318  0.9851
 6124SOL    HW129831   1.007   2.574   0.089 -0.8217  0.8019 -0.1751
 6124SOL    HW229832   0.970   2.717   0.095 -2.3356 -1.1013  2.7121
 6125SOL     OW29833   4.706   1.421   3.568 -0.0843 -0.1600 -0.0759
 6125SOL    HW129834   4.627   1.384   3.609  1.4758 -0.5735  2.5536
 6125SOL    HW229835   0.028   1.344   3.533 -0.5080  0.2555 -1.5263
 6126SOL     OW29836   1.473   3.717   5.806  0.2475  0.2458 -0.2266
 6126SOL    HW129837   1.403   3.668   5.849  1.4474 -3.8433 -2.9412
 6126SOL    HW229838   1.465   3.692   5.714  1.9438 -1.5540  0.1062
 6127SOL     OW29839   3.880   1.212   3.369 -0.6642  0.1818  0.2046
 6127SOL    HW129840   3.894   1.212   3.275  2.1323  1.3426  0.6122
 6127SOL    HW229841   3.950   1.153   3.398 -0.0641  1.0758  0.5613
 6128SOL     OW29842   1.869   4.242   6.238 -0.0325 -0.0646  0.3044
 6128SOL    HW129843   1.839   4.325   6.275  0.4655  0.2299  0.0528
 6128SOL    HW229844   1.804   4.185   6.279 -0.6099  0.3405 -0.0542
 6129SOL     OW29845   3.260   3.535   4.006 -0.2496  0.5266 -0.8180
 6129SOL    HW129846   3.260   3.629   3.986  0.2125  0.9904  1.3991
 6129SOL    HW229847   3.237   3.500   3.919 -3.0592  1.1302 -0.3136
 6130SOL     OW29848   1.280   3.560   1.021  0.1579 -0.2212  0.5056
 6130SOL    HW129849   1.275   3.471   1.055  1.2555 -0.4720 -0.0079
 6130SOL    HW229850   1.200   3.558   0.968 -0.2416  2.8377  0.9815
 6131SOL     OW29851   3.704   3.451   6.446  0.0525 -0.3314  0.1775
 6131SOL    HW129852   3.629   3.502   6.476  0.3188 -0.0811  0.4166
 6131SOL    HW229853   3.759   3.522   6.412  0.8597 -1.5130 -0.9851
 6132SOL     OW29854   0.828   1.682   5.210 -0.2523 -0.2500  0.0209
 6132SOL    HW129855   0.901   1.657   5.153 -1.0179 -1.2777 -0.5173
 6132SOL    HW229856   0.768   1.710   5.141 -0.7061 -2.7187 -0.5599
 6133SOL     OW29857   3.578   0.303   2.797 -0.7027  0.4712  0.0828
 6133SOL    HW129858   3.654   0.293   2.854 -0.6706  0.9091  0.1202
 6133SOL    HW229859   3.546   0.384   2.837  0.8966 -0.1996  2.7065
 6134SOL     OW29860   2.066   0.237  10.823  0.0845  0.4435  0.0415
 6134SOL    HW129861   1.977   0.228  10.858 -0.5956 -0.5950 -1.9798
 6134SOL    HW229862   2.053   0.211  10.732 -0.9192  3.6781 -0.7376
 6135SOL     OW29863   4.435   3.629  15.125  0.1094  0.0444  0.0010
 6135SOL    HW129864   4.481   3.695  15.073  0.2770 -0.2047 -0.1613
 6135SOL    HW229865   4.417   3.671  15.210  1.8414  0.2822  0.2598
 6136SOL     OW29866   4.172   1.998  10.865 -0.6217 -0.0816 -0.7000
 6136SOL    HW129867   4.116   1.986  10.788 -2.2399 -4.1161  1.1033
 6136SOL    HW229868   4.179   2.093  10.870 -1.6306 -0.1290  1.4187
 6137SOL     OW29869   4.613   0.728   3.445 -0.3240 -0.0816  0.1492
 6137SOL    HW129870   4.643   0.681   3.523  0.5451 -0.1763 -0.2452
 6137SOL    HW229871   4.643   0.819   3.454  1.9550 -0.8569  0.4412
 6138SOL     OW29872   4.454   0.462   0.685 -0.1034 -0.3025 -0.3318
 6138SOL    HW129873   4.481   0.553   0.699  2.4469 -1.1277  0.0945
 6138SOL    HW229874   4.402   0.466   0.605 -1.2730  0.2744  0.4537
 6139SOL     OW29875   1.745   0.887   3.178 -0.1123 -0.4769 -0.2357
 6139SOL    HW129876   1.678   0.825   3.208  1.3534 -1.9266  0.0289
 6139SOL    HW229877   1.695   0.924   3.105 -2.2013 -2.1686  0.3394
 6140SOL     OW29878   2.704   3.331   7.988 -0.3624  0.3759  0.1519
 6140SOL    HW129879   2.679   3.423   8.001 -2.5130 -0.1354 -0.4072
 6140SOL    HW229880   2.658   3.286   8.058 -0.3494 -1.2160 -0.8644
 6141SOL     OW29881   4.287   1.467  17.330 -0.3115 -0.0676  1.0859
 6141SOL    HW129882   4.277   1.561  17.313 -0.6678 -0.0919  1.1599
 6141SOL    HW229883   4.345   1.449  17.256 -1.9775  0.5665 -0.3750
 6142SOL     OW29884   1.480   2.844   8.914  0.2903 -0.0730  0.4485
 6142SOL    HW129885   1.438   2.880   8.992 -0.6321  0.6943 -0.3997
 6142SOL    HW229886   1.570   2.876   8.923  0.8960 -1.4252 -0.7572
 6143SOL     OW29887   3.467   4.247   4.724 -0.1384 -0.4302  0.1787
 6143SOL    HW129888   3.397   4.189   4.695 -1.1892  0.6070  0.6386
 6143SOL    HW229889   3.521   4.187   4.775  1.2254 -1.0450 -1.9954
 6144SOL     OW29890   0.856   1.094   5.071 -0.2531 -0.7478 -0.7982
 6144SOL    HW129891   0.852   0.999   5.065 -3.5847 -0.6682  0.1387
 6144SOL    HW229892   0.764   1.118   5.057 -0.0533  0.3673 -0.2662
 6145SOL     OW29893   1.389   4.373   2.278  0.0550  0.1921  0.0518
 6145SOL    HW129894   1.316   4.336   2.229  1.5655 -3.2626  0.4206
 6145SOL    HW229895   1.442   4.434   2.226 -1.7852  1.2000 -0.6187
 6146SOL     OW29896   0.401   3.744   3.536  0.1018  0.1390 -0.1072
 6146SOL    HW129897   0.386   3.749   3.631  0.4891  1.0392 -0.0965
 6146SOL    HW229898   0.326   3.799   3.513 -0.6897 -0.6175  0.6592
 6147SOL     OW29899   0.016   1.153  15.393 -0.5172 -0.1249 -0.7124
 6147SOL    HW129900   4.686   1.077  15.420 -1.2885  1.0236  1.1256
 6147SOL    HW229901   0.008   1.213  15.467  0.3916 -1.7764  0.7140
 6148SOL     OW29902   0.024   0.400   7.549 -0.1451  0.0702  0.6065
 6148SOL    HW129903   4.671   0.447   7.512 -0.9507 -1.7896 -0.1853
 6148SOL    HW229904   4.706   0.313   7.562  4.0166 -1.7517  1.0666
 6149SOL     OW29905   4.556   2.828   2.628 -0.2058 -0.4593 -0.4822
 6149SOL    HW129906   4.587   2.747   2.587  0.3569 -1.2336  1.4568
 6149SOL    HW229907   4.637   2.876   2.612 -0.2812 -0.4518 -0.8448
 6150SOL     OW29908   2.195   4.686  12.415  0.0074  0.4290  0.0123
 6150SOL    HW129909   2.281   4.682  12.374  1.4284  2.1410  2.8985
 6150SOL    HW229910   2.212   4.655  12.504 -0.1768  0.4108  0.0428
 6151SOL     OW29911   3.336   0.459  16.502 -0.4433  0.1596  0.1025
 6151SOL    HW129912   3.371   0.545  16.478 -1.9252  1.2104  1.6639
 6151SOL    HW229913   3.379   0.438  16.585 -0.0283  1.8608  0.3399
 6152SOL     OW29914   0.474   4.131  15.693  0.1599 -0.3226 -0.3520
 6152SOL    HW129915   0.435   4.095  15.773  0.1201  0.7248  0.1052
 6152SOL    HW229916   0.426   4.088  15.623 -0.2883  0.0584 -0.2765
 6153SOL     OW29917   4.272   4.571   5.230 -0.3939 -0.1507  0.8773
 6153SOL    HW129918   4.216   4.644   5.204  0.5407 -0.3540 -1.6264
 6153SOL    HW229919   4.296   4.536   5.145  2.5165  1.1302  1.1811
 6154SOL     OW29920   4.036   1.316  17.379 -0.6964  0.9642 -0.2266
 6154SOL    HW129921   4.036   1.363  17.463 -0.7530 -0.2701  0.4537
 6154SOL    HW229922   4.083   1.375  17.320  0.4201 -1.6644 -1.9511
 6155SOL     OW29923   3.334   4.491   5.405  0.5622  0.0609  0.3400
 6155SOL    HW129924   3.279   4.563   5.373  0.9222 -0.4416 -1.4499
 6155SOL    HW229925   3.359   4.529   5.489  0.7176  1.0523 -0.1498
 6156SOL     OW29926   4.362   2.191   8.380  0.2928  0.7574  0.3199
 6156SOL    HW129927   4.369   2.098   8.360 -0.4205  0.7447  0.1195
 6156SOL    HW229928   4.350   2.233   8.295 -0.3605  1.6196  0.8431
 6157SOL     OW29929   0.728   1.952   8.020 -0.1322  0.0125 -0.7434
 6157SOL    HW129930   0.733   1.906   8.104 -1.9623  1.5910  0.2366
 6157SOL    HW229931   0.652   2.008   8.035 -1.1551 -1.7006  0.4496
 6158SOL     OW29932   4.001   0.102   7.192 -0.1774  0.4721  0.2203
 6158SOL    HW129933   3.944   0.031   7.221 -0.4204  1.1142  1.3422
 6158SOL    HW229934   3.965   0.164   7.255 -0.4249  0.3310  0.2184
 6159SOL     OW29935   0.726   3.415   8.307  0.0999 -0.2505 -0.3608
 6159SOL    HW129936   0.775   3.425   8.389  0.0394  1.1809 -0.5058
 6159SOL    HW229937   0.793   3.433   8.241 -0.0265 -0.0374 -0.4320
 6160SOL     OW29938   1.046   2.679  15.914  0.4274 -0.3808 -0.1336
 6160SOL    HW129939   1.061   2.585  15.923 -2.8073 -1.0281 -1.4068
 6160SOL    HW229940   1.133   2.700  15.880  0.1341  1.2095  0.0815
 6161SOL     OW29941   3.042   3.505  17.660 -0.3419  0.3833 -0.4722
 6161SOL    HW129942   3.085   3.527  17.578 -2.2168 -0.4527 -1.6874
 6161SOL    HW229943   2.962   3.467  17.623  1.0603 -0.3403 -2.7206
 6162SOL     OW29944   3.326   3.656  17.208 -0.9138 -0.1977 -0.3142
 6162SOL    HW129945   3.274   3.729  17.176  0.8729  0.3656 -1.9598
 6162SOL    HW229946   3.300   3.585  17.150  0.6564  0.2099 -1.5207
 6163SOL     OW29947   2.642   2.778   5.561 -0.2361 -0.3940 -0.4400
 6163SOL    HW129948   2.630   2.683   5.559 -0.1117 -0.3718 -2.1681
 6163SOL    HW229949   2.554   2.815   5.562 -0.4628 -0.8470 -3.2690
 6164SOL     OW29950   1.551   3.627   8.898 -0.3826  0.5029 -0.0458
 6164SOL    HW129951   1.619   3.658   8.957 -0.4141  1.6288 -0.6105
 6164SOL    HW229952   1.581   3.665   8.815 -0.7896  0.2599 -0.3082
 6165SOL     OW29953   1.091   1.762   4.027 -0.0584  0.0024 -0.0796
 6165SOL    HW129954   1.065   1.802   3.944  0.4026  0.4588 -0.0042
 6165SOL    HW229955   1.134   1.688   3.984  0.5763 -0.1949  0.8951
 6166SOL     OW29956   3.166   0.296   9.489 -0.2225 -0.4101 -0.0157
 6166SOL    HW129957   3.204   0.290   9.401 -0.0170 -3.0009  0.2518
 6166SOL    HW229958   3.082   0.253   9.472  0.1020 -1.3911  0.8706
 6167SOL     OW29959   3.788   1.540   1.406  0.5888  0.5769 -0.2480
 6167SOL    HW129960   3.751   1.549   1.318 -3.4064 -0.6829  1.2985
 6167SOL    HW229961   3.832   1.457   1.420 -1.1712 -0.2195  0.4916
 6168SOL     OW29962   1.891   3.022   4.213  0.4762  0.1997 -0.0515
 6168SOL    HW129963   1.954   3.029   4.141  0.8400 -3.3600 -0.0630
 6168SOL    HW229964   1.824   3.088   4.195  1.1270  0.9518  0.3007
 6169SOL     OW29965   0.000   1.106   6.180 -0.1609 -0.1347  0.2896
 6169SOL    HW129966   0.038   1.020   6.164 -2.0385 -0.7324 -0.9300
 6169SOL    HW229967   0.026   1.151   6.099  1.3953  1.8618  1.8987
 6170SOL     OW29968   0.175   4.264   2.684  0.1318  0.6064  0.4494
 6170SOL    HW129969   0.210   4.345   2.647  1.8024 -0.3919 -0.1173
 6170SOL    HW229970   0.250   4.205   2.687 -0.1600  0.1826 -0.4545
 6171SOL     OW29971   2.643   0.525   5.947  0.2884 -0.0431 -0.2812
 6171SOL    HW129972   2.673   0.561   6.031  0.2696  0.6224 -0.5642
 6171SOL    HW229973   2.647   0.601   5.890 -3.9866 -0.7988 -1.6148
 6172SOL     OW29974   0.175   3.787   3.728  0.1721 -0.4415 -0.1010
 6172SOL    HW129975   0.205   3.718   3.786  2.0054  1.5592  1.3576
 6172SOL    HW229976   0.117   3.737   3.672  1.1767 -0.1751 -1.3866
 6173SOL     OW29977   1.707   0.975   2.287 -0.8976 -0.2099  0.1690
 6173SOL    HW129978   1.677   0.916   2.218 -1.5421  0.2216  0.0904
 6173SOL    HW229979   1.731   0.917   2.360 -1.6667 -0.2765  0.3677
 6174SOL     OW29980   3.367   2.478   7.637 -0.4075 -0.4778 -0.7941
 6174SOL    HW129981   3.418   2.531   7.699 -0.5002 -1.8893  0.5080
 6174SOL    HW229982   3.343   2.542   7.571 -1.6693  2.0044  2.0690
 6175SOL     OW29983   2.877   3.443   3.904 -0.8482 -0.4871  0.0592
 6175SOL    HW129984   2.842   3.472   3.988 -0.2272 -0.7851  0.4225
 6175SOL    HW229985   2.795   3.437   3.856  0.2341 -0.6905 -1.7678
 6176SOL     OW29986   1.416   3.101  15.038 -0.2238 -0.1582 -0.1565
 6176SOL    HW129987   1.398   3.098  14.944  0.8508 -1.1740 -0.3254
 6176SOL    HW229988   1.328   3.109  15.076  0.1184 -0.4423  0.7119
 6177SOL     OW29989   3.585   3.005  14.410  0.3373 -0.3822  0.0647
 6177SOL    HW129990   3.640   3.013  14.488  0.0287 -2.7100  0.5431
 6177SOL    HW229991   3.501   2.995  14.455  0.2495 -1.7994 -0.3920
 6178SOL     OW29992   0.818   2.565   2.781 -0.0612 -0.2743 -0.4346
 6178SOL    HW129993   0.889   2.501   2.783 -0.3860 -0.6412 -0.5488
 6178SOL    HW229994   0.834   2.597   2.692 -1.1601  2.2667  0.2853
 6179SOL     OW29995   1.093   1.924   7.710 -0.3878  0.1814 -0.2527
 6179SOL    HW129996   1.160   1.939   7.644 -0.2123 -1.0352 -0.3502
 6179SOL    HW229997   1.011   1.921   7.660  0.3238 -1.2896 -1.3361
 6180SOL     OW29998   4.603   2.038   3.318  0.2176 -0.1400 -0.2853
 6180SOL    HW129999   4.659   2.053   3.242 -0.2674  0.9941 -0.4080
 6180SOL    HW230000   4.657   1.980   3.372  0.4053  1.0142  0.7697
 6181SOL     OW30001   3.029   3.346   2.587  0.8534 -0.2821 -0.4472
 6181SOL    HW130002   2.934   3.359   2.595  0.9851  0.3209  0.1067
 6181SOL    HW230003   3.046   3.254   2.569 -1.5672 -0.4765 -1.7440
 6182SOL     OW30004   2.206   2.781  11.484  0.4578 -0.0029 -0.3505
 6182SOL    HW130005   2.253   2.839  11.543 -0.3476 -2.3368  2.6171
 6182SOL    HW230006   2.267   2.710  11.464 -1.4363 -1.1838 -2.0392
 6183SOL     OW30007   4.047   4.255   1.778  0.1491  0.2212 -0.3847
 6183SOL    HW130008   4.068   4.169   1.741  0.6503 -0.0843  0.6129
 6183SOL    HW230009   3.972   4.219   1.825 -0.1929 -0.6942 -1.6365
 6184SOL     OW30010   0.582   1.011   6.861  0.3320  0.7281 -0.0791
 6184SOL    HW130011   0.603   0.990   6.952 -3.0493 -0.6082  0.4110
 6184SOL    HW230012   0.487   1.025   6.868  0.1032 -0.5308 -0.7201
 6185SOL     OW30013   4.161   4.628   2.049 -0.1378 -0.2659  0.8359
 6185SOL    HW130014   4.243   4.626   2.100 -0.6389 -0.9761  1.6241
 6185SOL    HW230015   4.120   4.548   2.083  0.0211 -0.1678  1.2542
 6186SOL     OW30016   3.256   1.742   5.005  0.0338 -0.0469  0.7488
 6186SOL    HW130017   3.177   1.772   4.961  0.4822  0.5051  0.3171
 6186SOL    HW230018   3.266   1.652   4.973  1.2603 -0.4187  2.1493
 6187SOL     OW30019   3.102   2.022   3.293  0.4841 -0.2134 -0.4592
 6187SOL    HW130020   3.021   1.971   3.291  1.0723 -1.2461  2.2826
 6187SOL    HW230021   3.162   1.949   3.311 -1.1120 -0.5785  3.2391
 6188SOL     OW30022   2.618   0.376   2.066  0.7450 -0.6908  0.3083
 6188SOL    HW130023   2.537   0.330   2.089  0.8379 -0.7398  0.5335
 6188SOL    HW230024   2.665   0.347   2.144  3.3960  0.8874 -0.7006
 6189SOL     OW30025   1.044   2.309   3.462 -0.7122  0.3747 -0.0358
 6189SOL    HW130026   1.009   2.374   3.400 -0.3333 -1.7122 -2.4055
 6189SOL    HW230027   1.113   2.270   3.409  0.4337  1.8787  0.3574
 6190SOL     OW30028   2.978   3.760   2.182  0.7751 -0.8456  0.3849
 6190SOL    HW130029   2.924   3.836   2.205  0.9821 -0.0279 -1.7625
 6190SOL    HW230030   2.922   3.687   2.204  1.4651 -1.2968  0.6415
 6191SOL     OW30031   0.172   0.076   9.865 -0.1020 -0.3515 -0.5048
 6191SOL    HW130032   0.105   0.022   9.820  0.2314 -1.6047  0.5104
 6191SOL    HW230033   0.241   0.011   9.875 -1.6138 -2.1225 -1.3926
 6192SOL     OW30034   1.188   1.535  13.145  0.3059 -0.0433  0.0214
 6192SOL    HW130035   1.219   1.490  13.067 -0.3406  1.3469 -1.0375
 6192SOL    HW230036   1.171   1.461  13.203  2.7683 -0.3162  0.4129
 6193SOL     OW30037   4.243   2.495   2.250  0.1040 -0.7142  0.3384
 6193SOL    HW130038   4.154   2.467   2.227  1.7957 -2.6397 -3.9701
 6193SOL    HW230039   4.292   2.412   2.248  2.1076  0.4968 -1.2391
 6194SOL     OW30040   4.052   2.673   3.316  0.0703 -0.1131 -0.1721
 6194SOL    HW130041   4.071   2.723   3.237 -1.3677 -0.5929 -0.8343
 6194SOL    HW230042   4.129   2.696   3.368  0.6801 -0.6478 -0.8373
 6195SOL     OW30043   1.475   3.334   0.312  0.3051 -0.1282 -0.2783
 6195SOL    HW130044   1.451   3.359   0.223 -0.4815 -1.9439 -0.5542
 6195SOL    HW230045   1.461   3.422   0.347  1.1349 -0.6419  1.3314
 6196SOL     OW30046   1.190   4.482   5.316  0.7340 -0.1694 -0.4271
 6196SOL    HW130047   1.186   4.533   5.235  2.8463  0.2729 -0.2587
 6196SOL    HW230048   1.176   4.392   5.285  0.0152  1.2456 -4.2022
 6197SOL     OW30049   0.328   3.374   5.175 -0.1021  0.0840 -0.0909
 6197SOL    HW130050   0.398   3.438   5.167 -2.0606  2.1804 -0.5341
 6197SOL    HW230051   0.359   3.320   5.102 -3.8558  0.3053 -1.8872
 6198SOL     OW30052   4.102   4.111   9.101  0.4484 -0.1148 -0.3470
 6198SOL    HW130053   4.157   4.121   9.179  1.1844  2.9969 -1.2920
 6198SOL    HW230054   4.023   4.148   9.139 -0.4071 -0.7425 -1.5131
 6199SOL     OW30055   3.500   0.778   3.926  0.2893 -0.2165  0.4276
 6199SOL    HW130056   3.471   0.778   3.834 -2.9219 -2.1224  1.4399
 6199SOL    HW230057   3.584   0.824   3.920  0.3066 -0.2877  0.0938
 6200SOL     OW30058   2.711   1.660   2.613  0.1067  0.0706 -0.1727
 6200SOL    HW130059   2.739   1.696   2.698  1.6430 -2.1559  0.2771
 6200SOL    HW230060   2.765   1.583   2.599 -1.2600 -0.7551 -0.8227
 6201SOL     OW30061   0.359   1.529   3.264  0.3010 -0.1213  0.8757
 6201SOL    HW130062   0.398   1.595   3.321 -0.3218 -1.4011  2.7657
 6201SOL    HW230063   0.433   1.523   3.203  0.1200 -1.5270  0.8031
 6202SOL     OW30064   3.615   2.132   5.430 -0.3288  0.2726 -0.0912
 6202SOL    HW130065   3.562   2.153   5.353 -2.7276 -1.9421  0.9395
 6202SOL    HW230066   3.619   2.038   5.419  1.6386  0.1011  1.9290
 6203SOL     OW30067   0.192   3.307   8.918  0.1270  0.1022 -0.1135
 6203SOL    HW130068   0.244   3.371   8.968  2.1139 -2.1215  0.6485
 6203SOL    HW230069   0.119   3.368   8.902 -0.3737 -0.5659 -0.3526
 6204SOL     OW30070   3.572   2.938  16.245 -0.5892 -0.1074 -0.7411
 6204SOL    HW130071   3.482   2.969  16.255 -0.0342  1.6385 -1.1651
 6204SOL    HW230072   3.560   2.859  16.191 -4.4173 -0.7461  1.0734
 6205SOL     OW30073   1.734   0.980   5.575  0.1017  0.1125  0.1317
 6205SOL    HW130074   1.761   1.029   5.498  0.0672  1.3880  0.9447
 6205SOL    HW230075   1.803   1.014   5.632 -2.1346  0.9604  2.3017
 6206SOL     OW30076   1.904   2.918   6.296  0.0935  0.0124 -0.0624
 6206SOL    HW130077   1.925   2.976   6.369 -0.5870 -1.5830  1.4058
 6206SOL    HW230078   1.945   2.835   6.322 -0.0216  0.9044  3.0131
 6207SOL     OW30079   2.735   4.188   3.092 -0.0980  0.7471 -0.0978
 6207SOL    HW130080   2.741   4.141   3.176  0.6468 -0.1311 -0.6435
 6207SOL    HW230081   2.666   4.135   3.053  1.3809  1.7406 -4.0184
 6208SOL     OW30082   4.030   1.441   4.945 -0.4592 -0.1117  0.2114
 6208SOL    HW130083   3.942   1.471   4.921 -0.4737  0.8187  1.4374
 6208SOL    HW230084   4.038   1.485   5.029  1.3340 -0.4713  0.2358
 6209SOL     OW30085   0.802   1.357   1.452 -0.2395  0.3961  0.2624
 6209SOL    HW130086   0.855   1.400   1.385  2.9736 -1.4254  1.6170
 6209SOL    HW230087   0.739   1.310   1.397 -0.3624  2.9356 -1.7823
 6210SOL     OW30088   2.424   2.187  13.985  0.2415 -0.1078 -0.1973
 6210SOL    HW130089   2.372   2.235  13.921 -1.1654 -1.9036 -0.3899
 6210SOL    HW230090   2.377   2.205  14.066 -0.0700  2.0560 -0.8717
 6211SOL     OW30091   3.436   1.814   8.846  0.0793 -0.0485 -0.3787
 6211SOL    HW130092   3.443   1.909   8.851 -0.1142 -0.0513 -0.0327
 6211SOL    HW230093   3.526   1.782   8.848 -0.0412 -0.4405 -1.3379
 6212SOL     OW30094   2.079   4.052   5.680 -0.3452  0.0509 -0.6045
 6212SOL    HW130095   1.986   4.055   5.657 -0.5327  2.7569  0.5385
 6212SOL    HW230096   2.111   4.003   5.604 -1.5172 -2.1452  0.3147
 6213SOL     OW30097   2.098   1.799   4.563  0.5208 -0.0047  0.3424
 6213SOL    HW130098   2.103   1.704   4.559  0.9057 -0.0383  1.7775
 6213SOL    HW230099   2.062   1.818   4.476 -1.3304 -0.5073  1.0018
 6214SOL     OW30100   1.784   4.212   3.154  0.0132  0.4995  0.2117
 6214SOL    HW130101   1.801   4.272   3.081  2.7665  2.5616  2.5339
 6214SOL    HW230102   1.755   4.270   3.225  1.4574  1.8468 -0.2886
 6215SOL     OW30103   1.017   3.522  14.230 -0.1448 -0.0969 -0.0178
 6215SOL    HW130104   1.058   3.552  14.311  2.8242 -2.8908 -0.4864
 6215SOL    HW230105   0.965   3.446  14.254  0.3390 -0.4334 -0.0367
 6216SOL     OW30106   0.232   0.220   8.051  0.4908 -0.3236  0.2951
 6216SOL    HW130107   0.274   0.304   8.033 -2.5638  0.8494 -1.5455
 6216SOL    HW230108   0.145   0.251   8.078 -0.2468 -0.7066 -1.6727
 6217SOL     OW30109   1.288   3.719  17.290  0.5392 -0.0935  0.3077
 6217SOL    HW130110   1.332   3.801  17.267 -0.9367  0.3885 -0.8258
 6217SOL    HW230111   1.349   3.678  17.350 -1.3352 -0.5289  1.9115
 6218SOL     OW30112   0.475   0.458   8.238 -0.1510 -0.5372 -0.2309
 6218SOL    HW130113   0.388   0.428   8.214 -0.5256 -1.3978  2.1652
 6218SOL    HW230114   0.524   0.385   8.202 -0.3004 -0.6827 -0.1392
 6219SOL     OW30115   0.801   1.191  12.530  0.5228  0.2034  0.7093
 6219SOL    HW130116   0.795   1.181  12.436  0.5598  2.9051  0.4073
 6219SOL    HW230117   0.897   1.199  12.536  0.5551  0.5985 -0.3512
 6220SOL     OW30118   3.430   0.259   8.877  0.0381  0.5945  0.4178
 6220SOL    HW130119   3.433   0.253   8.972  0.2586  1.6096  0.4753
 6220SOL    HW230120   3.357   0.320   8.882 -0.9733 -0.4789 -0.9732
 6221SOL     OW30121   1.631   1.171  12.984  0.1123 -0.1216 -0.1382
 6221SOL    HW130122   1.614   1.213  12.900  2.4141 -1.4316 -1.2670
 6221SOL    HW230123   1.700   1.228  13.019  1.5620 -1.5274 -0.7400
 6222SOL     OW30124   1.221   2.317   5.029 -0.5861 -0.0281  0.0900
 6222SOL    HW130125   1.140   2.275   5.058 -0.8920 -0.1911 -1.0103
 6222SOL    HW230126   1.191   2.349   4.944  0.1951  1.3199  0.3252
 6223SOL     OW30127   2.508   2.064  13.477  0.2784 -0.2401 -0.0813
 6223SOL    HW130128   2.488   2.080  13.384 -1.1197 -0.4676  0.1759
 6223SOL    HW230129   2.433   2.105  13.520  0.7924  2.0263 -1.2884
 6224SOL     OW30130   3.325   0.239   3.986 -0.5559  0.2850 -0.4588
 6224SOL    HW130131   3.354   0.149   3.970 -1.2676  0.0919 -0.6548
 6224SOL    HW230132   3.239   0.257   3.949 -1.3397  0.3297  1.3996
 6225SOL     OW30133   1.772   4.636  17.469 -0.0973 -0.1921 -0.2938
 6225SOL    HW130134   1.841   4.684  17.515 -0.1082 -0.3833 -0.0757
 6225SOL    HW230135   1.695   4.660  17.522  0.0839  0.4501 -0.3164
 6226SOL     OW30136   0.784   3.730  17.401  0.2579  0.6083  0.0364
 6226SOL    HW130137   0.735   3.716  17.319  1.5719 -1.1902 -0.4449
 6226SOL    HW230138   0.865   3.768  17.368  0.5911  0.4604  0.6953
 6227SOL     OW30139   0.245   1.639  13.225  0.1025  0.1555 -0.0907
 6227SOL    HW130140   0.259   1.554  13.183  1.4078  0.8274 -1.0086
 6227SOL    HW230141   0.190   1.608  13.297  1.8825  1.4764  1.8490
 6228SOL     OW30142   2.131   2.583   2.910 -0.3317 -0.3744  0.0950
 6228SOL    HW130143   2.051   2.589   2.856  0.6211 -1.8560 -1.4692
 6228SOL    HW230144   2.196   2.585   2.839  0.5574 -2.4742  0.8721
 6229SOL     OW30145   0.615   1.669   1.014 -0.4232  0.4722 -0.0241
 6229SOL    HW130146   0.581   1.722   1.085  1.2056 -1.8877  2.5075
 6229SOL    HW230147   0.690   1.716   0.977  2.5046 -4.2843 -0.1747
 6230SOL     OW30148   3.328   2.768   4.146  0.2445 -0.0577  0.4806
 6230SOL    HW130149   3.379   2.760   4.227  0.4511 -1.5015  0.2117
 6230SOL    HW230150   3.368   2.695   4.098 -2.5605  0.1050 -2.1433
 6231SOL     OW30151   3.317   4.477   3.005 -0.1053  0.2255  0.0941
 6231SOL    HW130152   3.249   4.464   3.072 -1.7060  1.2487 -1.3496
 6231SOL    HW230153   3.287   4.426   2.930  0.2057  0.9057 -0.4863
 6232SOL     OW30154   0.097   2.000   7.116 -0.1555 -0.2013  0.3171
 6232SOL    HW130155   0.145   1.936   7.169 -1.4166 -1.4872 -0.0996
 6232SOL    HW230156   0.166   2.064   7.099 -0.3580  0.1580  0.8676
 6233SOL     OW30157   1.616   1.601   6.316  0.1068  0.1185  0.2967
 6233SOL    HW130158   1.583   1.683   6.352 -2.0233 -1.1050  1.1146
 6233SOL    HW230159   1.673   1.571   6.387  0.0637 -2.6785 -0.8482
 6234SOL     OW30160   4.180   1.196  13.626 -0.2056 -0.3352  0.5772
 6234SOL    HW130161   4.150   1.274  13.579  1.4683 -1.1950 -1.8844
 6234SOL    HW230162   4.170   1.228  13.716 -0.5846 -1.1292  0.8213
 6235SOL     OW30163   3.453   4.215   6.428  0.3600 -0.0636  0.9107
 6235SOL    HW130164   3.486   4.294   6.384  0.3705 -0.2569  0.5679
 6235SOL    HW230165   3.383   4.251   6.482 -0.2876  1.1911 -0.7629
 6236SOL     OW30166   3.085   1.962  13.841 -0.2833  0.1150 -0.0314
 6236SOL    HW130167   3.143   1.891  13.868  0.6518  1.4881  1.5839
 6236SOL    HW230168   3.070   1.934  13.751 -1.7644 -0.3159  0.3548
 6237SOL     OW30169   3.033   1.118   8.256 -0.4106 -0.0987 -0.2378
 6237SOL    HW130170   3.064   1.047   8.313 -2.0186 -1.2667 -0.8104
 6237SOL    HW230171   2.976   1.170   8.312 -0.5709 -1.1523  0.5793
 6238SOL     OW30172   3.323   4.047   9.110  0.1656  0.7906 -0.0760
 6238SOL    HW130173   3.408   4.047   9.155  0.0184 -0.7220  0.1930
 6238SOL    HW230174   3.272   3.982   9.158  0.8119  0.9159  0.7925
 6239SOL     OW30175   1.308   3.450   7.160  0.7213  0.2109  0.2786
 6239SOL    HW130176   1.263   3.497   7.090 -1.4831 -0.5702  1.1713
 6239SOL    HW230177   1.395   3.489   7.156  0.7862 -0.0450 -0.7455
 6240SOL     OW30178   3.790   0.515  17.361 -0.0727  0.0434  0.6643
 6240SOL    HW130179   3.749   0.482  17.441 -1.2106 -1.2736 -0.4711
 6240SOL    HW230180   3.783   0.442  17.299 -0.6999  0.4929  0.2065
 6241SOL     OW30181   2.143   2.777   6.526 -0.1266  0.5136 -0.1911
 6241SOL    HW130182   2.201   2.788   6.451 -0.5463  0.4703 -0.5198
 6241SOL    HW230183   2.176   2.842   6.589  2.0938 -1.1488  0.3650
 6242SOL     OW30184   1.794   1.110   7.386  0.0079 -0.3794  0.5469
 6242SOL    HW130185   1.827   1.074   7.303 -0.1998  1.4770 -0.3322
 6242SOL    HW230186   1.778   1.035   7.443  2.8335 -0.3058  1.4235
 6243SOL     OW30187   1.118   3.727   8.088  0.0763 -0.4249  0.2563
 6243SOL    HW130188   1.115   3.730   7.992  2.5029  0.2795  0.2046
 6243SOL    HW230189   1.210   3.753   8.099 -0.0868  1.0870 -1.7636
 6244SOL     OW30190   2.315   2.876  17.041  0.4758 -0.1037 -0.4122
 6244SOL    HW130191   2.397   2.852  17.086  0.4066 -0.1586 -0.3154
 6244SOL    HW230192   2.332   2.841  16.953  0.0809  1.1103 -0.9592
 6245SOL     OW30193   4.429   1.203   1.871  0.2650  0.3000  0.0508
 6245SOL    HW130194   4.407   1.264   1.800  1.6198 -1.3481 -1.7803
 6245SOL    HW230195   4.341   1.196   1.908  0.2927  0.3133  0.1196
 6246SOL     OW30196   1.664   3.133   3.279  0.2659  0.1842 -0.8800
 6246SOL    HW130197   1.687   3.200   3.214  1.5484 -0.0013 -0.6219
 6246SOL    HW230198   1.569   3.141   3.270  0.2001  1.7036  1.3314
 6247SOL     OW30199   2.666   4.656   6.592  0.0496 -0.2784  0.3170
 6247SOL    HW130200   2.582   4.638   6.549  0.9398 -1.0601 -1.0916
 6247SOL    HW230201   2.683   4.580   6.648 -1.1097 -0.7703 -0.0017
 6248SOL     OW30202   3.551   3.741  14.882  0.7040 -0.4770 -0.2693
 6248SOL    HW130203   3.590   3.767  14.799  0.4705 -0.2533 -0.3072
 6248SOL    HW230204   3.488   3.672  14.860 -0.0785 -0.3206  1.5093
 6249SOL     OW30205   2.721   4.548   7.596  0.3279 -0.3972  0.4547
 6249SOL    HW130206   2.754   4.492   7.526  1.3012 -0.7285  1.1785
 6249SOL    HW230207   2.773   4.520   7.672 -0.1556  2.7760  1.9857
 6250SOL     OW30208   3.684   2.603  14.156  0.1547  0.3062  0.1656
 6250SOL    HW130209   3.608   2.545  14.166 -2.1078  3.6289  2.0223
 6250SOL    HW230210   3.730   2.609  14.239  1.0119  1.8300 -0.4241
 6251SOL     OW30211   2.797   0.863   4.876  0.8541 -0.4631  0.2794
 6251SOL    HW130212   2.873   0.830   4.924  0.7986  0.8533  1.2868
 6251SOL    HW230213   2.736   0.790   4.880 -1.2761  1.4430  2.5720
 6252SOL     OW30214   3.876   0.685   7.638  0.3549 -0.7745  0.0729
 6252SOL    HW130215   3.796   0.735   7.655  0.3995 -1.5094  2.3431
 6252SOL    HW230216   3.913   0.671   7.725  1.7357  0.5479 -0.3072
 6253SOL     OW30217   4.150   1.000   1.792 -0.0873  0.6350 -0.2258
 6253SOL    HW130218   4.202   0.920   1.788  0.6530  1.0050  2.4825
 6253SOL    HW230219   4.074   0.977   1.738 -1.2241  3.9002 -0.0197
 6254SOL     OW30220   0.383   4.240   5.735 -0.1801  0.3062 -0.3114
 6254SOL    HW130221   0.289   4.239   5.754 -0.1687  1.1347 -0.1962
 6254SOL    HW230222   0.415   4.195   5.814 -0.7252  1.7916  0.7669
 6255SOL     OW30223   0.701   0.920   6.542 -0.3973 -0.1859  0.4260
 6255SOL    HW130224   0.675   0.871   6.620  1.8903 -1.1117  0.6095
 6255SOL    HW230225   0.617   0.952   6.510 -0.4738  0.1922  1.0135
 6256SOL     OW30226   3.612   4.624   8.182  0.2623 -0.2189  0.0388
 6256SOL    HW130227   3.520   4.602   8.200  0.0109  0.5096 -0.3386
 6256SOL    HW230228   3.642   4.650   8.268 -1.0117  0.4644  0.2846
 6257SOL     OW30229   3.173   0.823   0.465 -0.3989  0.1314  0.6117
 6257SOL    HW130230   3.093   0.783   0.500  0.5274 -2.3979 -0.1736
 6257SOL    HW230231   3.203   0.887   0.530  0.7599 -1.0445  1.2104
 6258SOL     OW30232   3.246   1.820   9.356 -0.5101  0.1193  0.0535
 6258SOL    HW130233   3.240   1.825   9.260 -0.5328 -0.8309  0.0051
 6258SOL    HW230234   3.325   1.768   9.368  0.3407  1.0975 -1.2615
 6259SOL     OW30235   3.735   3.499  10.107  0.0773  0.1278  0.0645
 6259SOL    HW130236   3.758   3.519  10.198 -0.8815 -4.8463  1.3587
 6259SOL    HW230237   3.644   3.523  10.092 -0.2391  0.4005  2.4228
 6260SOL     OW30238   3.304   4.262   5.054 -0.5339  0.0762  0.3396
 6260SOL    HW130239   3.322   4.199   5.124 -0.0931 -0.5672 -0.3561
 6260SOL    HW230240   3.301   4.207   4.976  1.1500  1.5344 -0.7134
 6261SOL     OW30241   0.325   1.251   4.988 -0.1317  0.4529 -0.4381
 6261SOL    HW130242   0.301   1.318   4.924 -0.2347 -0.8256 -1.7356
 6261SOL    HW230243   0.374   1.196   4.926  0.7710  0.1082  0.5883
 6262SOL     OW30244   2.325   2.782   4.710  0.4831  0.4656 -0.1087
 6262SOL    HW130245   2.295   2.700   4.750  4.3605 -1.4863 -1.1475
 6262SOL    HW230246   2.341   2.764   4.617  1.9655 -0.1468  0.2715
 6263SOL     OW30247   3.895   0.451   0.112 -0.4837  0.5014 -0.0133
 6263SOL    HW130248   3.814   0.501   0.117 -0.7288 -0.0371  1.3749
 6263SOL    HW230249   3.866   0.360   0.106  0.2264  0.3154 -0.6770
 6264SOL     OW30250   0.804   0.133   0.307 -0.2312  0.4187 -0.1389
 6264SOL    HW130251   0.786   0.044   0.277  0.4769 -0.2903  1.5804
 6264SOL    HW230252   0.896   0.137   0.279 -0.4738  0.7355 -0.8936
 6265SOL     OW30253   1.745   1.968   5.189  0.2641  0.0630  0.1455
 6265SOL    HW130254   1.674   1.959   5.126  0.5889 -1.7280  0.0260
 6265SOL    HW230255   1.816   2.004   5.137 -0.3682 -1.2575 -1.6030
 6266SOL     OW30256   0.368   0.157   3.262 -0.0970  0.1110  0.1924
 6266SOL    HW130257   0.366   0.067   3.231  0.5642  0.3137 -0.4519
 6266SOL    HW230258   0.330   0.144   3.349 -0.6527 -0.5033 -0.1447
 6267SOL     OW30259   0.790   3.117   4.479  0.2823 -0.2362 -0.5850
 6267SOL    HW130260   0.864   3.111   4.540 -0.5864  0.0381  0.4864
 6267SOL    HW230261   0.743   3.034   4.471 -2.2339  1.2753 -1.3762
 6268SOL     OW30262   1.603   3.168   3.875 -0.3866 -0.1201 -0.1890
 6268SOL    HW130263   1.521   3.179   3.826 -0.4033 -1.1816 -0.3955
 6268SOL    HW230264   1.641   3.090   3.834  2.4757  0.5635  1.1643
 6269SOL     OW30265   3.986   2.512  14.561 -0.0447 -0.0577  0.4230
 6269SOL    HW130266   4.051   2.486  14.626 -0.9645  0.1423  1.4306
 6269SOL    HW230267   4.036   2.573  14.506  1.4558 -1.3120  0.4058
 6270SOL     OW30268   3.464   0.701  17.234 -0.0632  0.3474 -0.3815
 6270SOL    HW130269   3.539   0.758  17.247 -0.2659  0.7517 -0.9753
 6270SOL    HW230270   3.394   0.739  17.288  1.7145 -0.4207  2.4275
 6271SOL     OW30271   1.639   3.130   2.399 -0.5421  0.0512 -0.2791
 6271SOL    HW130272   1.549   3.151   2.373 -0.0851  1.7229 -0.5527
 6271SOL    HW230273   1.693   3.178   2.335  0.8901  0.4351  1.2003
 6272SOL     OW30274   0.735   3.223   6.912 -0.3717  0.0960 -0.2358
 6272SOL    HW130275   0.784   3.141   6.909  1.6992  1.2958  1.1273
 6272SOL    HW230276   0.703   3.229   6.822  2.3999  1.5653 -1.1379
 6273SOL     OW30277   0.621   2.160   5.998  0.4682  0.2971  0.2875
 6273SOL    HW130278   0.645   2.078   6.043 -1.6589 -0.7927 -0.5749
 6273SOL    HW230279   0.706   2.204   5.988  0.4476  0.6161  1.4237
 6274SOL     OW30280   2.627   2.928   4.473 -0.4302  0.1186 -0.2591
 6274SOL    HW130281   2.628   2.894   4.563 -1.1644  1.9041  0.4372
 6274SOL    HW230282   2.675   2.861   4.425  0.4565  0.5072  0.0971
 6275SOL     OW30283   0.844   0.159  10.190  0.5562  0.1625 -0.0152
 6275SOL    HW130284   0.819   0.126  10.276 -0.6087 -0.9069 -0.7718
 6275SOL    HW230285   0.920   0.105  10.169  0.3610 -0.6412  1.3142
 6276SOL     OW30286   2.189   3.042  16.719  0.0549  0.0839 -0.2536
 6276SOL    HW130287   2.119   3.098  16.687  1.7434  1.0188 -2.2956
 6276SOL    HW230288   2.248   3.091  16.776  0.0861  0.4543 -0.6093
 6277SOL     OW30289   2.116   2.972   9.885 -0.3684  0.1265 -0.5073
 6277SOL    HW130290   2.123   3.037   9.954  3.6356 -1.7580  0.8381
 6277SOL    HW230291   2.021   2.963   9.880 -0.1873 -0.4065 -2.9627
 6278SOL     OW30292   0.787   4.613   5.485 -0.2505  0.7436 -0.2004
 6278SOL    HW130293   0.881   4.596   5.486  0.0294  2.1771 -1.2669
 6278SOL    HW230294   0.783   4.674   5.559 -1.0600  0.5415 -0.0714
 6279SOL     OW30295   2.295   3.070   9.453 -0.4405  0.1127  0.3797
 6279SOL    HW130296   2.279   3.108   9.539 -0.4454  1.3477 -0.1532
 6279SOL    HW230297   2.291   2.979   9.481  0.0640  0.1718  0.6239
 6280SOL     OW30298   1.757   3.534   7.075 -0.0167 -0.0265 -0.3839
 6280SOL    HW130299   1.717   3.613   7.109 -1.4181 -1.1848  0.6528
 6280SOL    HW230300   1.691   3.467   7.093  0.6262 -0.8846 -1.1614
 6281SOL     OW30301   4.185   3.262   7.781 -0.0689  0.0021 -0.4027
 6281SOL    HW130302   4.101   3.292   7.746  0.3648  2.5347  0.7565
 6281SOL    HW230303   4.166   3.255   7.874  0.8133  2.9428 -0.0090
 6282SOL     OW30304   3.955   3.635   3.552 -0.1899  0.2757  0.0066
 6282SOL    HW130305   3.864   3.655   3.575 -0.8657 -1.3648 -1.2225
 6282SOL    HW230306   4.006   3.625   3.633 -2.1370 -1.2402  1.0605
 6283SOL     OW30307   0.918   2.877  14.441  0.0286 -0.0295  0.6353
 6283SOL    HW130308   0.974   2.912  14.372 -1.4023  1.5899  0.3176
 6283SOL    HW230309   0.982   2.833  14.498  0.5114  1.4654  1.2614
 6284SOL     OW30310   3.540   0.842   2.363  0.0749  0.4276  0.1804
 6284SOL    HW130311   3.538   0.937   2.373  1.5109  0.6135 -1.3892
 6284SOL    HW230312   3.632   0.828   2.342 -0.1149  0.0189 -0.3589
 6285SOL     OW30313   2.024   2.303  16.810 -0.1076  0.3886 -0.9084
 6285SOL    HW130314   2.102   2.258  16.776  0.7028  0.6122  0.6537
 6285SOL    HW230315   1.984   2.337  16.730 -1.7420 -1.9635 -1.0811
 6286SOL     OW30316   3.748   0.182   6.334  0.0335  0.0886 -0.4588
 6286SOL    HW130317   3.729   0.260   6.282 -0.1737  0.7680  0.6441
 6286SOL    HW230318   3.789   0.126   6.267 -0.9163 -1.4058  0.1956
 6287SOL     OW30319   4.406   0.556   3.100 -0.0331 -0.1626 -0.3023
 6287SOL    HW130320   4.336   0.500   3.134 -0.0619 -0.0887 -0.2390
 6287SOL    HW230321   4.471   0.542   3.169  0.5660  1.5447 -0.5068
 6288SOL     OW30322   2.823   4.396   4.341 -0.8096  0.0182 -0.2380
 6288SOL    HW130323   2.879   4.453   4.394 -1.6400  2.6104 -2.1083
 6288SOL    HW230324   2.782   4.345   4.411  1.6681 -0.3281  0.9655
 6289SOL     OW30325   2.768   3.278   2.657 -0.7274 -0.3650  0.3005
 6289SOL    HW130326   2.741   3.235   2.738 -1.5709  2.0955  1.3498
 6289SOL    HW230327   2.692   3.334   2.640  0.1114  0.2847 -1.3468
 6290SOL     OW30328   1.118   0.995   5.666  0.1438 -0.2252  0.2855
 6290SOL    HW130329   1.193   1.052   5.683 -0.1715  0.4150 -0.4598
 6290SOL    HW230330   1.069   1.045   5.601 -1.1603  1.0108  2.2414
 6291SOL     OW30331   1.955   1.052   8.042 -0.4604 -0.7488  0.0386
 6291SOL    HW130332   2.049   1.057   8.026 -1.0975  0.7552 -3.1752
 6291SOL    HW230333   1.955   1.063   8.137  0.4772  1.2350 -0.2057
 6292SOL     OW30334   0.172   2.930   0.342 -0.0327 -0.4144  0.3733
 6292SOL    HW130335   0.089   2.886   0.324  0.8720 -1.0225 -2.2323
 6292SOL    HW230336   0.159   2.969   0.429 -0.7980 -1.7635  0.8637
 6293SOL     OW30337   4.409   1.988   2.328  0.3619 -0.5931 -0.2390
 6293SOL    HW130338   4.502   1.967   2.335  1.2977  3.6712  0.2486
 6293SOL    HW230339   4.367   1.904   2.349 -3.0059  1.0061 -0.6034
 6294SOL     OW30340   1.123   3.552   4.211 -0.7575 -0.2663 -0.0207
 6294SOL    HW130341   1.211   3.520   4.193 -0.7013 -0.7735  1.1832
 6294SOL    HW230342   1.083   3.529   4.127  0.9695 -0.6272 -0.7433
 6295SOL     OW30343   0.138   2.582  12.398  0.6397 -0.1885 -0.1563
 6295SOL    HW130344   0.124   2.660  12.345 -0.7504 -0.2188  0.1634
 6295SOL    HW230345   0.077   2.521  12.358  0.0088 -0.2903  0.9523
 6296SOL     OW30346   0.929   3.020  10.844 -0.1041  0.1736  0.7130
 6296SOL    HW130347   0.948   3.099  10.894  0.1335  1.7928 -1.9273
 6296SOL    HW230348   0.948   2.956  10.912  1.7655 -0.0967 -0.0593
 6297SOL     OW30349   4.335   1.418   1.696 -0.1045 -0.1354  0.3545
 6297SOL    HW130350   4.311   1.501   1.737  0.7493  0.6665 -0.7958
 6297SOL    HW230351   4.396   1.455   1.632 -0.1738 -1.9801 -0.7853
 6298SOL     OW30352   3.818   0.149   1.264 -0.5394  0.3928 -0.3115
 6298SOL    HW130353   3.723   0.159   1.276 -0.6399 -2.0815  0.7494
 6298SOL    HW230354   3.862   0.184   1.341 -0.3432  0.4978 -0.4715
 6299SOL     OW30355   0.624   1.612   9.607  0.5591  0.3060 -0.0383
 6299SOL    HW130356   0.608   1.668   9.683  0.7107 -0.2247  0.3832
 6299SOL    HW230357   0.714   1.580   9.611  1.2627  2.5185  1.4937
 6300SOL     OW30358   0.771   0.232   5.252  0.3465 -0.4911  0.6154
 6300SOL    HW130359   0.848   0.187   5.288  0.3308  1.6001  3.2864
 6300SOL    HW230360   0.695   0.182   5.282 -0.5755  0.0237 -0.9208
 6301SOL     OW30361   1.019   3.258  13.583  0.1449 -0.8910  0.6595
 6301SOL    HW130362   0.953   3.254  13.515 -0.4508 -0.4242  1.2066
 6301SOL    HW230363   1.004   3.173  13.625 -2.5646  0.3191  2.0831
 6302SOL     OW30364   0.946   3.430   6.809 -0.1921  0.1254  0.1443
 6302SOL    HW130365   0.861   3.385   6.815 -0.9707  1.9470  2.3330
 6302SOL    HW230366   0.970   3.437   6.716  1.0329  0.5095  0.4956
 6303SOL     OW30367   4.638   4.194   5.050 -0.2441  0.3860  0.1375
 6303SOL    HW130368   4.632   4.228   4.960 -0.3269  0.7094  0.2678
 6303SOL    HW230369   4.561   4.137   5.055  0.6616 -0.7421  1.0567
 6304SOL     OW30370   1.696   2.080   0.624 -0.0609  0.5399 -0.9368
 6304SOL    HW130371   1.619   2.039   0.664  1.1669 -0.9796 -0.1460
 6304SOL    HW230372   1.693   2.170   0.658  0.8988  0.7045 -1.3074
 6305SOL     OW30373   3.854   1.565   3.729  0.2986 -0.6562 -0.3371
 6305SOL    HW130374   3.913   1.507   3.777 -0.4325 -1.7136 -0.7077
 6305SOL    HW230375   3.773   1.556   3.779  1.0561 -1.8255  0.6841
 6306SOL     OW30376   4.039   0.580   6.476 -0.0973  0.4726  0.2021
 6306SOL    HW130377   4.044   0.519   6.402  1.2516  2.5763 -1.4290
 6306SOL    HW230378   4.053   0.526   6.554 -0.6387 -1.1457 -0.8119
 6307SOL     OW30379   1.413   3.797   8.116 -0.7105 -0.3210  0.2973
 6307SOL    HW130380   1.439   3.889   8.125 -1.8715  0.0240  0.1238
 6307SOL    HW230381   1.474   3.761   8.052 -0.6078  1.1142 -0.4156
 6308SOL     OW30382   0.295   3.628   7.095  0.0946  0.0530  0.2481
 6308SOL    HW130383   0.311   3.683   7.018  0.9196 -0.9347 -0.2956
 6308SOL    HW230384   0.205   3.600   7.079  0.0084  0.9792 -0.9358
 6309SOL     OW30385   1.259   1.129   6.242 -0.4235 -0.0146 -0.0942
 6309SOL    HW130386   1.263   1.210   6.294 -1.5435 -0.9139  1.3740
 6309SOL    HW230387   1.195   1.155   6.176 -1.3286 -0.2000  0.7196
 6310SOL     OW30388   3.559   0.180   5.896  0.7719  0.1023 -0.1429
 6310SOL    HW130389   3.630   0.233   5.860 -0.1286  3.2195  2.6355
 6310SOL    HW230390   3.503   0.184   5.818  1.8739 -0.2731 -0.9430
 6311SOL     OW30391   0.918   2.185   6.021  0.5909 -0.1808 -0.1923
 6311SOL    HW130392   0.953   2.270   5.996  1.5685  0.1215  2.1982
 6311SOL    HW230393   0.999   2.135   6.016 -0.5906 -2.1553  0.3697
 6312SOL     OW30394   1.932   0.172   6.914  0.6074 -0.1577  0.3581
 6312SOL    HW130395   1.939   0.141   6.824  0.0430  1.7870 -0.3606
 6312SOL    HW230396   1.886   0.256   6.913 -1.5633 -1.3356  1.0007
 6313SOL     OW30397   3.186   3.634   4.790  0.3597 -0.0137 -0.2129
 6313SOL    HW130398   3.262   3.576   4.796  1.3204  1.2110 -0.3626
 6313SOL    HW230399   3.146   3.577   4.725  0.6939  0.4260 -0.8030
 6314SOL     OW30400   2.592   0.132  11.388 -0.6263  0.6979 -0.5426
 6314SOL    HW130401   2.643   0.197  11.435 -1.5242  0.5822  0.5717
 6314SOL    HW230402   2.532   0.180  11.330 -3.0146  1.4029  2.5509
 6315SOL     OW30403   0.568   3.239   6.691  0.1799 -0.6117  0.3585
 6315SOL    HW130404   0.646   3.199   6.653 -0.9754 -0.4361 -2.2510
 6315SOL    HW230405   0.537   3.300   6.624 -2.1522 -1.7408  0.3940
 6316SOL     OW30406   4.255   0.773   4.314  0.5222 -0.4670 -0.1967
 6316SOL    HW130407   4.182   0.766   4.376 -0.9274 -0.0859 -1.8729
 6316SOL    HW230408   4.215   0.774   4.227  2.7180 -2.4675 -1.2142
 6317SOL     OW30409   2.501   0.571   6.840 -0.4127 -0.3720  0.5617
 6317SOL    HW130410   2.452   0.616   6.771  1.1720 -0.8331 -0.8619
 6317SOL    HW230411   2.591   0.582   6.813 -0.2229 -0.8098  1.0032
 6318SOL     OW30412   3.691   2.694   8.067  0.2054  0.0428 -0.1182
 6318SOL    HW130413   3.760   2.690   8.002  1.5938  3.5429  1.1410
 6318SOL    HW230414   3.700   2.620   8.126 -0.2606  0.8863  1.0345
 6319SOL     OW30415   4.422   2.481   0.927 -0.4066 -0.7121  0.2255
 6319SOL    HW130416   4.387   2.426   0.857 -1.0447 -0.9717  0.7576
 6319SOL    HW230417   4.391   2.442   1.008  0.8213  2.1744  2.0681
 6320SOL     OW30418   3.468   3.537   6.765  0.3330 -0.2656  0.3511
 6320SOL    HW130419   3.496   3.622   6.732  1.2665 -1.0092 -0.7971
 6320SOL    HW230420   3.385   3.557   6.808  2.5537 -0.9143  4.9541
 6321SOL     OW30421   2.677   3.262   5.307 -0.4404 -0.3209 -0.3920
 6321SOL    HW130422   2.588   3.294   5.294 -0.1983 -0.0397 -1.3352
 6321SOL    HW230423   2.714   3.299   5.227  3.2497 -3.1890  0.0172
 6322SOL     OW30424   2.766   4.194   8.146  0.4997 -0.2962  0.5284
 6322SOL    HW130425   2.719   4.174   8.065 -1.2822  1.9932  1.0051
 6322SOL    HW230426   2.731   4.271   8.191  1.1309  0.0147  0.4836
 6323SOL     OW30427   3.973   3.390  11.051  0.5040 -0.2703  0.3821
 6323SOL    HW130428   3.992   3.394  10.957 -0.8649 -2.1174  0.0189
 6323SOL    HW230429   3.878   3.378  11.042  0.3064  0.7617  1.1133
 6324SOL     OW30430   3.960   3.866  13.755 -0.1288  0.3036 -0.0122
 6324SOL    HW130431   4.048   3.861  13.717  1.1256  2.1100  2.6680
 6324SOL    HW230432   3.960   3.961  13.766  0.9227  0.4164 -0.9415
 6325SOL     OW30433   2.535   3.003   3.005  0.0575  0.0476  0.0162
 6325SOL    HW130434   2.610   2.980   3.060  1.0292  0.0348 -1.2978
 6325SOL    HW230435   2.477   2.928   3.010 -0.0968  0.1721  0.0791
 6326SOL     OW30436   3.460   1.450   9.604 -0.3024 -0.3249  0.0346
 6326SOL    HW130437   3.528   1.503   9.645  0.1635 -1.6716  0.9860
 6326SOL    HW230438   3.451   1.509   9.528  0.9198 -1.3692 -0.9190
 6327SOL     OW30439   2.900   0.374   5.451  0.5875 -0.2729 -0.4812
 6327SOL    HW130440   2.948   0.436   5.506  0.5360 -0.5181 -0.1590
 6327SOL    HW230441   2.821   0.427   5.451  0.4497 -0.4728 -1.0296
 6328SOL     OW30442   1.774   3.619   7.404  0.7384  0.3674  0.4879
 6328SOL    HW130443   1.782   3.712   7.382  0.5520 -0.0462 -1.3118
 6328SOL    HW230444   1.681   3.608   7.421  0.8348 -4.1218 -1.8663
 6329SOL     OW30445   0.665   0.925   3.455  0.0712 -0.0395  0.0989
 6329SOL    HW130446   0.636   0.928   3.363  1.1036  0.7993 -0.1894
 6329SOL    HW230447   0.606   0.990   3.493 -1.1893 -0.5382 -0.9973
 6330SOL     OW30448   2.878   3.431  14.671 -0.0782  0.0271 -0.0879
 6330SOL    HW130449   2.817   3.398  14.604 -1.9463  1.3169  0.9776
 6330SOL    HW230450   2.821   3.462  14.741 -0.1313 -1.8597  0.7150
 6331SOL     OW30451   4.083   3.489   9.454  0.3953 -0.1999 -0.0105
 6331SOL    HW130452   4.084   3.465   9.547 -0.3523 -0.7591 -0.1490
 6331SOL    HW230453   4.178   3.494   9.441  0.5249 -1.5881  0.4219
 6332SOL     OW30454   4.519   4.464  15.310 -0.7728 -0.0068  0.5585
 6332SOL    HW130455   4.586   4.470  15.242  0.3450  0.1037  1.6639
 6332SOL    HW230456   4.535   4.377  15.347 -1.2242  0.2268  1.3050
 6333SOL     OW30457   4.574   3.690   9.479 -0.1196  0.2621  0.1841
 6333SOL    HW130458   4.597   3.606   9.439 -1.4357 -0.6534  1.3245
 6333SOL    HW230459   4.547   3.662   9.567 -1.4683  1.6677  0.2220
 6334SOL     OW30460   3.172   2.178  12.073 -0.1928 -0.3463  0.2651
 6334SOL    HW130461   3.156   2.104  12.016 -1.9156 -0.2502  0.6264
 6334SOL    HW230462   3.171   2.253  12.014  0.2569 -0.0225  0.6612
 6335SOL     OW30463   3.734   4.540   0.886 -0.1483  0.8833  0.3778
 6335SOL    HW130464   3.824   4.573   0.880  0.5106 -1.0155 -0.1994
 6335SOL    HW230465   3.716   4.555   0.979  2.4520 -0.7249  1.1322
 6336SOL     OW30466   1.748   2.352  12.994 -0.2301 -0.3577 -0.6206
 6336SOL    HW130467   1.690   2.418  13.034  1.0483 -1.3765  2.8868
 6336SOL    HW230468   1.791   2.329  13.076 -1.0225  2.6535  0.6460
 6337SOL     OW30469   4.136   4.049   8.829  0.1293  0.0730  0.3349
 6337SOL    HW130470   4.123   4.089   8.915 -0.9305  0.9997 -0.2600
 6337SOL    HW230471   4.186   4.113   8.779 -0.7391 -1.5920 -2.6556
 6338SOL     OW30472   3.531   2.162   3.012  0.3720  0.2744  0.1049
 6338SOL    HW130473   3.491   2.220   3.078 -0.5799  0.2573 -0.4539
 6338SOL    HW230474   3.468   2.174   2.941  2.6113 -0.6068 -2.0064
 6339SOL     OW30475   1.187   1.702   3.150  0.0959  0.2797 -0.3278
 6339SOL    HW130476   1.148   1.730   3.067 -0.4306  3.3785  0.9704
 6339SOL    HW230477   1.239   1.626   3.124  0.4378  0.8151 -1.2129
 6340SOL     OW30478   1.275   1.049  16.436 -0.1630 -0.2677 -0.3822
 6340SOL    HW130479   1.181   1.055  16.418 -0.1664  1.3665  0.1634
 6340SOL    HW230480   1.304   1.002  16.358 -1.6124 -2.7099  0.5531
 6341SOL     OW30481   3.740   2.202  10.447 -0.1265 -0.3608 -0.5943
 6341SOL    HW130482   3.690   2.282  10.436  2.0994  1.2059  0.8237
 6341SOL    HW230483   3.710   2.171  10.532  0.3752  2.9809  0.7663
 6342SOL     OW30484   0.299   3.588   0.691  0.1187  0.2621  0.4070
 6342SOL    HW130485   0.369   3.650   0.674  0.3030  0.1596  0.8010
 6342SOL    HW230486   0.277   3.563   0.601  1.0596 -0.9683  0.5141
 6343SOL     OW30487   4.004   4.714   4.840 -0.1392  0.3083  0.0288
 6343SOL    HW130488   3.923   4.662   4.837 -0.1968  0.4441 -0.6995
 6343SOL    HW230489   3.963   0.079   4.849 -1.1010 -0.1677  0.2823
 6344SOL     OW30490   4.713   2.851   4.282  0.8890 -0.6500 -0.2173
 6344SOL    HW130491   0.031   2.920   4.335 -0.7718  0.9288 -1.0434
 6344SOL    HW230492   4.681   2.791   4.349  1.6704 -1.3023 -0.4151
 6345SOL     OW30493   0.526   2.589   6.448  0.2775 -0.6716 -0.4281
 6345SOL    HW130494   0.463   2.656   6.475  1.1315 -0.6351  1.4659
 6345SOL    HW230495   0.523   2.595   6.352  0.6471 -1.1887 -0.4674
 6346SOL     OW30496   3.027   3.839  16.038 -0.6077 -0.2900 -0.4474
 6346SOL    HW130497   2.969   3.778  15.994 -2.2878 -0.1438  1.5318
 6346SOL    HW230498   3.088   3.841  15.965 -1.9980  1.6373 -1.5545
 6347SOL     OW30499   1.804   4.563   0.422  0.1973  0.2986 -0.7980
 6347SOL    HW130500   1.776   4.645   0.461 -0.8397 -0.0096 -0.8843
 6347SOL    HW230501   1.748   4.499   0.466  1.0698 -0.6267 -1.0251
 6348SOL     OW30502   1.127   1.262   7.976 -0.2778  0.3096  0.2724
 6348SOL    HW130503   1.074   1.205   7.919 -0.1272  1.4349 -1.0039
 6348SOL    HW230504   1.060   1.271   8.044 -0.5832 -1.3013  0.2046
 6349SOL     OW30505   3.222   3.675  16.551 -0.4418  0.5368 -0.1865
 6349SOL    HW130506   3.129   3.651  16.553 -0.6520  1.4745  1.2054
 6349SOL    HW230507   3.230   3.700  16.459  1.4579  2.2464  0.4470
 6350SOL     OW30508   0.562   4.336  15.494  0.0921  0.2725  1.0037
 6350SOL    HW130509   0.539   4.282  15.570  0.0319 -2.0336 -0.6657
 6350SOL    HW230510   0.616   4.277  15.443  0.7217  1.8378 -0.1450
 6351SOL     OW30511   0.649   0.525   6.155  0.4623 -0.5568 -0.1157
 6351SOL    HW130512   0.580   0.492   6.098 -0.6992  0.1297  0.9049
 6351SOL    HW230513   0.628   0.465   6.226 -0.5897 -0.0178  0.0375
 6352SOL     OW30514   2.975   0.489   3.210  0.2834 -0.5015 -0.1675
 6352SOL    HW130515   3.025   0.551   3.264 -1.5201 -0.1157  1.0648
 6352SOL    HW230516   2.983   0.410   3.262 -0.4145  0.5980  1.6031
 6353SOL     OW30517   4.225   0.157   2.930 -0.0108  0.1455 -0.2872
 6353SOL    HW130518   4.222   0.153   3.026  0.5379 -1.8655 -0.3547
 6353SOL    HW230519   4.278   0.080   2.910 -1.3440 -0.4478 -1.5336
 6354SOL     OW30520   2.224   0.857  12.447  0.5221  0.0151 -0.1321
 6354SOL    HW130521   2.167   0.891  12.378  0.4144 -2.0362 -1.0612
 6354SOL    HW230522   2.226   0.766  12.418 -0.5904  0.3796 -1.3628
 6355SOL     OW30523   4.172   2.805  12.373 -0.1170 -0.0692  0.8386
 6355SOL    HW130524   4.234   2.874  12.352 -1.3163 -0.3209 -3.4542
 6355SOL    HW230525   4.231   2.740  12.412 -0.5996 -0.9019  0.1833
 6356SOL     OW30526   4.078   0.033  16.179 -0.3417  0.1511 -0.0549
 6356SOL    HW130527   4.041   4.673  16.146 -0.2419 -0.1854  0.6538
 6356SOL    HW230528   4.148   0.046  16.115 -3.3537  2.6499 -2.8481
 6357SOL     OW30529   1.054   1.063   4.742 -0.2292 -0.0225  0.7061
 6357SOL    HW130530   1.115   1.079   4.670 -0.3138  1.0256  0.8651
 6357SOL    HW230531   1.033   1.154   4.762 -0.4859  0.0184  0.2319
 6358SOL     OW30532   2.014   3.377  16.244  0.0881  0.4975  0.1100
 6358SOL    HW130533   2.071   3.368  16.168 -0.3054  1.8500 -0.3319
 6358SOL    HW230534   2.074   3.370  16.319 -0.5055  0.8859  0.6153
 6359SOL     OW30535   3.555   2.917   3.151 -0.1297 -0.2460 -0.0773
 6359SOL    HW130536   3.485   2.929   3.088  0.8977 -0.1723 -1.1982
 6359SOL    HW230537   3.531   2.831   3.186  1.4583  0.2766  2.3339
 6360SOL     OW30538   1.360   0.467   1.798  0.2527  0.1526  0.2226
 6360SOL    HW130539   1.308   0.509   1.730 -0.6675  0.3666  1.0518
 6360SOL    HW230540   1.303   0.474   1.875  1.3541  1.2457  0.9392
 6361SOL     OW30541   2.279   2.205  13.370 -0.4187 -0.0363  0.0182
 6361SOL    HW130542   2.207   2.261  13.341 -0.0535 -0.0388 -0.9003
 6361SOL    HW230543   2.305   2.180  13.281 -0.6872 -0.4021  0.0421
 6362SOL     OW30544   2.410   4.515   5.273  0.2433 -0.8126  0.2402
 6362SOL    HW130545   2.323   4.548   5.297  0.4206 -0.3797  0.2854
 6362SOL    HW230546   2.424   4.452   5.343  0.7360 -1.9292 -0.8643
 6363SOL     OW30547   0.697   0.343  10.823 -0.1077 -0.7822  0.8324
 6363SOL    HW130548   0.617   0.337  10.875 -1.9153 -0.3285 -1.9194
 6363SOL    HW230549   0.666   0.309  10.739  1.1421 -2.8355  1.2077
 6364SOL     OW30550   1.423   0.422   1.436 -0.4539  0.4532  0.0805
 6364SOL    HW130551   1.414   0.489   1.368 -1.3576  1.7296  1.4475
 6364SOL    HW230552   1.363   0.450   1.505  0.7236  2.8546  0.1160
 6365SOL     OW30553   0.065   4.633  14.828  0.6100 -1.0870  0.2643
 6365SOL    HW130554   0.145   4.586  14.851  0.1696 -2.5209 -1.1189
 6365SOL    HW230555   0.094   0.001  14.810 -0.4829 -0.5158  1.3403
 6366SOL     OW30556   0.007   3.618   4.835  0.0576  0.1055  0.5368
 6366SOL    HW130557   4.685   3.703   4.843  1.6049  1.0564 -1.4589
 6366SOL    HW230558   4.656   3.572   4.792  1.2623 -0.4825 -0.8236
 6367SOL     OW30559   3.990   2.403  15.428  0.3842  0.0797 -0.5586
 6367SOL    HW130560   4.039   2.322  15.413  1.0047  1.1025 -3.9089
 6367SOL    HW230561   4.065   2.455  15.458  0.3275 -0.7359  0.9831
 6368SOL     OW30562   2.566   4.438   4.545 -0.0059  0.0139  0.5423
 6368SOL    HW130563   2.474   4.412   4.555  0.0021  0.4151  1.6531
 6368SOL    HW230564   2.599   4.442   4.635  1.3681  1.9796 -0.0371
 6369SOL     OW30565   0.788   2.737   0.878 -0.2601  0.9070 -0.4981
 6369SOL    HW130566   0.800   2.654   0.924 -1.5544  0.3686 -1.1300
 6369SOL    HW230567   0.829   2.795   0.942 -1.0986 -0.4848  1.2999
 6370SOL     OW30568   3.212   0.660   1.210 -0.7067  0.4996  0.6157
 6370SOL    HW130569   3.134   0.609   1.230 -0.5643  1.4617  3.5947
 6370SOL    HW230570   3.282   0.625   1.266 -0.0070  2.2486  0.8314
 6371SOL     OW30571   2.259   1.028   2.079  0.5663  0.0877  0.3824
 6371SOL    HW130572   2.200   0.960   2.114 -0.3478  0.1080 -1.1085
 6371SOL    HW230573   2.340   0.979   2.066  1.1591  1.0045  0.7200
 6372SOL     OW30574   2.875   2.495  12.439  0.3325  0.4266  0.2269
 6372SOL    HW130575   2.847   2.403  12.431  0.1947  0.4839  0.0353
 6372SOL    HW230576   2.951   2.498  12.380 -0.0661 -0.9772 -0.3763
 6373SOL     OW30577   4.607   4.344   0.499  0.1671 -0.4443 -0.0421
 6373SOL    HW130578   4.518   4.378   0.498 -0.1445 -1.1690  2.9119
 6373SOL    HW230579   4.658   4.422   0.522  1.0954 -1.3539  1.0417
 6374SOL     OW30580   1.080   0.150  13.883  0.6663 -0.0688 -0.2362
 6374SOL    HW130581   1.068   0.133  13.976  0.1642  3.1788  0.3081
 6374SOL    HW230582   1.013   0.212  13.854 -0.4403 -0.9804  0.3475
 6375SOL     OW30583   2.788   3.561   2.208 -0.3702 -0.0029 -0.3538
 6375SOL    HW130584   2.751   3.555   2.120 -1.2734  0.6115 -0.0107
 6375SOL    HW230585   2.721   3.523   2.265 -0.7335  1.8032  0.3999
 6376SOL     OW30586   4.707   0.257  15.600 -0.7220 -0.6674  0.2799
 6376SOL    HW130587   4.621   0.298  15.611 -0.0872  0.9220 -0.7298
 6376SOL    HW230588   0.023   0.309  15.529  0.7061 -2.2160 -0.0950
 6377SOL     OW30589   0.380   4.329   3.353 -0.0979 -0.2459  0.1233
 6377SOL    HW130590   0.462   4.311   3.306 -0.2484 -1.3761  0.3042
 6377SOL    HW230591   0.315   4.290   3.296  0.3190 -0.3291 -0.2931
 6378SOL     OW30592   3.364   0.782   6.010  0.1208 -0.5796 -0.1469
 6378SOL    HW130593   3.290   0.840   5.990 -1.2260 -3.2356 -2.8181
 6378SOL    HW230594   3.332   0.738   6.089  0.1208 -0.2214  0.0539
 6379SOL     OW30595   1.315   2.103  17.407 -0.2707 -0.1851  0.3013
 6379SOL    HW130596   1.338   2.061  17.325 -0.4231  2.3069 -1.0367
 6379SOL    HW230597   1.232   2.061  17.430 -1.2615  1.0799 -1.0133
 6380SOL     OW30598   2.914   0.861  12.005 -0.3571 -0.1734  0.4918
 6380SOL    HW130599   2.839   0.803  11.990 -0.3462 -0.2986  0.9218
 6380SOL    HW230600   2.985   0.816  11.959 -0.4581  0.0359  0.1346
 6381SOL     OW30601   1.088   2.158   6.322  0.3512  0.8138 -0.4252
 6381SOL    HW130602   1.180   2.184   6.326  0.7990 -0.9359  0.6382
 6381SOL    HW230603   1.048   2.231   6.369  0.6344  0.3648  0.5195
 6382SOL     OW30604   4.293   3.339   7.149  0.2337  0.0630  0.1040
 6382SOL    HW130605   4.387   3.349   7.139 -0.2871  2.7220 -2.2226
 6382SOL    HW230606   4.280   3.244   7.143 -0.3282  0.2588 -2.0443
 6383SOL     OW30607   2.361   4.527   4.199  0.0484  0.0988 -0.5048
 6383SOL    HW130608   2.358   4.432   4.197  0.1415  0.0980 -0.6476
 6383SOL    HW230609   2.435   4.549   4.256 -1.1883  2.4465  0.1703
 6384SOL     OW30610   2.522   2.984  14.278 -0.6154 -0.2378 -0.2532
 6384SOL    HW130611   2.555   3.066  14.240  0.1144 -0.8618 -0.9624
 6384SOL    HW230612   2.542   2.997  14.371 -2.6435 -3.5333  0.6029
 6385SOL     OW30613   2.731   3.188   1.066 -0.1941 -0.3076 -0.0490
 6385SOL    HW130614   2.752   3.266   1.015  3.1394 -1.5414 -0.5866
 6385SOL    HW230615   2.800   3.133   1.027  1.8057  1.0732  1.5007
 6386SOL     OW30616   3.263   3.405  17.109 -0.0755  0.0648 -0.0293
 6386SOL    HW130617   3.267   3.331  17.168  0.7715 -0.4968 -0.7795
 6386SOL    HW230618   3.325   3.376  17.042  0.0628 -2.3123  1.1511
 6387SOL     OW30619   1.650   3.073  12.508  0.3713  0.2021 -0.5561
 6387SOL    HW130620   1.624   3.008  12.573  0.0057 -1.7170 -2.5992
 6387SOL    HW230621   1.663   3.137  12.578  1.8553 -0.8732  0.1532
 6388SOL     OW30622   0.158   3.353   2.410  0.0617  0.0374 -0.5237
 6388SOL    HW130623   0.171   3.350   2.315  0.7078  0.2203 -0.4464
 6388SOL    HW230624   0.249   3.340   2.438 -0.2783 -2.8862 -0.8034
 6389SOL     OW30625   2.765   0.502  10.191 -0.1010  0.5950  0.1213
 6389SOL    HW130626   2.722   0.438  10.134 -1.1458 -0.1440  1.7559
 6389SOL    HW230627   2.754   0.468  10.280 -2.1818  0.6987 -0.1153
 6390SOL     OW30628   4.126   3.408   9.697 -0.4114 -0.6953  0.4563
 6390SOL    HW130629   4.107   3.476   9.763 -1.0518 -1.2066  0.7992
 6390SOL    HW230630   4.197   3.360   9.741 -1.3878 -1.1866  1.4990
 6391SOL     OW30631   1.500   0.287   5.469  0.4526 -0.0263  0.3828
 6391SOL    HW130632   1.577   0.253   5.424  1.1868  2.2127 -0.0343
 6391SOL    HW230633   1.528   0.356   5.530  1.9021  0.3056 -0.6752
 6392SOL     OW30634   2.844   1.007   5.903 -0.1160  0.6486  0.4203
 6392SOL    HW130635   2.791   1.037   5.829  0.6572 -1.1217 -0.8575
 6392SOL    HW230636   2.849   1.091   5.947  1.8118  0.7894 -0.0411
 6393SOL     OW30637   3.621   0.442   6.794 -0.0745 -0.3914  0.2212
 6393SOL    HW130638   3.609   0.536   6.785 -0.1374 -0.2367  1.9923
 6393SOL    HW230639   3.664   0.422   6.711  0.2001 -0.4590  0.3809
 6394SOL     OW30640   3.732   1.213   4.171 -0.8376 -0.0014  0.1450
 6394SOL    HW130641   3.760   1.233   4.081 -2.5470 -0.9480 -0.6022
 6394SOL    HW230642   3.661   1.150   4.161  1.0843 -1.9859 -0.9129
 6395SOL     OW30643   2.282   0.492  12.499 -0.5109 -0.1741 -0.0395
 6395SOL    HW130644   2.234   0.528  12.424  0.5950  2.5091  0.5336
 6395SOL    HW230645   2.354   0.553  12.517 -2.3661  1.4689  1.8454
 6396SOL     OW30646   4.005   2.300   3.816  0.7875 -0.2049  0.3215
 6396SOL    HW130647   4.014   2.343   3.731 -2.3391 -0.5689 -0.1914
 6396SOL    HW230648   3.940   2.359   3.854 -1.5763 -1.2554 -2.0710
 6397SOL     OW30649   2.726   3.244   1.928  0.2541  0.8586  0.2582
 6397SOL    HW130650   2.743   3.270   2.019 -2.0766 -2.8118  1.7512
 6397SOL    HW230651   2.811   3.212   1.899  0.2519  0.8123  0.3035
 6398SOL     OW30652   3.605   4.156   4.445 -0.2119  0.1703 -0.5218
 6398SOL    HW130653   3.596   4.233   4.389  1.6426  1.5418  1.0552
 6398SOL    HW230654   3.519   4.132   4.480 -0.6755  2.9599  0.2820
 6399SOL     OW30655   3.697   2.181   3.805 -0.0324  0.2192 -0.1156
 6399SOL    HW130656   3.787   2.190   3.836  0.1345 -1.9478 -0.0039
 6399SOL    HW230657   3.705   2.162   3.711  2.0759 -1.3726  0.3855
 6400SOL     OW30658   0.319   1.958   8.200  0.6456  0.1548 -0.0334
 6400SOL    HW130659   0.368   1.985   8.122  1.4976 -0.3864  0.3173
 6400SOL    HW230660   0.366   1.884   8.238 -0.4462 -1.2711 -1.4821
 6401SOL     OW30661   4.710   2.056   3.802  0.5567  0.1199  0.2734
 6401SOL    HW130662   0.061   2.008   3.763 -1.4069 -0.8374 -2.2119
 6401SOL    HW230663   0.037   2.139   3.809  0.2894  0.0824  2.5589
 6402SOL     OW30664   2.058   2.158   1.423  0.4239  0.3794 -0.1041
 6402SOL    HW130665   2.071   2.227   1.488  0.1870  0.2235  0.1091
 6402SOL    HW230666   2.113   2.195   1.354  0.4045 -2.2290 -1.5229
 6403SOL     OW30667   4.484   1.523   1.468 -1.0170 -0.9441 -0.1283
 6403SOL    HW130668   4.439   1.457   1.415 -2.7377  0.3760 -0.3266
 6403SOL    HW230669   4.420   1.594   1.459 -0.8695 -0.9060 -0.8621
 6404SOL     OW30670   1.805   4.678   2.065 -0.2129 -0.3193  0.5451
 6404SOL    HW130671   1.852   0.020   2.011 -0.7493 -0.3776  0.0033
 6404SOL    HW230672   1.766   0.020   2.125 -0.2601  0.0625  0.1093
 6405SOL     OW30673   0.425   4.568   2.082  0.5879  0.2627 -0.3596
 6405SOL    HW130674   0.416   4.484   2.035  0.2125 -0.0017  0.1831
 6405SOL    HW230675   0.349   4.615   2.047 -0.5070  0.4966  2.3475
 6406SOL     OW30676   2.264   1.795   2.329  0.2058  0.3646 -0.5525
 6406SOL    HW130677   2.324   1.732   2.369 -0.1152 -1.0360 -2.2797
 6406SOL    HW230678   2.276   1.879   2.374  2.6489 -0.0323 -0.4642
 6407SOL     OW30679   3.003   1.969  11.941  0.9207 -0.1145 -0.0184
 6407SOL    HW130680   2.919   2.006  11.912  0.6762 -0.8628 -0.2646
 6407SOL    HW230681   3.039   1.926  11.863  1.2851  1.2385 -0.6025
 6408SOL     OW30682   2.236   1.678  10.438 -0.7020 -0.3585 -0.0721
 6408SOL    HW130683   2.186   1.605  10.401 -1.2788  0.1762 -0.3314
 6408SOL    HW230684   2.304   1.677  10.370  0.4159  0.0309  1.0456
 6409SOL     OW30685   3.972   0.531   8.827  0.8346 -0.2841  0.0282
 6409SOL    HW130686   3.980   0.625   8.844  0.0127 -0.4698  1.4469
 6409SOL    HW230687   3.885   0.519   8.791  1.2530 -3.5479  0.0806
 6410SOL     OW30688   4.094   1.521   1.408  0.4087  0.4196  0.2117
 6410SOL    HW130689   4.030   1.469   1.457  1.6792 -0.2178  1.1958
 6410SOL    HW230690   4.038   1.573   1.351 -1.2258  1.8305  3.0664
 6411SOL     OW30691   1.908   4.030   0.482  0.0480  0.2121  0.3824
 6411SOL    HW130692   1.981   4.059   0.536  0.6048 -1.6906  0.6537
 6411SOL    HW230693   1.834   4.043   0.541 -0.7177  2.1002 -1.0159
 6412SOL     OW30694   3.240   1.082   3.792 -0.3303 -0.2489  0.4272
 6412SOL    HW130695   3.178   1.062   3.862 -3.5510 -0.0005 -2.3483
 6412SOL    HW230696   3.293   1.144   3.842 -0.7615 -0.5009  1.2098
 6413SOL     OW30697   3.757   1.350   3.028  0.1971  0.3297  0.2791
 6413SOL    HW130698   3.833   1.292   3.040  1.5409  2.0447  0.0155
 6413SOL    HW230699   3.746   1.334   2.934  1.6087 -1.7538  0.4458
 6414SOL     OW30700   4.042   0.163   6.452  0.4586  0.0274 -0.3211
 6414SOL    HW130701   4.069   0.124   6.536 -0.3949 -1.4649 -0.7398
 6414SOL    HW230702   3.954   0.127   6.443  0.0945  1.2336 -1.4481
 6415SOL     OW30703   0.238   0.770  12.505  0.4180  0.1908 -0.0037
 6415SOL    HW130704   0.170   0.803  12.446 -0.2616  0.1125  0.7384
 6415SOL    HW230705   0.309   0.741  12.448 -2.1749 -0.8506 -2.7054
 6416SOL     OW30706   1.211   2.736   6.295  0.0161 -0.2611 -0.4319
 6416SOL    HW130707   1.176   2.746   6.383 -0.4936  0.4380 -0.7116
 6416SOL    HW230708   1.176   2.650   6.271 -1.3512 -0.1453  1.1238
 6417SOL     OW30709   1.639   3.239   5.704 -0.0436 -0.1067  0.4794
 6417SOL    HW130710   1.670   3.322   5.667  0.9185 -0.0668  1.4002
 6417SOL    HW230711   1.620   3.261   5.795 -1.9929  0.8043 -0.1361
 6418SOL     OW30712   4.620   2.181  14.403  0.3810  0.8163 -0.1526
 6418SOL    HW130713   4.614   2.096  14.448  1.1338  0.9117  0.1273
 6418SOL    HW230714   4.675   2.233  14.461  3.3804 -1.8120 -0.6472
 6419SOL     OW30715   4.150   1.747   7.555 -0.0042 -0.3408 -0.9093
 6419SOL    HW130716   4.230   1.792   7.584  0.8957 -2.3248 -0.3534
 6419SOL    HW230717   4.114   1.711   7.636 -0.3646  1.4136 -0.2700
 6420SOL     OW30718   3.503   4.271   3.645 -0.2378 -0.6364  0.6548
 6420SOL    HW130719   3.476   4.258   3.554 -1.2285 -2.1911  1.1711
 6420SOL    HW230720   3.502   4.367   3.644 -0.9697 -0.6441  1.3766
 6421SOL     OW30721   4.447   1.871   0.004  0.1670 -0.0512 -0.3239
 6421SOL    HW130722   4.403   1.911   0.079  2.2893 -0.0514  0.9169
 6421SOL    HW230723   4.513   1.819   0.050  0.3910  2.0335  1.6584
 6422SOL     OW30724   2.510   0.538   4.565  0.0157  0.2384 -0.4157
 6422SOL    HW130725   2.595   0.495   4.576 -0.7875 -1.2266  0.1196
 6422SOL    HW230726   2.480   0.491   4.487 -1.3097  3.0002 -1.5700
 6423SOL     OW30727   1.506   3.659   7.083 -0.1814  0.4434 -0.3589
 6423SOL    HW130728   1.510   3.704   6.999 -2.1596  1.9361  0.3348
 6423SOL    HW230729   1.539   3.726   7.142 -0.5718 -1.2163  1.7514
 6424SOL     OW30730   2.670   4.495   8.862  0.0601  0.2681 -0.4811
 6424SOL    HW130731   2.728   4.463   8.792  1.3714 -1.1034  1.2370
 6424SOL    HW230732   2.654   4.588   8.843 -1.6675  0.5006  2.1851
 6425SOL     OW30733   2.493   1.488   1.102  0.6300 -0.4737  0.1244
 6425SOL    HW130734   2.531   1.418   1.049  1.5513  0.5882 -0.6274
 6425SOL    HW230735   2.516   1.565   1.049 -0.5245 -0.2570 -0.0479
 6426SOL     OW30736   1.906   2.897   1.412  0.3741 -0.0083 -0.5392
 6426SOL    HW130737   1.934   2.806   1.424 -0.1318  0.1623  1.9091
 6426SOL    HW230738   1.839   2.888   1.345  0.0221 -2.0873  0.0825
 6427SOL     OW30739   0.971   1.930   5.244  0.2707 -0.3340  0.6710
 6427SOL    HW130740   0.917   1.976   5.308 -0.0451  0.1589  0.0457
 6427SOL    HW230741   0.907   1.867   5.209 -0.1033  0.2275  0.3467
 6428SOL     OW30742   1.228   2.856   0.502 -0.6311  0.0494  0.8332
 6428SOL    HW130743   1.274   2.782   0.543 -1.3248  0.4411  2.3046
 6428SOL    HW230744   1.300   2.911   0.470 -1.8278  0.4813 -1.0560
 6429SOL     OW30745   0.314   1.318   3.878 -0.1162 -0.2673  0.3413
 6429SOL    HW130746   0.373   1.365   3.938 -0.6660 -0.4558  1.0323
 6429SOL    HW230747   0.267   1.394   3.843 -0.0567 -1.0861 -1.5118
 6430SOL     OW30748   1.729   3.292  14.959  0.2622  0.3785  0.1103
 6430SOL    HW130749   1.736   3.208  15.005 -1.0635  0.2635  0.1202
 6430SOL    HW230750   1.742   3.351  15.032 -1.0444  3.0412 -1.8058
 6431SOL     OW30751   3.094   2.102   6.327  0.4759 -0.5863 -0.6149
 6431SOL    HW130752   3.055   2.019   6.356  0.0181  0.4071  1.6650
 6431SOL    HW230753   3.185   2.084   6.305  1.3902  3.4112 -0.0747
 6432SOL     OW30754   1.222   4.629   7.849 -0.2432  0.5286  0.0618
 6432SOL    HW130755   1.230   4.533   7.854  0.8533  0.6604  0.7504
 6432SOL    HW230756   1.279   4.659   7.919  0.1140  0.9064 -0.3936
 6433SOL     OW30757   3.426   4.697   8.764  0.6877  0.2190 -0.4861
 6433SOL    HW130758   3.414   4.670   8.855 -0.2176 -1.8974 -1.2495
 6433SOL    HW230759   3.421   0.070   8.777 -1.3470  0.6991 -4.7240
 6434SOL     OW30760   1.396   3.213  10.629 -0.0785 -0.1424 -0.3468
 6434SOL    HW130761   1.398   3.204  10.725  1.7809  1.3626 -0.2419
 6434SOL    HW230762   1.490   3.229  10.620 -0.3634  1.2480 -0.6970
 6435SOL     OW30763   1.564   0.656  10.306  0.7388  0.0094  0.2834
 6435SOL    HW130764   1.554   0.751  10.309 -1.0252 -0.0859 -1.9867
 6435SOL    HW230765   1.482   0.621  10.342 -1.0214  1.2566 -2.5088
 6436SOL     OW30766   1.299   3.577   4.729 -0.2722 -0.0661  0.4608
 6436SOL    HW130767   1.256   3.612   4.651 -1.2801 -0.1646  0.9670
 6436SOL    HW230768   1.379   3.543   4.689 -0.8048  0.3553 -0.9813
 6437SOL     OW30769   0.317   2.691   4.943  0.0144 -0.9415 -0.0609
 6437SOL    HW130770   0.412   2.689   4.947 -0.0824 -1.8908  1.6027
 6437SOL    HW230771   0.300   2.745   5.020 -0.2323 -0.5914 -0.3593
 6438SOL     OW30772   3.747   3.441   7.378 -0.0325 -0.1107  0.9120
 6438SOL    HW130773   3.757   3.350   7.354 -1.6299 -0.0965  0.1900
 6438SOL    HW230774   3.837   3.471   7.392  0.5333 -2.1006  1.3882
 6439SOL     OW30775   3.160   1.670   2.239 -0.0951  0.2364  0.3966
 6439SOL    HW130776   3.231   1.607   2.229  0.1669  0.5280  0.4340
 6439SOL    HW230777   3.103   1.637   2.169 -0.6434 -0.7772  1.3322
 6440SOL     OW30778   0.612   2.561   5.512 -0.0318 -0.1016  0.6023
 6440SOL    HW130779   0.697   2.524   5.485 -1.3062 -2.7591  0.2029
 6440SOL    HW230780   0.609   2.641   5.459  1.3369  0.9998  2.1829
 6441SOL     OW30781   1.028   2.616   8.247  0.2068  0.2825  0.2033
 6441SOL    HW130782   1.018   2.595   8.154 -1.6582 -1.0144  0.6953
 6441SOL    HW230783   0.944   2.660   8.265  0.4632 -0.4056  3.0591
 6442SOL     OW30784   1.434   1.388   1.057 -0.5005 -0.4281 -0.1348
 6442SOL    HW130785   1.480   1.355   1.134 -1.1815  1.9870  1.2849
 6442SOL    HW230786   1.515   1.409   1.010 -0.1560 -3.3028 -0.8838
 6443SOL     OW30787   1.932   3.579   1.433 -0.4201  0.3301  0.2453
 6443SOL    HW130788   1.849   3.575   1.480  0.3044 -0.2053  1.4922
 6443SOL    HW230789   1.952   3.672   1.436 -1.0465  0.4713 -0.1523
 6444SOL     OW30790   4.119   3.063   8.365 -0.0815  0.1184  0.2752
 6444SOL    HW130791   4.030   3.041   8.338 -0.3838  0.6485  0.8322
 6444SOL    HW230792   4.140   2.985   8.416 -0.5685 -0.4360 -0.3633
 6445SOL     OW30793   1.996   3.808   4.778  0.2811 -0.3905  0.7467
 6445SOL    HW130794   2.024   3.866   4.850  1.3143 -0.5706  0.4984
 6445SOL    HW230795   2.084   3.774   4.762  0.1833  0.6812 -1.9250
 6446SOL     OW30796   4.598   4.293   2.579 -0.1484 -0.0621 -0.3649
 6446SOL    HW130797   4.685   4.257   2.559 -1.3770 -2.7705 -0.7777
 6446SOL    HW230798   4.585   4.361   2.512 -2.8785 -0.9334 -0.7210
 6447SOL     OW30799   0.320   2.995  10.476 -0.2693  0.2778  0.0067
 6447SOL    HW130800   0.282   3.047  10.546  1.9926  1.0253  0.6676
 6447SOL    HW230801   0.264   3.040  10.412 -1.0235 -0.6420  0.0050
 6448SOL     OW30802   4.696   4.589   0.250  0.8268 -0.2435  0.2785
 6448SOL    HW130803   4.644   4.512   0.227  0.2273 -0.5076  2.4547
 6448SOL    HW230804   4.631   4.658   0.238  0.0596 -1.0739 -0.3305
 6449SOL     OW30805   1.473   3.598   1.708 -0.1422 -0.4586  0.0283
 6449SOL    HW130806   1.385   3.581   1.742 -0.4529 -0.9113 -0.9672
 6449SOL    HW230807   1.530   3.611   1.783  1.5063 -2.4586 -0.8617
 6450SOL     OW30808   2.044   4.534  15.540  0.5233 -0.4637 -0.0798
 6450SOL    HW130809   2.066   4.517  15.448  0.4625  0.7022 -0.3087
 6450SOL    HW230810   1.951   4.555  15.532  0.7139 -0.1893 -1.6517
 6451SOL     OW30811   4.566   0.692  15.339 -0.5338  0.2606 -0.4522
 6451SOL    HW130812   4.530   0.777  15.312 -1.6288 -0.6483 -1.8065
 6451SOL    HW230813   4.550   0.653  15.253  1.2628  0.2544 -0.7917
 6452SOL     OW30814   1.401   1.454   7.437  0.3070  0.3550 -0.1672
 6452SOL    HW130815   1.337   1.398   7.393  1.4136 -0.3727 -0.8460
 6452SOL    HW230816   1.466   1.393   7.472  1.4342  1.1730 -0.7941
 6453SOL     OW30817   4.209   2.980  10.980 -0.4095  0.0807  0.6087
 6453SOL    HW130818   4.155   2.948  10.907 -0.9645  1.3075  0.4931
 6453SOL    HW230819   4.291   2.936  10.955 -0.5732 -0.1767  0.5223
 6454SOL     OW30820   2.636   0.223   2.982 -0.1020  0.1097 -0.0872
 6454SOL    HW130821   2.640   0.231   3.077 -1.9930 -2.6839  0.2356
 6454SOL    HW230822   2.723   0.254   2.959 -0.2792  1.6484  1.3325
 6455SOL     OW30823   3.037   4.240   5.502 -0.2118 -0.3512 -0.0689
 6455SOL    HW130824   2.992   4.233   5.418 -2.0280  0.8961  0.7988
 6455SOL    HW230825   3.088   4.160   5.516  1.1473  1.0516  3.0154
 6456SOL     OW30826   1.150   4.028   6.340  0.3411  0.1096 -0.3242
 6456SOL    HW130827   1.184   3.968   6.274 -0.9789  1.3494 -2.1157
 6456SOL    HW230828   1.216   4.015   6.409  1.0934  0.7903 -0.9031
 6457SOL     OW30829   2.485   4.515  10.442  0.1186 -0.2906  0.6796
 6457SOL    HW130830   2.454   4.425  10.453 -0.8916  0.2818  2.4264
 6457SOL    HW230831   2.580   4.505  10.439 -0.0893 -2.3821  0.8647
 6458SOL     OW30832   0.902   0.633   9.261 -0.4626 -0.0701  0.3744
 6458SOL    HW130833   0.918   0.670   9.347  0.3917  0.1839  0.1010
 6458SOL    HW230834   0.988   0.654   9.226 -0.6914  0.2858  0.0315
 6459SOL     OW30835   0.526   3.755   0.715 -0.4598 -0.2591 -0.1049
 6459SOL    HW130836   0.488   3.842   0.701  1.2947  0.6378  0.8130
 6459SOL    HW230837   0.587   3.751   0.788 -2.3223  1.9185  1.5883
 6460SOL     OW30838   4.672   3.334   6.010  0.0108 -0.1630 -0.2641
 6460SOL    HW130839   0.006   3.267   5.969  0.3132  1.1219 -1.9178
 6460SOL    HW230840   4.673   3.307   6.102 -2.9929  2.1684  0.4354
 6461SOL     OW30841   2.165   2.362   1.579 -0.2458 -0.4610  0.0165
 6461SOL    HW130842   2.182   2.391   1.489  0.4202 -0.6069  0.0962
 6461SOL    HW230843   2.223   2.423   1.625  0.8686 -0.8549 -0.8533
 6462SOL     OW30844   1.389   0.617   4.413 -0.2038 -0.4411 -0.0374
 6462SOL    HW130845   1.356   0.692   4.363  0.7219 -0.3205 -0.4559
 6462SOL    HW230846   1.419   0.554   4.349 -1.6130 -2.0905  0.9288
 6463SOL     OW30847   2.061   0.800   8.889 -0.1336 -0.2790  0.0131
 6463SOL    HW130848   2.127   0.783   8.822  0.9998 -0.0265  1.0832
 6463SOL    HW230849   2.110   0.784   8.969 -0.0285 -1.9471 -0.3727
 6464SOL     OW30850   2.118   0.410   2.328 -0.4495 -0.3838 -0.2960
 6464SOL    HW130851   2.130   0.358   2.407  1.2070 -0.3550 -0.5146
 6464SOL    HW230852   2.091   0.492   2.369 -1.1738 -2.2285  2.9505
 6465SOL     OW30853   0.714   0.045   6.602 -0.4905 -0.2678 -0.7019
 6465SOL    HW130854   0.658   0.032   6.678 -0.0795  1.9130 -0.0181
 6465SOL    HW230855   0.666   0.113   6.554 -0.7585  1.1751  1.6272
 6466SOL     OW30856   0.273   0.626  14.568 -0.9817  0.2795  0.3243
 6466SOL    HW130857   0.217   0.680  14.512  1.6325  0.0520 -2.5863
 6466SOL    HW230858   0.230   0.541  14.562  1.5059 -1.0508  1.4409
 6467SOL     OW30859   1.832   1.131   5.379  0.4668 -0.8454  0.1161
 6467SOL    HW130860   1.928   1.138   5.378  0.2422  2.8076  1.1013
 6467SOL    HW230861   1.803   1.176   5.300  1.8155 -0.0324  0.0789
 6468SOL     OW30862   0.454   0.913   6.386 -0.2952 -0.4243  0.4359
 6468SOL    HW130863   0.486   1.003   6.375  0.2950 -0.7507 -0.5556
 6468SOL    HW230864   0.441   0.883   6.296 -1.4701  2.2914 -0.2856
 6469SOL     OW30865   0.521   0.148   8.569 -0.6494 -0.7494  0.1941
 6469SOL    HW130866   0.507   0.175   8.660  1.5643 -1.3147  0.7031
 6469SOL    HW230867   0.435   0.170   8.533 -2.0857 -1.3684  3.2046
 6470SOL     OW30868   2.953   3.560   8.003  0.1494  0.1121  0.6430
 6470SOL    HW130869   2.921   3.582   7.916  0.3279 -0.0373  0.5393
 6470SOL    HW230870   3.030   3.506   7.983  0.0053  0.2170 -0.1663
 6471SOL     OW30871   1.060   3.319  10.737 -0.9881  0.7600 -0.0552
 6471SOL    HW130872   1.076   3.301  10.644 -0.8039 -0.8190  0.2923
 6471SOL    HW230873   1.127   3.274  10.788 -1.3024 -0.8656 -1.0831
 6472SOL     OW30874   2.232   3.614  11.715 -0.2551 -0.3616  0.3437
 6472SOL    HW130875   2.319   3.597  11.679  1.1493  0.7363  3.1929
 6472SOL    HW230876   2.244   3.709  11.727 -2.8776  0.1101 -0.8190
 6473SOL     OW30877   3.590   2.306   4.539 -0.4691 -0.9261  0.0224
 6473SOL    HW130878   3.666   2.363   4.550 -1.6853  0.1772  2.8592
 6473SOL    HW230879   3.529   2.343   4.603 -1.0755 -1.5247 -0.2028
 6474SOL     OW30880   4.497   1.468  11.999  0.1655 -0.2681 -0.2261
 6474SOL    HW130881   4.468   1.548  11.955  0.3529  0.0476  0.2204
 6474SOL    HW230882   4.534   1.410  11.932 -1.3542 -1.8535  0.3224
 6475SOL     OW30883   2.337   2.405   4.500 -0.1280 -0.3342 -0.0269
 6475SOL    HW130884   2.405   2.471   4.515 -1.1987  0.6135  0.6405
 6475SOL    HW230885   2.255   2.443   4.529 -0.2506 -1.8686  1.5946
 6476SOL     OW30886   1.450   3.273   4.645 -0.2797  0.2492 -0.0300
 6476SOL    HW130887   1.482   3.191   4.607 -0.9946 -0.0096 -0.0742
 6476SOL    HW230888   1.430   3.334   4.574  0.4029  1.0649  0.4893
 6477SOL     OW30889   0.451   3.664   2.565 -0.2142 -0.1454  0.0412
 6477SOL    HW130890   0.359   3.635   2.572 -0.4915  0.3028 -1.8226
 6477SOL    HW230891   0.490   3.585   2.602  1.1845  0.2105 -0.6827
 6478SOL     OW30892   1.011   0.134   5.335 -0.2502  0.0632 -0.0561
 6478SOL    HW130893   1.018   0.078   5.412 -0.6650 -1.3872 -1.0723
 6478SOL    HW230894   1.080   0.198   5.352 -0.5859  0.3689  0.1562
 6479SOL     OW30895   4.113   3.870   6.971  0.7675  0.4269 -0.6113
 6479SOL    HW130896   4.065   3.789   6.954  1.0389 -0.3008  2.1013
 6479SOL    HW230897   4.201   3.835   6.979  0.1349 -0.8904  0.7893
 6480SOL     OW30898   1.963   4.397  11.970 -0.9140  0.2351 -0.1358
 6480SOL    HW130899   1.998   4.397  11.881  3.0240 -0.3118  1.3964
 6480SOL    HW230900   1.870   4.377  11.955 -0.4462 -2.5131  0.5538
 6481SOL     OW30901   2.275   0.034   6.150  0.4013  0.4125 -0.4022
 6481SOL    HW130902   2.266   4.666   6.183  1.7386  0.1441 -0.7851
 6481SOL    HW230903   2.189   0.038   6.109  0.3823  0.0649 -0.3889
 6482SOL     OW30904   0.736   2.327   5.745 -0.0432  0.0067  0.7005
 6482SOL    HW130905   0.685   2.252   5.774  1.5715 -1.7584 -1.0071
 6482SOL    HW230906   0.667   2.385   5.713  0.3621  0.3477  0.4393
 6483SOL     OW30907   2.751   0.102  12.920 -0.5882  0.1777  0.2357
 6483SOL    HW130908   2.798   0.019  12.934 -1.8683 -0.7543 -0.9789
 6483SOL    HW230909   2.809   0.166  12.961  1.6858 -1.6998 -0.0561
 6484SOL     OW30910   3.580   3.262   7.115 -0.9341  0.2589 -0.6642
 6484SOL    HW130911   3.645   3.314   7.068  1.5333 -0.7907  1.5709
 6484SOL    HW230912   3.639   3.231   7.183  0.3704  0.5150 -1.6885
 6485SOL     OW30913   1.551   0.822   7.882 -0.2498 -0.7666 -0.0727
 6485SOL    HW130914   1.643   0.837   7.906 -0.1335 -0.7361 -0.5501
 6485SOL    HW230915   1.529   0.772   7.961  1.2171  0.5937  1.1991
 6486SOL     OW30916   4.473   2.969  15.909  0.0849  0.0707  0.3295
 6486SOL    HW130917   4.515   3.055  15.918 -0.5740  0.3420  0.8538
 6486SOL    HW230918   4.447   2.957  16.000 -1.7342 -2.9311 -0.5822
 6487SOL     OW30919   4.077   1.483   4.579  0.1391  0.4731 -0.0617
 6487SOL    HW130920   4.054   1.551   4.516  3.2825  0.8186 -0.8608
 6487SOL    HW230921   4.055   1.527   4.661  0.3667  0.0405  0.2354
 6488SOL     OW30922   0.648   2.488   0.113  0.4187 -0.4440  0.1379
 6488SOL    HW130923   0.576   2.513   0.054  0.8338  2.9350  1.0488
 6488SOL    HW230924   0.637   2.565   0.169  0.0206 -1.9835  2.1568
 6489SOL     OW30925   2.200   0.362   6.030 -0.1653 -0.0874  0.1713
 6489SOL    HW130926   2.199   0.295   6.098  0.2765  0.2921  0.5601
 6489SOL    HW230927   2.222   0.441   6.080  0.5301 -1.0554  1.4102
 6490SOL     OW30928   2.739   4.426   6.984 -0.1450 -0.0246  0.2630
 6490SOL    HW130929   2.694   4.386   7.058  0.2542 -1.1386 -0.1123
 6490SOL    HW230930   2.672   4.495   6.975  0.6931  0.9914  1.7172
 6491SOL     OW30931   3.118   3.013  15.988  0.3469  0.3910 -0.0210
 6491SOL    HW130932   3.034   3.012  15.941  0.4742 -0.5275 -0.2236
 6491SOL    HW230933   3.158   3.090  15.948 -0.8159  0.6532 -0.6953
 6492SOL     OW30934   0.256   4.392   4.991 -0.1369  0.0297  0.1263
 6492SOL    HW130935   0.272   4.319   4.931 -4.5490 -0.3390 -0.5844
 6492SOL    HW230936   0.333   4.448   4.982  0.0483 -0.2057  0.2472
 6493SOL     OW30937   2.295   0.790   5.986  0.3767 -0.4038  0.5458
 6493SOL    HW130938   2.377   0.838   5.999  0.3343 -0.7158  2.0401
 6493SOL    HW230939   2.328   0.732   5.919  0.4874  0.4137 -0.1024
 6494SOL     OW30940   1.081   0.337  16.192 -0.6291 -0.6662 -0.0140
 6494SOL    HW130941   0.997   0.379  16.172  0.6897  0.6653 -2.8321
 6494SOL    HW230942   1.091   0.281  16.115 -1.8730  0.2077 -0.8101
 6495SOL     OW30943   2.511   2.646   1.893 -0.1398 -0.3391  0.6369
 6495SOL    HW130944   2.565   2.724   1.906 -1.5518  0.5711  1.0435
 6495SOL    HW230945   2.429   2.675   1.934 -0.1652 -2.0313  1.8059
 6496SOL     OW30946   3.637   1.552   7.748 -0.4067  0.4119  0.7395
 6496SOL    HW130947   3.705   1.615   7.724 -0.8188  0.1008 -1.2607
 6496SOL    HW230948   3.630   1.573   7.841 -1.2430 -0.1398  0.8019
 6497SOL     OW30949   3.018   3.956   1.461  0.2524  0.2615  0.8609
 6497SOL    HW130950   3.017   3.874   1.511  3.8192  0.9939  2.1701
 6497SOL    HW230951   2.939   4.000   1.493 -0.8847  1.2203 -3.3481
 6498SOL     OW30952   4.009   2.501   8.075 -0.1152  0.6225 -0.1115
 6498SOL    HW130953   4.018   2.589   8.111  1.4974 -0.0550  1.1580
 6498SOL    HW230954   3.977   2.455   8.153 -1.4087 -0.6443 -1.3787
 6499SOL     OW30955   3.970   4.274   0.010 -0.1556 -0.1721 -0.3256
 6499SOL    HW130956   4.062   4.291  17.678  0.8413 -2.5431  2.2183
 6499SOL    HW230957   3.939   4.360   0.040 -1.6004 -0.4962 -0.8391
 6500SOL     OW30958   4.078   3.906   7.769  0.3870 -0.3407  0.0180
 6500SOL    HW130959   4.096   3.826   7.721  0.2010 -0.4324  0.1008
 6500SOL    HW230960   4.037   3.864   7.845  1.6395 -3.0862 -0.8402
 6501SOL     OW30961   2.114   2.051   5.524 -0.4495 -0.0388 -0.1676
 6501SOL    HW130962   2.144   2.124   5.470 -0.5309 -0.0414 -0.2162
 6501SOL    HW230963   2.074   1.991   5.462  0.0680 -2.1460  1.5003
 6502SOL     OW30964   2.188   4.087   0.594  0.1429 -0.3776  0.1109
 6502SOL    HW130965   2.196   4.111   0.502 -0.9885 -1.1109 -0.1764
 6502SOL    HW230966   2.275   4.049   0.605  0.9646  1.8974  1.5265
 6503SOL     OW30967   1.574   2.621  17.567  0.0184  0.4087  0.0111
 6503SOL    HW130968   1.496   2.674  17.554  0.3514  0.4662 -1.6862
 6503SOL    HW230969   1.600   2.650  17.655  0.7283 -0.6707  0.1569
 6504SOL     OW30970   1.251   2.883  17.041 -0.4579  0.1385 -0.5672
 6504SOL    HW130971   1.188   2.880  17.114  1.3810  1.0452  1.0509
 6504SOL    HW230972   1.326   2.923  17.084  0.3760 -1.7260 -0.2896
 6505SOL     OW30973   4.432   4.204   1.848 -0.8194 -0.1869 -0.3872
 6505SOL    HW130974   4.453   4.149   1.773  2.3588  1.8237 -0.9798
 6505SOL    HW230975   4.514   4.203   1.897 -0.4651 -1.6861 -0.9971
 6506SOL     OW30976   3.530   3.721   5.800  0.2001  0.1371  0.4894
 6506SOL    HW130977   3.600   3.658   5.787 -1.1795 -0.6455 -3.2797
 6506SOL    HW230978   3.569   3.796   5.755  0.2559  1.0374  2.0209
 6507SOL     OW30979   0.413   4.629   2.368 -0.1239 -0.5278  0.3789
 6507SOL    HW130980   0.473   4.700   2.349 -1.5533  0.5495 -0.0792
 6507SOL    HW230981   0.416   4.593   2.280 -0.2874  0.6458 -0.1014
 6508SOL     OW30982   0.589   1.493   8.324 -0.2863  0.0170  0.0791
 6508SOL    HW130983   0.514   1.481   8.382 -2.2202  2.7172 -1.8576
 6508SOL    HW230984   0.657   1.509   8.390 -1.4309 -0.0605  1.2882
 6509SOL     OW30985   0.095   2.652   6.475 -0.4700 -0.1174  0.7019
 6509SOL    HW130986   0.049   2.655   6.391  2.5863 -0.9691 -1.0075
 6509SOL    HW230987   0.031   2.695   6.532 -0.7953 -1.4952  1.3656
 6510SOL     OW30988   3.541   0.899   8.838 -0.3889  0.4299  0.4542
 6510SOL    HW130989   3.545   0.888   8.933  1.1709 -0.1469  0.3212
 6510SOL    HW230990   3.584   0.984   8.837 -1.5829  1.0037 -1.0327
 6511SOL     OW30991   1.354   2.222  14.102  0.4496  0.4664 -0.0456
 6511SOL    HW130992   1.303   2.143  14.083 -1.2220  1.5990 -0.2629
 6511SOL    HW230993   1.441   2.182  14.093 -0.0021 -1.1290  2.7177
 6512SOL     OW30994   1.212   4.303   0.820 -0.2224  0.3754  0.2137
 6512SOL    HW130995   1.197   4.341   0.907  2.3261  2.2155 -0.1626
 6512SOL    HW230996   1.174   4.216   0.833  0.5874  0.0978  0.7021
 6513SOL     OW30997   0.051   3.860   6.605  0.0794  0.1573  0.1864
 6513SOL    HW130998   0.059   3.939   6.659 -2.8271  0.1876  0.5561
 6513SOL    HW230999   0.093   3.879   6.521  2.5116 -1.1452  1.0869
 6514SOL     OW31000   3.344   3.323   1.655 -0.0497 -0.2775 -0.3373
 6514SOL    HW131001   3.395   3.381   1.598  0.0812 -0.0647 -0.0028
 6514SOL    HW231002   3.265   3.312   1.603  1.0592 -0.5424 -2.0033
 6515SOL     OW31003   1.601   4.463  14.769 -0.2007  0.2526  0.6230
 6515SOL    HW131004   1.530   4.507  14.722 -1.6980 -1.0435  1.6189
 6515SOL    HW231005   1.647   4.418  14.699 -0.6923 -1.1474  1.1954
 6516SOL     OW31006   2.703   3.040   6.064 -0.4329 -0.4852  0.0892
 6516SOL    HW131007   2.681   2.985   5.989  0.3913 -0.3975 -0.2104
 6516SOL    HW231008   2.759   2.976   6.108 -0.7146 -0.4618  0.4908
 6517SOL     OW31009   3.296   4.015   6.855 -0.1207  0.0372  0.6886
 6517SOL    HW131010   3.290   3.998   6.949 -1.0882 -0.6114  0.5116
 6517SOL    HW231011   3.297   4.109   6.842  0.7145 -0.2640 -1.4611
 6518SOL     OW31012   0.276   0.083  15.714 -0.4238  0.1645 -0.3965
 6518SOL    HW131013   0.251   0.158  15.660 -0.7073  0.0689 -0.3965
 6518SOL    HW231014   0.334   0.040  15.651  1.0300  0.8437  0.4771
 6519SOL     OW31015   2.152   1.635   5.302  0.7943 -0.9522 -0.6957
 6519SOL    HW131016   2.081   1.692   5.274  2.4878  0.6999 -1.6351
 6519SOL    HW231017   2.171   1.585   5.223 -0.7967 -1.0079 -1.0311
 6520SOL     OW31018   3.429   1.164   4.822  0.0607  0.3945  0.5966
 6520SOL    HW131019   3.427   1.256   4.851  2.0229  0.5856  0.1152
 6520SOL    HW231020   3.340   1.136   4.843 -0.2090 -1.8313 -3.4934
 6521SOL     OW31021   2.164   2.243   6.330 -0.3741  0.0627  0.5256
 6521SOL    HW131022   2.182   2.337   6.336  4.2504 -0.6431 -2.3708
 6521SOL    HW231023   2.228   2.199   6.387 -0.3978  1.3496  1.5585
 6522SOL     OW31024   4.150   4.475   1.683 -0.3743 -0.3135 -0.0544
 6522SOL    HW131025   4.114   4.476   1.594  4.6205  0.9574 -2.0563
 6522SOL    HW231026   4.106   4.396   1.715  0.4733 -1.3123 -1.3781
 6523SOL     OW31027   1.450   1.266   4.374 -0.5643  0.7851 -0.3652
 6523SOL    HW131028   1.519   1.207   4.402 -0.8435  1.2790  1.3593
 6523SOL    HW231029   1.491   1.331   4.316 -1.3254  1.3277 -0.3119
 6524SOL     OW31030   4.428   1.791  14.046 -0.1405  0.0074 -0.6342
 6524SOL    HW131031   4.384   1.875  14.059  1.9322  1.3164 -2.1849
 6524SOL    HW231032   4.491   1.807  14.116 -0.4055  1.9853 -0.8591
 6525SOL     OW31033   2.873   4.688   9.055  0.6253 -0.1076  0.3489
 6525SOL    HW131034   2.882   4.614   8.994 -0.1890 -0.8963  1.1907
 6525SOL    HW231035   2.788   0.006   9.036  0.7628 -0.4760 -1.0616
 6526SOL     OW31036   0.366   3.788   2.945 -0.1415  0.4298  0.4360
 6526SOL    HW131037   0.418   3.711   2.967 -0.9610 -0.4915 -0.8993
 6526SOL    HW231038   0.282   3.747   2.923 -0.9650  0.4955  3.3553
 6527SOL     OW31039   4.503   1.298  14.045  0.2593 -0.5093 -0.2209
 6527SOL    HW131040   4.522   1.379  14.091 -0.0622 -1.0900  0.9352
 6527SOL    HW231041   4.458   1.317  13.963  1.9395 -0.9946 -1.2477
 6528SOL     OW31042   0.946   3.995   8.359 -0.1543  0.3361  1.1549
 6528SOL    HW131043   0.962   3.985   8.453  0.3461 -1.2691  0.8948
 6528SOL    HW231044   0.862   4.040   8.370 -0.0343  0.6019  0.9696
 6529SOL     OW31045   1.094   4.601  16.284  0.5059  0.0656  0.1971
 6529SOL    HW131046   1.090   4.691  16.315  1.0173 -0.0226  0.5206
 6529SOL    HW231047   1.157   4.617  16.213  0.8131 -2.2817 -0.0564
 6530SOL     OW31048   0.505   4.668   5.570 -0.0415  0.2866 -0.8089
 6530SOL    HW131049   0.475   4.620   5.647 -0.6181  0.2402 -1.0584
 6530SOL    HW231050   0.582   4.617   5.545  0.0885  0.6087 -1.0608
 6531SOL     OW31051   2.563   3.124  12.391 -0.8280 -0.7789 -0.4239
 6531SOL    HW131052   2.547   3.107  12.484 -1.0207  1.8829  0.0325
 6531SOL    HW231053   2.484   3.176  12.377  1.3264  2.5926 -0.0744
 6532SOL     OW31054   3.055   1.167   7.348  0.3470 -0.4014  0.3356
 6532SOL    HW131055   3.146   1.178   7.320  0.5168  0.5877  1.2697
 6532SOL    HW231056   3.051   1.210   7.434 -2.3153 -2.2259  1.0976
 6533SOL     OW31057   2.443   3.631  14.204  0.0779  0.1585 -0.6403
 6533SOL    HW131058   2.399   3.696  14.258  0.8304  1.0089 -1.0399
 6533SOL    HW231059   2.414   3.669  14.121  0.5072  0.0339 -0.8522
 6534SOL     OW31060   0.622   1.832   3.915  0.2763  0.3053  0.5124
 6534SOL    HW131061   0.624   1.745   3.954 -1.1255 -0.4742 -1.1609
 6534SOL    HW231062   0.705   1.841   3.866  0.1243  3.2199  0.7876
 6535SOL     OW31063   4.444   1.617   2.744 -0.4192  0.2420 -0.4359
 6535SOL    HW131064   4.349   1.608   2.751 -0.4731  1.2480  0.2890
 6535SOL    HW231065   4.453   1.712   2.752  0.5387 -0.1462  3.3175
 6536SOL     OW31066   2.042   0.727   6.800 -0.4850 -0.1610  0.5652
 6536SOL    HW131067   1.963   0.762   6.843  0.5606  2.4535  0.3238
 6536SOL    HW231068   2.012   0.714   6.710 -0.3952 -1.9431  0.7821
 6537SOL     OW31069   0.953   3.493   6.535 -0.1447  0.0969 -0.1536
 6537SOL    HW131070   0.972   3.431   6.465 -0.0346 -0.2920  0.2220
 6537SOL    HW231071   0.866   3.525   6.508 -0.9461 -1.5072  0.5574
 6538SOL     OW31072   1.257   3.100   9.612  0.1902  0.8327  0.0010
 6538SOL    HW131073   1.284   3.126   9.700 -2.2348 -0.1972  1.0442
 6538SOL    HW231074   1.235   3.189   9.582  0.0309  0.3937 -1.1658
 6539SOL     OW31075   0.879   4.518   4.432 -0.2946 -0.2177 -0.6915
 6539SOL    HW131076   0.960   4.517   4.482 -0.8206  3.3352  0.2151
 6539SOL    HW231077   0.898   4.443   4.375 -1.3270 -0.3138 -0.9224
 6540SOL     OW31078   2.348   2.582   1.660 -0.2719 -0.0777 -0.0607
 6540SOL    HW131079   2.427   2.573   1.607 -1.4647 -1.5812 -1.5799
 6540SOL    HW231080   2.389   2.597   1.745 -0.3813  1.9553 -0.3732
 6541SOL     OW31081   4.371   2.943   9.473  0.3829 -0.0170 -0.1506
 6541SOL    HW131082   4.408   2.989   9.398 -0.5092  0.5316 -0.2555
 6541SOL    HW231083   4.359   3.006   9.544 -1.3767  0.2062 -0.6422
 6542SOL     OW31084   3.743   2.249   8.717  0.4079 -0.4565  0.1892
 6542SOL    HW131085   3.818   2.204   8.678 -0.3400 -1.4864 -0.0670
 6542SOL    HW231086   3.684   2.173   8.715 -1.3754  0.9376 -0.4305
 6543SOL     OW31087   4.532   2.054   4.770 -0.6041 -0.0438 -0.0912
 6543SOL    HW131088   4.573   2.089   4.691  1.5558  1.5414  1.7331
 6543SOL    HW231089   4.443   2.085   4.759 -1.3181 -2.4367 -0.9522
 6544SOL     OW31090   4.524   3.891   7.651 -0.2902 -0.5589  0.0502
 6544SOL    HW131091   4.524   3.919   7.559 -0.1493 -1.3760 -0.1960
 6544SOL    HW231092   4.459   3.951   7.688  0.7720  1.8588 -2.0082
 6545SOL     OW31093   3.028   1.451   3.513 -0.1222 -0.1771  0.1621
 6545SOL    HW131094   2.982   1.407   3.442  0.2748  0.6425 -0.6020
 6545SOL    HW231095   3.080   1.523   3.477  0.3714 -0.0835  1.0631
 6546SOL     OW31096   2.169   1.620   7.192 -0.0733  0.2930  0.0523
 6546SOL    HW131097   2.180   1.711   7.163 -1.4911  0.8494  1.2547
 6546SOL    HW231098   2.168   1.567   7.112  0.6408 -0.8877  0.8399
 6547SOL     OW31099   0.357   0.798   5.413  0.0023  0.2092 -0.5034
 6547SOL    HW131100   0.334   0.860   5.483 -1.2257  1.2228 -1.7940
 6547SOL    HW231101   0.435   0.758   5.451 -1.3111  0.4042  2.3258
 6548SOL     OW31102   3.729   4.699  11.358 -0.5547 -0.0094  0.5836
 6548SOL    HW131103   3.739   4.674  11.266 -0.2733  1.4706  0.2123
 6548SOL    HW231104   3.803   0.036  11.376 -2.0525  1.5554  1.5587
 6549SOL     OW31105   3.895   1.858  10.958  0.2880  0.2932  0.3494
 6549SOL    HW131106   3.972   1.911  10.978  0.3605  0.7361 -1.1235
 6549SOL    HW231107   3.894   1.780  11.014 -0.6168  0.7962  1.0231
 6550SOL     OW31108   0.113   0.566   7.009 -0.0135  0.2414 -0.0942
 6550SOL    HW131109   0.106   0.612   6.925 -1.7613  1.4076  0.6962
 6550SOL    HW231110   0.054   0.629   7.050  0.1055  1.6577 -2.0885
 6551SOL     OW31111   2.902   3.646   5.977 -0.3655  0.2531  0.6435
 6551SOL    HW131112   2.850   3.716   5.939  2.4241  1.8101 -0.2957
 6551SOL    HW231113   2.929   3.676   6.064  0.0645 -1.5476  1.1465
 6552SOL     OW31114   3.560   4.628   1.541 -0.1122  0.0329  0.1018
 6552SOL    HW131115   3.621   4.645   1.613 -0.2517  1.5867 -0.1487
 6552SOL    HW231116   3.548   4.534   1.556 -1.7427  0.2304  0.0746
 6553SOL     OW31117   1.209   2.411   0.163  0.1141  0.2348 -0.9584
 6553SOL    HW131118   1.165   2.333   0.129 -1.3587  1.1280 -1.1174
 6553SOL    HW231119   1.209   2.457   0.079  1.7949  1.5984 -0.2128
 6554SOL     OW31120   2.920   3.193   7.888 -0.1030  0.4624  0.5005
 6554SOL    HW131121   2.911   3.238   7.804  1.8805 -0.6740 -0.3294
 6554SOL    HW231122   2.863   3.240   7.948  0.0182 -0.1380  1.0888
 6555SOL     OW31123   2.215   0.697   8.060  0.3135 -0.3149  0.0706
 6555SOL    HW131124   2.209   0.635   8.132  2.9668  0.2401  0.7715
 6555SOL    HW231125   2.171   0.775   8.096 -0.1933 -1.3171  1.6074
 6556SOL     OW31126   2.957   3.260   4.186 -0.5057  0.5184 -0.6970
 6556SOL    HW131127   2.877   3.254   4.238 -0.3298 -1.0660 -0.5953
 6556SOL    HW231128   2.985   3.348   4.212 -1.9473  0.5719  0.6588
 6557SOL     OW31129   2.422   2.828   6.395  0.4064 -0.2328 -0.4371
 6557SOL    HW131130   2.511   2.798   6.378  1.3225  1.6789  0.9794
 6557SOL    HW231131   2.436   2.921   6.383  1.4963 -0.5407 -1.5965
 6558SOL     OW31132   1.812   3.830  11.576 -0.3684  0.7549  0.1213
 6558SOL    HW131133   1.800   3.771  11.502  0.6085 -1.0364  1.3838
 6558SOL    HW231134   1.807   3.766  11.647 -1.9489 -0.0643 -0.7277
 6559SOL     OW31135   0.452   1.602   7.059  0.1311 -0.3258  0.5729
 6559SOL    HW131136   0.366   1.561   7.045  0.3715  0.7290 -3.8676
 6559SOL    HW231137   0.448   1.655   7.138 -0.9102  0.5470 -0.0668
 6560SOL     OW31138   0.422   0.764   4.168 -0.1713  0.8904  0.0746
 6560SOL    HW131139   0.409   0.850   4.206 -0.8011  0.9123 -0.1825
 6560SOL    HW231140   0.423   0.710   4.247 -0.8430  0.1720 -0.4011
 6561SOL     OW31141   2.270   2.517   6.376  0.0644 -0.5622 -0.1104
 6561SOL    HW131142   2.271   2.514   6.472 -1.5255 -1.0232 -0.0990
 6561SOL    HW231143   2.358   2.544   6.350 -0.4199  1.9312  0.7982
 6562SOL     OW31144   0.876   1.995   1.450  0.3137  0.4796 -0.1512
 6562SOL    HW131145   0.829   1.913   1.432 -0.7423  1.3649 -1.5032
 6562SOL    HW231146   0.898   2.024   1.361  1.9452 -1.1065 -0.2532
 6563SOL     OW31147   3.343   3.675   4.380 -0.0242 -0.1155  0.5664
 6563SOL    HW131148   3.376   3.730   4.451  1.8901 -0.4935 -0.0293
 6563SOL    HW231149   3.381   3.591   4.407 -0.8960 -0.9245 -0.7363
 6564SOL     OW31150   1.302   1.022  16.700  0.2499 -0.2784  0.3336
 6564SOL    HW131151   1.320   1.045  16.609 -1.2228 -2.4109 -0.5169
 6564SOL    HW231152   1.239   1.088  16.728  2.9709  2.1567  0.6685
 6565SOL     OW31153   2.651   0.944  12.708  0.4171 -0.2814 -0.2783
 6565SOL    HW131154   2.658   1.021  12.765  0.7265 -0.5787  0.0783
 6565SOL    HW231155   2.563   0.959  12.672  0.5444 -1.7163 -1.1538
 6566SOL     OW31156   1.185   0.503   1.573 -0.2560  0.6055 -0.3402
 6566SOL    HW131157   1.130   0.581   1.579 -1.7060 -0.4978  0.8208
 6566SOL    HW231158   1.121   0.434   1.553 -2.8314  1.6506  4.1642
 6567SOL     OW31159   1.035   0.489   3.366 -0.3110 -0.2232  0.6268
 6567SOL    HW131160   0.974   0.433   3.414 -2.3610  0.6937 -0.8990
 6567SOL    HW231161   1.039   0.560   3.431 -0.7080 -1.6503  2.2156
 6568SOL     OW31162   2.202   4.171   3.442 -0.6920 -0.0856 -0.1764
 6568SOL    HW131163   2.111   4.195   3.461 -1.1378  0.0066 -2.4772
 6568SOL    HW231164   2.191   4.145   3.351 -0.1260 -0.3905 -0.1550
 6569SOL     OW31165   4.231   1.491   7.556 -0.6867  0.6529  0.4284
 6569SOL    HW131166   4.177   1.507   7.634  0.4275 -0.5000  1.4180
 6569SOL    HW231167   4.207   1.574   7.513  0.8022  0.6145 -0.4389
 6570SOL     OW31168   1.045   0.448   4.332  0.0765  0.2416  0.2599
 6570SOL    HW131169   1.119   0.428   4.389  0.5673 -4.1066 -1.8959
 6570SOL    HW231170   1.005   0.523   4.375  1.7600  0.1163  2.0715
 6571SOL     OW31171   2.620   3.882  12.628 -0.2778  0.0709  0.4728
 6571SOL    HW131172   2.716   3.879  12.636 -0.1129  1.4108 -1.1822
 6571SOL    HW231173   2.596   3.895  12.720  1.2819  1.2818  0.7228
 6572SOL     OW31174   0.844   2.917   3.645  0.4164 -0.0796  0.3111
 6572SOL    HW131175   0.845   3.013   3.635  3.4903 -0.5161 -3.6489
 6572SOL    HW231176   0.931   2.894   3.613  0.3064 -0.7140  0.4644
 6573SOL     OW31177   2.038   0.629   4.623 -0.3246 -0.6635  0.9176
 6573SOL    HW131178   2.044   0.673   4.538 -3.3827  2.0285  2.1128
 6573SOL    HW231179   1.945   0.641   4.641 -0.6718 -0.5838 -0.9228
 6574SOL     OW31180   3.558   3.485   7.607  0.0909  0.4718 -0.1180
 6574SOL    HW131181   3.634   3.473   7.549 -0.5313 -0.2370 -0.7871
 6574SOL    HW231182   3.588   3.563   7.653 -0.3282 -0.6866  2.1025
 6575SOL     OW31183   4.269   0.336  11.301  0.1126 -0.3281  0.0736
 6575SOL    HW131184   4.201   0.316  11.237  0.4916  0.8870 -0.7332
 6575SOL    HW231185   4.327   0.392  11.248  1.3300 -0.8132  0.8803
 6576SOL     OW31186   2.908   3.625  15.861  0.1717 -0.4645  0.6519
 6576SOL    HW131187   2.971   3.594  15.795  0.0226 -1.7906  1.1265
 6576SOL    HW231188   2.824   3.590  15.832  1.9323 -2.2238 -2.3848
 6577SOL     OW31189   0.311   0.456   6.453  0.2679  0.2094 -0.1799
 6577SOL    HW131190   0.288   0.397   6.525  0.4408  0.5908  0.1879
 6577SOL    HW231191   0.368   0.523   6.490 -1.7336  0.6547  2.0248
 6578SOL     OW31192   2.818   3.818   1.239 -0.1953  0.3210 -0.4302
 6578SOL    HW131193   2.823   3.733   1.284  1.0354  1.2674  1.2160
 6578SOL    HW231194   2.885   3.870   1.282 -0.3882  0.8013 -0.7125
 6579SOL     OW31195   0.310   1.861   6.890 -0.5104  0.0569  0.4617
 6579SOL    HW131196   0.386   1.831   6.940 -1.7023 -1.9127  1.0852
 6579SOL    HW231197   0.281   1.929   6.951  1.3368 -0.4436  1.9123
 6580SOL     OW31198   0.543   2.021   3.309  0.1453  0.2192  0.2796
 6580SOL    HW131199   0.589   2.086   3.255  0.1714 -1.0022 -1.1415
 6580SOL    HW231200   0.467   2.015   3.251  0.5150 -1.8591  0.0379
 6581SOL     OW31201   3.106   3.341   8.228 -0.1945 -0.2626 -0.0582
 6581SOL    HW131202   3.140   3.318   8.141 -0.0252  1.2097 -0.3821
 6581SOL    HW231203   3.183   3.383   8.267  1.7081 -1.2114 -2.7315
 6582SOL     OW31204   4.119   2.262   4.343  0.3096  0.0470  0.1190
 6582SOL    HW131205   4.117   2.268   4.248  1.8203 -0.9386  0.0214
 6582SOL    HW231206   4.139   2.351   4.371  0.9631 -0.4089  1.1070
 6583SOL     OW31207   2.526   3.877   3.200 -0.2211 -0.6404  0.4509
 6583SOL    HW131208   2.555   3.897   3.110 -1.0845 -0.2685  0.2551
 6583SOL    HW231209   2.605   3.834   3.234  0.1532  0.4782  0.9887
 6584SOL     OW31210   3.953   2.119  13.582 -0.5812  0.4164 -0.5144
 6584SOL    HW131211   3.956   2.211  13.555 -2.2554  0.4271 -0.6933
 6584SOL    HW231212   3.899   2.129  13.661 -0.4283 -1.4411 -0.1774
 6585SOL     OW31213   1.055   3.988   8.110  0.4750 -0.1338 -0.1934
 6585SOL    HW131214   1.000   4.006   8.187  0.2576 -1.6850  0.0155
 6585SOL    HW231215   1.050   3.893   8.120  2.1254 -0.3572 -1.4953
 6586SOL     OW31216   3.456   1.793  11.380  0.3969  0.3103  0.0370
 6586SOL    HW131217   3.403   1.803  11.301 -0.0201 -1.4714  0.0953
 6586SOL    HW231218   3.509   1.873  11.378  0.0096  0.5351 -1.7460
 6587SOL     OW31219   2.726   4.067   1.903  0.3240 -0.1250 -0.2316
 6587SOL    HW131220   2.821   4.058   1.892  0.5752  1.4176  0.6971
 6587SOL    HW231221   2.696   3.978   1.885  1.2516  0.1439 -3.1886
 6588SOL     OW31222   3.567   3.261   4.669  0.0201 -0.2752 -0.3302
 6588SOL    HW131223   3.574   3.248   4.574  1.2686  0.1712 -0.2964
 6588SOL    HW231224   3.611   3.180   4.694  2.0596  0.7972 -0.4843
 6589SOL     OW31225   2.546   0.771   2.695 -0.2604  0.4125  0.1395
 6589SOL    HW131226   2.557   0.687   2.740 -0.4817  0.8600  1.0315
 6589SOL    HW231227   2.501   0.751   2.613 -0.1329 -0.9634  0.4027
 6590SOL     OW31228   3.118   2.825  12.619  1.4522  0.4365 -0.2715
 6590SOL    HW131229   3.098   2.892  12.684 -2.2651 -0.6863 -0.2929
 6590SOL    HW231230   3.038   2.773  12.624  1.4045  0.5305 -0.0800
 6591SOL     OW31231   3.148   2.035  12.788 -0.5427 -0.0797  0.2706
 6591SOL    HW131232   3.197   2.057  12.867 -0.6859 -0.4559  0.4641
 6591SOL    HW231233   3.131   2.119  12.746 -1.1152 -0.7766 -0.9035
 6592SOL     OW31234   3.179   2.401   0.640  0.2912 -0.3688  0.2561
 6592SOL    HW131235   3.253   2.462   0.632 -1.1537  1.1655 -1.4263
 6592SOL    HW231236   3.229   2.320   0.646  1.0981  0.0766 -0.5003
 6593SOL     OW31237   4.634   3.124   7.154  0.2637  0.0851  0.0037
 6593SOL    HW131238   4.617   3.118   7.248  2.8380  1.3418  0.5320
 6593SOL    HW231239   4.600   3.213   7.146  0.6712  0.1606 -0.8588
 6594SOL     OW31240   0.791   2.944   8.137 -0.6985  0.2045  0.5974
 6594SOL    HW131241   0.876   2.976   8.109 -0.6733 -0.7797 -0.4516
 6594SOL    HW231242   0.738   3.023   8.149  0.2599  0.7692  1.0612
 6595SOL     OW31243   3.334   4.330   1.858 -0.3875 -0.1439 -0.5734
 6595SOL    HW131244   3.298   4.307   1.944  2.4679  0.4685  0.7998
 6595SOL    HW231245   3.349   4.423   1.875 -2.3350  0.2843 -1.1799
 6596SOL     OW31246   1.417   2.845   1.906 -0.1378  0.4760 -0.3755
 6596SOL    HW131247   1.421   2.754   1.934  0.8147  0.5324 -0.3040
 6596SOL    HW231248   1.396   2.837   1.813  0.0885 -0.7470 -0.3262
 6597SOL     OW31249   3.215   0.556   7.811 -0.4553  0.0676 -0.0141
 6597SOL    HW131250   3.140   0.605   7.777 -2.7720 -0.8755  3.7281
 6597SOL    HW231251   3.201   0.564   7.906 -1.3242 -0.2574 -0.1207
 6598SOL     OW31252   2.649   2.714   6.881  0.3708 -0.1286  0.2134
 6598SOL    HW131253   2.581   2.688   6.818  0.9748 -0.0872 -0.4567
 6598SOL    HW231254   2.598   2.788   6.914 -0.3323 -0.4342 -0.1823
 6599SOL     OW31255   1.039   3.067  15.768  0.5240  0.1466  0.8004
 6599SOL    HW131256   0.996   3.152  15.777 -0.4107 -0.0342 -1.9821
 6599SOL    HW231257   0.980   3.007  15.813  2.1401 -2.1179 -0.0823
 6600SOL     OW31258   4.209   1.791   3.631  0.0097 -0.3212 -0.0053
 6600SOL    HW131259   4.221   1.844   3.553  0.9705 -2.6393 -1.4397
 6600SOL    HW231260   4.140   1.840   3.676 -0.1140 -1.1104  0.6689
 6601SOL     OW31261   2.337   4.503   9.320 -0.0655 -0.1587  0.2658
 6601SOL    HW131262   2.427   4.519   9.347 -0.5055  0.3387  1.4254
 6601SOL    HW231263   2.322   4.433   9.383  1.3758 -0.8032 -0.1058
 6602SOL     OW31264   2.428   0.020   1.212  0.3222 -0.2689  0.2646
 6602SOL    HW131265   2.430   4.649   1.187 -1.2890  0.1517 -1.4181
 6602SOL    HW231266   2.432   0.071   1.132  1.5645  1.9090  1.7345
 6603SOL     OW31267   0.500   3.164   7.083  0.2608 -0.5148  0.0831
 6603SOL    HW131268   0.432   3.123   7.029 -0.6192 -0.5285  1.1944
 6603SOL    HW231269   0.570   3.168   7.018  0.3829  1.3001  0.3127
 6604SOL     OW31270   2.761   2.928   7.829  0.4539  0.4116  0.2741
 6604SOL    HW131271   2.751   2.947   7.922 -0.0539  1.8525 -0.0849
 6604SOL    HW231272   2.847   2.889   7.812  1.2968  1.4797  2.0988
 6605SOL     OW31273   2.699   3.062   9.978 -0.0644  0.4793  0.1992
 6605SOL    HW131274   2.697   3.079  10.072  1.0684  1.0831  0.1192
 6605SOL    HW231275   2.792   3.079   9.961  0.1843 -3.3734 -2.4391
 6606SOL     OW31276   0.382   2.329   4.379  0.2317 -0.2507  0.1290
 6606SOL    HW131277   0.400   2.423   4.383  0.8348 -0.2612 -2.5125
 6606SOL    HW231278   0.342   2.314   4.465 -1.4297  0.0284 -0.5878
 6607SOL     OW31279   2.153   3.513   1.571 -0.5498  0.0269  0.0975
 6607SOL    HW131280   2.169   3.550   1.484 -0.8407 -0.0793  0.0023
 6607SOL    HW231281   2.058   3.507   1.571 -0.6761  2.0556 -2.0814
 6608SOL     OW31282   1.135   0.660   6.818  0.0931 -0.5831 -0.0529
 6608SOL    HW131283   1.128   0.663   6.723  1.2022  0.5358 -0.1017
 6608SOL    HW231284   1.081   0.585   6.842  1.7635 -1.6694  0.3498
 6609SOL     OW31285   4.482   2.885  11.746  0.0518 -0.1908 -0.1986
 6609SOL    HW131286   4.493   2.792  11.765 -0.4680 -0.0205  0.8983
 6609SOL    HW231287   4.401   2.892  11.796 -0.2646  1.0136 -0.8972
 6610SOL     OW31288   1.251   0.334   5.311  0.6071  0.5778 -0.4457
 6610SOL    HW131289   1.247   0.426   5.339  1.5066  1.2764 -2.5909
 6610SOL    HW231290   1.332   0.305   5.353  0.4664  0.6229 -0.1460
 6611SOL     OW31291   1.617   2.324  13.550 -0.5648 -0.2510  0.1357
 6611SOL    HW131292   1.698   2.365  13.520 -0.0842 -0.8918  0.5589
 6611SOL    HW231293   1.619   2.244  13.499 -2.5878  1.2617 -2.3188
 6612SOL     OW31294   0.546   0.024  13.193  0.4783  0.0531  0.0174
 6612SOL    HW131295   0.609   0.089  13.161 -0.5034  0.9125 -0.1806
 6612SOL    HW231296   0.530   4.702  13.109  1.2148  0.0907 -0.1464
 6613SOL     OW31297   2.266   2.694   0.415 -0.5018 -0.0012  0.4754
 6613SOL    HW131298   2.209   2.740   0.477 -0.6276 -0.0888  0.4254
 6613SOL    HW231299   2.298   2.624   0.472  2.1838  0.1074 -0.9467
 6614SOL     OW31300   1.735   1.209   3.178  0.4934  0.3965 -0.2277
 6614SOL    HW131301   1.751   1.296   3.143  0.4380  0.0879 -1.0174
 6614SOL    HW231302   1.653   1.184   3.135 -0.6950  0.7924  1.8076
 6615SOL     OW31303   2.705   2.589  12.774  0.2289 -0.2301 -0.4196
 6615SOL    HW131304   2.717   2.499  12.804 -1.4910 -0.4378 -0.3617
 6615SOL    HW231305   2.659   2.584  12.691  0.7660  0.2983 -0.7512
 6616SOL     OW31306   1.624   0.807  13.879 -0.1305 -0.3792  0.3379
 6616SOL    HW131307   1.614   0.899  13.856 -0.9489 -0.6432 -0.3642
 6616SOL    HW231308   1.585   0.774  13.798 -0.1413  2.4365 -0.8070
 6617SOL     OW31309   2.444   0.159   7.155  0.2483 -0.6197  0.3583
 6617SOL    HW131310   2.479   0.223   7.093 -0.8704 -0.1703  0.1834
 6617SOL    HW231311   2.456   0.200   7.240 -0.3191 -0.4312  0.3538
 6618SOL     OW31312   3.203   2.483   1.254  0.2126  0.8816  0.3707
 6618SOL    HW131313   3.123   2.509   1.299 -0.7377 -0.0398 -0.8017
 6618SOL    HW231314   3.205   2.538   1.176 -0.6588  0.8530  0.3373
 6619SOL     OW31315   2.781   3.898   7.602 -0.4737 -0.0922 -0.0638
 6619SOL    HW131316   2.813   3.952   7.529 -0.3877  1.8177  1.3727
 6619SOL    HW231317   2.691   3.929   7.611 -0.8120 -0.7718 -1.0872
 6620SOL     OW31318   3.872   4.433   8.385  0.2686 -0.1489 -0.3425
 6620SOL    HW131319   3.849   4.526   8.381 -1.4231 -0.5933 -1.5898
 6620SOL    HW231320   3.858   4.427   8.479  0.1633 -0.2189 -0.3616
 6621SOL     OW31321   3.508   0.766   3.030  0.1568 -0.3509 -0.3723
 6621SOL    HW131322   3.599   0.737   3.026  0.5914  0.6872  2.5263
 6621SOL    HW231323   3.524   0.850   2.988  2.1754 -0.5674 -0.0053
 6622SOL     OW31324   2.530   2.476   3.438  0.0640 -0.0641  0.6235
 6622SOL    HW131325   2.441   2.453   3.409 -1.0717  2.4350  2.0974
 6622SOL    HW231326   2.580   2.487   3.357 -1.0073 -0.8894 -0.1501
 6623SOL     OW31327   2.408   1.408  14.884 -0.7881 -0.1538 -0.2449
 6623SOL    HW131328   2.433   1.491  14.926 -1.3412 -0.9202  1.6147
 6623SOL    HW231329   2.445   1.397  14.797  1.7785 -0.4628  0.9104
 6624SOL     OW31330   3.436   0.869   1.369  0.0311  0.1703 -0.0056
 6624SOL    HW131331   3.405   0.790   1.413 -2.2339  0.7071 -0.6561
 6624SOL    HW231332   3.522   0.841   1.337  0.1553  0.5908 -0.0408
 6625SOL     OW31333   0.213   1.665   0.989 -0.0483  0.0664  0.0927
 6625SOL    HW131334   0.286   1.721   0.962 -1.0275  1.7576  0.9516
 6625SOL    HW231335   0.184   1.710   1.068  2.4021  0.1356  0.9390
 6626SOL     OW31336   4.639   3.058   8.453 -0.0226  0.1686 -0.3592
 6626SOL    HW131337   4.681   3.102   8.379  0.3491 -1.1037 -0.9094
 6626SOL    HW231338   4.679   3.106   8.525  3.0832 -0.1990 -1.8416
 6627SOL     OW31339   2.900   0.322  11.141  0.7938  0.6562  0.2494
 6627SOL    HW131340   2.868   0.327  11.231  0.0959 -0.5191  0.0744
 6627SOL    HW231341   2.918   0.228  11.149 -1.2261  0.4156  1.8605
 6628SOL     OW31342   4.517   3.141  10.251 -0.4974 -0.0412  0.0277
 6628SOL    HW131343   4.505   3.233  10.275  0.8427  0.2540 -0.4140
 6628SOL    HW231344   4.426   3.112  10.255 -0.4544 -0.8297 -5.3484
 6629SOL     OW31345   3.902   0.489   0.405 -0.1161 -0.2683 -0.2156
 6629SOL    HW131346   3.877   0.403   0.373 -0.6759 -0.3818  0.5222
 6629SOL    HW231347   3.963   0.528   0.342  1.2631 -0.0807  1.2413
 6630SOL     OW31348   1.455   2.469   5.090 -0.2382 -0.0368  0.2050
 6630SOL    HW131349   1.375   2.418   5.101 -0.2375 -0.5434 -2.0802
 6630SOL    HW231350   1.476   2.428   5.006 -0.2601 -1.8597  1.0920
 6631SOL     OW31351   2.796   3.024  13.299  0.0887 -0.4125 -0.3413
 6631SOL    HW131352   2.857   3.088  13.336  2.5942 -2.7316 -0.4279
 6631SOL    HW231353   2.821   2.945  13.347 -0.4981 -0.5891 -0.3277
 6632SOL     OW31354   3.795   3.489  15.853  0.0550 -0.3123  0.0242
 6632SOL    HW131355   3.882   3.529  15.849 -0.4969  0.7367 -1.6138
 6632SOL    HW231356   3.802   3.444  15.937  1.6019  0.7790  0.4821
 6633SOL     OW31357   0.761   3.707  16.960  0.0172  0.7014  0.1073
 6633SOL    HW131358   0.810   3.627  16.978  0.6172  0.6893 -1.6215
 6633SOL    HW231359   0.701   3.720  17.033 -0.5058  1.6959 -0.4992
 6634SOL     OW31360   2.645   3.391   5.883 -0.1092 -0.5271 -0.2376
 6634SOL    HW131361   2.693   3.404   5.801 -1.7425  1.2034 -0.9126
 6634SOL    HW231362   2.640   3.480   5.919  0.4494 -0.4108 -0.4527
 6635SOL     OW31363   3.786   4.083  17.605  0.0622 -0.3968 -0.1916
 6635SOL    HW131364   3.829   4.039  17.531 -1.4565 -0.8260 -0.8099
 6635SOL    HW231365   3.851   4.150  17.626  0.0007 -0.3728 -0.0800
 6636SOL     OW31366   2.372   2.962   0.246 -0.7652 -0.2144 -0.2079
 6636SOL    HW131367   2.412   3.002   0.169  0.5464  1.0103  1.0889
 6636SOL    HW231368   2.363   3.045   0.293  0.6045 -0.1207 -0.1045
 6637SOL     OW31369   1.308   3.245   0.528 -0.5076 -0.0660 -0.3550
 6637SOL    HW131370   1.348   3.264   0.443  1.3194  1.9273  0.9565
 6637SOL    HW231371   1.228   3.297   0.523 -0.6702 -0.4255 -1.5289
 6638SOL     OW31372   1.001   0.895  12.548 -0.4332  0.3275  0.4990
 6638SOL    HW131373   1.084   0.917  12.505 -0.2556  0.3496  0.8578
 6638SOL    HW231374   0.948   0.867  12.473 -0.8634  0.9760  0.5554
 6639SOL     OW31375   4.378   0.498   4.300 -0.5460 -0.2879  0.4323
 6639SOL    HW131376   4.316   0.509   4.228  0.7010 -0.0188 -0.6141
 6639SOL    HW231377   4.369   0.581   4.345 -1.5285  1.8558 -3.6821
 6640SOL     OW31378   2.507   2.337  12.748 -0.0256 -0.4652  0.0745
 6640SOL    HW131379   2.554   2.348  12.830  1.8318 -0.3050 -1.0181
 6640SOL    HW231380   2.419   2.367  12.774 -1.0275 -2.4023 -1.0585
 6641SOL     OW31381   0.344   4.127   7.693 -0.3025  0.8134 -0.5299
 6641SOL    HW131382   0.301   4.057   7.742 -0.1720  1.1919  0.1293
 6641SOL    HW231383   0.433   4.125   7.730 -0.1665  0.1136 -0.9008
 6642SOL     OW31384   3.894   3.148  10.519  0.1718  0.4609  0.4016
 6642SOL    HW131385   3.935   3.223  10.561 -0.5403  0.7052  0.6658
 6642SOL    HW231386   3.960   3.127  10.452 -0.2484  0.9427 -0.1722
 6643SOL     OW31387   3.073   1.749   5.545 -0.1974  0.6556  0.2164
 6643SOL    HW131388   3.003   1.731   5.482  0.4637  0.2433 -0.3971
 6643SOL    HW231389   3.035   1.715   5.626  0.3611 -0.3805  0.0390
 6644SOL     OW31390   1.966   2.092   5.781 -0.1510 -0.6516 -0.2851
 6644SOL    HW131391   1.889   2.039   5.761  0.0684 -0.4250 -1.7063
 6644SOL    HW231392   2.014   2.081   5.699 -0.9121 -1.0131 -0.6861
 6645SOL     OW31393   4.248   0.278   3.479 -0.2825  0.0882 -0.1228
 6645SOL    HW131394   4.215   0.242   3.561 -1.4750  1.2356 -0.0937
 6645SOL    HW231395   4.333   0.296   3.518 -0.8595  0.1748  1.0962
 6646SOL     OW31396   0.007   3.785   5.636 -0.0599  0.2648 -0.1971
 6646SOL    HW131397   4.709   3.848   5.706  0.3662  0.6865 -0.4565
 6646SOL    HW231398   4.642   3.774   5.596 -0.7486  2.9733  0.5105
 6647SOL     OW31399   0.266   2.870   5.887 -0.3353 -0.1841 -0.0092
 6647SOL    HW131400   0.359   2.886   5.879  0.0901 -2.1765  0.9381
 6647SOL    HW231401   0.247   2.872   5.981  2.6563 -0.5259  0.5839
 6648SOL     OW31402   0.869   0.882   2.832 -0.2373  0.2689  0.0374
 6648SOL    HW131403   0.820   0.943   2.777 -1.0571 -0.3171  0.1155
 6648SOL    HW231404   0.803   0.851   2.894  0.0377 -0.8533 -0.2320
 6649SOL     OW31405   0.216   1.469   2.679  0.1879 -0.0635  0.1359
 6649SOL    HW131406   0.190   1.453   2.589  1.7333  0.9565 -0.4850
 6649SOL    HW231407   0.289   1.408   2.691  0.9090  0.3384 -2.2735
 6650SOL     OW31408   1.505   1.871  10.023  0.1096 -0.7006 -0.0522
 6650SOL    HW131409   1.475   1.883  10.113 -0.2339  2.4321 -0.5942
 6650SOL    HW231410   1.503   1.961   9.992  1.3399 -0.7153 -0.1699
 6651SOL     OW31411   3.293   0.810  15.546  0.5004  0.1815 -0.0766
 6651SOL    HW131412   3.317   0.757  15.470  0.0300 -1.8467  1.1972
 6651SOL    HW231413   3.284   0.737  15.607  0.8567  0.3765  0.2038
 6652SOL     OW31414   3.494   3.072   6.516  0.0502  0.0628 -0.3837
 6652SOL    HW131415   3.437   3.087   6.592  0.5629 -0.7524  0.1544
 6652SOL    HW231416   3.481   3.159   6.478  2.3919  1.0056  0.9561
 6653SOL     OW31417   3.663   3.265  17.183  0.5234 -0.1229 -0.0361
 6653SOL    HW131418   3.587   3.270  17.125  0.5911  3.2914  0.1365
 6653SOL    HW231419   3.672   3.360  17.196  3.1118 -0.1911 -1.3511
 6654SOL     OW31420   2.233   1.270   2.404 -0.0270  0.2059  0.7260
 6654SOL    HW131421   2.300   1.274   2.472  0.7859  0.3766 -0.0771
 6654SOL    HW231422   2.151   1.279   2.452  0.5551  0.1817  1.7203
 6655SOL     OW31423   2.030   2.598   0.668  0.1513  0.1577  0.3235
 6655SOL    HW131424   2.120   2.604   0.701 -0.2569  1.0886  1.2462
 6655SOL    HW231425   2.012   2.691   0.654  1.3760  0.3576  0.0156
 6656SOL     OW31426   1.031   0.172   0.178  0.0273 -0.1345  0.1930
 6656SOL    HW131427   1.026   0.179   0.083  0.4314 -1.3796  0.0840
 6656SOL    HW231428   1.114   0.127   0.190  0.2767  0.3431  0.2476
 6657SOL     OW31429   4.431   2.864   1.445  0.5930 -0.3164 -0.1104
 6657SOL    HW131430   4.497   2.874   1.513  0.6933 -2.1039  0.0690
 6657SOL    HW231431   4.488   2.889   1.374  1.1941 -0.2556  0.3929
 6658SOL     OW31432   2.996   2.637   4.336 -0.0368  0.2327 -0.2871
 6658SOL    HW131433   3.088   2.643   4.361 -0.5885  2.2434  1.3090
 6658SOL    HW231434   2.978   2.543   4.340  0.4751  0.0711 -2.0574
 6659SOL     OW31435   2.947   0.594   6.890 -0.5819 -0.0140 -0.3098
 6659SOL    HW131436   3.005   0.598   6.965  1.4711 -1.1742 -1.8241
 6659SOL    HW231437   2.870   0.544   6.919  0.5496 -2.0134 -0.7504
 6660SOL     OW31438   2.452   0.297  12.587 -0.5296  0.0987  0.0417
 6660SOL    HW131439   2.386   0.328  12.525  1.3243  0.2873 -1.8139
 6660SOL    HW231440   2.429   0.356  12.659 -2.6912  0.8936 -1.2849
 6661SOL     OW31441   0.507   3.306  14.072  0.7974 -0.3135  0.2786
 6661SOL    HW131442   0.536   3.294  14.163  1.0973 -0.4855  0.1592
 6661SOL    HW231443   0.474   3.222  14.041 -0.0248  0.4544 -0.9288
 6662SOL     OW31444   2.170   3.394  11.574  0.9381  0.3508  0.2647
 6662SOL    HW131445   2.187   3.451  11.649  1.9012  0.4370 -0.0303
 6662SOL    HW231446   2.133   3.319  11.620  0.7296  0.2680 -0.0336
 6663SOL     OW31447   2.662   4.058  12.407 -0.3413 -0.3232 -0.6314
 6663SOL    HW131448   2.629   4.140  12.445  2.1941  1.0421 -1.3577
 6663SOL    HW231449   2.639   3.996  12.477  0.6562 -1.4351 -1.3000
 6664SOL     OW31450   0.943   0.287   4.841  0.1552 -0.5894 -0.3189
 6664SOL    HW131451   0.982   0.231   4.909  0.5110  0.4278  0.3153
 6664SOL    HW231452   0.858   0.243   4.845 -0.1000 -0.0769 -0.1416
 6665SOL     OW31453   3.292   1.076  15.570 -0.2524 -0.4300 -0.7555
 6665SOL    HW131454   3.290   0.982  15.556  1.7810 -0.2195 -2.4682
 6665SOL    HW231455   3.358   1.077  15.639 -2.0472  1.5957  0.9087
 6666SOL     OW31456   4.361   3.059   6.574  0.3947  0.2158  0.3736
 6666SOL    HW131457   4.298   3.129   6.563 -0.5218 -0.6574  0.0725
 6666SOL    HW231458   4.435   3.100   6.620 -1.1063  2.8312  0.4465
 6667SOL     OW31459   0.198   0.496   9.100  0.2653  0.4285 -0.0238
 6667SOL    HW131460   0.238   0.411   9.119  0.4318  0.3512 -0.7073
 6667SOL    HW231461   0.113   0.459   9.079  0.8843 -1.1265  0.1818
 6668SOL     OW31462   3.918   0.589   5.710 -0.3744 -0.3787 -0.2879
 6668SOL    HW131463   3.834   0.610   5.671 -1.5089 -0.9300  1.8750
 6668SOL    HW231464   3.905   0.500   5.742  2.6570  0.0309  2.1625
 6669SOL     OW31465   1.175   3.254  11.016  0.8388 -0.3946 -0.3175
 6669SOL    HW131466   1.088   3.281  10.985  0.8993  1.0232  0.7153
 6669SOL    HW231467   1.186   3.313  11.090 -1.1195 -0.4880  0.0591
 6670SOL     OW31468   2.636   2.547   6.035  1.1781 -0.1888  0.4048
 6670SOL    HW131469   2.706   2.571   5.975  1.3078 -1.1133  0.1831
 6670SOL    HW231470   2.680   2.573   6.116  0.0404  3.6713 -0.2337
 6671SOL     OW31471   1.594   2.684   3.811  0.3289  0.1797 -0.5168
 6671SOL    HW131472   1.540   2.628   3.866 -0.3753  0.8628 -0.5160
 6671SOL    HW231473   1.536   2.720   3.744 -1.8318 -1.5052  0.4799
 6672SOL     OW31474   4.218   0.553   4.041 -0.0443  0.7537  0.0562
 6672SOL    HW131475   4.134   0.527   4.003  0.3572  0.3464 -0.5633
 6672SOL    HW231476   4.202   0.645   4.064 -0.2519  0.5350  0.7709
 6673SOL     OW31477   2.826   3.342  16.568 -0.2217  0.4479 -0.0529
 6673SOL    HW131478   2.735   3.351  16.598 -1.3530 -1.8947 -2.7744
 6673SOL    HW231479   2.822   3.290  16.488 -0.2494 -0.3348  0.4569
 6674SOL     OW31480   4.472   0.183  16.484  0.4110  0.4007  0.4919
 6674SOL    HW131481   4.463   0.105  16.538  0.4296  0.4554  0.5747
 6674SOL    HW231482   4.399   0.170  16.424  0.8707 -0.4134  0.1166
 6675SOL     OW31483   1.087   1.638   9.831 -0.1960 -0.0015 -0.0719
 6675SOL    HW131484   1.131   1.717   9.801  4.0783 -2.3355  0.0909
 6675SOL    HW231485   1.157   1.591   9.876 -0.9307 -0.3043  0.7734
 6676SOL     OW31486   1.201   1.452   1.456 -0.9195  0.2059 -0.7763
 6676SOL    HW131487   1.232   1.367   1.425  3.4880  1.9129 -1.1743
 6676SOL    HW231488   1.106   1.443   1.460 -1.0012  0.8248 -1.3111
 6677SOL     OW31489   3.299   4.277   6.928 -0.0607  0.3344  0.0662
 6677SOL    HW131490   3.213   4.315   6.908 -1.9149 -3.2772  0.9441
 6677SOL    HW231491   3.362   4.349   6.928  0.8842 -0.4972 -0.8601
 6678SOL     OW31492   3.369   0.508   1.928 -0.0599  0.7970  0.2588
 6678SOL    HW131493   3.451   0.482   1.885 -0.3577 -2.3755  1.6196
 6678SOL    HW231494   3.314   0.438   1.893  0.5571  0.2252  0.4234
 6679SOL     OW31495   0.459   0.446   0.430 -0.0821  0.2851  0.1233
 6679SOL    HW131496   0.432   0.517   0.373  0.7356  0.6042  0.1287
 6679SOL    HW231497   0.523   0.407   0.370  0.5704  0.1837  0.8729
 6680SOL     OW31498   1.960   3.925  11.311  0.2785  0.2701  0.0760
 6680SOL    HW131499   1.908   3.988  11.261 -1.1295 -2.2998 -1.6831
 6680SOL    HW231500   1.895   3.857  11.330  0.9847 -0.3109  0.3674
 6681SOL     OW31501   1.649   2.076   6.472  0.6808 -0.5305 -0.2728
 6681SOL    HW131502   1.735   2.094   6.435  1.0101 -0.0400  0.7561
 6681SOL    HW231503   1.672   2.044   6.559  1.2025  0.5527 -0.0125
 6682SOL     OW31504   4.391   3.798  13.580  0.3018 -0.1242 -0.2478
 6682SOL    HW131505   4.400   3.835  13.492 -1.1421  2.6658  0.7742
 6682SOL    HW231506   4.312   3.836  13.619  0.7706 -0.5194  1.1052
 6683SOL     OW31507   2.646   0.944   6.866  0.1581  0.6784  0.3206
 6683SOL    HW131508   2.633   1.037   6.883 -0.6706  0.4575  0.9357
 6683SOL    HW231509   2.586   0.927   6.794  1.0930  0.7052 -0.4621
 6684SOL     OW31510   4.703   0.946   6.711 -0.3552 -0.5144  0.4399
 6684SOL    HW131511   0.048   0.998   6.665 -0.7842  1.4903  2.1112
 6684SOL    HW231512   4.689   0.882   6.641  0.5703 -0.5974  0.3285
 6685SOL     OW31513   4.054   2.847   5.827  0.3998 -0.2068 -0.6158
 6685SOL    HW131514   4.084   2.934   5.801  1.8667 -0.5448 -0.0291
 6685SOL    HW231515   4.016   2.875   5.910 -0.1349 -1.5158 -0.4113
 6686SOL     OW31516   4.549   4.269   6.593  0.3087  0.0200  0.1441
 6686SOL    HW131517   4.609   4.344   6.591  0.3633 -0.1094 -2.7344
 6686SOL    HW231518   4.498   4.276   6.512 -2.7110 -2.1080  1.8513
 6687SOL     OW31519   2.022   1.701   2.253 -0.3741 -0.1421  0.2678
 6687SOL    HW131520   2.102   1.722   2.300  1.6452  0.4499 -3.3654
 6687SOL    HW231521   2.065   1.693   2.168 -1.7289  1.9441 -0.6149
 6688SOL     OW31522   0.166   2.427   4.220 -0.3737  0.0047 -0.1349
 6688SOL    HW131523   0.111   2.476   4.281  2.3499  1.9312  0.7890
 6688SOL    HW231524   0.231   2.405   4.286  0.4818  1.3999 -0.4975
 6689SOL     OW31525   3.820   1.011   3.589  0.2875 -0.2396  0.0075
 6689SOL    HW131526   3.794   1.069   3.517  1.2367  1.0244  0.6730
 6689SOL    HW231527   3.913   1.032   3.600 -0.2290  1.4931  1.0270
 6690SOL     OW31528   0.093   4.636  14.296 -0.3652 -0.5597 -0.1018
 6690SOL    HW131529   0.170   4.580  14.291 -1.0489 -1.1974 -3.4589
 6690SOL    HW231530   0.080   4.631  14.391  2.6262 -2.1225  0.2232
 6691SOL     OW31531   3.377   2.961   3.996  0.3592 -0.9798  0.2194
 6691SOL    HW131532   3.350   2.882   4.041 -0.3262 -0.7792  0.1604
 6691SOL    HW231533   3.415   3.011   4.068 -0.2949  0.4433 -0.4239
 6692SOL     OW31534   0.141   4.585   2.013  0.7496 -0.0196 -0.3337
 6692SOL    HW131535   0.069   4.636   2.050  2.2326  2.2581 -0.5715
 6692SOL    HW231536   0.129   4.597   1.919 -1.3664 -1.3293 -0.2208
 6693SOL     OW31537   3.335   3.641  12.464  0.8073  0.9011  0.0547
 6693SOL    HW131538   3.350   3.574  12.531 -1.4397 -1.7058 -2.0716
 6693SOL    HW231539   3.413   3.626  12.411 -0.7046 -2.2346 -1.2614
 6694SOL     OW31540   2.831   0.069   4.402 -0.3362  0.2648 -0.1240
 6694SOL    HW131541   2.909   0.066   4.458 -0.6373  1.8169  0.3710
 6694SOL    HW231542   2.767   0.112   4.457  1.4998  2.0158  0.6213
 6695SOL     OW31543   1.153   3.193   4.517 -0.1772 -0.0235 -0.1019
 6695SOL    HW131544   1.169   3.104   4.551  0.5919 -0.1707 -0.8535
 6695SOL    HW231545   1.239   3.231   4.499  0.7677 -1.9561  0.3352
 6696SOL     OW31546   4.460   0.306  17.388  0.5736 -0.3765 -0.1653
 6696SOL    HW131547   4.369   0.303  17.418  0.4357 -1.8322 -0.7023
 6696SOL    HW231548   4.484   0.390  17.425  0.8194 -0.8698  0.7957
 6697SOL     OW31549   4.007   2.851   9.996  0.0070  0.6316  0.7386
 6697SOL    HW131550   4.018   2.933   9.947 -2.6088  0.6770  0.2505
 6697SOL    HW231551   3.912   2.848  10.002 -0.0456 -0.0824 -0.4692
 6698SOL     OW31552   3.797   3.565   5.984  0.1561 -0.5680 -0.5206
 6698SOL    HW131553   3.779   3.510   5.908 -1.4131  0.3675 -0.8270
 6698SOL    HW231554   3.825   3.646   5.940 -0.0093 -0.1985  0.0666
 6699SOL     OW31555   1.547   4.568   8.273  0.4702 -0.3559  0.0055
 6699SOL    HW131556   1.519   4.479   8.250  0.9135 -0.1086 -1.4895
 6699SOL    HW231557   1.642   4.560   8.275  0.3003 -1.4538  3.2120
 6700SOL     OW31558   2.841   1.152   3.426 -0.1249  0.4687 -0.2356
 6700SOL    HW131559   2.880   1.146   3.514 -1.1753 -2.0493  0.0566
 6700SOL    HW231560   2.775   1.083   3.431 -0.0448  0.4047 -0.0764
 6701SOL     OW31561   4.685   3.564   8.477  0.0586 -0.1249  0.2409
 6701SOL    HW131562   4.647   3.486   8.517  0.5236 -0.2011  0.5411
 6701SOL    HW231563   4.609   3.586   8.423 -0.7188  0.2919  1.4895
 6702SOL     OW31564   2.022   4.219   7.144 -0.1736 -0.7234  0.0783
 6702SOL    HW131565   1.935   4.248   7.116 -1.7605 -3.1538  2.5030
 6702SOL    HW231566   1.994   4.135   7.180 -2.3855 -0.7821 -1.7959
 6703SOL     OW31567   1.465   1.390  10.307 -0.1169 -0.0405 -0.3338
 6703SOL    HW131568   1.485   1.460  10.245 -0.8580  1.0259  0.6185
 6703SOL    HW231569   1.412   1.327  10.258 -1.9101  1.2121 -0.0172
 6704SOL     OW31570   4.456   3.190   5.088  0.3104  0.3322  0.9337
 6704SOL    HW131571   4.474   3.107   5.044  0.5729 -0.8625  3.2562
 6704SOL    HW231572   4.527   3.194   5.152  0.1238  1.1665  1.0885
 6705SOL     OW31573   3.686   2.150  15.493 -0.2875  0.3061 -0.1061
 6705SOL    HW131574   3.666   2.109  15.409 -0.1733 -1.9534  0.9749
 6705SOL    HW231575   3.648   2.236  15.477 -1.2278 -0.7453 -3.5251
 6706SOL     OW31576   0.779   3.688   7.363  0.5948  0.5061 -0.1452
 6706SOL    HW131577   0.793   3.718   7.274 -0.6328  0.8577 -0.2242
 6706SOL    HW231578   0.862   3.642   7.376 -0.0714 -0.5722  0.3313
 6707SOL     OW31579   3.775   2.382   6.966 -0.2427  0.1377 -0.6084
 6707SOL    HW131580   3.794   2.410   7.056 -0.6848 -0.4940 -0.3199
 6707SOL    HW231581   3.814   2.453   6.915 -1.2256 -0.0946 -1.6670
 6708SOL     OW31582   3.113   1.222   6.821 -0.4382  0.5284 -0.0655
 6708SOL    HW131583   3.031   1.188   6.857 -0.2448 -0.0279 -0.1561
 6708SOL    HW231584   3.091   1.263   6.737 -0.4192 -1.4156 -1.0067
 6709SOL     OW31585   1.936   3.876  11.858 -0.0452  0.5025  0.1240
 6709SOL    HW131586   1.865   3.925  11.900  0.1003  0.1236  0.8158
 6709SOL    HW231587   1.929   3.797  11.911  0.0875  0.2686 -0.2092
 6710SOL     OW31588   1.824   4.317  11.520 -0.3672  0.2494  0.9887
 6710SOL    HW131589   1.850   4.228  11.543 -0.8767 -0.6085 -1.7071
 6710SOL    HW231590   1.764   4.335  11.592 -0.4485 -0.9531  1.2174
 6711SOL     OW31591   2.524   4.143   8.369  0.4787  0.1517  0.4566
 6711SOL    HW131592   2.615   4.132   8.395  0.9779 -0.4278 -1.4867
 6711SOL    HW231593   2.534   4.218   8.310 -1.2022  0.6783  0.8376
 6712SOL     OW31594   3.990   3.610   8.334 -0.5408  0.1654 -0.0361
 6712SOL    HW131595   3.906   3.564   8.339  0.1591 -0.8620  2.3771
 6712SOL    HW231596   3.960   3.698   8.311  0.8765  0.2783 -1.4821
 6713SOL     OW31597   2.832   4.550   3.323  0.3258 -0.4483  0.2575
 6713SOL    HW131598   2.831   4.638   3.360  0.5862 -1.1182  1.8656
 6713SOL    HW231599   2.738   4.534   3.310  0.2434 -0.5974  1.0023
 6714SOL     OW31600   0.039   3.519   8.806 -0.6593 -0.2754 -0.1046
 6714SOL    HW131601   0.122   3.529   8.760  0.4578  2.3968  2.4158
 6714SOL    HW231602   0.003   3.608   8.810 -1.6997 -0.7535  1.0985
 6715SOL     OW31603   2.061   2.271   2.471 -0.5799 -0.2495 -0.1208
 6715SOL    HW131604   1.993   2.245   2.532  0.6904 -0.8218  1.0486
 6715SOL    HW231605   2.093   2.183   2.450  0.7059 -0.2632  1.9166
 6716SOL     OW31606   0.076   0.061   7.747  0.0456 -0.0545 -0.7158
 6716SOL    HW131607   0.081   0.043   7.841  3.6678  0.1014 -0.8735
 6716SOL    HW231608   0.136   0.135   7.731  1.7605 -0.8669  1.9323
 6717SOL     OW31609   3.373   1.627  14.184 -0.2273  0.0949  0.4475
 6717SOL    HW131610   3.377   1.691  14.255  1.9016 -0.6890  1.0067
 6717SOL    HW231611   3.397   1.549  14.233 -1.4562 -0.1679  0.6215
 6718SOL     OW31612   0.671   3.362   4.298 -0.0406 -0.0684  0.1779
 6718SOL    HW131613   0.659   3.306   4.221  2.7699 -1.8727  1.0562
 6718SOL    HW231614   0.766   3.353   4.305  0.2403  1.2628 -2.0678
 6719SOL     OW31615   4.351   0.247   9.512 -0.3985  0.6040 -0.4019
 6719SOL    HW131616   4.380   0.235   9.422 -0.0601  1.8266 -0.4636
 6719SOL    HW231617   4.390   0.331   9.537 -0.9453  0.7532 -0.0447
 6720SOL     OW31618   2.115   2.969   1.835 -0.3721  0.1924  0.0789
 6720SOL    HW131619   2.104   2.887   1.786  1.4255  0.4226 -0.6976
 6720SOL    HW231620   2.085   3.030   1.767 -2.3772 -1.4247 -0.4996
 6721SOL     OW31621   1.830   2.511  17.139 -0.1144  0.0889 -0.1032
 6721SOL    HW131622   1.804   2.530  17.229 -0.2025  2.0534 -0.5264
 6721SOL    HW231623   1.880   2.584  17.102 -2.7052  1.5320 -0.7569
 6722SOL     OW31624   2.041   0.067   7.743  0.5002  0.1936  0.4534
 6722SOL    HW131625   2.032   0.002   7.813  0.2023  2.1593  2.2316
 6722SOL    HW231626   1.958   0.054   7.698  0.0146  1.9788  0.8274
 6723SOL     OW31627   3.129   4.369   4.802 -0.3677 -0.2592 -0.1418
 6723SOL    HW131628   3.083   4.420   4.735 -0.5403 -0.6987 -0.3636
 6723SOL    HW231629   3.209   4.352   4.753 -2.1003 -2.3996 -2.2583
 6724SOL     OW31630   4.527   4.254   9.950  0.0814  0.4509  0.1000
 6724SOL    HW131631   4.605   4.309   9.942  0.5624 -0.4198 -1.1241
 6724SOL    HW231632   4.480   4.260   9.867 -0.9866 -1.2882  0.5861
 6725SOL     OW31633   4.608   1.509  14.871 -0.2839  0.3339  0.1695
 6725SOL    HW131634   4.620   1.421  14.908 -1.1056  0.0111 -0.3313
 6725SOL    HW231635   4.560   1.488  14.791  1.0288 -0.7608 -0.3462
 6726SOL     OW31636   1.861   4.402   4.569 -0.0949  0.1663 -0.2655
 6726SOL    HW131637   1.917   4.330   4.597  1.3846  1.1524 -0.7030
 6726SOL    HW231638   1.871   4.468   4.637 -2.6226 -0.8378  1.0758
 6727SOL     OW31639   3.586   3.087  15.900 -0.0170  0.4977  0.4689
 6727SOL    HW131640   3.573   3.126  15.813  1.2093  0.6005  0.3323
 6727SOL    HW231641   3.518   3.130  15.951 -1.0225  1.3929 -1.6379
 6728SOL     OW31642   0.928   0.592   8.161  0.5459  0.6782  0.2469
 6728SOL    HW131643   0.865   0.631   8.100 -1.1772  2.5501  3.2164
 6728SOL    HW231644   0.894   0.632   8.241 -1.5897  3.3111 -1.9895
 6729SOL     OW31645   4.430   1.380   5.123 -0.5325  0.5126 -0.0718
 6729SOL    HW131646   4.400   1.455   5.072 -0.9109 -0.7615 -1.7324
 6729SOL    HW231647   4.468   1.424   5.199 -3.5055  0.5063  1.3881
 6730SOL     OW31648   4.404   3.861   6.956 -0.0107 -0.8262  0.2235
 6730SOL    HW131649   4.453   3.798   6.903 -2.0319  0.1553 -2.8351
 6730SOL    HW231650   4.421   3.938   6.901  2.5282 -0.9401  0.8371
 6731SOL     OW31651   3.768   3.116  15.481  0.3068  0.1997  0.1082
 6731SOL    HW131652   3.821   3.036  15.487  2.7336  1.8515  0.5362
 6731SOL    HW231653   3.693   3.104  15.540  0.2242 -0.9440 -0.2363
 6732SOL     OW31654   2.340   1.741  15.895  0.0834 -0.2000 -0.2344
 6732SOL    HW131655   2.372   1.652  15.876  1.6780  0.4745 -0.7157
 6732SOL    HW231656   2.348   1.745  15.990  0.0751  0.8677 -0.2856
 6733SOL     OW31657   0.312   1.969   4.819  0.0063  0.5197 -0.1053
 6733SOL    HW131658   0.327   1.876   4.799 -1.7454 -0.2561  2.2082
 6733SOL    HW231659   0.244   1.983   4.753  0.9660 -1.0551 -1.4400
 6734SOL     OW31660   0.182   0.538  15.684  0.4800 -0.3478 -0.2376
 6734SOL    HW131661   0.239   0.613  15.671  0.9301 -0.5832  0.3768
 6734SOL    HW231662   0.131   0.554  15.605 -0.8587 -0.1842  0.6701
 6735SOL     OW31663   2.892   2.190  14.993 -0.0819  0.3759  0.4895
 6735SOL    HW131664   2.963   2.235  14.947  0.0807 -2.1290 -1.7060
 6735SOL    HW231665   2.897   2.106  14.947  0.7995  1.9056 -2.2014
 6736SOL     OW31666   0.175   2.353   1.049 -0.1724  0.3816  0.0199
 6736SOL    HW131667   0.257   2.389   1.016  0.4129  0.8329  1.9387
 6736SOL    HW231668   0.111   2.421   1.029  0.5682  0.4215 -2.1711
 6737SOL     OW31669   2.256   2.998   7.763  0.0990  0.0813 -0.1148
 6737SOL    HW131670   2.328   2.941   7.789  1.4242  1.6241 -0.4418
 6737SOL    HW231671   2.200   2.984   7.840 -2.5957  1.0927 -1.8752
 6738SOL     OW31672   1.820   4.190   6.528  0.4917  0.1851  0.5586
 6738SOL    HW131673   1.866   4.249   6.589  1.0535 -0.6132  0.9000
 6738SOL    HW231674   1.882   4.118   6.526  0.1561 -0.1295  1.7982
 6739SOL     OW31675   3.498   0.870   5.418  0.0884  0.6872  0.4074
 6739SOL    HW131676   3.422   0.848   5.363  0.2656  2.3205 -0.4944
 6739SOL    HW231677   3.566   0.888   5.353  2.2316 -0.7866  2.2429
 6740SOL     OW31678   1.134   2.871  15.596 -0.4248  0.0527 -0.2921
 6740SOL    HW131679   1.043   2.859  15.569 -1.0724  0.0311  1.9023
 6740SOL    HW231680   1.124   2.929  15.672  2.3752  1.5130 -1.0184
 6741SOL     OW31681   0.881   1.749  11.801  0.6293  0.4252 -0.2881
 6741SOL    HW131682   0.788   1.745  11.777  0.4195  0.0303  0.5899
 6741SOL    HW231683   0.873   1.837  11.836 -0.3555  0.9149 -1.7294
 6742SOL     OW31684   0.934   1.587  15.408  0.6971 -0.3668 -0.5741
 6742SOL    HW131685   0.903   1.645  15.477  1.6901 -1.0760  0.4785
 6742SOL    HW231686   0.862   1.526  15.422  1.8128 -1.3969  0.6554
 6743SOL     OW31687   2.992   1.459   2.813 -0.1577  0.3667  0.0187
 6743SOL    HW131688   2.950   1.480   2.730  2.5610 -0.3109 -1.5401
 6743SOL    HW231689   3.075   1.503   2.791 -1.4844  2.2823 -1.1027
 6744SOL     OW31690   0.622   2.648   3.329 -0.0046  0.6580  0.2635
 6744SOL    HW131691   0.624   2.583   3.399  0.3357  0.1002 -0.2733
 6744SOL    HW231692   0.712   2.678   3.340  0.0364  0.4420  0.5043
 6745SOL     OW31693   4.247   0.725   1.806 -0.0873  0.3975  0.8927
 6745SOL    HW131694   4.201   0.754   1.885 -0.4971 -0.8626  1.1272
 6745SOL    HW231695   4.221   0.634   1.795 -1.8223  0.6787  2.5621
 6746SOL     OW31696   3.142   1.312   1.597  0.6542  0.0138  0.4102
 6746SOL    HW131697   3.079   1.380   1.622 -2.1521 -2.1197 -0.9103
 6746SOL    HW231698   3.100   1.293   1.514  0.3358  1.0105  0.3389
 6747SOL     OW31699   1.422   2.808  14.392 -0.7902  0.1458 -0.6077
 6747SOL    HW131700   1.376   2.733  14.355  0.5385 -0.4813 -0.9612
 6747SOL    HW231701   1.508   2.803  14.350 -0.8257 -1.8753 -0.4331
 6748SOL     OW31702   1.425   1.066   7.688 -0.1899 -0.3032  0.2067
 6748SOL    HW131703   1.402   1.141   7.742 -0.8978 -0.5021  0.1817
 6748SOL    HW231704   1.503   1.035   7.735  0.1349  0.8534  0.4146
 6749SOL     OW31705   4.345   1.927   5.415 -0.0557  0.1535 -0.0763
 6749SOL    HW131706   4.392   1.954   5.494 -0.8128 -0.3129  0.5277
 6749SOL    HW231707   4.330   2.012   5.373  0.0678 -0.5148 -1.4780
 6750SOL     OW31708   3.675   0.544  11.252  0.2821 -0.2666 -0.1100
 6750SOL    HW131709   3.610   0.476  11.265 -0.2673 -0.0040 -1.4206
 6750SOL    HW231710   3.686   0.522  11.159 -0.8963 -0.1097 -0.2893
 6751SOL     OW31711   0.358   3.357   8.014  0.7377 -0.4648  0.1481
 6751SOL    HW131712   0.330   3.278   8.061 -0.1080 -0.8878 -1.0429
 6751SOL    HW231713   0.444   3.378   8.050  0.6616  0.0577  0.0141
 6752SOL     OW31714   2.494   2.569   2.479  0.5806  0.1671 -0.2574
 6752SOL    HW131715   2.435   2.643   2.467  0.5855  0.4982  1.6816
 6752SOL    HW231716   2.444   2.512   2.538  0.7441 -0.5193 -0.7865
 6753SOL     OW31717   3.208   3.115  13.333  0.2732 -0.3605 -0.1625
 6753SOL    HW131718   3.242   3.135  13.420  0.3331 -0.1825 -0.2270
 6753SOL    HW231719   3.129   3.169  13.330  0.8451  0.5501  0.7751
 6754SOL     OW31720   1.738   3.712   2.739  0.3622 -0.5344  0.3916
 6754SOL    HW131721   1.826   3.680   2.759 -0.1612 -2.7847 -0.9365
 6754SOL    HW231722   1.750   3.804   2.714 -2.5021 -0.2931 -0.1268
 6755SOL     OW31723   3.566   0.871  14.519 -0.2929  0.2152  0.6329
 6755SOL    HW131724   3.652   0.880  14.560 -0.3655 -0.1576  0.8748
 6755SOL    HW231725   3.588   0.823  14.439 -1.0177  1.3628 -0.2553
 6756SOL     OW31726   0.316   3.222   3.135 -0.2084  0.0677 -0.3296
 6756SOL    HW131727   0.357   3.136   3.143 -1.6282 -0.6520 -0.7587
 6756SOL    HW231728   0.231   3.192   3.102  0.1633 -0.3931 -0.8829
 6757SOL     OW31729   2.092   4.117   3.193 -0.4960 -0.6290 -0.5598
 6757SOL    HW131730   1.999   4.108   3.172 -0.6314  1.0015 -0.6515
 6757SOL    HW231731   2.113   4.181   3.125  1.0732 -1.5990 -0.9845
 6758SOL     OW31732   3.071   0.910   4.590 -0.3530  0.1050  0.2394
 6758SOL    HW131733   3.159   0.872   4.584 -0.4926 -0.2806  0.6441
 6758SOL    HW231734   3.071   0.938   4.498 -2.6548 -3.1088 -0.7425
 6759SOL     OW31735   0.015   1.828  12.299  0.2014  0.3735 -0.2480
 6759SOL    HW131736   4.664   1.881  12.266 -0.5026 -0.8782 -0.7088
 6759SOL    HW231737   4.703   1.739  12.297 -2.4752  1.3528 -0.1938
 6760SOL     OW31738   1.491   3.425  16.430 -0.0026  0.0248 -0.4942
 6760SOL    HW131739   1.497   3.359  16.500  1.6703 -0.3616 -1.0093
 6760SOL    HW231740   1.580   3.460  16.423  0.9327 -1.7598  2.3511
 6761SOL     OW31741   0.598   3.456  15.711  0.0615  0.3191 -1.2231
 6761SOL    HW131742   0.613   3.527  15.774 -0.2605 -0.2335 -0.5142
 6761SOL    HW231743   0.674   3.461  15.653 -0.0425 -1.6686 -1.5259
 6762SOL     OW31744   3.500   1.834   5.086  0.0260 -0.3977 -0.4238
 6762SOL    HW131745   3.414   1.806   5.053 -1.5165  2.5524  1.1366
 6762SOL    HW231746   3.547   1.866   5.009 -1.1087 -0.1488 -1.0195
 6763SOL     OW31747   1.818   3.797  13.202  0.5849 -0.8105 -0.0938
 6763SOL    HW131748   1.893   3.762  13.251  0.5565 -0.1114  0.4491
 6763SOL    HW231749   1.746   3.750  13.243 -0.6839  1.5297  0.3843
 6764SOL     OW31750   0.999   0.021   8.097 -0.9913 -0.1987 -1.0072
 6764SOL    HW131751   0.980   0.058   8.183 -0.9917  0.4421 -1.2846
 6764SOL    HW231752   1.042   0.094   8.054 -1.6740  1.8266  1.7609
 6765SOL     OW31753   3.550   1.715   2.273  0.1015  0.0205 -0.3026
 6765SOL    HW131754   3.510   1.762   2.200 -0.0550  0.3047 -0.0314
 6765SOL    HW231755   3.494   1.638   2.263  1.6420 -0.9522 -1.3921
 6766SOL     OW31756   3.641   3.065  13.682 -0.5602  0.1645 -0.1335
 6766SOL    HW131757   3.633   2.970  13.668 -0.3230  0.1576 -0.2106
 6766SOL    HW231758   3.639   3.060  13.778 -0.3267 -1.6186 -0.2074
 6767SOL     OW31759   3.844   1.694  11.662 -0.3268  0.2316  0.4095
 6767SOL    HW131760   3.795   1.773  11.639 -2.0684 -0.3764  2.0434
 6767SOL    HW231761   3.777   1.626  11.663  0.4734 -0.5852 -0.8857
 6768SOL     OW31762   0.556   1.446   1.984 -0.9570  0.4282 -0.1790
 6768SOL    HW131763   0.587   1.393   1.911 -0.5802 -0.1989  0.4470
 6768SOL    HW231764   0.492   1.503   1.941 -1.4996 -1.0035 -1.2641
 6769SOL     OW31765   3.592   4.296  17.564 -0.3551 -0.0266  0.4702
 6769SOL    HW131766   3.588   4.327  17.654  0.7525  1.9069 -0.1421
 6769SOL    HW231767   3.621   4.205  17.572 -0.6211 -0.1942 -0.4026
 6770SOL     OW31768   4.023   4.045   4.044 -0.2344 -0.7479  0.3898
 6770SOL    HW131769   4.044   3.987   3.971  0.1299  0.8755 -0.7876
 6770SOL    HW231770   4.099   4.101   4.061 -1.7036  1.2983  0.1415
 6771SOL     OW31771   3.063   2.730   4.969  0.4551 -0.0097 -0.1790
 6771SOL    HW131772   3.086   2.745   4.877 -1.8240  0.3400 -0.7080
 6771SOL    HW231773   3.071   2.817   5.008  0.6589 -0.6588  1.2451
 6772SOL     OW31774   0.605   3.904   6.362  0.8679  0.4257 -0.3187
 6772SOL    HW131775   0.554   3.891   6.442  0.5878  1.9328 -0.2665
 6772SOL    HW231776   0.696   3.912   6.388  1.5282  0.9422 -2.8605
 6773SOL     OW31777   2.339   0.278   7.708  0.1820  0.0876 -0.0959
 6773SOL    HW131778   2.369   0.224   7.781 -0.0910 -0.0829 -0.1094
 6773SOL    HW231779   2.252   0.298   7.741  0.5935 -0.4527  1.2980
 6774SOL     OW31780   3.179   1.993   9.544 -0.3670  0.2290  0.5563
 6774SOL    HW131781   3.221   1.952   9.468 -0.0781 -1.6709  1.7530
 6774SOL    HW231782   3.211   2.084   9.542 -0.3779  0.1936 -1.5641
 6775SOL     OW31783   0.053   2.554   6.813  0.1109  0.4642  0.1261
 6775SOL    HW131784   0.004   2.513   6.742  1.1225  0.2785 -0.4588
 6775SOL    HW231785   0.037   2.498   6.889  0.8969 -1.9500 -1.4983
 6776SOL     OW31786   2.613   1.918  15.008 -0.7209  0.0394  0.4714
 6776SOL    HW131787   2.611   1.848  14.942  1.0487  1.0063 -0.6281
 6776SOL    HW231788   2.564   1.982  14.956  2.5042  1.5861 -0.6964
 6777SOL     OW31789   3.699   1.742   7.497 -0.0118 -0.0648  0.3271
 6777SOL    HW131790   3.726   1.813   7.556  1.0582 -1.3013  1.3333
 6777SOL    HW231791   3.785   1.708   7.471  0.5009  1.2473  0.3349
 6778SOL     OW31792   1.485   1.643  14.335 -0.0453 -0.5977 -0.3289
 6778SOL    HW131793   1.564   1.606  14.296 -0.7031 -1.2321 -1.0512
 6778SOL    HW231794   1.478   1.587  14.412 -1.5140 -1.3583 -1.0058
 6779SOL     OW31795   0.597   0.740   7.085  0.1074 -0.4821  0.0323
 6779SOL    HW131796   0.597   0.707   7.175 -0.4174 -4.0798 -1.2909
 6779SOL    HW231797   0.627   0.829   7.105 -2.8558 -0.0999  2.8451
 6780SOL     OW31798   1.383   3.250  17.515 -0.1400  0.0956  0.3412
 6780SOL    HW131799   1.406   3.335  17.477 -1.6331 -0.1867 -1.1727
 6780SOL    HW231800   1.447   3.198  17.466  0.4943  0.5485  0.6839
 6781SOL     OW31801   1.389   3.083   6.329 -0.3488  0.0177  0.0376
 6781SOL    HW131802   1.354   3.108   6.243 -1.1830 -1.2563  0.0059
 6781SOL    HW231803   1.375   2.988   6.329 -2.0009  0.2737  0.7774
 6782SOL     OW31804   3.571   0.971   3.387 -0.6125 -0.1241  0.1858
 6782SOL    HW131805   3.503   0.910   3.358 -0.4594  1.4102 -3.3622
 6782SOL    HW231806   3.602   0.923   3.464 -0.8776 -0.4717  0.0768
 6783SOL     OW31807   0.530   0.903   7.488 -0.1390 -0.3586 -0.0409
 6783SOL    HW131808   0.605   0.958   7.465  0.1518  0.1994  2.3199
 6783SOL    HW231809   0.562   0.825   7.441 -0.0106  0.9853 -2.2171
 6784SOL     OW31810   2.278   2.337   0.747  0.0390  0.1556  0.1049
 6784SOL    HW131811   2.209   2.367   0.806  2.2403  1.6100  1.9341
 6784SOL    HW231812   2.294   2.409   0.686 -0.1453 -0.3926 -0.5989
 6785SOL     OW31813   4.525   0.058   1.832  0.0351  0.2596  0.0336
 6785SOL    HW131814   4.533   4.684   1.833 -0.6248  0.2055  0.4248
 6785SOL    HW231815   4.436   0.069   1.867  0.6509 -1.0972  2.0603
 6786SOL     OW31816   4.640   0.371  11.888  0.0811  0.4196  0.3603
 6786SOL    HW131817   4.704   0.387  11.957 -0.2269  1.4270  0.4123
 6786SOL    HW231818   4.565   0.331  11.932  0.1071  0.4539  0.4349
 6787SOL     OW31819   1.703   0.882  11.859 -0.1525  0.0417 -0.1698
 6787SOL    HW131820   1.775   0.942  11.874 -0.0748  0.0409 -0.5284
 6787SOL    HW231821   1.638   0.950  11.841 -0.6368 -0.1750  0.7716
 6788SOL     OW31822   3.494   3.131   4.176  1.1315 -0.3207  0.1949
 6788SOL    HW131823   3.492   3.166   4.265 -0.3475  1.2358 -0.4262
 6788SOL    HW231824   3.481   3.215   4.131  3.5286  0.2106  0.4812
 6789SOL     OW31825   3.647   3.011   2.599 -0.2027  0.4824 -0.0400
 6789SOL    HW131826   3.600   2.927   2.597 -2.0644  1.5470 -0.6996
 6789SOL    HW231827   3.715   2.992   2.534 -0.7629 -1.3086 -0.1072
 6790SOL     OW31828   0.196   2.277   0.368  0.1785 -0.3988  0.6502
 6790SOL    HW131829   0.269   2.227   0.406  0.5561  0.8370  1.5322
 6790SOL    HW231830   0.196   2.242   0.279  0.7451 -0.1062  0.5343
 6791SOL     OW31831   4.338   0.151   7.437  0.6297 -0.3613 -0.4232
 6791SOL    HW131832   4.297   0.168   7.522 -0.7475  4.2010 -2.0093
 6791SOL    HW231833   4.338   0.239   7.400  0.5934  0.0808  0.6284
 6792SOL     OW31834   4.088   1.554   7.771 -0.1120  0.7607 -0.0810
 6792SOL    HW131835   3.998   1.586   7.780 -0.4601  0.7691 -3.6505
 6792SOL    HW231836   4.102   1.507   7.854 -0.2389 -1.4908 -1.3358
 6793SOL     OW31837   0.704   2.817  17.192  0.3653  0.0330  0.0821
 6793SOL    HW131838   0.715   2.891  17.132 -0.9731 -1.7749 -2.4270
 6793SOL    HW231839   0.680   2.866  17.270  0.9579  1.2634 -0.5063
 6794SOL     OW31840   2.524   2.195   4.662  0.2015 -0.2163  0.5486
 6794SOL    HW131841   2.456   2.211   4.597 -0.7102 -0.9202  1.3343
 6794SOL    HW231842   2.590   2.145   4.615  0.9121  2.3058 -1.1242
 6795SOL     OW31843   0.429   4.138  16.685 -0.1399  0.0562 -0.1364
 6795SOL    HW131844   0.436   4.107  16.595 -1.8555 -1.2542  0.1809
 6795SOL    HW231845   0.500   4.089  16.726  0.3249  0.2365 -0.7284
 6796SOL     OW31846   2.265   0.081  14.029  0.5336 -0.4563  0.0314
 6796SOL    HW131847   2.243   0.145  13.961 -0.8679 -0.6905  0.2699
 6796SOL    HW231848   2.293   0.010  13.971  1.7309  0.1967 -0.2026
 6797SOL     OW31849   0.325   2.636   8.642  0.1453  0.6805  0.8686
 6797SOL    HW131850   0.254   2.573   8.633  2.6005 -2.1873  1.4626
 6797SOL    HW231851   0.332   2.619   8.736  0.2061  1.0433  0.9301
 6798SOL     OW31852   0.285   0.885   2.489 -0.2089 -0.1559 -0.1993
 6798SOL    HW131853   0.363   0.831   2.502  1.0081  1.9612  1.3965
 6798SOL    HW231854   0.250   0.852   2.406  1.1707 -0.9314 -0.4724
 6799SOL     OW31855   0.523   2.816  14.775  0.5219  0.1242 -0.0202
 6799SOL    HW131856   0.585   2.824  14.847  1.7672 -0.1620 -1.0542
 6799SOL    HW231857   0.434   2.810  14.811  0.3040 -0.5968 -0.6522
 6800SOL     OW31858   3.498   0.008   6.841 -0.2141  0.4933 -0.5430
 6800SOL    HW131859   3.526   4.643   6.869  0.0908  0.7849  0.0443
 6800SOL    HW231860   3.584   0.050   6.834  0.6246 -1.1295  0.1707
 6801SOL     OW31861   0.023   2.922  15.019 -0.3585 -0.2121 -0.3789
 6801SOL    HW131862   4.678   2.982  15.052  0.0515 -0.1520  0.3375
 6801SOL    HW231863   4.702   2.836  15.029  2.2812 -1.6247 -1.2391
 6802SOL     OW31864   3.080   3.489   1.650 -0.7143 -0.2449 -0.0475
 6802SOL    HW131865   3.011   3.470   1.714 -0.9480  1.3304  0.1795
 6802SOL    HW231866   3.075   3.417   1.588 -0.1646  0.7036 -1.2013
 6803SOL     OW31867   0.288   0.815   6.991 -0.2808 -0.1367 -0.1151
 6803SOL    HW131868   0.383   0.803   6.986 -0.4313 -2.4292  2.5630
 6803SOL    HW231869   0.256   0.779   6.908  1.2135  1.4619 -1.3889
 6804SOL     OW31870   1.607   1.513  17.155  0.0723 -0.2431  1.0405
 6804SOL    HW131871   1.622   1.591  17.101 -1.9153  0.5004  1.5453
 6804SOL    HW231872   1.541   1.459  17.111  1.7249 -0.4939 -1.1194
 6805SOL     OW31873   1.455   2.147  10.043 -0.1583  0.9012 -0.5847
 6805SOL    HW131874   1.359   2.146  10.046 -0.1439 -0.7860 -0.5166
 6805SOL    HW231875   1.494   2.161  10.129  1.1982 -3.5408 -0.4709
 6806SOL     OW31876   1.846   4.125   6.890  0.1497 -0.1963  0.0972
 6806SOL    HW131877   1.831   4.172   6.972  0.3615 -0.9232  0.5530
 6806SOL    HW231878   1.878   4.194   6.831  3.5226 -0.2637  1.8407
 6807SOL     OW31879   1.753   4.269   7.100  0.6429  0.2026  0.1742
 6807SOL    HW131880   1.679   4.265   7.161  0.3767  0.4706 -0.1356
 6807SOL    HW231881   1.724   4.344   7.049  1.7935  0.4274 -0.1399
 6808SOL     OW31882   2.130   1.746   7.906  0.3395  0.3878 -0.6458
 6808SOL    HW131883   2.156   1.720   7.994 -1.4838 -0.8246 -0.4722
 6808SOL    HW231884   2.043   1.708   7.894  0.9412 -1.5306  1.0087
 6809SOL     OW31885   0.529   2.747   2.352 -0.9224  0.1739  0.3800
 6809SOL    HW131886   0.499   2.794   2.430 -0.7988 -1.8923  1.6799
 6809SOL    HW231887   0.536   2.658   2.386  0.6990 -0.3129 -1.2069
 6810SOL     OW31888   2.086   3.092   7.087  0.5908  0.3369 -0.4353
 6810SOL    HW131889   1.994   3.102   7.062  0.2405 -2.6113 -0.3776
 6810SOL    HW231890   2.078   3.006   7.128 -1.4965  0.8489  0.2587
 6811SOL     OW31891   1.713   3.273  10.258 -0.2515  0.0992 -0.0448
 6811SOL    HW131892   1.749   3.204  10.202 -0.0842  1.2365 -1.3173
 6811SOL    HW231893   1.698   3.343  10.195 -1.9012 -1.0623 -0.9681
 6812SOL     OW31894   4.303   3.861  13.331  0.2403 -0.2107 -0.1338
 6812SOL    HW131895   4.216   3.821  13.323 -0.3970  0.7750  1.9032
 6812SOL    HW231896   4.308   3.930  13.264 -0.7119 -0.7714 -0.7849
 6813SOL     OW31897   4.246   3.765   4.334  0.3964 -0.4865  0.5606
 6813SOL    HW131898   4.159   3.773   4.373  0.1227  0.5038 -0.2656
 6813SOL    HW231899   4.228   3.749   4.241 -2.6279 -0.2173  1.1071
 6814SOL     OW31900   0.761   1.331  10.051 -0.1418  0.0657  0.1585
 6814SOL    HW131901   0.764   1.362   9.960  1.0325 -2.6545 -0.7445
 6814SOL    HW231902   0.722   1.245  10.036  1.3017 -0.5057 -0.3599
 6815SOL     OW31903   1.195   3.842  12.340  0.3051 -0.8572 -0.0141
 6815SOL    HW131904   1.163   3.753  12.352 -2.5582  0.3804  1.6535
 6815SOL    HW231905   1.285   3.839  12.371 -0.4306  0.3447  2.2031
 6816SOL     OW31906   4.262   2.772   9.692 -0.0559 -0.4104  0.5700
 6816SOL    HW131907   4.289   2.840   9.754 -0.2229 -0.1060  0.3109
 6816SOL    HW231908   4.208   2.720   9.751  1.0823  0.2028  2.1423
 6817SOL     OW31909   2.218   1.973   2.003 -0.0135 -0.2407 -0.5981
 6817SOL    HW131910   2.219   2.047   2.064 -0.4099 -0.4990 -0.2864
 6817SOL    HW231911   2.246   2.024   1.927 -1.0249  0.2335 -0.6440
 6818SOL     OW31912   0.687   1.009   7.794  0.0271  0.0230  0.1213
 6818SOL    HW131913   0.651   0.937   7.743  1.1014  0.1078 -0.7594
 6818SOL    HW231914   0.613   1.049   7.841 -0.1576  0.9844 -0.9832
 6819SOL     OW31915   1.764   4.386   7.500  0.5696 -0.2477 -0.0189
 6819SOL    HW131916   1.832   4.438   7.457 -0.3822  0.2663 -0.8767
 6819SOL    HW231917   1.821   4.357   7.572 -3.0287 -2.2437  1.9933
 6820SOL     OW31918   1.372   0.071   4.803 -0.1253 -0.2502  0.2030
 6820SOL    HW131919   1.283   0.064   4.768 -0.7115 -1.2515  1.8967
 6820SOL    HW231920   1.375   4.702   4.832 -0.9642 -0.1012  0.7390
 6821SOL     OW31921   2.803   1.606   8.113  0.1477  0.3353 -0.4570
 6821SOL    HW131922   2.848   1.592   8.197 -1.3538 -1.7135  0.0028
 6821SOL    HW231923   2.868   1.569   8.053  0.1565  0.3998 -0.4862
 6822SOL     OW31924   2.133   0.074   5.564 -0.1472  0.3992 -0.2715
 6822SOL    HW131925   2.055   0.128   5.569 -0.1984  0.0223  3.1053
 6822SOL    HW231926   2.200   0.141   5.579 -0.6088  0.6848  0.5163
 6823SOL     OW31927   0.197   3.102   5.199 -0.7031  0.5606 -0.0421
 6823SOL    HW131928   0.208   3.195   5.181  0.3060  0.0965 -1.8071
 6823SOL    HW231929   0.127   3.099   5.264 -0.6877 -1.8888 -0.1453
 6824SOL     OW31930   2.102   2.272  14.443 -0.1107  0.4320  0.0011
 6824SOL    HW131931   2.077   2.185  14.473  0.0406  0.3042 -0.2446
 6824SOL    HW231932   2.036   2.293  14.378  1.1820 -0.3802 -1.5573
 6825SOL     OW31933   0.012   4.572   1.179 -0.6139 -0.4937 -0.1696
 6825SOL    HW131934   4.684   4.654   1.183 -0.3642 -0.4014  0.9553
 6825SOL    HW231935   4.659   4.518   1.207 -1.1444  1.3852  2.0830
 6826SOL     OW31936   1.870   1.787   8.494  0.2892 -0.4991 -0.1688
 6826SOL    HW131937   1.934   1.858   8.500  0.5173 -0.7268  0.0828
 6826SOL    HW231938   1.880   1.765   8.586  1.9720 -0.4646 -0.3447
 6827SOL     OW31939   4.675   4.168   2.036 -0.2085 -0.1917 -0.1336
 6827SOL    HW131940   4.714   4.088   2.002  1.2688 -0.3908  1.9627
 6827SOL    HW231941   0.033   4.218   2.056 -0.6210  0.5089 -0.2831
 6828SOL     OW31942   1.358   0.389   3.469  0.2412  0.4649 -0.3230
 6828SOL    HW131943   1.370   0.470   3.517 -0.8488 -1.4149  3.0895
 6828SOL    HW231944   1.262   0.392   3.470  0.3290  2.4346  0.4745
 6829SOL     OW31945   4.517   1.909  13.370  0.3564 -0.5363  0.1526
 6829SOL    HW131946   4.432   1.876  13.397 -0.7439  1.3691 -1.0027
 6829SOL    HW231947   4.566   1.828  13.358  0.3619 -0.4647 -0.2830
 6830SOL     OW31948   2.741   4.315  17.259  0.6238  0.5208  0.7336
 6830SOL    HW131949   2.756   4.301  17.352  3.0116  1.6842  0.5226
 6830SOL    HW231950   2.774   4.230  17.230 -2.0298 -0.5733  0.9043
 6831SOL     OW31951   4.242   0.383  13.027 -0.2793 -0.2426  0.3789
 6831SOL    HW131952   4.282   0.469  13.009  0.7709 -0.7669  0.1974
 6831SOL    HW231953   4.152   0.405  13.050 -0.6849 -1.1976 -0.3219
 6832SOL     OW31954   3.077   2.635   6.204  0.6896  0.5327  0.3891
 6832SOL    HW131955   3.112   2.661   6.290  1.9556 -1.1062  0.3769
 6832SOL    HW231956   3.076   2.540   6.216  0.0736  0.6710  1.4568
 6833SOL     OW31957   4.576   3.259   5.706  0.0830 -0.2571  0.3842
 6833SOL    HW131958   4.529   3.322   5.761 -0.2130 -0.9146  0.9017
 6833SOL    HW231959   4.658   3.303   5.685 -0.6120  1.2075  0.7736
 6834SOL     OW31960   4.501   4.012   6.397  0.2686 -0.1375 -0.1322
 6834SOL    HW131961   4.580   4.064   6.381  0.5115 -0.7568 -0.9048
 6834SOL    HW231962   4.466   4.030   6.310 -0.8902 -2.7091 -0.1737
 6835SOL     OW31963   1.111   3.936   4.229  0.1476  0.4032  0.2082
 6835SOL    HW131964   1.026   3.893   4.239 -0.0999  0.6721 -0.7964
 6835SOL    HW231965   1.123   3.950   4.323 -1.1513  1.7766  0.1531
 6836SOL     OW31966   2.424   1.112  17.526  0.5737  0.3723 -0.2875
 6836SOL    HW131967   2.447   1.110  17.433  1.0332  1.0303 -0.1875
 6836SOL    HW231968   2.461   1.197  17.548 -0.9371  0.8311  0.4908
 6837SOL     OW31969   1.559   0.976   6.433  0.1891 -0.1182 -0.4281
 6837SOL    HW131970   1.551   1.069   6.414  0.1569 -0.3179 -1.3632
 6837SOL    HW231971   1.546   0.971   6.528  0.3415 -2.9708 -0.5389
 6838SOL     OW31972   4.528   1.180  13.029 -0.4993  0.3750 -0.6184
 6838SOL    HW131973   4.529   1.100  13.082 -0.6572  0.0339 -1.1296
 6838SOL    HW231974   4.582   1.154  12.954  0.6838  0.8571  0.0684
 6839SOL     OW31975   3.010   1.704   5.938 -0.5249  0.1719  0.5653
 6839SOL    HW131976   2.987   1.794   5.965 -0.8910  0.3679 -0.3778
 6839SOL    HW231977   3.084   1.681   5.993  0.1860 -0.9644 -0.8841
 6840SOL     OW31978   1.843   3.878   5.717  0.0606 -0.0739  0.6625
 6840SOL    HW131979   1.791   3.798   5.716  0.2383 -0.1846  0.4028
 6840SOL    HW231980   1.933   3.851   5.732  0.6175  1.2424 -0.2836
 6841SOL     OW31981   1.949   3.914   6.517 -1.0168 -0.2888 -0.6333
 6841SOL    HW131982   1.955   3.883   6.426  0.2131 -1.4646 -0.1559
 6841SOL    HW231983   1.863   3.875   6.529 -1.4019 -0.2730 -3.1987
 6842SOL     OW31984   4.168   1.418   4.278 -0.2370  0.4599  0.5610
 6842SOL    HW131985   4.197   1.481   4.212  0.2852 -3.9993 -3.4649
 6842SOL    HW231986   4.128   1.480   4.339 -2.0385 -0.9594  0.8284
 6843SOL     OW31987   0.781   2.149  14.854 -0.3056  0.4308  0.4230
 6843SOL    HW131988   0.797   2.091  14.780 -1.7868  0.8079 -0.1893
 6843SOL    HW231989   0.744   2.090  14.920  1.9837 -0.4533  0.9390
 6844SOL     OW31990   1.476   2.501   0.234  0.3470  0.3383 -0.0867
 6844SOL    HW131991   1.461   2.595   0.225 -0.6833  0.1674 -0.1344
 6844SOL    HW231992   1.388   2.468   0.220  0.4495  0.5778 -1.2610
 6845SOL     OW31993   2.652   1.315   2.781  0.1803  0.1544  0.4905
 6845SOL    HW131994   2.636   1.222   2.770 -1.4256  0.6520 -1.3847
 6845SOL    HW231995   2.604   1.336   2.862  3.3831  0.2326  2.3564
 6846SOL     OW31996   4.176   0.442   3.274  0.4597  0.6854 -0.0820
 6846SOL    HW131997   4.195   0.394   3.355  0.1120  0.0897 -0.3488
 6846SOL    HW231998   4.241   0.511   3.289 -0.0456  1.3941 -1.1330
 6847SOL     OW31999   2.383   1.742  13.120  0.0713  0.4146  0.5528
 6847SOL    HW132000   2.438   1.665  13.134  0.5547  0.9536  1.6346
 6847SOL    HW232001   2.301   1.705  13.088  0.8076  0.9368 -1.9328
 6848SOL     OW32002   2.007   0.071   5.989 -0.0786  0.5161  0.2904
 6848SOL    HW132003   1.938   0.084   5.924  1.2047 -0.0841 -1.1832
 6848SOL    HW232004   1.982   0.125   6.064 -1.2268  0.9942 -0.4346
 6849SOL     OW32005   1.179   0.005  15.471 -0.1079 -0.7983 -0.4730
 6849SOL    HW132006   1.137   4.650  15.510 -0.2583  0.0714  1.0928
 6849SOL    HW232007   1.268   4.693  15.463 -0.7066 -2.3893 -0.3951
 6850SOL     OW32008   2.309   3.737   4.474  0.2098  0.2966 -0.6870
 6850SOL    HW132009   2.250   3.771   4.407 -0.3580 -1.3960 -1.0562
 6850SOL    HW232010   2.255   3.666   4.508 -1.3475  2.3226  1.0161
 6851SOL     OW32011   4.103   3.714   2.850 -0.1625 -0.3083  0.0036
 6851SOL    HW132012   4.042   3.738   2.920 -2.1771 -2.0878 -1.1279
 6851SOL    HW232013   4.040   3.715   2.777  1.0819  2.3014 -1.0380
 6852SOL     OW32014   0.581   0.510  17.302  0.3659 -0.4389 -0.3142
 6852SOL    HW132015   0.641   0.579  17.330 -0.9481  0.5288  0.0911
 6852SOL    HW232016   0.541   0.549  17.224  0.8644 -0.0501 -0.3786
 6853SOL     OW32017   4.229   2.955   9.188  0.4428  0.1914 -0.2228
 6853SOL    HW132018   4.138   2.970   9.212  0.6786  1.2956  0.0050
 6853SOL    HW232019   4.235   2.861   9.203 -1.0478 -0.1448 -1.8609
 6854SOL     OW32020   4.207   1.003   7.834  0.3823 -0.0278  0.2957
 6854SOL    HW132021   4.174   1.064   7.769 -0.3346  0.7051  1.3578
 6854SOL    HW232022   4.264   0.951   7.777  0.3214  1.0756 -0.7618
 6855SOL     OW32023   0.091   2.924   2.592 -0.5045 -0.3233  0.1125
 6855SOL    HW132024   0.108   2.844   2.643 -1.3187 -0.1218  0.6893
 6855SOL    HW232025   0.125   2.900   2.505  0.1132 -0.4232  0.3788
 6856SOL     OW32026   1.465   0.228  10.504  0.0919  0.3588  0.1062
 6856SOL    HW132027   1.414   0.308  10.508  2.6517  1.9877  0.6140
 6856SOL    HW232028   1.527   0.267  10.442  3.1230 -0.1823  2.7350
 6857SOL     OW32029   2.566   2.924  12.664  0.3006  0.7266  0.1803
 6857SOL    HW132030   2.515   2.847  12.689  1.7861 -0.5045 -0.5180
 6857SOL    HW232031   2.498   2.991  12.653  0.0188  0.3163 -0.6281
 6858SOL     OW32032   1.377   2.524   3.417 -0.1703 -0.3591  1.3241
 6858SOL    HW132033   1.306   2.477   3.461 -2.0078  0.4314 -0.8069
 6858SOL    HW232034   1.447   2.500   3.478  1.3116  2.3013  0.6555
 6859SOL     OW32035   1.833   4.475  15.982  0.5425  0.0100  0.5379
 6859SOL    HW132036   1.905   4.427  15.942  0.6545  2.0858 -1.6905
 6859SOL    HW232037   1.806   4.420  16.056 -1.8272  1.2699  0.6213
 6860SOL     OW32038   0.352   4.326  10.034 -0.6668 -0.4724 -0.1489
 6860SOL    HW132039   0.367   4.316   9.940 -0.8869 -1.6733 -0.0518
 6860SOL    HW232040   0.438   4.361  10.056 -1.1119  0.0113  0.8383
 6861SOL     OW32041   0.504   3.327  14.636 -0.0362  0.3446 -0.3804
 6861SOL    HW132042   0.553   3.315  14.717 -0.0530 -1.1726 -0.5887
 6861SOL    HW232043   0.476   3.235  14.636 -0.3274  0.4327 -1.5217
 6862SOL     OW32044   1.688   3.492   5.378  0.3096  0.4822 -0.3824
 6862SOL    HW132045   1.601   3.472   5.343 -0.3208 -2.9713  3.1122
 6862SOL    HW232046   1.738   3.473   5.298  0.2066 -0.9436 -0.1047
 6863SOL     OW32047   3.829   0.752  17.529  0.4858 -0.6730  0.5898
 6863SOL    HW132048   3.754   0.808  17.511  1.0543 -0.9237 -2.6594
 6863SOL    HW232049   3.794   0.712  17.608  0.5111 -0.8865  0.4927
 6864SOL     OW32050   1.646   3.111   4.829  0.1289  0.1560  0.4649
 6864SOL    HW132051   1.659   3.144   4.918  1.1368  0.7163  0.1103
 6864SOL    HW232052   1.628   3.195   4.788 -1.3596  0.9523  2.7848
 6865SOL     OW32053   1.514   3.942  11.007  0.0469 -0.7513  0.0637
 6865SOL    HW132054   1.591   3.915  10.956  0.7352  0.3075  0.5363
 6865SOL    HW232055   1.442   3.887  10.976 -2.3680  2.7622 -0.4980
 6866SOL     OW32056   4.200   4.598   4.639 -0.2458  0.1937 -0.0581
 6866SOL    HW132057   4.135   4.606   4.709 -0.3073  1.1675 -0.2263
 6866SOL    HW232058   4.251   4.679   4.639 -0.5546  0.3923 -1.3932
 6867SOL     OW32059   0.005   3.676   7.977  0.1598 -0.2488  0.4886
 6867SOL    HW132060   4.707   3.766   7.951  0.1817 -0.3721  0.0351
 6867SOL    HW232061   4.636   3.645   7.988  0.2510 -0.5885  0.3065
 6868SOL     OW32062   1.936   0.202  12.790 -0.0055 -0.1602 -0.3925
 6868SOL    HW132063   2.032   0.197  12.789  0.0488  1.0118 -0.3448
 6868SOL    HW232064   1.934   0.268  12.722 -1.8190 -0.4538 -0.6100
 6869SOL     OW32065   0.252   3.549   6.305  0.0708 -0.9639 -0.1188
 6869SOL    HW132066   0.204   3.556   6.222  1.6414  1.1155 -0.8550
 6869SOL    HW232067   0.191   3.582   6.370  1.2497  0.3860  0.2998
 6870SOL     OW32068   4.321   4.687   5.709 -0.3107 -0.0274  0.3740
 6870SOL    HW132069   4.283   4.711   5.624  2.3219  0.4633 -0.6792
 6870SOL    HW232070   4.393   4.630   5.681 -1.0012 -0.0541 -1.3213
 6871SOL     OW32071   4.310   2.403   3.878 -0.4708  0.5478  0.6860
 6871SOL    HW132072   4.257   2.478   3.853 -1.0879 -0.4402 -0.9660
 6871SOL    HW232073   4.262   2.330   3.838 -0.1103  0.9746 -0.5229
 6872SOL     OW32074   3.237   2.278  13.243  0.0987  0.0923 -0.1509
 6872SOL    HW132075   3.287   2.359  13.251  1.9347 -0.9085 -1.4574
 6872SOL    HW232076   3.176   2.284  13.317 -1.1451  0.0725 -1.1643
 6873SOL     OW32077   2.900   3.866   5.478  0.0806  0.1094 -0.3879
 6873SOL    HW132078   2.976   3.915   5.510 -1.6504  1.9823  0.8267
 6873SOL    HW232079   2.887   3.916   5.398  1.3658 -0.0193 -0.6710
 6874SOL     OW32080   1.123   2.800   1.148  0.1950  0.3626  0.1180
 6874SOL    HW132081   1.046   2.834   1.104 -0.7119 -1.4233  0.3221
 6874SOL    HW232082   1.158   2.740   1.082 -1.2457 -0.6538  0.2842
 6875SOL     OW32083   3.556   4.330  10.964 -0.3398  0.0251 -1.2883
 6875SOL    HW132084   3.580   4.259  11.024 -0.5494  0.3968 -0.7623
 6875SOL    HW232085   3.526   4.391  11.031  0.7738  0.3533 -1.0902
 6876SOL     OW32086   1.278   2.714   4.748 -0.4751  0.0263  0.1220
 6876SOL    HW132087   1.367   2.681   4.744 -0.3735  0.2836  0.2979
 6876SOL    HW232088   1.245   2.656   4.679 -2.3361  0.3863  0.6935
 6877SOL     OW32089   4.640   3.248   6.279 -0.1992  0.2867 -0.3843
 6877SOL    HW132090   4.689   3.176   6.319  1.9306  0.7439 -2.1382
 6877SOL    HW232091   4.654   3.315   6.345 -0.5473  0.7417 -0.7733
 6878SOL     OW32092   0.980   3.558  11.089  0.3200  0.5133  0.5882
 6878SOL    HW132093   1.026   3.508  11.157  2.5658  0.7780 -0.7432
 6878SOL    HW232094   1.027   3.641  11.097  1.5829 -0.2573  1.1223
 6879SOL     OW32095   2.523   4.701   5.108 -0.1524  0.5016 -0.6083
 6879SOL    HW132096   2.472   4.687   5.188  1.7835  1.3741  0.7991
 6879SOL    HW232097   2.577   4.622   5.105 -0.7665  0.0870 -0.6702
 6880SOL     OW32098   4.420   0.264  12.057  0.1383  0.4218 -0.1366
 6880SOL    HW132099   4.335   0.309  12.051  0.8277  1.7286  0.0337
 6880SOL    HW232100   4.396   0.203  11.987  1.5803  0.3271 -0.5436
 6881SOL     OW32101   0.897   1.815   5.991 -0.1740 -0.3126 -0.4103
 6881SOL    HW132102   0.949   1.835   5.914 -0.4300  1.0116 -0.2285
 6881SOL    HW232103   0.938   1.867   6.060 -1.9640 -1.1514  1.3024
 6882SOL     OW32104   4.655   0.003   3.507  0.7146 -0.4637 -0.2839
 6882SOL    HW132105   4.610   4.649   3.469 -0.0584 -0.2832  0.2765
 6882SOL    HW232106   0.027   4.707   3.500  0.3165 -2.2698 -1.2554
 6883SOL     OW32107   4.255   2.421   6.946  0.2813 -0.9189 -0.2517
 6883SOL    HW132108   4.231   2.339   6.902  2.0320 -1.1462 -0.7677
 6883SOL    HW232109   4.350   2.413   6.947  0.4832  2.1361  2.7060
 6884SOL     OW32110   0.256   0.056  12.587  0.3297  0.3472 -0.4494
 6884SOL    HW132111   0.228   0.135  12.633 -0.7994  0.5434 -1.4518
 6884SOL    HW232112   0.316   0.093  12.522 -0.7689  1.2243 -0.9547
 6885SOL     OW32113   2.736   0.738   5.235 -0.1321 -0.0378 -0.2135
 6885SOL    HW132114   2.723   0.785   5.318  1.2862  0.5447 -0.3253
 6885SOL    HW232115   2.648   0.736   5.198 -0.3297  2.0015  0.1359
 6886SOL     OW32116   2.361   4.636   2.147  0.3248  0.5204  0.6457
 6886SOL    HW132117   2.441   4.686   2.135 -0.2873  1.0245 -1.4587
 6886SOL    HW232118   2.297   4.671   2.085 -0.1065 -0.1566  0.7029
 6887SOL     OW32119   2.422   4.575   2.423  0.0633 -0.6304 -0.0099
 6887SOL    HW132120   2.445   4.661   2.458 -0.1907 -0.7571  0.4696
 6887SOL    HW232121   2.367   4.604   2.351  0.7886  0.3478 -0.1732
 6888SOL     OW32122   4.397   4.632   8.109 -0.3345  0.2666  0.1522
 6888SOL    HW132123   4.417   4.633   8.015  0.4468 -0.5384  0.3105
 6888SOL    HW232124   4.381   4.538   8.113  1.7654 -0.0295  1.2805
 6889SOL     OW32125   4.496   0.528   1.712 -0.1458  0.2610  0.0212
 6889SOL    HW132126   4.409   0.490   1.707  0.1714 -0.5783  0.9010
 6889SOL    HW232127   4.488   0.599   1.648  0.8963  0.7287  0.4099
 6890SOL     OW32128   0.672   4.473   8.421 -0.3351  0.2457 -0.2433
 6890SOL    HW132129   0.627   4.388   8.414 -0.9473  0.3137  3.0409
 6890SOL    HW232130   0.761   4.443   8.402 -0.6234 -1.4363  1.0790
 6891SOL     OW32131   1.516   4.174   4.080 -0.0325  0.5262 -0.2657
 6891SOL    HW132132   1.578   4.146   4.148  0.7778  0.5596 -0.9986
 6891SOL    HW232133   1.562   4.160   3.998  1.7163  0.0561  0.7840
 6892SOL     OW32134   4.018   1.973   6.773 -0.2184 -0.0785  0.2232
 6892SOL    HW132135   3.964   1.954   6.697 -0.8295 -1.4349  0.9922
 6892SOL    HW232136   3.949   2.001   6.833 -0.2972 -2.6474  1.3300
 6893SOL     OW32137   0.302   1.983   4.249 -0.2700 -0.1459  0.1218
 6893SOL    HW132138   0.293   2.021   4.337  1.9213  1.4270 -0.3368
 6893SOL    HW232139   0.247   1.905   4.254 -0.8093  0.1781 -0.6513
 6894SOL     OW32140   0.723   1.476   5.365  0.1412  0.3961 -0.3878
 6894SOL    HW132141   0.764   1.548   5.318 -0.6658  1.8255  1.0770
 6894SOL    HW232142   0.648   1.456   5.308  1.1124  0.3764 -1.6485
 6895SOL     OW32143   0.526   1.469   1.200 -0.1275  0.5085  0.2589
 6895SOL    HW132144   0.560   1.387   1.234 -0.6029 -0.9470 -2.7792
 6895SOL    HW232145   0.603   1.526   1.189 -1.2281  1.1316 -4.3516
 6896SOL     OW32146   4.653   1.663   6.414 -0.2618  0.4138 -0.0759
 6896SOL    HW132147   4.587   1.717   6.458  0.7110  1.1844  0.4335
 6896SOL    HW232148   4.617   1.626   6.333 -3.4235  1.0457  1.0567
 6897SOL     OW32149   0.745   2.959   3.228 -0.1123  0.3112  0.0913
 6897SOL    HW132150   0.794   2.995   3.153  1.4459  0.7214  1.3007
 6897SOL    HW232151   0.797   2.885   3.261 -1.1222 -0.5697 -0.3040
 6898SOL     OW32152   3.773   4.609   6.988  0.3579  0.3279 -0.3477
 6898SOL    HW132153   3.857   4.564   7.001  0.9018  1.8273  1.2858
 6898SOL    HW232154   3.762   4.643   7.077 -0.2243  0.6657 -0.5479
 6899SOL     OW32155   3.911   1.132   3.116  0.5285  0.3390  0.2746
 6899SOL    HW132156   3.859   1.056   3.143  1.6139 -1.1983 -1.9610
 6899SOL    HW232157   3.947   1.098   3.034  0.8023  0.0483  0.5193
 6900SOL     OW32158   3.178   0.965   8.685 -0.0800 -0.3575 -0.1970
 6900SOL    HW132159   3.156   0.877   8.714 -1.4113 -0.1808 -0.6636
 6900SOL    HW232160   3.269   0.948   8.659  0.2974  0.4286  0.6144
 6901SOL     OW32161   3.330   2.070   8.864  0.4187  0.1893  0.4465
 6901SOL    HW132162   3.378   2.152   8.852 -1.9840  1.4292 -0.6987
 6901SOL    HW232163   3.249   2.087   8.817  1.5533  0.4623 -1.4154
 6902SOL     OW32164   0.643   0.466   6.423  0.1658  0.4764 -0.3736
 6902SOL    HW132165   0.572   0.525   6.447  0.6459  0.0212  2.1215
 6902SOL    HW232166   0.712   0.531   6.433  1.8338 -1.6518  1.9266
 6903SOL     OW32167   0.590   1.504  10.593 -0.5347  0.1309 -0.4734
 6903SOL    HW132168   0.603   1.540  10.681 -1.7921 -0.7125  0.0686
 6903SOL    HW232169   0.582   1.409  10.596 -0.1530  0.1479  0.9398
 6904SOL     OW32170   3.814   0.201   6.969  0.4943  0.0085 -0.1600
 6904SOL    HW132171   3.786   0.291   6.988  1.4751  0.4030 -0.5730
 6904SOL    HW232172   3.909   0.206   6.977  0.4522 -1.2548  0.9699
 6905SOL     OW32173   1.670   2.931   8.248 -0.0964  0.2789  0.2179
 6905SOL    HW132174   1.657   2.886   8.331  3.1630  0.4962  0.8430
 6905SOL    HW232175   1.588   2.929   8.199  0.5749 -0.5435 -0.8562
 6906SOL     OW32176   1.021   4.315  16.062  0.3324  0.0743  0.2134
 6906SOL    HW132177   0.954   4.288  15.999  1.1095 -0.8017 -0.2486
 6906SOL    HW232178   1.096   4.270  16.021  1.2489  1.4163  0.4186
 6907SOL     OW32179   3.683   0.670   4.630 -0.3961  0.0666 -0.1193
 6907SOL    HW132180   3.650   0.748   4.584  0.0152  0.1267 -0.3136
 6907SOL    HW232181   3.623   0.603   4.598 -0.4624 -0.6822  1.6011
 6908SOL     OW32182   4.040   4.681   7.852 -0.4207  0.1390 -0.5852
 6908SOL    HW132183   4.076   4.687   7.940 -3.0272  0.8623  0.4254
 6908SOL    HW232184   3.948   4.688   7.877 -0.6074  1.1494 -1.5601
 6909SOL     OW32185   2.422   4.051   9.467  0.4284  0.1038  0.0445
 6909SOL    HW132186   2.435   4.050   9.373 -0.6174  0.5252 -0.1067
 6909SOL    HW232187   2.508   4.021   9.498 -0.9418 -0.9664  2.8360
 6910SOL     OW32188   1.983   1.355   6.666 -0.4087 -0.3834 -0.5803
 6910SOL    HW132189   1.986   1.283   6.603  0.5319 -0.9618  0.1290
 6910SOL    HW232190   1.912   1.330   6.725  0.3316 -0.1805  0.3892
 6911SOL     OW32191   4.680   2.857   8.212 -0.2147  0.2350  0.3350
 6911SOL    HW132192   4.708   2.936   8.258  2.6094 -1.0264  0.7412
 6911SOL    HW232193   4.591   2.845   8.245 -0.1799 -0.2335  0.2483
 6912SOL     OW32194   4.418   4.380   2.763 -0.2251  0.1907 -0.8005
 6912SOL    HW132195   4.467   4.327   2.700  0.6352 -0.7700  0.6764
 6912SOL    HW232196   4.346   4.401   2.704  1.5348 -1.1040 -3.3792
 6913SOL     OW32197   0.459   2.248   5.280  0.4056  0.2913  0.1827
 6913SOL    HW132198   0.523   2.268   5.348  2.1518 -0.4209 -1.2722
 6913SOL    HW232199   0.493   2.297   5.205  3.0085 -0.2371  1.0331
 6914SOL     OW32200   0.897   0.538   5.739 -0.0972 -0.0490 -0.3159
 6914SOL    HW132201   0.888   0.621   5.787 -2.1603  0.1737 -1.1033
 6914SOL    HW232202   0.894   0.568   5.648  0.5220  0.0365 -0.3134
 6915SOL     OW32203   1.780   2.145   0.363 -0.0090  0.0889 -0.5590
 6915SOL    HW132204   1.782   2.107   0.451  2.5323 -0.9497 -1.0760
 6915SOL    HW232205   1.709   2.094   0.323 -1.3236  1.5069 -0.0171
 6916SOL     OW32206   0.549   4.174   1.760  0.3410 -0.2050 -0.1309
 6916SOL    HW132207   0.625   4.138   1.714  1.1836  0.8932  0.3941
 6916SOL    HW232208   0.589   4.216   1.836  0.4979  1.5493 -1.1639
 6917SOL     OW32209   0.710   0.225   1.925 -0.6272  0.0041  0.1753
 6917SOL    HW132210   0.762   0.207   2.004 -1.5365  0.3774  0.8618
 6917SOL    HW232211   0.637   0.271   1.967 -1.4607 -2.6428  1.6464
 6918SOL     OW32212   0.531   1.506   9.066 -0.5594  0.1483 -0.3363
 6918SOL    HW132213   0.573   1.445   9.005 -1.2533  0.6244 -1.3003
 6918SOL    HW232214   0.602   1.566   9.089 -0.6332  0.1028  0.0072
 6919SOL     OW32215   1.945   3.388  15.545 -0.5574  0.1009 -0.1412
 6919SOL    HW132216   1.856   3.414  15.567 -0.2967 -0.0313  1.0615
 6919SOL    HW232217   1.963   3.440  15.467 -1.0653  0.5852  0.0630
 6920SOL     OW32218   0.832   0.976   5.717  0.2779 -0.0746 -0.1656
 6920SOL    HW132219   0.925   0.957   5.729  0.2739  0.5473  0.8669
 6920SOL    HW232220   0.798   0.933   5.639 -0.3530 -0.4943  0.3423
 6921SOL     OW32221   3.688   4.547  17.040  0.0753 -0.3148 -0.2044
 6921SOL    HW132222   3.691   4.487  16.966 -1.0263 -0.5072 -0.0943
 6921SOL    HW232223   3.772   4.532  17.084 -0.3000 -3.1932 -0.5129
 6922SOL     OW32224   3.574   3.110  12.980  0.3107 -0.3011  0.2115
 6922SOL    HW132225   3.597   3.195  12.943  2.0486 -1.1945 -0.7709
 6922SOL    HW232226   3.518   3.130  13.055  0.8789  0.1013  0.5310
 6923SOL     OW32227   2.919   2.935   2.775 -0.3996  0.3946  0.6322
 6923SOL    HW132228   2.908   2.972   2.687  2.8929 -0.5769 -0.1924
 6923SOL    HW232229   3.011   2.957   2.793 -0.1722 -0.2320  0.2567
 6924SOL     OW32230   2.378   0.771   3.468  0.5010 -0.0578 -0.0561
 6924SOL    HW132231   2.394   0.866   3.475 -1.2787  0.3906 -2.1160
 6924SOL    HW232232   2.452   0.743   3.414  0.1557 -1.2150  0.0698
 6925SOL     OW32233   3.346   3.499  16.753  0.2967 -0.1570 -0.2908
 6925SOL    HW132234   3.324   3.579  16.705 -0.0414  0.2502  0.5319
 6925SOL    HW232235   3.268   3.447  16.735 -0.7941  0.2872  3.0832
 6926SOL     OW32236   1.397   1.876   2.725  0.6528  0.1492  0.7133
 6926SOL    HW132237   1.335   1.947   2.710 -1.2208 -1.7543 -0.5656
 6926SOL    HW232238   1.353   1.809   2.671  0.7405  0.6009  0.0767
 6927SOL     OW32239   0.431   0.790   2.821  0.1640  0.6291 -0.3197
 6927SOL    HW132240   0.386   0.706   2.810  1.4991  0.1724 -2.2234
 6927SOL    HW232241   0.482   0.790   2.741 -1.1215 -1.4750 -1.1558
 6928SOL     OW32242   1.863   2.701   4.663  0.2037  0.4476 -0.2789
 6928SOL    HW132243   1.903   2.762   4.725  1.8473 -0.7499 -0.1604
 6928SOL    HW232244   1.783   2.753   4.655  1.1380  1.5381 -2.7951
 6929SOL     OW32245   1.301   3.388   7.465 -0.6284  0.4655 -0.1809
 6929SOL    HW132246   1.266   3.343   7.389  0.1623 -0.1560 -0.1693
 6929SOL    HW232247   1.240   3.360   7.534 -0.0974  0.6027  0.3380
 6930SOL     OW32248   1.615   3.994  11.717  0.2239 -0.2776 -0.2422
 6930SOL    HW132249   1.692   3.953  11.678  1.2720  1.2270  0.2148
 6930SOL    HW232250   1.632   4.002  11.811  0.3312 -2.9432 -0.0494
 6931SOL     OW32251   0.068   2.903   9.971  0.2045 -0.4018  0.3452
 6931SOL    HW132252   0.047   2.938   9.884  1.2697 -1.2091 -0.2300
 6931SOL    HW232253   0.108   2.821   9.944 -1.8857 -0.6365 -2.1074
 6932SOL     OW32254   2.398   2.465   6.630 -0.5931  0.7634 -0.5088
 6932SOL    HW132255   2.411   2.558   6.613  0.4514  0.7137  0.0832
 6932SOL    HW232256   2.364   2.468   6.719 -0.5784  1.9954 -0.5525
 6933SOL     OW32257   0.857   1.346   6.514  0.3879  0.2864  0.6299
 6933SOL    HW132258   0.822   1.402   6.445 -0.5858 -0.0864  0.8294
 6933SOL    HW232259   0.886   1.267   6.469  0.5430 -0.3896  1.9096
 6934SOL     OW32260   0.270   4.356   8.065  0.6245 -0.8051 -0.2108
 6934SOL    HW132261   0.255   4.376   7.973 -1.5409 -1.4594 -0.0171
 6934SOL    HW232262   0.184   4.387   8.095  0.7594  1.6188 -2.3397
 6935SOL     OW32263   3.521   4.642   5.998  0.1425 -0.2927  0.0092
 6935SOL    HW132264   3.529   4.720   5.943  0.8392 -0.8142 -0.6326
 6935SOL    HW232265   3.430   4.648   6.028  0.3951 -2.3641  1.1487
 6936SOL     OW32266   4.169   1.418   5.352  0.7328  0.1892  0.2940
 6936SOL    HW132267   4.208   1.500   5.382  1.0563 -0.3372  1.3212
 6936SOL    HW232268   4.243   1.373   5.312  1.3247  0.3299  1.2295
 6937SOL     OW32269   0.014   2.945  10.288  0.1275 -0.4356 -0.6179
 6937SOL    HW132270   4.658   2.997  10.309  0.5669  0.5144 -1.3608
 6937SOL    HW232271   0.069   3.023  10.294 -1.2156  0.4720 -0.2183
 6938SOL     OW32272   2.694   0.296   3.250  0.0650  0.1204  0.1525
 6938SOL    HW132273   2.602   0.318   3.238 -0.2140 -1.1929 -0.0635
 6938SOL    HW232274   2.742   0.379   3.258  2.1182 -1.1180  0.6156
 6939SOL     OW32275   4.583   4.652   3.935 -1.1300  0.1370 -0.7139
 6939SOL    HW132276   4.618   4.569   3.902 -1.7081 -0.8736  1.2089
 6939SOL    HW232277   4.542   4.624   4.017 -1.0747 -0.1408 -0.7801
 6940SOL     OW32278   4.030   0.733   3.016 -0.1808 -0.6017 -0.3185
 6940SOL    HW132279   4.041   0.825   3.039  3.2329 -0.5666 -2.0761
 6940SOL    HW232280   4.077   0.725   2.932 -0.5567  0.6453 -0.6473
 6941SOL     OW32281   1.370   3.935  14.475  0.1937  0.2606  0.3993
 6941SOL    HW132282   1.353   4.029  14.473 -0.0595  0.2472  1.7538
 6941SOL    HW232283   1.320   3.907  14.398 -0.8497  0.7416  0.9001
 6942SOL     OW32284   2.711   3.900   5.662  0.1252 -0.6988  0.4889
 6942SOL    HW132285   2.649   3.956   5.614 -0.6827  0.3110  2.7008
 6942SOL    HW232286   2.781   3.872   5.603 -0.4060 -0.0815 -0.4380
 6943SOL     OW32287   1.991   3.190   9.680 -0.2859  0.2373 -0.0690
 6943SOL    HW132288   1.972   3.224   9.768 -0.7880 -1.5363  0.4963
 6943SOL    HW232289   2.085   3.202   9.668 -0.0390  0.3873  1.9158
 6944SOL     OW32290   2.206   0.385   4.572  0.0015 -0.3907  0.5050
 6944SOL    HW132291   2.155   0.336   4.508 -0.2070  1.9950 -1.1604
 6944SOL    HW232292   2.149   0.461   4.584  0.3563  0.2488 -1.8854
 6945SOL     OW32293   1.748   4.082  14.471 -0.0826  0.2352  0.0477
 6945SOL    HW132294   1.673   4.038  14.511 -0.2149 -1.6331 -2.2141
 6945SOL    HW232295   1.810   4.015  14.443  0.8379  1.2156 -0.2708
 6946SOL     OW32296   3.574   0.433   1.751  0.0425  0.6668 -0.1942
 6946SOL    HW132297   3.529   0.380   1.685  0.5282  0.1540 -0.1155
 6946SOL    HW232298   3.620   0.501   1.702 -0.5827  1.4703  0.3328
 6947SOL     OW32299   3.851   3.821   8.277  0.0579 -0.0774  1.0057
 6947SOL    HW132300   3.762   3.856   8.279 -0.2030 -0.7728  1.3137
 6947SOL    HW232301   3.903   3.895   8.308  1.5916 -0.2004 -1.2705
 6948SOL     OW32302   2.909   1.895  12.803 -0.5530 -0.0849  0.7163
 6948SOL    HW132303   2.878   1.929  12.719 -0.2916  0.5047  0.8533
 6948SOL    HW232304   2.993   1.940  12.814 -1.1014  0.9287  0.7602
 6949SOL     OW32305   4.616   2.453   6.031  0.1389  0.2714 -0.0896
 6949SOL    HW132306   4.686   2.492   5.979  0.0181 -0.4870 -0.8258
 6949SOL    HW232307   4.539   2.476   5.979  1.0344  0.8033 -1.1817
 6950SOL     OW32308   0.194   0.737   2.273 -0.0390  0.0272  0.0099
 6950SOL    HW132309   0.252   0.666   2.244  0.3418 -0.3032  1.6126
 6950SOL    HW232310   0.176   0.776   2.187 -2.0882  1.6678  1.1989
 6951SOL     OW32311   4.131   2.435   7.494 -0.5733  0.0628  0.0115
 6951SOL    HW132312   4.210   2.461   7.446  0.0563  0.5775  1.3084
 6951SOL    HW232313   4.134   2.339   7.493 -1.0043  0.0584 -0.4234
 6952SOL     OW32314   0.136   4.505  10.714  0.5147  0.6620 -0.9199
 6952SOL    HW132315   0.078   4.437  10.680 -0.2715  0.9014 -0.0386
 6952SOL    HW232316   0.221   4.478  10.679  0.7375 -1.0332  0.9443
 6953SOL     OW32317   0.813   3.676   2.584 -0.6706  0.4082 -0.2111
 6953SOL    HW132318   0.766   3.595   2.605  2.2829 -1.6800 -1.5362
 6953SOL    HW232319   0.747   3.744   2.594 -0.2241  0.8600 -0.3608
 6954SOL     OW32320   4.032   2.684   4.678  0.0899 -0.2449 -0.0385
 6954SOL    HW132321   4.087   2.751   4.636  0.6202  0.5241  1.8865
 6954SOL    HW232322   4.077   2.668   4.761 -0.4126 -0.6579  0.1454
 6955SOL     OW32323   2.469   3.780   3.647 -0.1293 -0.5090  0.3297
 6955SOL    HW132324   2.412   3.765   3.572  1.8677 -2.2504 -0.8683
 6955SOL    HW232325   2.478   3.696   3.693  1.6020 -1.0512 -1.0072
 6956SOL     OW32326   1.024   2.133   4.481  0.0642  0.7228  0.0186
 6956SOL    HW132327   0.934   2.129   4.446 -0.6904  4.2454  1.5796
 6956SOL    HW232328   1.007   2.196   4.551 -2.6287  0.3826 -0.3091
 6957SOL     OW32329   1.060   2.171   0.090  0.0785  0.3703  0.0428
 6957SOL    HW132330   1.064   2.106   0.020 -3.4138 -0.1128  0.3114
 6957SOL    HW232331   1.001   2.117   0.142  0.0777  0.9122  0.6091
 6958SOL     OW32332   1.824   2.295  15.031 -0.1947 -0.1513 -0.0282
 6958SOL    HW132333   1.831   2.320  15.123 -1.0848  0.1429 -0.0399
 6958SOL    HW232334   1.729   2.291  15.025 -0.2366  0.4682  0.1868
 6959SOL     OW32335   1.076   4.044  13.278 -0.0273  0.7301  0.2353
 6959SOL    HW132336   1.048   3.955  13.261 -2.0594  1.4152  0.0555
 6959SOL    HW232337   1.083   4.033  13.373  0.6273  1.0441  0.2289
 6960SOL     OW32338   1.415   4.638   5.469  0.5904 -1.0386  0.1441
 6960SOL    HW132339   1.328   4.600   5.458 -1.3876  2.9739  2.4846
 6960SOL    HW232340   1.399   4.677   5.554 -0.1424 -2.1388  0.4995
 6961SOL     OW32341   2.487   1.534   4.336  0.1431 -0.2845  0.3989
 6961SOL    HW132342   2.473   1.618   4.292  1.4396  0.4649  1.4234
 6961SOL    HW232343   2.582   1.538   4.343  0.0391 -0.3155  2.0376
 6962SOL     OW32344   4.396   1.399   5.617 -0.3654 -0.5626  0.8685
 6962SOL    HW132345   4.446   1.375   5.539 -1.7973 -1.7435  0.3175
 6962SOL    HW232346   4.413   1.493   5.605  1.0247 -0.5823  2.8156
 6963SOL     OW32347   2.807   2.425   2.704  0.5645  0.3375 -0.3618
 6963SOL    HW132348   2.895   2.398   2.731  0.1810  1.0805  1.6561
 6963SOL    HW232349   2.768   2.356   2.758  1.1117  0.2370 -0.0935
 6964SOL     OW32350   1.498   3.693   3.767 -0.2990  0.1135  0.2499
 6964SOL    HW132351   1.493   3.605   3.729  1.2052  0.4952 -0.8138
 6964SOL    HW232352   1.436   3.731   3.705  1.6064  1.6880 -0.6862
 6965SOL     OW32353   0.751   3.288  13.402  0.5685 -0.2370 -0.0112
 6965SOL    HW132354   0.779   3.282  13.311 -0.6534 -0.5575 -0.3595
 6965SOL    HW232355   0.697   3.366  13.395 -1.2130 -1.6247 -1.4234
 6966SOL     OW32356   2.096   3.113  10.953  0.0913  0.2330  0.3829
 6966SOL    HW132357   2.091   3.025  10.915 -0.1156  0.8588 -1.0551
 6966SOL    HW232358   2.059   3.117  11.041 -0.1650 -0.1012  0.2946
 6967SOL     OW32359   1.727   3.491  15.160 -0.7192  0.0533  0.0327
 6967SOL    HW132360   1.791   3.488  15.231  1.5419  1.0375 -1.9603
 6967SOL    HW232361   1.690   3.575  15.188 -0.4488  0.2534 -0.2160
 6968SOL     OW32362   4.650   4.099  12.065  0.0728  0.1986 -0.0207
 6968SOL    HW132363   4.603   4.182  12.068  1.3776  0.8470  2.2670
 6968SOL    HW232364   4.624   4.060  11.981 -1.5666  0.0945  0.5323
 6969SOL     OW32365   2.988   4.504  14.105  0.2351  0.3309  0.8020
 6969SOL    HW132366   2.921   4.539  14.163 -0.4772  1.3035 -0.6254
 6969SOL    HW232367   2.964   4.411  14.103  2.3564 -0.1824 -2.0762
 6970SOL     OW32368   1.579   2.473   7.393  0.7656 -0.3719 -0.2165
 6970SOL    HW132369   1.650   2.413   7.370  1.9371  1.1100 -0.4797
 6970SOL    HW232370   1.594   2.486   7.486  0.7364 -0.3932 -0.2088
 6971SOL     OW32371   3.921   3.533  10.357  0.0011  0.3698  0.2121
 6971SOL    HW132372   4.011   3.555  10.331 -0.5910  1.1441 -1.1233
 6971SOL    HW232373   3.935   3.481  10.437 -0.2727 -1.3450 -0.8642
 6972SOL     OW32374   4.616   1.836   7.517 -0.0550 -0.3793 -0.4228
 6972SOL    HW132375   4.568   1.766   7.472 -0.9765  0.5967 -0.9554
 6972SOL    HW232376   4.679   1.884   7.462  0.9136 -1.6317 -0.3944
 6973SOL     OW32377   2.772   1.475  15.432 -0.0691  0.2796 -0.9130
 6973SOL    HW132378   2.799   1.481  15.523  0.7137  2.4541 -1.2985
 6973SOL    HW232379   2.826   1.400  15.408 -0.9988 -0.3241 -1.1232
 6974SOL     OW32380   2.093   1.580   6.630 -0.2259 -0.0136  0.5634
 6974SOL    HW132381   2.056   1.492   6.637 -0.5066 -0.1474 -2.5134
 6974SOL    HW232382   2.059   1.627   6.706 -0.2697  1.7404 -0.5313
 6975SOL     OW32383   0.303   1.588   0.622  0.0799 -0.0604  0.5875
 6975SOL    HW132384   0.326   1.680   0.614 -3.0177  0.6357 -0.1773
 6975SOL    HW232385   0.219   1.590   0.666 -2.4537 -1.5766 -4.1587
 6976SOL     OW32386   2.992   1.315   6.591 -0.5159 -0.0637  0.7489
 6976SOL    HW132387   2.994   1.319   6.495  0.5715  0.7090  0.8065
 6976SOL    HW232388   2.950   1.230   6.605  0.4196 -0.4070  1.4244
 6977SOL     OW32389   0.803   2.142   6.292  0.4997 -0.6021 -0.3493
 6977SOL    HW132390   0.861   2.133   6.216 -0.9289 -0.8946 -1.4124
 6977SOL    HW232391   0.748   2.220   6.281  0.7344 -0.3309  0.4599
 6978SOL     OW32392   1.004   3.768  10.137 -0.8326  0.1943  0.3940
 6978SOL    HW132393   1.010   3.676  10.165 -0.2288 -0.4673 -1.9078
 6978SOL    HW232394   0.968   3.802  10.219 -1.7067 -0.2319  0.1883
 6979SOL     OW32395   3.643   4.405   2.756 -0.4048 -0.7309  0.3192
 6979SOL    HW132396   3.562   4.374   2.716 -0.3299 -0.3173 -0.1463
 6979SOL    HW232397   3.608   4.483   2.800  1.3876  0.3773 -0.2354
 6980SOL     OW32398   1.976   4.295   7.969 -0.1344  0.4272 -0.2058
 6980SOL    HW132399   1.892   4.341   7.972 -0.6677 -0.4804 -1.3077
 6980SOL    HW232400   1.994   4.273   8.060 -0.7934 -1.1555 -0.4518
 6981SOL     OW32401   1.386   2.202   7.610  0.6774  0.1848  0.1089
 6981SOL    HW132402   1.446   2.129   7.622 -0.7344 -0.7082  1.7979
 6981SOL    HW232403   1.345   2.173   7.528 -0.2628 -1.2093  1.0719
 6982SOL     OW32404   0.756   2.524   7.238  0.1474  0.6222 -0.7899
 6982SOL    HW132405   0.694   2.451   7.245 -1.7022  2.0842 -2.0965
 6982SOL    HW232406   0.765   2.558   7.327  1.8508  1.7178 -1.3847
 6983SOL     OW32407   2.648   1.463  15.948 -0.2656 -0.1270  0.0410
 6983SOL    HW132408   2.575   1.455  15.887 -0.4735  0.7032  0.1811
 6983SOL    HW232409   2.600   1.497  16.024 -0.9136 -1.5146  0.2518
 6984SOL     OW32410   2.288   2.950   8.356 -0.1262 -0.0769  0.4164
 6984SOL    HW132411   2.272   3.045   8.351  1.3807  0.1247 -0.4494
 6984SOL    HW232412   2.306   2.928   8.265 -0.5800 -1.4972  0.6750
 6985SOL     OW32413   2.324   4.223   2.795 -0.0088  0.2268 -0.2650
 6985SOL    HW132414   2.294   4.287   2.730 -0.4173 -0.1731 -0.4698
 6985SOL    HW232415   2.418   4.237   2.800  0.0886 -0.9190  0.9873
 6986SOL     OW32416   2.792   2.755   8.745  0.8021 -0.1504  0.3229
 6986SOL    HW132417   2.870   2.773   8.692  0.7377  0.7248  0.5215
 6986SOL    HW232418   2.709   2.783   8.707  1.5632  1.5622 -0.0668
 6987SOL     OW32419   3.731   1.728   2.971 -0.0881  0.2404 -0.5356
 6987SOL    HW132420   3.824   1.712   2.953 -0.6317 -2.2665 -1.1067
 6987SOL    HW232421   3.744   1.821   2.991  2.5517 -0.2846  0.1727
 6988SOL     OW32422   4.506   0.270   6.855 -0.8637 -0.4557 -0.2274
 6988SOL    HW132423   4.511   0.342   6.792 -0.7821  0.0284  0.3350
 6988SOL    HW232424   4.426   0.224   6.830 -0.2845 -1.4157 -0.2972
 6989SOL     OW32425   1.862   2.724   7.499  0.8789 -0.0701  0.2980
 6989SOL    HW132426   1.892   2.738   7.589 -0.9436 -0.4156  0.9740
 6989SOL    HW232427   1.801   2.797   7.485  1.3099 -0.1763 -1.9870
 6990SOL     OW32428   4.319   3.505   2.748  0.2148  0.0999  0.1553
 6990SOL    HW132429   4.263   3.513   2.825 -1.9104 -0.0328 -1.3884
 6990SOL    HW232430   4.396   3.538   2.795  1.2211  0.1503 -1.5592
 6991SOL     OW32431   0.401   2.004   2.129  0.3897  0.2929  0.4989
 6991SOL    HW132432   0.400   1.928   2.186  0.6030 -2.2009 -2.7976
 6991SOL    HW232433   0.426   1.971   2.043 -0.6330 -0.2986  0.4251
 6992SOL     OW32434   1.101   1.015   1.375 -0.2174  0.4591 -0.1420
 6992SOL    HW132435   1.081   1.048   1.462  0.8170 -2.0954  1.0520
 6992SOL    HW232436   1.034   1.065   1.327 -0.3895  0.8633  0.5252
 6993SOL     OW32437   2.309   2.403   2.561  0.0558 -0.3039  0.5003
 6993SOL    HW132438   2.236   2.410   2.499 -1.2331 -1.3040  1.8907
 6993SOL    HW232439   2.272   2.343   2.626  0.1298 -0.1020  0.7278
 6994SOL     OW32440   0.087   0.139   3.230 -0.0431 -0.1822  0.0948
 6994SOL    HW132441   0.076   0.190   3.311 -0.9777  0.0836 -0.1992
 6994SOL    HW232442   0.127   0.205   3.172 -0.9234  0.3091  0.0531
 6995SOL     OW32443   4.619   3.087   6.682  0.1516 -0.3355  0.2762
 6995SOL    HW132444   4.657   3.024   6.743  1.3935  1.2488  1.1422
 6995SOL    HW232445   4.674   3.077   6.604  0.9798  1.1921  0.6600
 6996SOL     OW32446   3.505   4.369   9.957  0.2187  0.3126 -0.2309
 6996SOL    HW132447   3.600   4.364   9.955  0.2901  1.7420  0.1764
 6996SOL    HW232448   3.491   4.291  10.011  1.4116  0.6941  0.6249
 6997SOL     OW32449   2.599   3.667   7.859 -0.0304 -0.1549  0.0337
 6997SOL    HW132450   2.619   3.636   7.947 -1.0430  2.0735  1.0392
 6997SOL    HW232451   2.648   3.606   7.804  0.3839  0.9597 -0.8342
 6998SOL     OW32452   3.107   1.949  11.174 -0.0341 -0.0077  0.4700
 6998SOL    HW132453   3.088   2.014  11.106  3.0891 -1.2442 -1.5865
 6998SOL    HW232454   3.052   1.981  11.246 -2.2941 -0.0330 -1.2399
 6999SOL     OW32455   4.652   1.720   7.760 -0.3028  0.0166  0.5106
 6999SOL    HW132456   4.679   1.758   7.676  0.0638 -1.8985 -0.2456
 6999SOL    HW232457   4.583   1.659   7.736 -0.5646  0.2597  0.6467
 7000SOL     OW32458   3.153   1.473   7.121  0.3106 -0.5087  0.0706
 7000SOL    HW132459   3.188   1.510   7.040 -0.0946  2.5968  1.2706
 7000SOL    HW232460   3.067   1.439   7.097  0.1253 -0.7280  1.0299
 7001SOL     OW32461   1.138   4.071   4.807 -0.3753  0.3048 -0.0233
 7001SOL    HW132462   1.087   4.105   4.733  1.1991 -1.0873 -1.7521
 7001SOL    HW232463   1.133   3.977   4.786  1.1550  0.1424  0.3683
 7002SOL     OW32464   0.287   3.902   5.648 -0.0650 -0.4946  0.1663
 7002SOL    HW132465   0.228   3.885   5.575  1.2148  0.9326 -1.2114
 7002SOL    HW232466   0.222   3.925   5.714 -0.7874 -0.8796 -0.4100
 7003SOL     OW32467   0.895   4.112  14.250 -0.1324  0.1509 -0.7635
 7003SOL    HW132468   0.807   4.129  14.214 -0.0537  0.3310 -0.8720
 7003SOL    HW232469   0.927   4.045  14.190 -1.1975 -0.0534 -1.1034
 7004SOL     OW32470   1.978   0.801  17.107 -0.6152 -0.4945 -0.0360
 7004SOL    HW132471   2.055   0.840  17.066  0.9095 -2.6651  0.7725
 7004SOL    HW232472   2.011   0.713  17.121  2.8277  1.0773  1.6258
 7005SOL     OW32473   0.149   2.897   2.000 -0.7253  0.2518 -0.0369
 7005SOL    HW132474   0.178   2.957   2.068 -2.2539 -0.7184  1.4872
 7005SOL    HW232475   0.221   2.897   1.937 -1.0456  1.6429 -0.3897
 7006SOL     OW32476   2.154   0.728   2.504 -0.0720  0.0206  0.0918
 7006SOL    HW132477   2.081   0.760   2.451 -0.3288  0.3929  0.6679
 7006SOL    HW232478   2.233   0.769   2.469  0.1015 -1.0974 -0.8028
 7007SOL     OW32479   1.073   4.406  10.603  0.2080  0.1102 -0.1900
 7007SOL    HW132480   1.048   4.327  10.650 -1.8926  0.3992 -0.8429
 7007SOL    HW232481   1.169   4.398  10.606  0.0567 -2.2798 -1.7092
 7008SOL     OW32482   1.231   2.865   3.790  0.4957  0.0159 -0.0120
 7008SOL    HW132483   1.204   2.804   3.858  0.2137  2.9232  2.4822
 7008SOL    HW232484   1.278   2.927   3.846  1.0253  1.0269 -1.5683
 7009SOL     OW32485   2.160   2.754   7.636  0.0729 -0.3482  0.2878
 7009SOL    HW132486   2.104   2.813   7.586  0.4964  0.8396  1.2230
 7009SOL    HW232487   2.209   2.821   7.684  0.0792  0.0279 -0.2406
 7010SOL     OW32488   2.118   3.345   6.258  0.0073  0.7201  0.1400
 7010SOL    HW132489   2.121   3.251   6.272 -0.1384  0.4561 -1.6061
 7010SOL    HW232490   2.035   3.355   6.212  0.7312  2.5426 -0.8284
 7011SOL     OW32491   4.310   3.014   4.415  0.2760 -0.2362  0.1007
 7011SOL    HW132492   4.396   3.056   4.412  0.5202 -0.8635 -1.8187
 7011SOL    HW232493   4.269   3.031   4.330 -0.0117 -1.9842 -0.1142
 7012SOL     OW32494   0.820   0.680   6.469 -0.1732  0.1857 -0.0944
 7012SOL    HW132495   0.894   0.723   6.512  0.4996  0.0647 -1.1339
 7012SOL    HW232496   0.767   0.759   6.458 -0.9432 -0.1484  1.2932
 7013SOL     OW32497   2.417   1.709   5.535 -0.0584  0.4550 -0.1804
 7013SOL    HW132498   2.322   1.717   5.535 -0.1410 -0.4161  3.5861
 7013SOL    HW232499   2.434   1.772   5.605  0.2330 -2.4721  2.3923
 7014SOL     OW32500   1.997   2.825   2.335  0.6153  0.2796  0.2647
 7014SOL    HW132501   2.029   2.914   2.345  0.3699  0.4747 -0.6767
 7014SOL    HW232502   1.904   2.843   2.346 -0.0038 -0.5062 -3.5897
 7015SOL     OW32503   3.869   3.555   5.032  0.0111 -0.0750 -0.7813
 7015SOL    HW132504   3.922   3.630   5.006  2.5476 -1.9272 -0.8863
 7015SOL    HW232505   3.913   3.518   5.108 -2.4368 -2.3907 -0.4673
 7016SOL     OW32506   1.953   0.192   6.242  0.1513  0.4399  0.4042
 7016SOL    HW132507   2.034   0.184   6.293  1.5558 -3.0645 -2.3585
 7016SOL    HW232508   1.910   0.108   6.260 -0.1463  0.6148  0.5120
 7017SOL     OW32509   1.835   0.387   6.651  0.0235 -0.1619 -0.4629
 7017SOL    HW132510   1.831   0.465   6.595 -0.2632  0.0971 -0.0809
 7017SOL    HW232511   1.928   0.364   6.646 -0.1368 -0.7555 -0.7156
 7018SOL     OW32512   2.828   3.421   4.519  0.0972 -0.0025 -0.1074
 7018SOL    HW132513   2.786   3.342   4.484  1.0543 -0.4881 -0.1457
 7018SOL    HW232514   2.757   3.484   4.532 -0.4366 -0.4556 -0.7859
 7019SOL     OW32515   1.052   0.726   8.977  0.2431 -0.8706 -0.5398
 7019SOL    HW132516   1.046   0.822   8.977  0.4031 -0.8393  2.7773
 7019SOL    HW232517   1.068   0.707   9.070 -2.2965  1.1899  0.3257
 7020SOL     OW32518   4.037   0.770   1.979 -0.3022  0.0743  0.2707
 7020SOL    HW132519   3.965   0.722   1.938 -0.9563  0.0480  1.4607
 7020SOL    HW232520   3.982   0.840   2.015  0.5814  0.3792  1.0329
 7021SOL     OW32521   0.434   1.198  17.513 -0.1375  0.1113  0.2254
 7021SOL    HW132522   0.416   1.179  17.605  0.8162 -2.1652 -0.0672
 7021SOL    HW232523   0.505   1.140  17.487  0.0797  0.7174 -0.5336
 7022SOL     OW32524   0.566   4.509  15.268 -0.3340 -0.1374  0.0311
 7022SOL    HW132525   0.527   4.457  15.197 -1.8711 -0.5770  1.1850
 7022SOL    HW232526   0.545   4.467  15.351 -1.8240  0.4952 -0.0239
 7023SOL     OW32527   0.822   4.499  15.224  0.0160  0.0243  0.0752
 7023SOL    HW132528   0.864   4.527  15.305  0.0032 -0.5871  0.2945
 7023SOL    HW232529   0.733   4.474  15.249 -0.1637 -0.6287 -1.2221
 7024SOL     OW32530   0.209   2.401   6.495 -0.6167 -0.1761  0.4225
 7024SOL    HW132531   0.162   2.345   6.432 -1.2318  0.0717  0.6563
 7024SOL    HW232532   0.172   2.488   6.483 -0.0840  0.0818  0.6717
 7025SOL     OW32533   2.578   2.501   4.323 -0.2292  0.1159 -0.1175
 7025SOL    HW132534   2.637   2.553   4.268 -0.9088 -1.3220 -2.2249
 7025SOL    HW232535   2.597   2.539   4.408 -0.3639  1.6817 -0.7889
 7026SOL     OW32536   1.015   0.303   4.588 -0.1848 -0.1596 -0.2467
 7026SOL    HW132537   1.084   0.369   4.594  0.0130 -0.2639 -1.3209
 7026SOL    HW232538   1.001   0.300   4.682 -0.3432  0.9364 -0.2424
 7027SOL     OW32539   3.443   3.078  17.102 -0.3349 -0.2908 -0.4058
 7027SOL    HW132540   3.417   3.134  17.175 -2.5376 -2.9716  0.8849
 7027SOL    HW232541   3.466   3.000  17.153 -0.1958 -2.2871 -3.5535
 7028SOL     OW32542   0.183   0.869   9.643 -1.3543 -0.4437  0.8685
 7028SOL    HW132543   0.170   0.862   9.738 -2.0698 -0.7334  0.7492
 7028SOL    HW232544   0.195   0.778   9.615  0.5219 -0.0732  0.4563
 7029SOL     OW32545   0.035   4.108   3.343 -0.3970  0.1294 -0.0454
 7029SOL    HW132546   4.710   4.188   3.368  1.7145  0.7495  1.8474
 7029SOL    HW232547   0.094   4.134   3.273  0.7210 -1.0014  0.4785
 7030SOL     OW32548   2.592   3.818   1.856  0.2387  0.3796 -0.5074
 7030SOL    HW132549   2.502   3.845   1.871 -0.2657 -1.2740 -0.6050
 7030SOL    HW232550   2.580   3.799   1.763 -2.3311 -0.7141  0.0441
 7031SOL     OW32551   4.344   1.572   7.992  0.3615 -0.1038  0.3508
 7031SOL    HW132552   4.337   1.660   7.956  2.4386  0.0890  0.4105
 7031SOL    HW232553   4.383   1.593   8.076 -1.2070  0.5582  0.9056
 7032SOL     OW32554   1.449   3.180   5.300  0.3058  0.3214 -0.3873
 7032SOL    HW132555   1.423   3.104   5.247  1.8591 -1.5808  1.5572
 7032SOL    HW232556   1.400   3.254   5.264 -0.6779  0.4574  1.2625
 7033SOL     OW32557   1.814   3.079   7.638 -0.1593  0.3856  0.0326
 7033SOL    HW132558   1.788   3.151   7.580  0.4518 -0.8847 -1.8462
 7033SOL    HW232559   1.767   3.100   7.719  1.6760 -2.7760  1.9084
 7034SOL     OW32560   1.755   1.577   0.171  0.0117 -0.1109  0.4257
 7034SOL    HW132561   1.789   1.553   0.084 -3.0206  0.4750 -0.9146
 7034SOL    HW232562   1.670   1.535   0.165 -0.4644  1.0599 -1.2648
 7035SOL     OW32563   2.319   0.413   4.942  0.6678 -0.1173 -0.0128
 7035SOL    HW132564   2.271   0.490   4.911 -0.9841 -0.8822  0.6286
 7035SOL    HW232565   2.347   0.371   4.860  0.8806  3.5213 -1.7948
 7036SOL     OW32566   4.642   1.050   3.200 -0.6167  0.6860 -0.0542
 7036SOL    HW132567   4.710   1.014   3.142 -0.3742  0.4994  0.3422
 7036SOL    HW232568   4.569   0.993   3.174 -0.3247  0.3484 -0.1399
 7037SOL     OW32569   0.137   0.465  12.036  0.0281 -0.1785  0.1562
 7037SOL    HW132570   0.228   0.435  12.035  0.3031  0.7194 -0.7923
 7037SOL    HW232571   0.127   0.527  12.109 -0.2703  0.6687 -0.6086
 7038SOL     OW32572   2.654   3.385   3.775 -0.2121 -0.2096 -0.0682
 7038SOL    HW132573   2.579   3.443   3.790 -0.2061 -0.4194  0.7441
 7038SOL    HW232574   2.607   3.302   3.780 -0.5701  0.0640  1.0975
 7039SOL     OW32575   0.757   0.997   5.999  0.5463 -0.1417  0.3753
 7039SOL    HW132576   0.701   0.986   5.922  0.3300  3.0782  0.0934
 7039SOL    HW232577   0.841   1.007   5.954  0.8072 -0.6029  0.7550
 7040SOL     OW32578   0.892   0.872  12.294  0.4727 -0.0509 -0.0414
 7040SOL    HW132579   0.863   0.868  12.203 -0.5117  0.1711  0.2645
 7040SOL    HW232580   0.931   0.959  12.292  0.6880 -0.1301  0.5619
 7041SOL     OW32581   0.309   2.659   6.744  0.2615  0.2808  0.0196
 7041SOL    HW132582   0.290   2.707   6.663 -1.2428  1.5490  1.1314
 7041SOL    HW232583   0.224   2.622   6.766  0.7229 -1.0173 -0.4087
 7042SOL     OW32584   2.397   2.429  14.344  0.2057 -0.2722 -0.7383
 7042SOL    HW132585   2.454   2.502  14.318  0.9953 -0.6621 -0.1123
 7042SOL    HW232586   2.461   2.358  14.349 -2.3784 -2.5498 -0.0046
 7043SOL     OW32587   4.569   0.764   0.477 -0.4106  0.0711  0.0854
 7043SOL    HW132588   4.527   0.712   0.408  0.0733  0.8305 -0.7814
 7043SOL    HW232589   4.501   0.831   0.488 -1.0498 -0.5502 -0.0352
 7044SOL     OW32590   2.697   3.843   4.442 -0.1366  0.3320 -0.3811
 7044SOL    HW132591   2.751   3.882   4.374  0.9071 -1.4329 -0.5489
 7044SOL    HW232592   2.661   3.920   4.487  1.5067  0.0563  1.3870
 7045SOL     OW32593   2.271   2.530   5.138  0.3084  0.0303  0.1232
 7045SOL    HW132594   2.262   2.563   5.227  0.8829 -0.5890  0.4070
 7045SOL    HW232595   2.363   2.505   5.133  0.6646  0.8650  2.6958
 7046SOL     OW32596   3.716   3.938   2.929 -0.4224 -0.2031 -0.6652
 7046SOL    HW132597   3.670   3.889   2.861 -0.9088 -1.9700  0.9284
 7046SOL    HW232598   3.654   3.950   3.001 -0.9268 -0.5037 -1.0502
 7047SOL     OW32599   3.789   2.489   4.945 -0.4208  0.2847  0.1670
 7047SOL    HW132600   3.725   2.429   4.983 -0.2400 -1.2918 -2.0064
 7047SOL    HW232601   3.871   2.460   4.986  0.9529 -0.5482 -3.2033
 7048SOL     OW32602   0.481   1.817   7.605 -0.3141  0.2238  0.2323
 7048SOL    HW132603   0.441   1.730   7.594 -0.1198  0.1887 -0.2073
 7048SOL    HW232604   0.429   1.862   7.539 -1.9449 -0.7442  0.8695
 7049SOL     OW32605   4.533   1.629   3.446  0.2856 -0.1964  0.0732
 7049SOL    HW132606   4.487   1.559   3.401  0.2364  0.8855 -1.5848
 7049SOL    HW232607   4.598   1.572   3.487 -1.4947  0.6134  3.9623
 7050SOL     OW32608   4.515   3.113   7.409  1.8274 -0.3667 -0.3863
 7050SOL    HW132609   4.546   3.024   7.428 -1.3142 -1.0121  1.7421
 7050SOL    HW232610   4.548   3.166   7.481  1.3471  0.7412 -0.9942
 7051SOL     OW32611   0.917   1.392   7.079  0.3823  0.0006  0.4574
 7051SOL    HW132612   0.837   1.347   7.052  0.9591 -0.4257 -0.5309
 7051SOL    HW232613   0.872   1.466   7.120 -0.6592  0.2081 -1.0777
 7052SOL     OW32614   1.193   0.964  12.371 -0.1548 -0.6281  0.0816
 7052SOL    HW132615   1.146   1.021  12.310 -1.1289 -0.7280  0.7372
 7052SOL    HW232616   1.226   0.892  12.317 -0.3447 -1.6906  1.3780
 7053SOL     OW32617   4.072   3.550   1.956  0.6339 -0.4974  0.0517
 7053SOL    HW132618   4.103   3.462   1.975  1.5800  0.4243  2.7266
 7053SOL    HW232619   3.997   3.554   2.015  0.3533  2.2599 -0.4585
 7054SOL     OW32620   2.967   2.768   0.706  0.3205  0.0827 -0.5934
 7054SOL    HW132621   2.933   2.857   0.718 -1.0835 -0.7228  1.2992
 7054SOL    HW232622   2.970   2.766   0.610  1.6224  0.8621 -0.5777
 7055SOL     OW32623   3.726   1.727   2.498  0.8175 -0.4667 -0.5510
 7055SOL    HW132624   3.715   1.757   2.408 -2.0504  2.0794  0.6271
 7055SOL    HW232625   3.674   1.646   2.498 -0.9779  0.6643  0.5986
 7056SOL     OW32626   2.168   1.139  17.609  0.4339  0.4302  0.4809
 7056SOL    HW132627   2.168   1.183  17.524 -1.7365 -1.7065 -0.6329
 7056SOL    HW232628   2.239   1.082  17.580 -0.6952 -1.8166  2.1508
 7057SOL     OW32629   0.248   1.402  16.472  0.1814  0.7723  0.2983
 7057SOL    HW132630   0.194   1.481  16.473 -0.1750  0.5207  1.2623
 7057SOL    HW232631   0.278   1.397  16.563  3.2791 -0.3780 -0.7934
 7058SOL     OW32632   0.464   0.212   8.821 -0.0396 -0.0765  0.4300
 7058SOL    HW132633   0.546   0.256   8.843 -1.0137  1.4162  1.0727
 7058SOL    HW232634   0.480   0.131   8.869 -2.6763 -0.4029  0.8009
 7059SOL     OW32635   1.820   2.915  17.190 -0.0324  0.2889 -0.3530
 7059SOL    HW132636   1.830   2.987  17.253 -2.3491 -0.0318  0.3838
 7059SOL    HW232637   1.907   2.898  17.153  0.3465  0.4821  0.4520
 7060SOL     OW32638   0.036   0.566   3.614 -0.4221  0.0150  0.0436
 7060SOL    HW132639   0.061   0.490   3.667 -1.7716 -1.2680 -1.1701
 7060SOL    HW232640   0.119   0.605   3.586  0.3945  0.0207  2.3876
 7061SOL     OW32641   0.605   2.948  16.923  0.2897  0.5196  0.0261
 7061SOL    HW132642   0.684   2.924  16.873  0.5908  0.7962  0.3734
 7061SOL    HW232643   0.639   3.021  16.974  2.9424 -0.4772 -0.3073
 7062SOL     OW32644   2.333   2.785   4.145 -0.1649  0.3182 -0.2881
 7062SOL    HW132645   2.327   2.690   4.156  0.0915  0.5563  1.8369
 7062SOL    HW232646   2.293   2.785   4.058  1.2772 -0.7102 -0.9571
 7063SOL     OW32647   1.401   0.574  15.015 -0.8787 -0.2856  0.4462
 7063SOL    HW132648   1.381   0.661  14.979 -0.2606  0.6098  2.2761
 7063SOL    HW232649   1.310   0.546  15.025  0.0183 -3.1699  0.6410
 7064SOL     OW32650   0.871   3.476   5.355  0.0037  0.1261 -0.1260
 7064SOL    HW132651   0.880   3.561   5.399  0.0160  0.8852 -1.5836
 7064SOL    HW232652   0.779   3.456   5.370 -0.2781 -0.0006 -2.0371
 7065SOL     OW32653   1.173   4.641   0.205  0.1248 -0.3097  0.7019
 7065SOL    HW132654   1.090   4.613   0.168  0.5092  0.3091 -0.6144
 7065SOL    HW232655   1.202   4.555   0.234  3.1108  0.7260  0.8076
 7066SOL     OW32656   1.325   1.897   6.147 -0.6064 -0.2243  0.3337
 7066SOL    HW132657   1.380   1.868   6.220 -0.5638  1.8110  1.0877
 7066SOL    HW232658   1.398   1.916   6.088 -2.4307 -1.3247 -2.3507
 7067SOL     OW32659   1.648   0.690   9.011 -0.3827 -0.2945 -0.3280
 7067SOL    HW132660   1.725   0.666   9.063  0.8690 -1.9661 -2.9473
 7067SOL    HW232661   1.637   0.609   8.961 -1.7515 -0.9411  1.0625
 7068SOL     OW32662   2.065   2.958  15.953 -0.3334 -0.0567  0.2303
 7068SOL    HW132663   1.977   2.993  15.948 -0.7701 -1.1367  0.1988
 7068SOL    HW232664   2.067   2.929  16.045  1.9467  1.2174  0.5816
 7069SOL     OW32665   1.481   2.395   3.159  1.2808  0.0570  0.5354
 7069SOL    HW132666   1.435   2.453   3.220 -1.1792  0.1880 -1.4025
 7069SOL    HW232667   1.572   2.423   3.168  0.6568  1.3802  2.7975
 7070SOL     OW32668   1.533   1.108   1.983  0.6160 -0.0568  0.4322
 7070SOL    HW132669   1.465   1.129   2.048  0.9911 -0.8027  1.0694
 7070SOL    HW232670   1.565   1.198   1.977 -0.2284  0.0641 -2.3529
 7071SOL     OW32671   1.230   1.993   4.399  0.1427  0.4567 -0.9118
 7071SOL    HW132672   1.175   1.923   4.365 -1.5577  1.4753 -0.2467
 7071SOL    HW232673   1.162   2.053   4.428 -0.4364 -0.7553  0.2199
 7072SOL     OW32674   2.372   1.952   3.548 -0.4103 -0.0936  0.0041
 7072SOL    HW132675   2.446   1.922   3.602 -0.6228 -0.3395  0.1605
 7072SOL    HW232676   2.364   2.042   3.579  1.7448 -0.0536  0.4829
 7073SOL     OW32677   2.993   1.867  13.606 -0.5785  0.1632 -0.2277
 7073SOL    HW132678   2.945   1.788  13.631  0.2825 -0.6851 -1.2500
 7073SOL    HW232679   3.025   1.844  13.518  0.7045  0.4977  0.1410
 7074SOL     OW32680   0.702   1.531   7.780  0.0278 -0.1383  0.2223
 7074SOL    HW132681   0.733   1.599   7.720 -0.0206  0.2122  0.5975
 7074SOL    HW232682   0.626   1.561   7.830  0.5197  2.6293 -0.7244
 7075SOL     OW32683   2.811   1.490   6.992 -0.5400  0.4793  0.2310
 7075SOL    HW132684   2.867   1.567   7.004 -0.9165  1.2453 -3.0717
 7075SOL    HW232685   2.806   1.483   6.897  0.4745  0.4080  0.1773
 7076SOL     OW32686   3.657   2.763   2.858 -0.6225 -0.3478  0.0079
 7076SOL    HW132687   3.732   2.705   2.847  0.8338  1.4583  0.3292
 7076SOL    HW232688   3.617   2.755   2.772 -0.5813  1.0819 -0.1476
 7077SOL     OW32689   2.164   0.568   8.279  0.1675  0.1020  0.2628
 7077SOL    HW132690   2.250   0.553   8.318 -0.2360 -1.9367  0.3661
 7077SOL    HW232691   2.116   0.604   8.353 -0.2735 -2.4939  1.2395
 7078SOL     OW32692   1.787   2.164   3.405  0.2470  0.6951 -0.1606
 7078SOL    HW132693   1.755   2.108   3.475  0.5646 -1.5561 -1.8296
 7078SOL    HW232694   1.712   2.164   3.346  0.6593 -0.0440 -0.6874
 7079SOL     OW32695   2.355   1.537   2.441  1.2109  0.3074 -1.0804
 7079SOL    HW132696   2.265   1.507   2.450  1.6676 -0.7617 -0.0394
 7079SOL    HW232697   2.383   1.491   2.362  2.0384  0.1639 -0.7074
 7080SOL     OW32698   1.374   4.706  10.429  0.2867  0.2217  0.6026
 7080SOL    HW132699   1.425   4.625  10.427 -1.2708 -0.7116 -1.2453
 7080SOL    HW232700   1.417   0.034  10.498 -0.0481  1.8293 -0.3394
 7081SOL     OW32701   2.198   0.333   7.345  0.6168 -0.3930  0.3651
 7081SOL    HW132702   2.202   0.429   7.342  2.9246 -0.4877  0.2911
 7081SOL    HW232703   2.270   0.296   7.395  0.5985 -2.2380 -0.9628
 7082SOL     OW32704   3.802   0.350  15.636 -0.3930  0.1459  0.4763
 7082SOL    HW132705   3.748   0.402  15.576  1.3351  0.3697 -0.8896
 7082SOL    HW232706   3.849   0.415  15.688  1.3015 -1.9337  1.5418
 7083SOL     OW32707   4.455   2.092   6.581 -0.0946  0.7997 -0.1653
 7083SOL    HW132708   4.490   2.012   6.542  1.5156  1.2942  0.2790
 7083SOL    HW232709   4.447   2.150   6.505  1.0172  1.5959  0.3230
 7084SOL     OW32710   1.526   2.816   0.460  0.1062  0.3657 -0.8883
 7084SOL    HW132711   1.513   2.816   0.555  0.0057  0.8069 -0.9024
 7084SOL    HW232712   1.593   2.748   0.463 -2.6814 -2.3304 -0.2530
 7085SOL     OW32713   0.853   4.510   7.902  0.4860 -0.1633  0.2141
 7085SOL    HW132714   0.818   4.598   7.890  0.3339 -0.2921 -0.2734
 7085SOL    HW232715   0.851   4.509   7.998  1.1323 -1.5958  0.2147
 7086SOL     OW32716   3.303   4.426   6.567  0.5479 -0.2775 -1.0089
 7086SOL    HW132717   3.245   4.475   6.509 -3.2730 -0.2567  2.8255
 7086SOL    HW232718   3.329   4.501   6.619  0.9308 -1.9996  1.2992
 7087SOL     OW32719   0.565   4.528  10.039 -0.5119  0.5476  0.1261
 7087SOL    HW132720   0.591   4.507  10.129  2.5241 -0.4673 -0.9684
 7087SOL    HW232721   0.553   4.623  10.040 -3.5954  0.1383  2.2700
 7088SOL     OW32722   0.075   1.807   6.060 -0.4013 -0.7043 -0.1008
 7088SOL    HW132723   0.171   1.807   6.069 -0.3891  1.1570 -0.4175
 7088SOL    HW232724   0.067   1.715   6.035 -0.4367 -0.7935  0.2321
 7089SOL     OW32725   4.128   0.497  15.971 -0.0098  0.4320 -0.4548
 7089SOL    HW132726   4.033   0.507  15.960 -0.2840 -0.0738  1.4405
 7089SOL    HW232727   4.155   0.467  15.884  1.4379 -1.5848  0.7052
 7090SOL     OW32728   4.380   4.057   2.534 -0.1717 -0.0289  0.0667
 7090SOL    HW132729   4.425   4.096   2.459 -0.5015 -1.2061 -0.7594
 7090SOL    HW232730   4.407   3.965   2.533  1.3258  0.4148  0.7005
 7091SOL     OW32731   0.197   4.501   5.297  0.2808  0.6627 -0.3265
 7091SOL    HW132732   0.287   4.503   5.265 -1.0199  2.5731 -3.8386
 7091SOL    HW232733   0.146   4.462   5.226 -0.2198 -1.2660  1.0873
 7092SOL     OW32734   1.919   2.413   3.180  0.1100  0.3231 -0.3726
 7092SOL    HW132735   1.946   2.394   3.270 -1.1276 -2.6224 -0.6293
 7092SOL    HW232736   1.855   2.482   3.195 -1.1837 -1.2133  1.2709
 7093SOL     OW32737   0.187   2.942   7.154 -0.1135  0.3360 -0.1919
 7093SOL    HW132738   0.223   2.975   7.072 -3.3230  1.6989 -1.0563
 7093SOL    HW232739   0.167   3.024   7.200 -2.0446 -0.7552  0.8851
 7094SOL     OW32740   3.785   0.334   2.288 -0.0382 -0.1899  0.1240
 7094SOL    HW132741   3.751   0.245   2.275 -0.3621 -0.3854  2.4364
 7094SOL    HW232742   3.723   0.357   2.357  1.5578  0.3756  1.3742
 7095SOL     OW32743   0.203   3.890   3.417  0.1186 -0.4937  0.2369
 7095SOL    HW132744   0.130   3.952   3.419  2.0379  1.7280  1.4752
 7095SOL    HW232745   0.157   3.826   3.363 -1.4480 -0.1505  1.1604
 7096SOL     OW32746   0.649   1.909   6.079 -0.7715 -0.5626 -0.0074
 7096SOL    HW132747   0.650   1.850   6.154  0.1679 -1.0354 -0.3917
 7096SOL    HW232748   0.727   1.889   6.028  0.3430 -0.8683  1.8418
 7097SOL     OW32749   2.255   3.957  15.280 -0.0235 -0.0481 -0.5621
 7097SOL    HW132750   2.184   4.002  15.325 -1.2911 -1.4385 -1.1790
 7097SOL    HW232751   2.263   3.993  15.192 -1.1472  0.1799 -0.5671
 7098SOL     OW32752   1.275   3.270   1.148 -0.1872 -0.0912  0.1050
 7098SOL    HW132753   1.334   3.231   1.083 -0.5788 -1.0794  0.3456
 7098SOL    HW232754   1.320   3.275   1.232 -0.1690 -0.2383  0.1042
 7099SOL     OW32755   3.641   2.248  11.538  0.6284 -0.2282 -0.5258
 7099SOL    HW132756   3.623   2.330  11.491  0.7863  0.9092  1.3856
 7099SOL    HW232757   3.554   2.209  11.546  0.4597 -0.4296 -3.2017
 7100SOL     OW32758   3.528   3.322   0.979 -0.3342 -0.1489 -0.4763
 7100SOL    HW132759   3.603   3.359   1.027 -0.5595  3.2460 -2.7374
 7100SOL    HW232760   3.468   3.395   0.962 -1.0607 -0.4958  0.5787
 7101SOL     OW32761   4.604   0.103  15.262  0.7478 -0.7341  0.5507
 7101SOL    HW132762   4.584   0.142  15.177  1.9835  2.3294  1.6453
 7101SOL    HW232763   4.638   0.179  15.310  0.4065 -0.1754 -0.1103
 7102SOL     OW32764   1.955   0.481   0.378 -0.5665  0.3600 -0.7467
 7102SOL    HW132765   1.925   0.424   0.308 -1.9320 -0.5649  0.5770
 7102SOL    HW232766   1.992   0.542   0.314  2.0830 -3.1839 -2.5633
 7103SOL     OW32767   3.466   1.357  16.383  0.1132 -0.0600 -0.1262
 7103SOL    HW132768   3.491   1.266  16.367 -0.9453 -0.5524  1.0285
 7103SOL    HW232769   3.503   1.389  16.300 -0.1286 -1.2220 -0.6738
 7104SOL     OW32770   1.769   3.216   8.246  0.1628  0.1620  0.1977
 7104SOL    HW132771   1.699   3.256   8.298 -0.4517 -2.7302  1.6039
 7104SOL    HW232772   1.728   3.130   8.244 -0.6244  0.5581 -0.3450
 7105SOL     OW32773   1.256   2.420   6.631 -0.3194  0.2123 -0.3517
 7105SOL    HW132774   1.215   2.483   6.691  0.5252  2.3947 -2.0759
 7105SOL    HW232775   1.255   2.337   6.679  0.4486 -0.0972 -0.8681
 7106SOL     OW32776   2.957   1.469   9.785  0.3219 -0.0142  0.2752
 7106SOL    HW132777   2.876   1.437   9.747  0.6602 -2.6067  1.7461
 7106SOL    HW232778   3.010   1.493   9.708  3.2009 -1.3906  1.8361
 7107SOL     OW32779   3.749   2.749   9.960 -0.0019  0.2933  0.3338
 7107SOL    HW132780   3.691   2.673   9.963  0.1608  0.2284  2.3277
 7107SOL    HW232781   3.687   2.822   9.961  0.3393  0.5788  0.2876
 7108SOL     OW32782   3.195   0.944   6.539 -0.4108 -0.4848  0.5302
 7108SOL    HW132783   3.175   0.866   6.592  0.2056 -1.5650 -0.8235
 7108SOL    HW232784   3.164   1.002   6.608  1.6373  2.0701 -0.7111
 7109SOL     OW32785   3.040   0.731  15.301 -0.2518 -0.0992  0.0575
 7109SOL    HW132786   3.008   0.818  15.325  1.3896 -0.0379  2.0301
 7109SOL    HW232787   3.133   0.732  15.324  0.5326  0.7228 -3.1901
 7110SOL     OW32788   0.011   3.930   8.433 -0.2816  0.6601 -0.3347
 7110SOL    HW132789   0.063   3.851   8.442 -1.4916 -0.1125 -0.0769
 7110SOL    HW232790   4.683   3.927   8.351  2.3041 -0.9623 -1.8312
 7111SOL     OW32791   1.970   3.806   6.277 -0.2550 -0.2474 -0.2780
 7111SOL    HW132792   1.978   3.786   6.183  2.3920 -0.1857 -0.0655
 7111SOL    HW232793   2.030   3.740   6.313 -1.0036 -0.3346  0.8013
 7112SOL     OW32794   2.708   2.808   9.801  0.0550  0.0918  0.0025
 7112SOL    HW132795   2.649   2.882   9.786 -1.3574 -0.7645  1.3294
 7112SOL    HW232796   2.789   2.842   9.839 -0.8239  1.0435  1.0133
 7113SOL     OW32797   1.445   2.882  11.623 -0.0068 -0.5653  0.3062
 7113SOL    HW132798   1.531   2.857  11.591 -0.2258  0.0843 -0.7986
 7113SOL    HW232799   1.449   2.871  11.718  2.1772  1.3449  0.4352
 7114SOL     OW32800   3.485   0.426   7.577  0.2782  0.0840 -0.0949
 7114SOL    HW132801   3.394   0.399   7.589  0.6165 -0.2137  1.9033
 7114SOL    HW232802   3.530   0.342   7.564 -0.6098 -0.2553 -0.9425
 7115SOL     OW32803   2.311   3.523   7.557  0.8792  0.8580 -0.2255
 7115SOL    HW132804   2.398   3.496   7.525  0.7717  1.6534 -1.1568
 7115SOL    HW232805   2.252   3.452   7.531 -0.9741  1.4570  2.3724
 7116SOL     OW32806   3.133   1.228   0.487 -0.1194 -0.1936 -0.2474
 7116SOL    HW132807   3.184   1.147   0.482  0.1173 -0.0623  0.1033
 7116SOL    HW232808   3.127   1.241   0.581  1.3772 -2.5114  0.1545
 7117SOL     OW32809   0.370   0.224   3.963  0.6602 -0.1743 -0.0680
 7117SOL    HW132810   0.435   0.154   3.957 -0.5235 -0.9400 -3.7493
 7117SOL    HW232811   0.308   0.189   4.027  0.7412 -0.0511  0.0790
 7118SOL     OW32812   2.486   1.235   3.613  0.3787 -0.0668 -0.7506
 7118SOL    HW132813   2.578   1.213   3.629 -0.0727  0.1684  2.2266
 7118SOL    HW232814   2.496   1.330   3.607  0.1510 -0.1037 -1.6841
 7119SOL     OW32815   2.346   2.476   6.910  0.1164  0.0516  0.3420
 7119SOL    HW132816   2.289   2.522   6.971  1.1013  0.2688  1.0968
 7119SOL    HW232817   2.367   2.399   6.962  1.1213 -0.5046 -0.8942
 7120SOL     OW32818   0.293   4.184  12.364  0.3009  0.1955 -0.3667
 7120SOL    HW132819   0.212   4.227  12.338  0.7435  1.3811  0.1941
 7120SOL    HW232820   0.305   4.130  12.286  1.3587  2.4689 -1.7683
 7121SOL     OW32821   1.065   1.013   7.409 -0.0222 -0.1815  0.6612
 7121SOL    HW132822   1.046   0.923   7.434  2.6855 -0.5181  1.5001
 7121SOL    HW232823   1.132   0.999   7.342  1.9839 -0.0942  2.6192
 7122SOL     OW32824   0.892   2.733   7.739 -0.9416 -0.6507  0.3330
 7122SOL    HW132825   0.822   2.692   7.790 -0.1050 -2.4084  0.0829
 7122SOL    HW232826   0.866   2.820   7.766 -0.6612 -0.7520  0.9202
 7123SOL     OW32827   4.508   1.708   9.678  0.3010  0.3486  0.3472
 7123SOL    HW132828   4.581   1.648   9.665  0.4985  0.1588  2.3543
 7123SOL    HW232829   4.509   1.768   9.603  0.0830 -0.6115 -0.4216
 7124SOL     OW32830   2.252   2.248   2.771  0.6160 -0.2320 -0.1677
 7124SOL    HW132831   2.180   2.266   2.830 -0.6461 -0.5530 -1.6018
 7124SOL    HW232832   2.299   2.188   2.828  2.5039 -1.0848 -2.6284
 7125SOL     OW32833   2.817   2.614  11.256 -0.1134 -0.1164 -0.2341
 7125SOL    HW132834   2.866   2.554  11.200  0.3315  1.1260 -1.1647
 7125SOL    HW232835   2.851   2.598  11.344  0.5773 -0.9971 -0.6614
 7126SOL     OW32836   3.472   2.293   4.861 -0.1464 -0.6524  0.6901
 7126SOL    HW132837   3.563   2.290   4.891  1.0585 -1.0525 -3.0798
 7126SOL    HW232838   3.439   2.372   4.903 -1.6093  0.1972 -2.0839
 7127SOL     OW32839   1.465   1.257   6.903  0.2401  0.4732 -0.2871
 7127SOL    HW132840   1.464   1.167   6.937  0.3411  0.4147 -0.4412
 7127SOL    HW232841   1.436   1.318   6.971  1.5338 -0.8111  1.4478
 7128SOL     OW32842   0.393   4.662   6.020 -0.1179  0.1974 -0.4430
 7128SOL    HW132843   0.475   4.683   5.977  0.9568 -0.2039  1.4237
 7128SOL    HW232844   0.331   4.718   5.974 -0.5519  0.7518  0.8213
 7129SOL     OW32845   0.930   2.032   2.993  0.3321 -0.1342 -0.1827
 7129SOL    HW132846   0.931   1.937   2.981 -1.2461 -0.1990  0.2601
 7129SOL    HW232847   0.865   2.051   2.926  1.3206 -0.3414 -1.2123
 7130SOL     OW32848   2.757   0.341   8.733 -0.2780  0.9074 -0.1141
 7130SOL    HW132849   2.795   0.288   8.803  2.1147  1.2093 -1.1644
 7130SOL    HW232850   2.695   0.391   8.785 -0.4059  1.6163 -0.9572
 7131SOL     OW32851   3.156   4.621  10.187 -0.3700 -0.1828 -0.2773
 7131SOL    HW132852   3.236   4.576  10.162  0.0715 -0.5500  1.8341
 7131SOL    HW232853   3.112   4.621  10.102 -1.7887 -1.3019  0.4435
 7132SOL     OW32854   0.268   0.078   5.273 -0.0744  0.3444 -0.2704
 7132SOL    HW132855   0.252   4.706   5.268 -0.0069  0.2387  1.3595
 7132SOL    HW232856   0.305   0.094   5.186  2.2752 -0.3644  0.6025
 7133SOL     OW32857   3.722   3.964   0.158 -0.1810  0.4676 -0.2493
 7133SOL    HW132858   3.747   3.973   0.066  2.2118  2.3195  0.5884
 7133SOL    HW232859   3.725   4.056   0.185  0.6109  0.2724  0.3039
 7134SOL     OW32860   3.191   1.614   3.363  0.4145 -0.5291 -0.5231
 7134SOL    HW132861   3.272   1.563   3.366  0.2209 -0.8972 -1.3241
 7134SOL    HW232862   3.171   1.641   3.274  1.7627 -1.0520 -0.9819
 7135SOL     OW32863   2.284   2.370   3.381 -0.8134  0.1095  0.6288
 7135SOL    HW132864   2.258   2.378   3.289 -0.3351  0.0767  0.4928
 7135SOL    HW232865   2.197   2.380   3.420 -1.3520 -1.5331 -0.1364
 7136SOL     OW32866   3.695   0.843   1.051 -0.5557  0.6166 -0.4196
 7136SOL    HW132867   3.723   0.803   0.969  0.1297  0.9021 -0.3299
 7136SOL    HW232868   3.638   0.772   1.080  1.2646 -0.5391  0.3382
 7137SOL     OW32869   1.829   1.853  14.473  0.4298 -0.6325  0.2806
 7137SOL    HW132870   1.775   1.841  14.551  1.4862 -1.9027  0.8146
 7137SOL    HW232871   1.779   1.907  14.412  1.7067 -1.0476 -1.1496
 7138SOL     OW32872   1.108   0.490   5.040  0.7941 -0.5056  0.7914
 7138SOL    HW132873   1.149   0.564   4.996 -1.8060  0.6346  0.2823
 7138SOL    HW232874   1.080   0.442   4.962 -0.1014 -1.3244  1.6193
 7139SOL     OW32875   2.296   2.868   6.100  0.3677  0.1160  0.5873
 7139SOL    HW132876   2.346   2.807   6.155 -1.9016 -1.5662  0.7754
 7139SOL    HW232877   2.356   2.902   6.033 -1.4094  1.6122 -0.2488
 7140SOL     OW32878   2.176   3.273   4.361  0.5069 -0.3101  0.0465
 7140SOL    HW132879   2.217   3.191   4.388 -2.9071 -0.4505  4.8515
 7140SOL    HW232880   2.243   3.321   4.311  1.2532 -1.0723  0.3067
 7141SOL     OW32881   1.869   2.809   8.108  0.4805  0.3580 -0.0242
 7141SOL    HW132882   1.806   2.858   8.161 -0.8749 -0.9824 -0.4037
 7141SOL    HW232883   1.819   2.728   8.114 -2.2100  1.7901 -2.8383
 7142SOL     OW32884   0.027   1.084   8.750  1.4481 -0.1501 -0.3614
 7142SOL    HW132885   0.094   1.047   8.807  1.2182  0.6724  0.4367
 7142SOL    HW232886   4.716   1.158   8.800  0.4916 -1.2640  0.6480
 7143SOL     OW32887   4.320   4.634  12.068  0.1248 -0.0752 -0.1322
 7143SOL    HW132888   4.337   4.689  11.991 -1.0440  2.2240  1.2366
 7143SOL    HW232889   4.409   4.604  12.087  0.0271 -0.5444 -0.4096
 7144SOL     OW32890   1.423   1.454   7.077 -0.0039  0.1160 -0.1660
 7144SOL    HW132891   1.395   1.546   7.080  0.0512  0.1361 -0.2630
 7144SOL    HW232892   1.504   1.442   7.126  0.5367  3.0136 -0.3090
 7145SOL     OW32893   3.402   1.159   6.868 -0.1416  0.1116  0.0274
 7145SOL    HW132894   3.465   1.155   6.796 -1.4433 -0.4752 -1.0787
 7145SOL    HW232895   3.316   1.152   6.828 -1.3042  0.6954  2.4546
 7146SOL     OW32896   4.359   1.222   4.282  0.4460 -0.2909  0.0571
 7146SOL    HW132897   4.403   1.303   4.307  0.8206  0.2993 -2.4801
 7146SOL    HW232898   4.267   1.248   4.279  0.5607  0.1534  0.3666
 7147SOL     OW32899   4.363   2.244   2.254  0.3068  0.8814  0.0771
 7147SOL    HW132900   4.388   2.159   2.290 -1.4044  0.8687  1.2095
 7147SOL    HW232901   4.441   2.288   2.219 -0.2767  0.3012 -1.9877
 7148SOL     OW32902   0.679   4.465   2.207 -0.3054  0.3042 -0.1637
 7148SOL    HW132903   0.732   4.538   2.239 -0.6981  0.7223 -0.4594
 7148SOL    HW232904   0.603   4.510   2.169 -0.1613  1.1496  0.5493
 7149SOL     OW32905   1.520   2.578  10.698  0.1998  0.4534 -0.1462
 7149SOL    HW132906   1.604   2.533  10.691  1.6697  2.7734  2.6061
 7149SOL    HW232907   1.533   2.641  10.769 -0.3400  0.1220  0.2484
 7150SOL     OW32908   3.890   3.007   8.270 -0.2321 -0.3594  0.7502
 7150SOL    HW132909   3.826   2.940   8.245  2.0268 -2.6209  1.0311
 7150SOL    HW232910   3.868   3.082   8.214  2.7810 -0.7116 -0.9153
 7151SOL     OW32911   0.679   0.915   8.102  0.3358 -0.8044  0.1432
 7151SOL    HW132912   0.656   0.954   8.018  2.4525  0.6573  0.2458
 7151SOL    HW232913   0.613   0.846   8.112 -1.7132  1.4102  1.7585
 7152SOL     OW32914   2.550   4.028  10.105  0.4119  0.4492 -0.0426
 7152SOL    HW132915   2.639   4.010  10.134 -0.7168 -2.4175  1.6020
 7152SOL    HW232916   2.542   4.123  10.096 -0.3249  0.3801 -0.1101
 7153SOL     OW32917   2.178   3.637   5.169 -0.0720 -0.0640  0.0399
 7153SOL    HW132918   2.269   3.626   5.142  0.6864  0.6043  2.3876
 7153SOL    HW232919   2.156   3.561   5.114 -1.6230  0.6707 -0.3628
 7154SOL     OW32920   4.665   3.496  17.140  0.2643  0.3848 -0.5243
 7154SOL    HW132921   4.603   3.423  17.138  3.2250 -2.1098 -0.8873
 7154SOL    HW232922   4.694   3.490  17.231 -1.6135 -0.3250  0.0187
 7155SOL     OW32923   4.546   1.697  12.774  0.2152 -0.5089  0.1885
 7155SOL    HW132924   4.567   1.671  12.684  1.2558  0.3346  0.1752
 7155SOL    HW232925   4.493   1.776  12.768 -2.6408 -2.6420 -2.4911
 7156SOL     OW32926   1.821   1.114  14.015 -0.7481 -0.4726  0.2500
 7156SOL    HW132927   1.757   1.133  14.083 -2.1101  0.6753 -1.3339
 7156SOL    HW232928   1.870   1.035  14.034 -1.5097 -1.4837 -1.9342
 7157SOL     OW32929   4.501   1.494  12.579 -0.2322 -0.3914  0.2262
 7157SOL    HW132930   4.414   1.489  12.540 -0.9618  0.1989  1.7447
 7157SOL    HW232931   4.484   1.460  12.667 -3.9991  0.3892 -0.2087
 7158SOL     OW32932   3.947   3.286  16.511  0.2723  0.1866 -0.7768
 7158SOL    HW132933   3.886   3.263  16.581  1.7440  1.4313  0.9012
 7158SOL    HW232934   3.914   3.233  16.439 -0.1726 -1.8757  0.9419
 7159SOL     OW32935   3.979   2.818   3.755 -0.0234  0.1444  0.1058
 7159SOL    HW132936   3.945   2.730   3.768 -0.5766  0.2161 -0.8215
 7159SOL    HW232937   3.950   2.870   3.830 -3.1323 -1.7159  0.1782
 7160SOL     OW32938   1.754   2.469   1.221  0.0987 -0.0177 -0.0814
 7160SOL    HW132939   1.735   2.522   1.144  0.3844  0.1518 -0.0347
 7160SOL    HW232940   1.710   2.520   1.289  0.8813 -0.7195  0.9522
 7161SOL     OW32941   2.666   4.385   2.276 -0.1536 -0.0555 -0.4051
 7161SOL    HW132942   2.578   4.412   2.302 -0.6860  1.1688 -3.4149
 7161SOL    HW232943   2.648   4.319   2.209 -1.4345  0.0457 -0.1494
 7162SOL     OW32944   1.166   4.308  14.827  0.3413 -0.0905  0.4287
 7162SOL    HW132945   1.139   4.397  14.805 -0.2717 -0.5162 -0.5617
 7162SOL    HW232946   1.198   4.328  14.914  1.8895  1.0138 -0.3882
 7163SOL     OW32947   2.908   2.013  10.774 -0.0032  0.3615  0.0469
 7163SOL    HW132948   2.830   2.064  10.796  0.1453  1.0375 -0.9354
 7163SOL    HW232949   2.970   2.058  10.831 -0.3038 -0.7565  1.2488
 7164SOL     OW32950   4.395   0.228  13.894 -0.0670 -0.2901 -0.1713
 7164SOL    HW132951   4.325   0.162  13.897 -0.0524 -0.2937  0.0996
 7164SOL    HW232952   4.347   0.310  13.908  0.7046  0.1842 -0.3477
 7165SOL     OW32953   0.086   4.453  16.339 -0.0308  0.1844  0.9435
 7165SOL    HW132954   0.168   4.460  16.387  1.0799  0.4964 -1.0175
 7165SOL    HW232955   0.073   4.529  16.282  0.1448 -0.3996  0.1128
 7166SOL     OW32956   1.232   1.479   4.995  0.3148 -0.6496 -0.1852
 7166SOL    HW132957   1.199   1.413   4.934 -0.0569 -1.7322  1.1757
 7166SOL    HW232958   1.218   1.432   5.078  0.8199  0.0231  0.2745
 7167SOL     OW32959   3.840   2.257   7.504 -0.1650  0.3646  0.0465
 7167SOL    HW132960   3.877   2.171   7.523  0.1303  0.5077  0.1243
 7167SOL    HW232961   3.749   2.251   7.533 -0.7142 -0.3785 -1.7849
 7168SOL     OW32962   1.117   1.235  15.123  0.6928  0.4187 -0.2104
 7168SOL    HW132963   1.072   1.227  15.207 -1.4124  2.5403 -1.1392
 7168SOL    HW232964   1.152   1.323  15.138 -1.4480  1.1362  0.5266
 7169SOL     OW32965   0.006   0.675   8.193 -0.5856  0.0858 -0.0889
 7169SOL    HW132966   4.686   0.753   8.228 -0.2475  1.3640 -2.4878
 7169SOL    HW232967   0.018   0.629   8.276 -1.2942 -2.8985 -1.6510
 7170SOL     OW32968   1.603   1.991   9.609 -0.0072  0.0552 -0.1993
 7170SOL    HW132969   1.573   2.051   9.677 -1.3718 -0.7756 -0.0791
 7170SOL    HW232970   1.574   2.039   9.531 -1.3296 -0.2712  0.0984
 7171SOL     OW32971   2.797   2.374   7.096 -0.3083  0.0342  0.3355
 7171SOL    HW132972   2.835   2.354   7.181  0.8282  1.7513  0.2406
 7171SOL    HW232973   2.794   2.469   7.109 -0.5015 -0.1752  1.8019
 7172SOL     OW32974   0.915   4.518   6.829 -0.1830  0.0175 -0.4147
 7172SOL    HW132975   0.952   4.494   6.914 -0.6431  0.8417  0.0177
 7172SOL    HW232976   0.920   4.613   6.839  0.9019  0.2166 -2.8234
 7173SOL     OW32977   1.037   0.373   0.619  0.1047 -0.0343  0.4205
 7173SOL    HW132978   0.974   0.399   0.686 -0.3766 -0.0037 -0.0454
 7173SOL    HW232979   0.998   0.415   0.543 -0.5119 -1.2374  0.0730
 7174SOL     OW32980   1.077   3.507   0.847 -0.0328 -0.3590 -0.1994
 7174SOL    HW132981   1.055   3.473   0.760  1.2336  0.3424 -0.8041
 7174SOL    HW232982   0.992   3.485   0.885  0.2947 -1.4309 -0.1143
 7175SOL     OW32983   1.694   1.404   6.892 -0.2960 -0.6706 -0.2410
 7175SOL    HW132984   1.634   1.472   6.861  0.1652 -1.4105 -2.7927
 7175SOL    HW232985   1.632   1.331   6.893 -0.9787 -0.0977 -1.0060
 7176SOL     OW32986   2.185   4.651   3.553 -0.2485 -0.1088 -0.7163
 7176SOL    HW132987   2.271   4.634   3.593 -1.0339 -2.1357  0.1347
 7176SOL    HW232988   2.186   4.590   3.479  1.4800  1.3421 -1.8746
 7177SOL     OW32989   0.634   4.008   3.599  0.5279  0.2432  0.6726
 7177SOL    HW132990   0.699   4.079   3.595  0.8106 -0.1347 -1.2816
 7177SOL    HW232991   0.633   3.970   3.511  0.9640  2.2713 -0.2221
 7178SOL     OW32992   2.046   1.646  12.850  0.5411 -0.4305 -0.2309
 7178SOL    HW132993   2.068   1.634  12.942 -0.6721 -0.2259  0.0823
 7178SOL    HW232994   1.976   1.711  12.861 -0.3265 -0.8118 -3.6145
 7179SOL     OW32995   2.175   2.134  13.608 -0.4945 -0.1834 -0.8492
 7179SOL    HW132996   2.106   2.197  13.631  0.4772  0.9633 -1.0674
 7179SOL    HW232997   2.198   2.173  13.524 -1.8480 -1.2928 -1.7331
 7180SOL     OW32998   2.275   3.583   7.930 -0.3639  0.5153  0.0161
 7180SOL    HW132999   2.311   3.498   7.907 -0.3710  0.6702 -0.5582
 7180SOL    HW233000   2.189   3.590   7.889  0.7743 -0.0407 -2.4425
 7181SOL     OW33001   0.831   0.016   2.982 -0.1219 -0.1989 -0.3434
 7181SOL    HW133002   0.893   4.671   2.953 -0.0718  1.1171 -3.1929
 7181SOL    HW233003   0.878   0.041   3.062 -2.2140  2.2472  0.1241
 7182SOL     OW33004   1.849   0.611  13.882 -0.3351  0.4902 -0.2598
 7182SOL    HW133005   1.767   0.657  13.864  0.7002  1.7988 -1.6234
 7182SOL    HW233006   1.839   0.530  13.834  0.1877  0.2223  0.0789
 7183SOL     OW33007   2.636   3.941   7.965 -0.1781 -0.2132  0.0281
 7183SOL    HW133008   2.642   3.858   7.919 -2.2666 -0.2400 -0.2215
 7183SOL    HW233009   2.591   3.914   8.046 -2.8467  3.2545 -0.2438
 7184SOL     OW33010   3.652   2.896   7.614 -0.3662 -0.1259  0.1028
 7184SOL    HW133011   3.562   2.887   7.582 -0.1262  0.3128 -0.6928
 7184SOL    HW233012   3.684   2.816   7.573  0.2165 -0.7902  1.8646
 7185SOL     OW33013   2.412   0.636   7.449  0.3314 -0.7926  0.0807
 7185SOL    HW133014   2.344   0.608   7.511  0.2784  0.1788  0.4668
 7185SOL    HW233015   2.350   0.675   7.387 -0.4981 -0.3401  1.2016
 7186SOL     OW33016   0.546   4.694   6.803 -0.1906  0.0547 -0.1204
 7186SOL    HW133017   0.469   4.691   6.745 -0.6342  1.0617  0.4128
 7186SOL    HW233018   0.506   4.671   6.887  0.4598 -0.9947 -0.0986
 7187SOL     OW33019   3.410   2.143   4.393  0.3123 -0.0463  0.0140
 7187SOL    HW133020   3.461   2.067   4.364 -0.8226  0.4762 -3.3822
 7187SOL    HW233021   3.475   2.207   4.424  0.5571 -0.3971  0.2144
 7188SOL     OW33022   1.945   0.142   8.194  0.0107 -0.0321 -0.2742
 7188SOL    HW133023   2.028   0.174   8.159 -1.4550  2.9479 -1.0135
 7188SOL    HW233024   1.888   0.149   8.118  0.2931 -1.3932 -0.6279
 7189SOL     OW33025   3.280   4.237   2.101 -0.6917  0.4593  0.3194
 7189SOL    HW133026   3.309   4.308   2.158 -1.9041 -0.6181  2.2788
 7189SOL    HW233027   3.189   4.238   2.131  0.0397  1.0553  2.5062
 7190SOL     OW33028   1.558   3.562   4.653 -0.5136  0.1541 -0.0521
 7190SOL    HW133029   1.607   3.625   4.707  1.4054 -0.8479 -0.6233
 7190SOL    HW233030   1.612   3.485   4.667  0.6951  0.9156 -0.4823
 7191SOL     OW33031   3.442   3.050   4.443  0.1658 -0.2637 -0.0504
 7191SOL    HW133032   3.414   2.982   4.382 -3.0394  0.3301  0.7425
 7191SOL    HW233033   3.412   3.011   4.525  1.8570  0.4881  0.9382
 7192SOL     OW33034   2.009   0.499  14.317 -0.1129 -0.2605 -0.0077
 7192SOL    HW133035   2.057   0.455  14.246  0.2168  0.6259 -0.3408
 7192SOL    HW233036   2.032   0.437  14.386 -0.1275  0.4259  0.6025
 7193SOL     OW33037   1.473   3.175   0.960  0.3172 -0.2104  0.0128
 7193SOL    HW133038   1.533   3.246   0.984  0.8984 -0.8401  0.4174
 7193SOL    HW233039   1.427   3.217   0.887  0.3635 -1.6542 -0.8382
 7194SOL     OW33040   3.513   3.599   2.619 -0.2260  0.0063  0.1984
 7194SOL    HW133041   3.564   3.627   2.542  0.5095  0.1495  0.7361
 7194SOL    HW233042   3.444   3.542   2.585 -0.9851  0.5581  0.8044
 7195SOL     OW33043   3.597   3.675  16.202  0.5571 -0.0292 -0.4253
 7195SOL    HW133044   3.565   3.617  16.133 -0.0087  0.9186 -0.9659
 7195SOL    HW233045   3.673   3.626  16.235 -1.5780 -1.4911  2.2294
 7196SOL     OW33046   2.847   2.359   4.107  0.5765 -0.0570 -0.2286
 7196SOL    HW133047   2.786   2.328   4.040 -1.2743  1.2944  0.8368
 7196SOL    HW233048   2.884   2.439   4.071 -1.5335  0.8264 -0.3910
 7197SOL     OW33049   3.065   3.503   4.217 -0.8453 -0.4556 -0.5288
 7197SOL    HW133050   3.039   3.591   4.245 -1.5504 -1.0469  0.6964
 7197SOL    HW233051   3.133   3.534   4.157  0.1215 -1.0956  0.2410
 7198SOL     OW33052   1.115   2.514  16.950 -0.3395 -0.1419  0.2855
 7198SOL    HW133053   1.163   2.486  17.028 -0.4333 -0.7657  0.1248
 7198SOL    HW233054   1.169   2.590  16.931 -0.3129 -0.5059 -1.0455
 7199SOL     OW33055   3.358   2.934   6.817 -0.0596  0.3344  0.0145
 7199SOL    HW133056   3.352   2.846   6.854 -1.8468  1.1865  1.7306
 7199SOL    HW233057   3.267   2.961   6.804  0.4991  1.9012 -0.6739
 7200SOL     OW33058   4.494   3.016   9.821 -0.1142 -0.1125  0.1968
 7200SOL    HW133059   4.542   3.072   9.761 -0.0482 -0.2308  0.1404
 7200SOL    HW233060   4.536   2.933   9.799 -1.3839 -0.7951  0.3042
 7201SOL     OW33061   3.390   4.461   2.267 -0.3757 -0.2226 -0.1583
 7201SOL    HW133062   3.485   4.470   2.277 -0.1746 -2.9488  0.2396
 7201SOL    HW233063   3.373   4.514   2.345  1.0657 -0.0093  0.0238
 7202SOL     OW33064   2.487   1.044  12.240  0.8323 -0.3858  0.3456
 7202SOL    HW133065   2.468   1.133  12.211 -1.4309 -0.9897  0.0348
 7202SOL    HW233066   2.458   1.048  12.331 -2.8436  0.5446 -0.8913
 7203SOL     OW33067   3.681   2.225  15.946 -0.2433  0.3277 -0.2756
 7203SOL    HW133068   3.756   2.270  15.906 -0.0661 -0.1985 -0.5314
 7203SOL    HW233069   3.635   2.178  15.877 -0.9366  0.9139 -0.2046
 7204SOL     OW33070   2.702   0.736   1.607 -0.6417  0.3114 -0.2855
 7204SOL    HW133071   2.679   0.648   1.636 -0.8223  0.5826  0.3960
 7204SOL    HW233072   2.744   0.711   1.525  2.3066 -1.1025  1.6383
 7205SOL     OW33073   3.972   4.103   4.681 -0.3774  0.8703 -0.4270
 7205SOL    HW133074   3.908   4.058   4.625  2.2202  0.6269 -3.1917
 7205SOL    HW233075   3.928   4.092   4.765  1.4502  2.1149  0.6831
 7206SOL     OW33076   4.139   0.254   0.407 -0.2856  0.3630 -0.1598
 7206SOL    HW133077   4.196   0.317   0.451 -0.1758 -0.1437  0.4187
 7206SOL    HW233078   4.158   0.268   0.314  1.2833  0.8909  0.2413
 7207SOL     OW33079   2.510   1.943   7.185 -0.2598  0.4631 -0.8482
 7207SOL    HW133080   2.491   1.891   7.263  0.3327  2.1804  0.4258
 7207SOL    HW233081   2.594   1.981   7.211 -1.9155  1.4520  2.9365
 7208SOL     OW33082   0.984   3.201   0.996  0.6927 -0.3988 -0.0880
 7208SOL    HW133083   1.077   3.202   1.019  0.2381  2.6516  1.5629
 7208SOL    HW233084   0.945   3.267   1.053 -1.0953  0.2887 -2.1043
 7209SOL     OW33085   2.455   3.590  13.214  0.8466 -0.6427 -0.0936
 7209SOL    HW133086   2.499   3.658  13.266 -1.5898 -0.1345  1.2919
 7209SOL    HW233087   2.399   3.655  13.171  0.6840 -0.7394 -0.0239
 7210SOL     OW33088   4.031   0.545  13.599 -0.8941  0.0529  0.5877
 7210SOL    HW133089   3.960   0.605  13.623  1.0944  2.1780  1.0976
 7210SOL    HW233090   3.991   0.481  13.541 -1.6172  1.6836 -0.7114
 7211SOL     OW33091   3.914   2.275  11.544 -0.9674  0.4024  0.0535
 7211SOL    HW133092   3.818   2.271  11.548 -1.0389  0.3493 -1.8214
 7211SOL    HW233093   3.942   2.361  11.578 -0.0180  0.1721 -0.1488
 7212SOL     OW33094   3.325   1.666   5.645  0.1791 -0.5088 -0.0778
 7212SOL    HW133095   3.323   1.600   5.576 -2.6507  0.5602 -1.0025
 7212SOL    HW233096   3.248   1.719   5.624 -0.4440 -0.3857  2.4622
 7213SOL     OW33097   1.300   3.086   1.611  0.6465  0.2265 -0.7046
 7213SOL    HW133098   1.317   2.993   1.628 -3.1309 -1.2040 -4.9197
 7213SOL    HW233099   1.316   3.127   1.696  1.1259 -0.6301 -0.3784
 7214SOL     OW33100   0.703   0.483   4.284  0.2123 -0.2075 -0.3202
 7214SOL    HW133101   0.676   0.498   4.375 -0.0743 -0.6120 -0.3378
 7214SOL    HW233102   0.724   0.390   4.275 -2.2252 -0.6570 -1.3539
 7215SOL     OW33103   0.084   1.537   4.978  0.3162 -0.6101  0.6974
 7215SOL    HW133104   0.024   1.463   4.984 -2.7826  1.7425 -1.6906
 7215SOL    HW233105   0.042   1.618   5.004 -0.7503 -0.7255 -0.6977
 7216SOL     OW33106   1.623   3.450   2.738 -0.4998 -0.5820  0.0376
 7216SOL    HW133107   1.699   3.405   2.775  0.4697  0.5090 -0.6100
 7216SOL    HW233108   1.648   3.543   2.739 -0.8855 -0.4761 -0.2599
 7217SOL     OW33109   0.338   1.773   6.304  0.1871  0.1771  0.0470
 7217SOL    HW133110   0.432   1.760   6.315 -0.0028 -2.5022 -1.5807
 7217SOL    HW233111   0.338   1.824   6.224 -0.6921  0.5783  0.3014
 7218SOL     OW33112   4.566   4.212   7.578 -0.6093 -0.0762 -0.2440
 7218SOL    HW133113   4.569   4.162   7.659 -1.9435  0.9104  0.4087
 7218SOL    HW233114   4.548   4.139   7.519 -0.7293 -1.1098  1.0948
 7219SOL     OW33115   0.192   2.317   5.549 -0.5802 -0.3671  0.5450
 7219SOL    HW133116   0.255   2.332   5.620 -0.9467  1.5484  0.4784
 7219SOL    HW233117   0.128   2.388   5.559 -1.2340 -0.6058 -1.9012
 7220SOL     OW33118   0.155   3.609   2.512  0.2149  0.3378 -0.2146
 7220SOL    HW133119   0.142   3.515   2.499  2.5074  0.2206 -1.6167
 7220SOL    HW233120   0.127   3.641   2.426 -0.6910 -0.9726 -0.4265
 7221SOL     OW33121   1.670   4.542   6.957  0.5766 -0.3597 -0.7430
 7221SOL    HW133122   1.748   4.529   6.903 -0.2723  3.0712 -2.7674
 7221SOL    HW233123   1.682   4.632   6.985 -3.3879  0.8405 -2.8661
 7222SOL     OW33124   1.868   4.129   4.952 -0.1461 -0.2876 -0.2781
 7222SOL    HW133125   1.933   4.079   5.000 -0.4169 -0.2653  0.1079
 7222SOL    HW233126   1.899   4.218   4.972 -1.3197  0.0632 -0.0196
 7223SOL     OW33127   3.749   0.619   4.896 -0.0718  0.4279  0.9380
 7223SOL    HW133128   3.743   0.634   4.802 -2.3968 -1.1106  0.8548
 7223SOL    HW233129   3.661   0.620   4.932 -0.1611 -2.1836  0.8098
 7224SOL     OW33130   3.116   4.678   2.098 -0.2009 -0.3843 -0.1302
 7224SOL    HW133131   3.159   4.679   2.184 -1.3818  2.2889  0.4527
 7224SOL    HW233132   3.054   0.029   2.106  1.0042  0.5981  0.3042
 7225SOL     OW33133   1.755   1.483   2.708 -0.2913 -1.1113 -0.0097
 7225SOL    HW133134   1.849   1.498   2.722 -0.1109  0.7335 -3.3252
 7225SOL    HW233135   1.727   1.573   2.718 -0.0874 -1.0657  0.1557
 7226SOL     OW33136   0.651   2.428   7.695  0.4251  0.0934 -0.4849
 7226SOL    HW133137   0.613   2.515   7.703 -2.2972 -1.0689 -0.6861
 7226SOL    HW233138   0.569   2.390   7.661  1.2468 -1.7688 -0.3932
 7227SOL     OW33139   4.252   3.257   8.506  0.0317  0.1645  0.2813
 7227SOL    HW133140   4.214   3.173   8.479 -0.4066  0.7668 -0.9752
 7227SOL    HW233141   4.175   3.290   8.552  0.7056 -1.1084  2.3567
 7228SOL     OW33142   3.691   3.741   4.665 -0.3061  0.7453  0.2760
 7228SOL    HW133143   3.700   3.823   4.616 -1.3081  0.3763 -0.5296
 7228SOL    HW233144   3.761   3.690   4.623 -1.3036 -0.1148 -0.3445
 7229SOL     OW33145   0.756   1.031   4.359 -0.0995 -0.4408  0.0909
 7229SOL    HW133146   0.743   1.080   4.278  0.5378  0.3634  0.4733
 7229SOL    HW233147   0.806   1.094   4.412  2.4344 -1.5776 -0.9073
 7230SOL     OW33148   0.296   2.647   8.326 -0.5002 -0.2318  0.3596
 7230SOL    HW133149   0.309   2.560   8.289 -1.3237  0.8147 -2.3829
 7230SOL    HW233150   0.207   2.634   8.359 -1.8860 -0.5027 -3.4453
 7231SOL     OW33151   3.217   1.914   4.324 -0.4252 -0.6701 -0.5182
 7231SOL    HW133152   3.289   1.951   4.273  2.5937 -3.1879  1.9672
 7231SOL    HW233153   3.254   1.912   4.412 -3.6866 -0.5796  0.8385
 7232SOL     OW33154   3.472   0.906  11.294 -0.0277  0.1435  0.3261
 7232SOL    HW133155   3.401   0.898  11.359 -0.4103 -2.1492 -0.3713
 7232SOL    HW233156   3.439   0.845  11.228 -0.7927 -0.1390  0.9722
 7233SOL     OW33157   0.619   0.757  11.881  0.1700 -0.0174 -0.3026
 7233SOL    HW133158   0.681   0.761  11.808  1.7486  0.4063  1.0697
 7233SOL    HW233159   0.541   0.737  11.829  0.4825 -1.2067 -0.3161
 7234SOL     OW33160   4.100   2.983  13.864 -0.2425 -0.5348  0.1076
 7234SOL    HW133161   4.098   2.902  13.812  1.5510  1.2256 -2.7350
 7234SOL    HW233162   4.010   3.009  13.881 -0.0378  1.6313 -2.1410
 7235SOL     OW33163   1.065   1.761   7.016 -0.0327 -0.5034 -0.5276
 7235SOL    HW133164   1.094   1.748   7.107  0.8751 -2.1549 -1.0447
 7235SOL    HW233165   1.085   1.854   7.005  0.0218 -0.5002 -0.4036
 7236SOL     OW33166   2.167   3.409   5.006  0.0364 -0.4297 -0.1599
 7236SOL    HW133167   2.165   3.314   5.014 -0.4267 -0.2601  1.9546
 7236SOL    HW233168   2.258   3.427   4.981 -0.4635 -1.3390 -2.6275
 7237SOL     OW33169   2.029   4.284   8.498 -0.1199  0.1132 -0.1553
 7237SOL    HW133170   2.040   4.263   8.591  0.5846  3.2706  0.4718
 7237SOL    HW233171   1.940   4.252   8.480  0.4899 -0.1646 -2.7572
 7238SOL     OW33172   3.843   4.505   3.942 -0.1269 -0.5951  0.3884
 7238SOL    HW133173   3.929   4.468   3.964 -0.4510 -3.0599 -2.4062
 7238SOL    HW233174   3.841   4.587   3.992  2.2303 -0.6414  0.5765
 7239SOL     OW33175   3.967   2.330   6.629 -0.0943 -0.1448 -0.1270
 7239SOL    HW133176   3.954   2.243   6.666 -0.9607  0.5490  1.2113
 7239SOL    HW233177   3.879   2.368   6.623  0.6972  1.6503 -0.5685
 7240SOL     OW33178   1.423   3.445   4.412  0.6313 -0.9115  0.4775
 7240SOL    HW133179   1.410   3.538   4.433 -0.7384 -0.8904 -0.4724
 7240SOL    HW233180   1.518   3.435   4.417  0.6843 -0.5825  0.1214
 7241SOL     OW33181   2.076   1.797   4.838  0.6613 -0.6012  0.2225
 7241SOL    HW133182   2.072   1.820   4.745  0.4798  1.2660  0.6831
 7241SOL    HW233183   2.021   1.719   4.842 -2.0128  1.0615 -3.7133
 7242SOL     OW33184   0.636   2.600  17.017 -0.0060  0.0300  0.3430
 7242SOL    HW133185   0.571   2.543  17.058  0.0133 -0.7014 -0.6404
 7242SOL    HW233186   0.632   2.680  17.069  1.3572  0.4067 -0.1119
 7243SOL     OW33187   4.191   1.190  12.617 -0.3411  0.2813 -0.5789
 7243SOL    HW133188   4.175   1.259  12.682 -1.7557  2.0802 -2.8387
 7243SOL    HW233189   4.247   1.242  12.559  0.6876 -2.0254 -1.6745
 7244SOL     OW33190   2.966   3.583  17.261  0.1871 -0.4548  0.2565
 7244SOL    HW133191   2.917   3.660  17.292  1.4406  1.5845 -2.7788
 7244SOL    HW233192   3.048   3.582  17.309 -0.1622 -2.2915  0.8003
 7245SOL     OW33193   4.533   4.000   3.027 -0.4317 -0.6247  0.1025
 7245SOL    HW133194   4.526   4.094   3.040  1.0066 -0.6709  1.2295
 7245SOL    HW233195   4.622   3.998   2.991  0.2683  3.4462  1.6610
 7246SOL     OW33196   0.597   3.765   9.466  0.6911 -0.2263  0.0380
 7246SOL    HW133197   0.594   3.814   9.548 -2.0066  1.1654 -0.9109
 7246SOL    HW233198   0.540   3.692   9.493  0.9168 -0.2397  0.4771
 7247SOL     OW33199   1.598   3.170  17.349 -0.9399  0.1360 -0.1149
 7247SOL    HW133200   1.645   3.213  17.278 -0.0159 -0.0916  0.3560
 7247SOL    HW233201   1.650   3.208  17.420 -0.0686  0.1860 -0.7750
 7248SOL     OW33202   3.725   0.536   4.011  0.5259  0.2131 -0.2810
 7248SOL    HW133203   3.763   0.485   3.939  3.2437  1.4706  0.2513
 7248SOL    HW233204   3.632   0.523   3.996  0.2085  0.0879  1.8467
 7249SOL     OW33205   3.898   2.062   8.168 -0.2651  0.3118 -0.1129
 7249SOL    HW133206   3.827   2.119   8.137  0.2858  1.9913  1.6946
 7249SOL    HW233207   3.844   2.043   8.245 -0.6242 -1.7034 -0.8773
 7250SOL     OW33208   4.448   0.476   6.710  0.2871 -0.7287  0.2379
 7250SOL    HW133209   4.418   0.561   6.740 -1.4805 -1.2928  0.0356
 7250SOL    HW233210   4.402   0.477   6.626  0.0255 -1.5288  0.3703
 7251SOL     OW33211   3.573   2.415  17.488  0.2163 -0.8630  0.2209
 7251SOL    HW133212   3.486   2.451  17.470  1.7131  2.3575 -0.6363
 7251SOL    HW233213   3.574   2.399  17.582  0.9300 -1.9140  0.0432
 7252SOL     OW33214   2.475   3.128   8.752  0.1845 -0.2099 -0.2600
 7252SOL    HW133215   2.503   3.101   8.839 -0.5309  1.3355  0.4482
 7252SOL    HW233216   2.449   3.046   8.710 -3.0496  0.8874 -0.3522
 7253SOL     OW33217   1.323   1.563   1.906  0.0205 -0.6713 -0.8653
 7253SOL    HW133218   1.284   1.504   1.841  0.9837  0.2249 -2.2707
 7253SOL    HW233219   1.347   1.503   1.976 -0.0067 -1.0416 -1.1742
 7254SOL     OW33220   4.115   1.893   4.029  0.3127  0.3090  0.2530
 7254SOL    HW133221   4.193   1.846   3.998 -0.1346  0.4559 -1.1008
 7254SOL    HW233222   4.085   1.916   3.941  1.1086 -3.0441 -0.9071
 7255SOL     OW33223   4.709   1.467   6.615 -0.2951 -0.4392  0.2242
 7255SOL    HW133224   4.666   1.390   6.579  2.6505 -0.9576 -2.1436
 7255SOL    HW233225   4.695   1.527   6.542  1.3716 -1.8340 -1.2452
 7256SOL     OW33226   1.118   0.194  15.968  0.1999  0.2828 -0.8565
 7256SOL    HW133227   1.196   0.177  15.916 -0.4893 -4.3288 -0.3420
 7256SOL    HW233228   1.056   0.177  15.898  0.3820 -0.6910 -0.7754
 7257SOL     OW33229   4.464   4.702   0.222  0.4748 -0.2812 -0.3905
 7257SOL    HW133230   4.393   4.649   0.259 -0.7095  1.4816 -0.1667
 7257SOL    HW233231   4.428   0.024   0.145 -0.7799 -2.4600 -1.0397
 7258SOL     OW33232   0.160   4.631   8.432 -0.1109  0.5150  0.0487
 7258SOL    HW133233   0.254   4.646   8.447 -0.1403  1.4335 -0.6483
 7258SOL    HW233234   0.118   4.714   8.458 -0.0128  0.3050  0.8837
 7259SOL     OW33235   1.618   2.566  16.929 -0.4634 -0.5035 -0.2061
 7259SOL    HW133236   1.697   2.617  16.914 -0.2438 -1.1961 -1.4394
 7259SOL    HW233237   1.551   2.633  16.940 -1.4939 -1.4164 -0.8689
 7260SOL     OW33238   3.941   3.373   7.669  0.5866 -0.3127 -0.2366
 7260SOL    HW133239   3.974   3.356   7.581 -0.2002  1.4303 -0.8680
 7260SOL    HW233240   3.889   3.294   7.687 -0.9212  1.0728  1.5503
 7261SOL     OW33241   2.026   4.687   1.685  0.2272 -0.1737 -0.8274
 7261SOL    HW133242   1.945   4.645   1.715  0.5495 -0.7848 -0.7969
 7261SOL    HW233243   2.000   0.056   1.674 -1.8665 -0.5173  1.2609
 7262SOL     OW33244   4.354   0.951   5.218  0.2639  0.0735 -0.7692
 7262SOL    HW133245   4.443   0.916   5.211  0.0542 -1.2570  2.6642
 7262SOL    HW233246   4.358   1.027   5.161  0.7416  1.4580  1.1255
 7263SOL     OW33247   1.069   3.970   5.909 -0.1381  0.6060  0.1453
 7263SOL    HW133248   1.020   4.039   5.864 -0.0602  1.8317  1.9361
 7263SOL    HW233249   1.008   3.934   5.973 -0.7392 -0.3419 -0.9510
 7264SOL     OW33250   4.476   4.558   3.335 -0.3478  0.4205 -0.4195
 7264SOL    HW133251   4.433   4.488   3.384  0.0174 -0.2733 -1.0897
 7264SOL    HW233252   4.480   4.525   3.246 -0.4557 -0.8485  0.0471
 7265SOL     OW33253   2.091   4.048   8.207  0.2911  0.1780  0.1649
 7265SOL    HW133254   2.085   4.144   8.202 -1.5779 -0.0266 -1.5236
 7265SOL    HW233255   2.174   4.022   8.167 -1.1723  0.8372 -3.3576
 7266SOL     OW33256   0.568   2.087   4.621 -0.5564 -0.3093  0.2311
 7266SOL    HW133257   0.621   2.054   4.549 -1.2634 -0.1166 -0.3763
 7266SOL    HW233258   0.478   2.059   4.605 -0.8957  1.7425 -1.4959
 7267SOL     OW33259   3.771   4.303  12.711  0.8181  0.0893  0.6303
 7267SOL    HW133260   3.819   4.273  12.788 -1.0757 -0.0127  1.7666
 7267SOL    HW233261   3.684   4.323  12.746  0.3021 -2.0212  0.5071
 7268SOL     OW33262   2.534   3.146   0.486 -0.0887  0.4685  0.4483
 7268SOL    HW133263   2.586   3.180   0.413  1.8629 -2.9370  0.2986
 7268SOL    HW233264   2.447   3.163   0.449  0.2119  1.9177  0.4031
 7269SOL     OW33265   0.174   4.052  12.120  0.8047  0.0615  0.4877
 7269SOL    HW133266   0.185   3.971  12.072 -2.2851 -0.5655  0.8189
 7269SOL    HW233267   0.083   4.079  12.105  1.4351  1.0598 -1.5178
 7270SOL     OW33268   0.839   1.982   9.863 -0.4151 -0.3759  0.1881
 7270SOL    HW133269   0.768   2.044   9.845 -0.2449  0.3015  1.8636
 7270SOL    HW233270   0.881   1.997   9.778 -0.2066  1.7424  0.6618
 7271SOL     OW33271   2.315   2.794   1.345  0.0203  0.6210 -0.3528
 7271SOL    HW133272   2.341   2.703   1.332 -0.5109  0.8603 -3.0822
 7271SOL    HW233273   2.365   2.814   1.424  0.5612 -1.5340 -0.1420
 7272SOL     OW33274   2.404   0.340  17.476 -0.3295 -0.2271 -0.7309
 7272SOL    HW133275   2.344   0.297  17.537  1.2554 -2.0692 -0.4721
 7272SOL    HW233276   2.485   0.291  17.487 -0.8383 -0.5909  1.3163
 7273SOL     OW33277   0.089   0.682   4.991  0.2174  0.4551  0.1661
 7273SOL    HW133278   0.184   0.696   4.982  0.8338 -2.2412  2.4834
 7273SOL    HW233279   0.073   0.705   5.083 -1.6090 -1.3629  0.2922
 7274SOL     OW33280   2.691   2.657   5.308 -0.1380  0.1641 -0.2377
 7274SOL    HW133281   2.678   2.724   5.375 -1.7599  1.0017 -1.3837
 7274SOL    HW233282   2.739   2.713   5.247 -1.8339  0.1144 -1.6164
 7275SOL     OW33283   2.483   3.601   5.363 -0.4924  0.4827 -0.0650
 7275SOL    HW133284   2.539   3.625   5.436 -0.0166  2.0161 -0.9300
 7275SOL    HW233285   2.443   3.687   5.350 -1.6673  0.2671  2.0928
 7276SOL     OW33286   0.464   4.222   4.240 -0.0920  0.2943 -0.2501
 7276SOL    HW133287   0.510   4.152   4.194  0.7253 -0.7851  2.2230
 7276SOL    HW233288   0.528   4.292   4.234  1.3384 -1.0893 -1.0660
 7277SOL     OW33289   4.157   4.590   2.955  0.0950  0.1385 -0.4618
 7277SOL    HW133290   4.145   4.530   3.029 -1.1413 -0.0993 -0.8556
 7277SOL    HW233291   4.252   4.595   2.951  0.2297 -0.0114  2.5408
 7278SOL     OW33292   2.839   1.802   1.879  0.3527  0.0132 -0.5146
 7278SOL    HW133293   2.785   1.857   1.936 -1.0293 -1.5308 -0.3361
 7278SOL    HW233294   2.886   1.864   1.823  0.9994 -0.9953 -1.0789
 7279SOL     OW33295   1.994   2.666   2.079  0.7902 -0.1838 -0.0514
 7279SOL    HW133296   1.908   2.624   2.072  1.2471 -0.9561 -0.9563
 7279SOL    HW233297   1.979   2.732   2.147  2.5374 -1.5440  1.6375
 7280SOL     OW33298   4.228   1.766   1.907 -0.3282  0.7589 -0.0521
 7280SOL    HW133299   4.205   1.813   1.827 -1.2093 -0.2034 -0.3505
 7280SOL    HW233300   4.323   1.777   1.902 -0.2753  0.5589  0.4545
 7281SOL     OW33301   2.282   1.297   8.364  0.2900  0.0467  0.4251
 7281SOL    HW133302   2.262   1.374   8.417 -2.4619 -1.8436  2.1557
 7281SOL    HW233303   2.242   1.307   8.278  3.6114  1.8683 -0.9184
 7282SOL     OW33304   1.580   0.369   9.603  0.0211  0.3589  0.3739
 7282SOL    HW133305   1.529   0.327   9.673 -1.7613 -0.5256 -1.4658
 7282SOL    HW233306   1.536   0.454   9.601 -2.7324 -1.1084 -0.6836
 7283SOL     OW33307   2.588   4.266   3.712  0.3850  0.6328 -0.4732
 7283SOL    HW133308   2.626   4.326   3.648  0.2376  0.0744 -1.0789
 7283SOL    HW233309   2.569   4.321   3.788  1.3598 -0.9106  0.9020
 7284SOL     OW33310   2.231   4.545   5.616 -0.1003 -0.3305 -0.3445
 7284SOL    HW133311   2.183   4.624   5.593 -1.3502 -1.1776 -0.6794
 7284SOL    HW233312   2.154   4.500   5.652  0.4601  0.0227  1.3078
 7285SOL     OW33313   4.687   1.805   5.559 -0.4251 -0.3739 -0.0344
 7285SOL    HW133314   0.008   1.878   5.514 -1.0742 -0.2425 -0.4388
 7285SOL    HW233315   0.041   1.750   5.579 -0.2623  0.0226  0.4435
 7286SOL     OW33316   1.430   2.035   6.808 -0.4350  0.6943  0.2395
 7286SOL    HW133317   1.438   1.941   6.793 -3.5387  0.1211  2.2161
 7286SOL    HW233318   1.516   2.061   6.842 -0.2399  2.5811 -1.7219
 7287SOL     OW33319   1.046   1.878   5.778  0.4977 -0.4104 -0.0216
 7287SOL    HW133320   1.116   1.840   5.724  0.1321  0.5443 -1.1480
 7287SOL    HW233321   1.063   1.971   5.768 -0.9504 -0.4112 -2.4189
 7288SOL     OW33322   1.526   1.922   2.347 -0.3369  0.2145 -0.5713
 7288SOL    HW133323   1.582   1.870   2.289 -1.9990 -0.6494 -1.4002
 7288SOL    HW233324   1.591   1.952   2.411 -1.2328 -0.1343  0.5064
 7289SOL     OW33325   4.581   2.718  11.399  0.9329 -0.2605  0.4596
 7289SOL    HW133326   4.618   2.664  11.469 -0.1944 -1.2429  0.2983
 7289SOL    HW233327   4.500   2.750  11.438  0.5996 -0.0797 -0.3764
 7290SOL     OW33328   0.814   1.194   6.156  0.0259 -0.3912  0.8213
 7290SOL    HW133329   0.797   1.132   6.085  0.1183 -0.5952  0.9813
 7290SOL    HW233330   0.793   1.141   6.232 -0.8627  0.7266  1.3728
 7291SOL     OW33331   2.712   3.257   4.283 -0.1966 -0.0342  0.4083
 7291SOL    HW133332   2.647   3.225   4.345 -2.6404  3.0568 -0.5513
 7291SOL    HW233333   2.695   3.201   4.208 -3.5044  0.7894  0.5362
 7292SOL     OW33334   3.279   0.498   7.039  0.5870 -0.9449  0.3271
 7292SOL    HW133335   3.346   0.514   7.105  0.1351 -1.2061  0.8435
 7292SOL    HW233336   3.211   0.449   7.086  0.3371 -0.5472  0.3879
 7293SOL     OW33337   0.651   2.357  17.340  0.5192  0.1894 -0.2574
 7293SOL    HW133338   0.597   2.367  17.262 -0.3611 -1.9233  0.1043
 7293SOL    HW233339   0.649   2.447  17.374 -0.6800  0.3210 -0.6972
 7294SOL     OW33340   0.362   1.788   2.497  0.5068 -0.3003  0.3645
 7294SOL    HW133341   0.299   1.843   2.544  1.1697 -0.3719  1.3353
 7294SOL    HW233342   0.411   1.859   2.454 -0.7549  0.2766 -0.1071
 7295SOL     OW33343   0.523   1.941  10.583  0.4132 -0.1519 -0.1323
 7295SOL    HW133344   0.437   1.930  10.543  0.4503 -1.9766  0.3006
 7295SOL    HW233345   0.574   1.883  10.526  0.5764 -0.2500  0.1118
 7296SOL     OW33346   3.517   1.521   4.731  0.3417 -0.2276 -0.2521
 7296SOL    HW133347   3.551   1.587   4.670  2.2996 -1.7707 -0.8335
 7296SOL    HW233348   3.569   1.448   4.696 -0.4127 -0.4284 -0.9512
 7297SOL     OW33349   2.587   3.958   7.123  0.2689 -0.3952 -0.4705
 7297SOL    HW133350   2.546   3.930   7.041  1.3794 -0.2566 -1.0722
 7297SOL    HW233351   2.640   3.881   7.141  0.5370 -0.2494 -0.6468
 7298SOL     OW33352   1.133   3.999   4.488  0.2702  0.2431  0.2502
 7298SOL    HW133353   1.061   4.057   4.513 -0.5233 -0.6620  0.0791
 7298SOL    HW233354   1.127   3.943   4.565  0.7259 -0.2624 -0.0758
 7299SOL     OW33355   0.220   1.958  10.132 -0.1069  0.1807  0.3929
 7299SOL    HW133356   0.156   1.929  10.198 -0.9785 -0.4473 -0.7234
 7299SOL    HW233357   0.200   2.051  10.129  0.4326  0.2471 -0.9249
 7300SOL     OW33358   1.674   0.885  15.325 -0.8517  0.1936 -0.0461
 7300SOL    HW133359   1.600   0.826  15.315 -0.6169 -0.2974  1.1504
 7300SOL    HW233360   1.645   0.964  15.370  0.6978  1.0739 -0.5588
 7301SOL     OW33361   3.303   0.970  16.367  0.5002  0.0748  0.3086
 7301SOL    HW133362   3.257   1.033  16.312  1.3726  2.2394  2.0362
 7301SOL    HW233363   3.380   1.025  16.379  2.1558 -2.0310 -0.7111
 7302SOL     OW33364   2.343   4.394   8.351 -0.0596 -0.2668  0.3312
 7302SOL    HW133365   2.347   4.489   8.355  2.8288 -0.3765  0.1416
 7302SOL    HW233366   2.383   4.382   8.437  0.0940 -0.2343  0.2629
 7303SOL     OW33367   0.195   4.366  12.605 -0.4724  0.1035 -0.3150
 7303SOL    HW133368   0.101   4.352  12.609 -0.0000 -3.2081 -0.1904
 7303SOL    HW233369   0.216   4.317  12.526 -3.2099 -2.2331  0.4072
 7304SOL     OW33370   2.891   2.666   7.049  0.1929 -0.3375 -0.6677
 7304SOL    HW133371   2.821   2.647   7.112  0.2691 -0.8805 -0.7447
 7304SOL    HW233372   2.841   2.736   7.007  1.3968  1.3976  0.7808
 7305SOL     OW33373   0.733   1.471   8.553  0.1259  0.2073  0.1057
 7305SOL    HW133374   0.726   1.459   8.647 -0.1963  1.0238  0.1847
 7305SOL    HW233375   0.733   1.381   8.519  0.2448 -0.8727  2.9889
 7306SOL     OW33376   1.126   3.782   0.010 -0.4468  0.8061 -0.2287
 7306SOL    HW133377   1.211   3.819  17.675  0.6521  0.7968  3.7873
 7306SOL    HW233378   1.078   3.864   0.012 -0.4454  0.7691  1.5741
 7307SOL     OW33379   0.683   0.221  10.569  0.8523  0.7399  0.2607
 7307SOL    HW133380   0.771   0.259  10.572  1.2962 -0.1953 -1.1062
 7307SOL    HW233381   0.705   0.134  10.536 -2.1379  0.0952 -0.0221
 7308SOL     OW33382   0.091   3.977   5.841  0.2151 -0.4576 -0.3574
 7308SOL    HW133383   0.081   4.072   5.835  2.4214 -0.1452  0.8258
 7308SOL    HW233384   0.019   3.952   5.899  0.5991  0.4849  0.5195
 7309SOL     OW33385   2.719   4.625  12.686 -0.0774  0.7129 -0.4775
 7309SOL    HW133386   2.748   4.628  12.777  0.5358  2.8715 -0.7539
 7309SOL    HW233387   2.729   4.716  12.659 -0.5168  1.5091  2.0293
 7310SOL     OW33388   0.589   4.230  14.419 -0.1723 -0.2950 -0.4625
 7310SOL    HW133389   0.663   4.221  14.480 -0.2558 -0.7248 -0.4262
 7310SOL    HW233390   0.613   4.191  14.335  0.6670 -1.5949  0.3726
 7311SOL     OW33391   4.067   4.697   6.656  0.4537 -0.4925 -0.4711
 7311SOL    HW133392   4.027   4.639   6.591 -1.1484  1.3543 -1.1100
 7311SOL    HW233393   4.106   4.642   6.725  1.4633  2.6230  1.4437
 7312SOL     OW33394   0.760   4.709   5.077 -0.0400  0.1017  0.3506
 7312SOL    HW133395   0.780   4.629   5.126  0.5395  0.2741  0.3960
 7312SOL    HW233396   0.667   0.008   5.087  0.5228  0.4808  4.8387
 7313SOL     OW33397   0.429   2.283  17.496  0.2747  0.0997  0.0421
 7313SOL    HW133398   0.500   2.343  17.474  1.6202 -1.4434  0.2097
 7313SOL    HW233399   0.352   2.328  17.461  0.7725 -1.0179 -2.5337
 7314SOL     OW33400   1.585   0.854   2.062  0.0844  0.1740 -0.3759
 7314SOL    HW133401   1.508   0.846   2.006 -1.3936 -2.3571  2.0164
 7314SOL    HW233402   1.609   0.946   2.055 -1.4038  0.4544 -2.1168
 7315SOL     OW33403   0.021   1.878  10.320  0.0538 -0.0526  0.1594
 7315SOL    HW133404   4.662   1.925  10.344  1.5486  2.4832  0.2165
 7315SOL    HW233405   4.718   1.793  10.284 -1.3402 -1.1619  3.7572
 7316SOL     OW33406   0.889   2.544  11.079 -0.3965 -0.2936  0.3607
 7316SOL    HW133407   0.951   2.529  11.150  0.3645  0.3829 -0.1658
 7316SOL    HW233408   0.922   2.630  11.053  0.6154 -0.9219 -0.4004
 7317SOL     OW33409   1.975   0.223   7.479 -0.1020 -0.1032 -0.0245
 7317SOL    HW133410   2.050   0.248   7.424  1.1207  1.3880  2.2908
 7317SOL    HW233411   2.009   0.254   7.563  2.7421  0.0693 -1.2267
 7318SOL     OW33412   4.451   1.005   6.775  0.1288  0.3432 -0.1816
 7318SOL    HW133413   4.546   0.996   6.775  0.1358  0.3963  0.2947
 7318SOL    HW233414   4.443   1.059   6.854 -1.8947 -0.1611 -0.0471
 7319SOL     OW33415   1.941   3.959   3.464  0.2202 -0.0869 -0.0271
 7319SOL    HW133416   1.874   4.027   3.469 -0.5884 -0.9177  0.4060
 7319SOL    HW233417   1.947   3.939   3.370 -0.0508 -0.5585  0.0569
 7320SOL     OW33418   1.490   2.538   6.378 -1.0157  0.6959 -0.5580
 7320SOL    HW133419   1.566   2.490   6.411 -0.2267  2.9802  0.8971
 7320SOL    HW233420   1.421   2.471   6.369  0.9768 -1.0971 -2.3427
 7321SOL     OW33421   3.898   1.026   8.645  0.1123  0.0959  0.1355
 7321SOL    HW133422   3.961   1.093   8.672  0.0989 -0.2954  1.1240
 7321SOL    HW233423   3.915   0.953   8.705 -1.0477 -0.7493 -0.5730
 7322SOL     OW33424   3.968   1.585  17.578 -0.3626  0.0766 -0.1793
 7322SOL    HW133425   4.037   1.639  17.616 -1.2864  2.4718 -1.8679
 7322SOL    HW233426   3.988   1.512  17.636  0.3488  0.7644  0.4432
 7323SOL     OW33427   1.662   1.529   4.250  0.1253  0.0007 -0.3001
 7323SOL    HW133428   1.623   1.572   4.174  1.0418  0.9417 -0.2498
 7323SOL    HW233429   1.737   1.476   4.224  0.9079  1.5726 -1.2616
 7324SOL     OW33430   0.041   2.593   0.279  0.2085 -0.4981  0.1338
 7324SOL    HW133431   0.021   2.618   0.189 -0.4183 -1.0469  0.1241
 7324SOL    HW233432   4.686   2.622   0.328 -2.3029 -2.0597 -2.9302
 7325SOL     OW33433   3.873   3.784   3.342  0.1750  0.3263  0.6775
 7325SOL    HW133434   3.929   3.719   3.384 -0.8654  0.8356  2.8248
 7325SOL    HW233435   3.928   3.815   3.269 -0.7876  2.8377  1.0122
 7326SOL     OW33436   3.381   2.477   6.187  0.2934 -0.2263 -0.3486
 7326SOL    HW133437   3.424   2.469   6.101 -0.1069 -1.0445 -0.4755
 7326SOL    HW233438   3.294   2.442   6.169 -0.4537  1.1217  0.6520
 7327SOL     OW33439   0.827   4.184   3.623  0.0284 -0.0591  0.3179
 7327SOL    HW133440   0.789   4.265   3.659 -2.8422 -1.2512  0.0259
 7327SOL    HW233441   0.887   4.223   3.560 -0.1689  0.2661  0.3273
 7328SOL     OW33442   2.924   1.147   0.778 -0.1476 -0.1752  0.8241
 7328SOL    HW133443   2.937   1.107   0.864  1.9699  2.4641  1.7515
 7328SOL    HW233444   3.010   1.187   0.768  1.0768 -3.1284 -0.3407
 7329SOL     OW33445   1.350   1.884  15.259  0.2527  0.0643 -0.3901
 7329SOL    HW133446   1.269   1.889  15.207 -1.1458  0.1429  1.7860
 7329SOL    HW233447   1.319   1.840  15.339 -0.3936 -0.1086 -0.7401
 7330SOL     OW33448   2.210   0.436   4.048  0.1886 -0.2123  0.0714
 7330SOL    HW133449   2.260   0.412   4.126  0.2127  1.9570  0.7090
 7330SOL    HW233450   2.209   0.357   3.993 -1.0181 -0.0591 -0.1338
 7331SOL     OW33451   4.319   2.494  10.861  0.0213  0.4515 -0.1858
 7331SOL    HW133452   4.285   2.483  10.950  0.3261 -0.5832 -0.2049
 7331SOL    HW233453   4.408   2.477  10.890  0.2886  3.3489  0.7041
 7332SOL     OW33454   0.535   2.423   5.094  0.1866  0.4338  0.2025
 7332SOL    HW133455   0.511   2.505   5.136  2.7131  0.2550  1.9909
 7332SOL    HW233456   0.630   2.435   5.097  0.3283 -1.1200  2.1079
 7333SOL     OW33457   1.741   1.847   4.713  0.2787 -0.0252  0.3097
 7333SOL    HW133458   1.655   1.820   4.681  0.1136  1.3676 -0.3939
 7333SOL    HW233459   1.804   1.806   4.653  1.3805 -1.4789  2.4526
 7334SOL     OW33460   1.441   3.235   7.632  0.1829  0.5701 -0.3134
 7334SOL    HW133461   1.426   3.262   7.541 -0.3956 -0.3886 -0.4954
 7334SOL    HW233462   1.452   3.317   7.681 -2.3558  0.0464  1.0926
 7335SOL     OW33463   1.846   3.473   2.466  0.5224 -0.3653  0.9611
 7335SOL    HW133464   1.787   3.547   2.447 -0.3087 -1.1494  0.4922
 7335SOL    HW233465   1.902   3.475   2.388 -1.3260 -0.6480 -0.3939
 7336SOL     OW33466   0.855   2.765   2.973 -0.1415 -0.2076 -0.4679
 7336SOL    HW133467   0.767   2.776   3.009  0.6920 -1.0580  1.8164
 7336SOL    HW233468   0.841   2.696   2.908 -0.4841 -1.2796  0.7534
 7337SOL     OW33469   1.486   4.645  15.775 -0.3222  0.4007  0.1525
 7337SOL    HW133470   1.479   4.559  15.816  1.3989 -0.5714 -1.5584
 7337SOL    HW233471   1.479   4.632  15.680 -2.3194  0.8847  0.2337
 7338SOL     OW33472   3.803   4.539   2.393  0.8282  0.0730 -0.0794
 7338SOL    HW133473   3.763   4.513   2.310  1.6018 -0.5436 -0.2592
 7338SOL    HW233474   3.852   4.458   2.409  3.2552  1.6545  0.5200
 7339SOL     OW33475   2.429   3.284   5.816  0.2850 -0.2571  0.0204
 7339SOL    HW133476   2.428   3.281   5.720 -2.2825 -0.4932  0.0511
 7339SOL    HW233477   2.520   3.308   5.832 -0.1179 -0.2595  2.3537
 7340SOL     OW33478   1.261   2.096   1.818  0.0446 -0.2689  0.2318
 7340SOL    HW133479   1.205   2.055   1.753  2.3404 -1.6217 -0.8462
 7340SOL    HW233480   1.323   2.026   1.837  1.1244  1.2274  2.3201
 7341SOL     OW33481   4.660   3.753  16.382  0.6225 -0.3767 -0.0786
 7341SOL    HW133482   4.688   3.798  16.462 -2.1790  2.4415 -0.6442
 7341SOL    HW233483   4.607   3.678  16.410  1.4248 -0.9412 -0.0963
 7342SOL     OW33484   0.874   4.444   7.098 -0.1978  0.8345  0.2292
 7342SOL    HW133485   0.791   4.484   7.072 -1.5541 -1.7412  0.6788
 7342SOL    HW233486   0.869   4.448   7.194  2.4851  0.6072  0.3888
 7343SOL     OW33487   0.914   2.896  10.409  0.6700  0.6031 -0.4783
 7343SOL    HW133488   0.852   2.901  10.336  0.0536 -0.1335 -0.0141
 7343SOL    HW233489   0.868   2.925  10.488  1.0378 -0.9815  0.3102
 7344SOL     OW33490   3.977   4.200   7.800  0.2788 -0.0039  0.6732
 7344SOL    HW133491   4.015   4.125   7.755 -0.6567  0.2350 -0.5277
 7344SOL    HW233492   4.049   4.262   7.786  0.2671 -0.2717 -0.5394
 7345SOL     OW33493   2.850   4.402   3.878  0.5667 -0.0199 -0.3366
 7345SOL    HW133494   2.823   4.440   3.962 -0.7689 -1.0062 -0.3029
 7345SOL    HW233495   2.917   4.341   3.907 -0.1524  0.0956  1.6158
 7346SOL     OW33496   2.926   0.822  12.749 -0.1210  0.3513  0.6886
 7346SOL    HW133497   2.950   0.764  12.677  2.5134 -0.7639  2.4638
 7346SOL    HW233498   2.832   0.821  12.731  0.2291  0.1654 -1.1081
 7347SOL     OW33499   4.508   1.481  11.100 -0.0322 -0.4344  0.2057
 7347SOL    HW133500   4.579   1.535  11.134  0.0294 -0.7039  0.5025
 7347SOL    HW233501   4.441   1.510  11.162 -0.6902 -2.2826  0.3724
 7348SOL     OW33502   0.060   0.136   1.876  0.0014 -0.4764  0.4695
 7348SOL    HW133503   4.687   0.122   1.875 -0.1236  0.4111 -0.6910
 7348SOL    HW233504   0.082   0.118   1.785  2.6278 -1.0420  1.1990
 7349SOL     OW33505   4.467   2.279   0.639 -0.3494 -0.0687 -0.5075
 7349SOL    HW133506   4.381   2.286   0.679  1.1910  1.4377  2.5535
 7349SOL    HW233507   4.492   2.370   0.629 -1.0537  0.0761 -0.9060
 7350SOL     OW33508   0.688   0.704   9.104 -0.3143 -0.0673 -0.2571
 7350SOL    HW133509   0.768   0.661   9.134 -1.0601  0.1665  2.0423
 7350SOL    HW233510   0.625   0.633   9.113 -1.1734  0.5377 -1.4286
 7351SOL     OW33511   4.276   3.443   6.713  0.1116  0.4147 -0.2442
 7351SOL    HW133512   4.205   3.392   6.753  2.1233 -0.5229  2.1215
 7351SOL    HW233513   4.352   3.401   6.754 -0.3292 -0.2273 -0.0836
 7352SOL     OW33514   3.945   2.928   7.536  0.3080 -0.4833 -0.4721
 7352SOL    HW133515   3.955   2.950   7.443 -1.5221  1.6394 -0.1883
 7352SOL    HW233516   3.958   2.834   7.526  0.5561 -0.5750  0.7909
 7353SOL     OW33517   2.351   0.671  12.864 -0.1773  0.2366  0.1607
 7353SOL    HW133518   2.307   0.746  12.823 -0.1431 -1.3993 -2.8646
 7353SOL    HW233519   2.426   0.718  12.899  0.6328 -0.8168 -0.1627
 7354SOL     OW33520   4.117   2.333   6.374 -0.6459 -0.4796  0.4107
 7354SOL    HW133521   4.206   2.320   6.407 -0.4055  0.9353  0.3215
 7354SOL    HW233522   4.064   2.345   6.453 -0.7280 -0.0288  0.2875
 7355SOL     OW33523   1.652   1.483   5.258 -0.2329  0.0033 -0.2464
 7355SOL    HW133524   1.577   1.427   5.279 -0.1059  0.2214  0.7644
 7355SOL    HW233525   1.613   1.570   5.258 -1.1658 -0.4143  0.1124
 7356SOL     OW33526   0.937   4.166   4.635  0.6098 -0.2525 -0.2692
 7356SOL    HW133527   0.873   4.236   4.645  0.1286 -0.8048  0.5483
 7356SOL    HW233528   0.893   4.118   4.565 -0.1911  0.3484 -0.1681
 7357SOL     OW33529   0.949   4.446   3.585 -0.4524  0.5327  0.0269
 7357SOL    HW133530   0.973   4.456   3.492 -0.0978  0.1342  0.0773
 7357SOL    HW233531   1.028   4.405   3.620 -0.6124  0.9257  0.8485
 7358SOL     OW33532   1.511   0.991   6.970  0.1001 -0.3847  0.0662
 7358SOL    HW133533   1.443   0.927   6.991 -1.3169  1.4593  1.2054
 7358SOL    HW233534   1.572   0.965   7.038  0.2279 -1.5189 -0.4956
 7359SOL     OW33535   4.068   0.344   5.428  0.3878  0.3098  0.2905
 7359SOL    HW133536   4.084   0.293   5.507 -1.1185  0.2868  0.5876
 7359SOL    HW233537   3.986   0.384   5.457  0.7583  0.6170  0.9162
 7360SOL     OW33538   4.268   0.279   4.044  0.0591  1.1723  0.7909
 7360SOL    HW133539   4.283   0.374   4.041  0.0465  1.1701  0.6391
 7360SOL    HW233540   4.189   0.272   3.991 -1.4889 -1.1182  3.4183
 7361SOL     OW33541   0.284   2.931  10.804 -0.1635  0.3270  0.4427
 7361SOL    HW133542   0.202   2.882  10.813 -0.2691  0.0730 -1.8682
 7361SOL    HW233543   0.257   2.997  10.740 -0.1469 -1.2380 -1.1589
 7362SOL     OW33544   1.591   2.606   5.712 -0.5021 -0.3149 -0.0488
 7362SOL    HW133545   1.557   2.673   5.653 -0.5502 -1.0006 -0.8028
 7362SOL    HW233546   1.681   2.599   5.682  0.0875 -1.3987  1.9598
 7363SOL     OW33547   3.345   1.461   6.407  0.1336 -0.1771 -0.1006
 7363SOL    HW133548   3.324   1.555   6.406  1.6421  0.1593 -1.7770
 7363SOL    HW233549   3.260   1.421   6.423  0.4426 -0.6729  0.3066
 7364SOL     OW33550   1.217   3.093   4.090 -0.0368  0.3168 -0.2339
 7364SOL    HW133551   1.131   3.116   4.124  0.0132  0.1424  0.0113
 7364SOL    HW233552   1.205   3.142   4.009  1.5293 -0.8686 -1.1790
 7365SOL     OW33553   3.658   2.833  16.515 -0.5541 -0.0831 -0.4224
 7365SOL    HW133554   3.630   2.843  16.424 -0.1619  1.1735 -0.4127
 7365SOL    HW233555   3.573   2.806  16.549  0.0342  1.4000  2.2199
 7366SOL     OW33556   4.516   0.855   2.521  0.6484 -0.0399 -0.1954
 7366SOL    HW133557   4.557   0.941   2.534 -0.6147  0.2280  2.0409
 7366SOL    HW233558   4.581   0.803   2.475 -0.6774 -1.0333 -0.9478
 7367SOL     OW33559   1.884   0.219   2.799 -0.4523 -0.0509  0.4762
 7367SOL    HW133560   1.970   0.216   2.841 -0.0450 -2.5652 -0.5583
 7367SOL    HW233561   1.885   0.304   2.755 -2.8492  0.5421  1.5681
 7368SOL     OW33562   3.868   3.096  10.178 -0.0429 -0.1159  0.6337
 7368SOL    HW133563   3.942   3.110  10.238 -0.6626 -0.8167  1.5686
 7368SOL    HW233564   3.802   3.068  10.241  0.9340 -0.9894  1.2720
 7369SOL     OW33565   0.001   1.247   5.950  0.3982 -0.6555  0.1079
 7369SOL    HW133566   4.638   1.243   5.907  1.3724 -1.4043 -1.7664
 7369SOL    HW233567   0.057   1.255   5.872  0.6427  0.0625  0.3569
 7370SOL     OW33568   0.482   4.011   8.220 -0.2873 -0.9862  0.3146
 7370SOL    HW133569   0.472   3.986   8.129 -1.7951 -0.2514  0.2771
 7370SOL    HW233570   0.392   4.035   8.239  0.2795  1.3549  0.0449
 7371SOL     OW33571   0.463   1.193   8.801  0.2159 -0.5114 -0.3182
 7371SOL    HW133572   0.447   1.189   8.895 -0.1853 -3.6091 -0.5296
 7371SOL    HW233573   0.557   1.178   8.807  0.9066  3.2833 -1.4506
 7372SOL     OW33574   2.351   3.251   9.230  0.4041  0.2094 -0.1449
 7372SOL    HW133575   2.335   3.204   9.311  2.3023  0.4073  0.3292
 7372SOL    HW233576   2.417   3.192   9.195 -0.1855 -0.3572 -0.3085
 7373SOL     OW33577   2.548   2.506  15.789 -0.3516  0.0260  0.6737
 7373SOL    HW133578   2.606   2.446  15.835  0.3754  0.3929  0.2331
 7373SOL    HW233579   2.515   2.456  15.713  0.8067  0.7866 -0.3367
 7374SOL     OW33580   1.958   4.199   9.861  0.3877 -0.1958 -0.0562
 7374SOL    HW133581   1.917   4.278   9.825  3.2760  1.0365 -0.6536
 7374SOL    HW233582   2.030   4.226   9.917  0.0194 -1.7868  1.2061
 7375SOL     OW33583   1.428   3.158  12.333 -0.5453 -0.5654 -0.1939
 7375SOL    HW133584   1.509   3.130  12.377 -0.3763  0.6781  0.2966
 7375SOL    HW233585   1.421   3.077  12.284 -3.1411 -0.2738 -0.2757
 7376SOL     OW33586   0.844   3.245   5.149 -0.0929 -0.1642  0.2195
 7376SOL    HW133587   0.863   3.327   5.103 -0.9535 -0.6435 -0.9882
 7376SOL    HW233588   0.842   3.276   5.239 -1.2283 -0.0437  0.1530
 7377SOL     OW33589   2.792   0.999   3.936 -0.5585 -0.2657 -0.4265
 7377SOL    HW133590   2.876   1.035   3.965 -1.7145 -0.1337  2.7244
 7377SOL    HW233591   2.809   0.906   3.952  2.0154  0.0477 -1.2496
 7378SOL     OW33592   1.536   1.576  10.076  0.2570 -0.3691 -0.2954
 7378SOL    HW133593   1.512   1.667  10.059 -0.0601 -0.5160 -0.6554
 7378SOL    HW233594   1.607   1.561  10.013 -0.8988 -1.2934 -1.3892
 7379SOL     OW33595   0.073   4.646   9.180 -0.0845 -0.4614  0.9726
 7379SOL    HW133596   0.132   4.593   9.126 -0.2823 -0.7636  1.0539
 7379SOL    HW233597   0.075   0.003   9.126  1.9746 -0.9418  0.3379
 7380SOL     OW33598   4.545   4.508   5.624  0.3807 -0.6363  0.7244
 7380SOL    HW133599   4.582   4.489   5.538 -1.3211  1.3675 -0.4615
 7380SOL    HW233600   4.537   4.423   5.666  0.5994  0.1934  2.4605
 7381SOL     OW33601   1.031   0.146  16.382 -0.6238 -0.2433  0.1963
 7381SOL    HW133602   1.060   0.196  16.305 -0.8680 -0.0648  0.2203
 7381SOL    HW233603   1.064   0.206  16.448  2.4537 -2.0508  0.3460
 7382SOL     OW33604   1.377   2.539   3.857  0.2828  0.0906 -0.2359
 7382SOL    HW133605   1.374   2.454   3.813 -0.5934  0.0717 -0.1286
 7382SOL    HW233606   1.289   2.576   3.862  0.7260  0.9305  1.4430
 7383SOL     OW33607   2.804   3.600   7.392  0.2363 -0.4594 -0.0408
 7383SOL    HW133608   2.813   3.657   7.468 -2.2743 -0.0584 -0.0592
 7383SOL    HW233609   2.722   3.551   7.396 -0.1464  0.0599 -1.3574
 7384SOL     OW33610   3.125   0.106  14.902 -0.2114 -0.0422 -0.4279
 7384SOL    HW133611   3.082   0.169  14.844  0.7025  0.4899 -0.5397
 7384SOL    HW233612   3.179   0.054  14.842  0.4603  0.4295 -0.2406
 7385SOL     OW33613   2.254   2.988   4.377 -0.5754 -0.0303  0.2882
 7385SOL    HW133614   2.260   2.951   4.289  0.1372  1.2973 -0.2100
 7385SOL    HW233615   2.277   2.913   4.432 -1.5288 -0.5238  0.0204
 7386SOL     OW33616   1.330   0.035   3.897  0.0201 -0.3187  0.2345
 7386SOL    HW133617   1.357   4.700   3.970  0.9898 -0.6612 -0.3905
 7386SOL    HW233618   1.238   0.048   3.919  0.1013 -1.4838  1.2978
 7387SOL     OW33619   0.178   4.516   3.545  0.7423 -0.1284  0.3489
 7387SOL    HW133620   0.218   4.435   3.574 -0.0195 -1.7704 -3.1945
 7387SOL    HW233621   0.227   4.581   3.596  1.5971  0.4564 -1.2110
 7388SOL     OW33622   1.971   2.686   5.305 -0.3749  0.2477  0.1916
 7388SOL    HW133623   1.991   2.709   5.395 -3.3900 -1.0959  1.2064
 7388SOL    HW233624   2.009   2.598   5.295 -0.3698  0.3218 -0.4391
 7389SOL     OW33625   0.168   2.684  17.297  0.1528 -0.1961  0.1884
 7389SOL    HW133626   0.103   2.749  17.274 -2.9397 -1.9181  4.1233
 7389SOL    HW233627   0.249   2.735  17.300  0.9974 -1.6444  2.5499
 7390SOL     OW33628   3.533   3.587   3.925  0.0744 -0.4640 -0.2882
 7390SOL    HW133629   3.440   3.607   3.941 -0.3388 -0.5444 -2.6420
 7390SOL    HW233630   3.545   3.627   3.839  3.2211  0.2646  0.4934
 7391SOL     OW33631   1.729   4.139   3.521  1.0108  0.0766 -0.4404
 7391SOL    HW133632   1.685   4.089   3.453 -0.8535  0.5301  0.4107
 7391SOL    HW233633   1.666   4.211   3.523 -0.2881 -1.0535 -0.4844
 7392SOL     OW33634   4.534   3.139  12.705 -0.1920 -0.3032 -0.5891
 7392SOL    HW133635   4.574   3.082  12.639 -0.2751  0.6391 -1.4528
 7392SOL    HW233636   4.575   3.225  12.689 -0.2520 -0.1568  0.0443
 7393SOL     OW33637   1.274   3.576   5.956 -0.3508  0.2387  0.2842
 7393SOL    HW133638   1.230   3.608   6.034 -1.8069 -1.3197  0.1009
 7393SOL    HW233639   1.349   3.538   6.002  0.4678 -1.5689 -2.5670
 7394SOL     OW33640   3.215   2.167   0.856 -0.2155  0.7476  0.6128
 7394SOL    HW133641   3.144   2.111   0.826 -0.1694  1.7703 -1.4290
 7394SOL    HW233642   3.268   2.105   0.905  0.4020  0.9234  0.1583
 7395SOL     OW33643   1.405   3.664   2.143  0.0710  0.1987  0.2419
 7395SOL    HW133644   1.310   3.674   2.150  0.1481 -0.5261  2.4914
 7395SOL    HW233645   1.400   3.571   2.162 -2.0621  0.2535 -0.0589
 7396SOL     OW33646   2.379   3.980   2.115  0.4477 -0.2509 -0.5862
 7396SOL    HW133647   2.311   4.045   2.133 -0.5957 -0.8745 -2.2358
 7396SOL    HW233648   2.455   4.037   2.106 -0.2441  1.0874  2.1672
 7397SOL     OW33649   3.823   4.123   5.569  0.4303  0.1325 -0.5703
 7397SOL    HW133650   3.782   4.208   5.588 -0.4192  0.0297 -1.9840
 7397SOL    HW233651   3.906   4.128   5.616  0.2795  3.7548 -0.6340
 7398SOL     OW33652   4.272   4.161   4.098  0.1695 -0.2088 -0.7164
 7398SOL    HW133653   4.366   4.147   4.107  0.2643 -0.2368 -1.6612
 7398SOL    HW233654   4.266   4.208   4.014 -0.2200  1.0056 -0.0000
 7399SOL     OW33655   3.586   2.213  15.214  0.4512  0.2471 -0.2785
 7399SOL    HW133656   3.517   2.250  15.269  1.4422  2.7427 -0.7344
 7399SOL    HW233657   3.645   2.288  15.221  0.8215  0.0609 -1.3080
 7400SOL     OW33658   0.637   0.975  13.024 -0.2825  0.3130 -0.0293
 7400SOL    HW133659   0.542   0.969  13.032 -0.1413 -1.7238  0.1684
 7400SOL    HW233660   0.672   0.895  13.063 -0.3882  0.2214 -0.1210
 7401SOL     OW33661   0.858   0.328  14.440  0.2405 -0.3234 -0.4218
 7401SOL    HW133662   0.841   0.415  14.403  0.6881 -0.4437 -0.9090
 7401SOL    HW233663   0.855   0.282  14.356  0.6325 -0.3145 -0.4420
 7402SOL     OW33664   4.045   3.890  12.428 -0.3687  0.3970  0.6634
 7402SOL    HW133665   4.053   3.848  12.342  1.4265  1.8825  0.1181
 7402SOL    HW233666   3.950   3.899  12.437 -0.4505  0.0749  0.1448
 7403SOL     OW33667   2.080   0.989  12.238 -0.1079 -0.4702  0.5352
 7403SOL    HW133668   2.089   1.082  12.255 -0.6641 -0.1676 -0.8307
 7403SOL    HW233669   1.985   0.985  12.225 -0.2220  0.4823  1.1137
 7404SOL     OW33670   4.539   4.198   3.664 -0.0571 -0.8810  0.0258
 7404SOL    HW133671   4.576   4.242   3.588 -1.8651 -0.5062 -0.6409
 7404SOL    HW233672   4.603   4.127   3.673 -1.2855 -1.9512  0.2933
 7405SOL     OW33673   0.979   0.745   5.928  0.1558  0.1896  0.0979
 7405SOL    HW133674   0.993   0.840   5.921  1.6083 -0.0165  0.2816
 7405SOL    HW233675   0.987   0.728   6.021 -0.1783 -1.8743 -0.2649
 7406SOL     OW33676   1.667   0.631   6.086 -0.1331 -0.1200  0.4642
 7406SOL    HW133677   1.685   0.560   6.147 -0.1696  0.7525  1.5055
 7406SOL    HW233678   1.746   0.623   6.033  0.2286 -0.1424  1.0050
 7407SOL     OW33679   0.381   0.454   7.298 -0.6223 -0.0719 -0.2224
 7407SOL    HW133680   0.305   0.423   7.347  1.4586 -0.4190  2.7859
 7407SOL    HW233681   0.428   0.371   7.285  1.7282  0.9627  1.8038
 7408SOL     OW33682   3.707   4.655   0.582 -0.0553 -0.1539  0.3038
 7408SOL    HW133683   3.679   4.659   0.491  2.3057  0.1897 -0.4015
 7408SOL    HW233684   3.777   4.589   0.586  0.1464  0.0122 -0.5716
 7409SOL     OW33685   1.181   4.650  14.321 -0.4730 -0.5140  0.9799
 7409SOL    HW133686   1.263   4.632  14.274 -1.0603 -0.7775  0.0570
 7409SOL    HW233687   1.123   4.662  14.246  0.3429  1.5659  0.6906
 7410SOL     OW33688   0.803   1.076   9.235  0.1205 -0.2262 -0.1086
 7410SOL    HW133689   0.816   1.111   9.324 -1.5731  1.0205 -0.3561
 7410SOL    HW233690   0.708   1.076   9.231  0.0321 -0.0940  1.6875
 7411SOL     OW33691   2.248   4.050   2.501 -0.1103  0.0157 -0.0816
 7411SOL    HW133692   2.288   4.011   2.423  1.4465 -1.5339  1.5020
 7411SOL    HW233693   2.288   4.136   2.514 -1.7927  0.8151 -0.2645
 7412SOL     OW33694   2.532   0.794   4.538 -0.5684  0.8087 -0.0288
 7412SOL    HW133695   2.622   0.817   4.562  0.0470 -1.1594 -0.4533
 7412SOL    HW233696   2.531   0.698   4.549 -0.3442  0.7571 -0.4438
 7413SOL     OW33697   3.939   1.877   6.399 -0.1381  0.0019 -0.0629
 7413SOL    HW133698   3.962   1.962   6.363 -1.6936  0.9419  1.1556
 7413SOL    HW233699   4.024   1.834   6.406 -1.3097 -2.4494 -0.4781
 7414SOL     OW33700   0.897   1.636  11.022 -0.1231 -0.0770  0.0600
 7414SOL    HW133701   0.883   1.668  10.933 -0.2883 -1.6851 -0.4746
 7414SOL    HW233702   0.805   1.643  11.048 -0.5274  0.6263 -1.5585
 7415SOL     OW33703   1.811   3.353  13.631 -0.2480  0.1097  0.1728
 7415SOL    HW133704   1.719   3.332  13.618  0.2146 -2.8165  1.6814
 7415SOL    HW233705   1.858   3.273  13.652  1.1735  0.6718 -0.8511
 7416SOL     OW33706   2.157   3.302   5.356 -0.3516  0.7023 -0.0274
 7416SOL    HW133707   2.126   3.370   5.415  1.1931  1.3821 -0.0037
 7416SOL    HW233708   2.086   3.238   5.348  0.9447 -0.8422  0.7467
 7417SOL     OW33709   4.554   3.115  14.801 -0.8450  0.3845 -0.5877
 7417SOL    HW133710   4.529   3.157  14.884  0.8810 -0.3627  0.3233
 7417SOL    HW233711   4.474   3.071  14.772 -0.8507 -0.6594  0.9824
 7418SOL     OW33712   1.530   4.474  10.399 -0.6874  0.3469  0.5990
 7418SOL    HW133713   1.562   4.399  10.349  0.1495  1.9417 -1.2429
 7418SOL    HW233714   1.611   4.515  10.430  0.6962  0.1803 -2.8345
 7419SOL     OW33715   3.693   0.051   2.625  0.2913 -0.3056  0.4952
 7419SOL    HW133716   3.711   0.133   2.671 -0.3318 -0.3476  0.8138
 7419SOL    HW233717   3.608   0.078   2.591  0.4084 -0.7335 -0.1464
 7420SOL     OW33718   0.933   0.682   4.523  0.6104  0.1468 -0.3855
 7420SOL    HW133719   0.929   0.769   4.484  0.9987  0.2773 -0.1437
 7420SOL    HW233720   0.977   0.694   4.608  0.2914  2.1619 -0.5012
 7421SOL     OW33721   1.405   0.708   6.126 -0.1269 -0.2464 -0.3877
 7421SOL    HW133722   1.362   0.623   6.112  1.4197 -0.9690 -0.7958
 7421SOL    HW233723   1.495   0.685   6.150  0.2093  0.0541 -1.3387
 7422SOL     OW33724   3.630   1.258   1.111 -0.3485  0.5051 -0.1127
 7422SOL    HW133725   3.569   1.199   1.067 -0.1972  0.0713  0.2679
 7422SOL    HW233726   3.609   1.242   1.203 -0.6697  0.5446 -0.1785
 7423SOL     OW33727   1.939   1.553   6.151 -0.3610 -0.2036 -0.2806
 7423SOL    HW133728   1.949   1.593   6.237  0.0324 -1.4560  0.2580
 7423SOL    HW233729   1.849   1.571   6.123  0.3129  4.1159  0.4235
 7424SOL     OW33730   2.713   1.032  13.309 -0.1923 -0.0023 -0.1245
 7424SOL    HW133731   2.749   0.983  13.235  0.3640 -0.0786  0.1906
 7424SOL    HW233732   2.661   0.959  13.342 -0.7706 -0.0707 -1.1850
 7425SOL     OW33733   4.134   4.534   5.965  0.8983 -0.1349 -0.1596
 7425SOL    HW133734   4.104   4.574   6.047 -0.9172 -1.9002  0.0443
 7425SOL    HW233735   4.115   4.606   5.906 -2.0003 -0.9948 -0.2893
 7426SOL     OW33736   3.684   1.984   8.996  0.6708  0.4318 -0.3804
 7426SOL    HW133737   3.656   2.013   8.910  0.1203 -0.4642 -0.5005
 7426SOL    HW233738   3.645   2.051   9.053  0.9632 -0.8419  1.3137
 7427SOL     OW33739   3.292   1.459  12.576  0.0519 -0.1785 -0.5500
 7427SOL    HW133740   3.362   1.474  12.512  0.1950 -0.6575 -0.5074
 7427SOL    HW233741   3.313   1.366  12.584 -1.2702 -0.6043 -1.9682
 7428SOL     OW33742   0.733   3.662   2.198 -0.3701 -0.2778 -0.1076
 7428SOL    HW133743   0.649   3.669   2.243  0.2596  1.3332  0.8006
 7428SOL    HW233744   0.701   3.713   2.123 -0.7338  0.2257  0.3944
 7429SOL     OW33745   1.360   3.773   2.490  0.9967  0.0962  0.0965
 7429SOL    HW133746   1.441   3.739   2.453  0.4007  0.9797 -1.9846
 7429SOL    HW233747   1.308   3.783   2.411  1.5932 -2.2709 -0.6013
 7430SOL     OW33748   1.248   1.605   4.546 -0.1297 -0.2040 -0.4078
 7430SOL    HW133749   1.340   1.613   4.521  0.0915 -0.2649  0.3722
 7430SOL    HW233750   1.245   1.694   4.579 -0.5971 -0.3097 -0.1667
 7431SOL     OW33751   3.275   3.744   8.335 -0.5752 -0.2593  0.0164
 7431SOL    HW133752   3.314   3.760   8.422 -0.0952  2.2371 -0.6564
 7431SOL    HW233753   3.183   3.763   8.353  0.2149  2.8287  0.7498
 7432SOL     OW33754   2.933   4.586   8.816  0.0705 -0.3660 -0.4891
 7432SOL    HW133755   3.009   4.540   8.851 -0.7030  0.1416  1.8399
 7432SOL    HW233756   2.955   4.597   8.723  2.2661 -3.0009 -0.2909
 7433SOL     OW33757   4.670   4.037  14.613  0.8049  0.2431 -0.9729
 7433SOL    HW133758   0.020   4.073  14.559  2.6544 -1.6654  0.1993
 7433SOL    HW233759   4.718   4.045  14.695  0.3973 -1.0900 -0.6160
 7434SOL     OW33760   3.310   3.033  16.215  0.6318 -0.2451 -0.0578
 7434SOL    HW133761   3.267   3.117  16.232 -0.1351 -0.7120  0.2868
 7434SOL    HW233762   3.279   3.020  16.126  0.6774 -0.5337 -0.0296
 7435SOL     OW33763   0.900   1.065   7.100 -0.7459  0.3522  0.5569
 7435SOL    HW133764   0.994   1.051   7.093 -0.8381 -0.3751  0.8242
 7435SOL    HW233765   0.875   1.053   7.008  2.0516 -0.6215 -0.0633
 7436SOL     OW33766   4.286   0.021  14.829  0.0493 -0.2652 -0.3088
 7436SOL    HW133767   4.300   4.710  14.740  0.9841  1.7133 -0.8811
 7436SOL    HW233768   4.202   4.700  14.845 -0.8474  1.7790  0.2659
 7437SOL     OW33769   2.853   0.263   4.796  0.0296  0.2596 -0.2979
 7437SOL    HW133770   2.947   0.248   4.805 -0.2326 -1.3700 -0.2078
 7437SOL    HW233771   2.814   0.176   4.800 -1.3217  0.9207  0.8268
 7438SOL     OW33772   4.629   4.402   5.969 -0.0891 -0.2781  0.2700
 7438SOL    HW133773   4.573   4.392   5.892 -0.9966  1.1553  0.7435
 7438SOL    HW233774   4.557   4.420   6.029 -1.0378  3.2579 -1.8898
 7439SOL     OW33775   1.663   3.191   0.141  0.3149 -0.3483 -0.3952
 7439SOL    HW133776   1.620   3.245   0.207 -2.2039 -0.1058 -2.2213
 7439SOL    HW233777   1.691   3.121   0.200  1.5826  0.4938 -0.0055
 7440SOL     OW33778   4.266   2.197   3.249  0.7157 -0.4191 -0.4362
 7440SOL    HW133779   4.316   2.272   3.282  0.4406  0.6529 -2.4832
 7440SOL    HW233780   4.303   2.187   3.162  0.9581 -2.3356 -0.1091
 7441SOL     OW33781   3.682   0.697   0.065 -0.0309  0.6707 -0.2497
 7441SOL    HW133782   3.600   0.648   0.075  0.3036  0.3219  0.8058
 7441SOL    HW233783   3.696   0.730   0.154 -1.7548  0.7011  0.0012
 7442SOL     OW33784   4.482   1.407   0.206 -0.0521 -0.6168  0.3251
 7442SOL    HW133785   4.435   1.487   0.228 -0.6372 -0.0654 -2.8577
 7442SOL    HW233786   4.521   1.391   0.292  0.7111  1.8293  0.4269
 7443SOL     OW33787   1.456   2.920   1.343  0.1802  0.1309 -0.0039
 7443SOL    HW133788   1.397   2.846   1.355 -1.0731  1.1795  0.2415
 7443SOL    HW233789   1.501   2.925   1.428  1.1673  1.2243 -0.5977
 7444SOL     OW33790   0.138   1.060  10.999  0.0169  0.1820 -0.4501
 7444SOL    HW133791   0.218   1.008  11.000  0.7198  1.2444 -0.6762
 7444SOL    HW233792   0.168   1.121  11.067 -0.7425  1.0099 -0.8646
 7445SOL     OW33793   1.998   1.869   4.281 -0.1797  0.8007  0.4992
 7445SOL    HW133794   1.916   1.840   4.321  0.1148 -1.6881 -0.7097
 7445SOL    HW233795   1.990   1.964   4.285  1.9678  1.0212 -0.9622
 7446SOL     OW33796   2.818   1.800   6.777  0.4407 -0.5064 -0.3656
 7446SOL    HW133797   2.877   1.777   6.848  2.5060  5.0466 -0.2524
 7446SOL    HW233798   2.731   1.782   6.813  1.7373 -0.8621  2.5255
 7447SOL     OW33799   2.926   2.071  11.334  0.1035 -0.2447  0.0423
 7447SOL    HW133800   2.969   2.072  11.420 -0.4891  0.5352  0.3299
 7447SOL    HW233801   2.841   2.034  11.358  0.2498 -1.6944 -1.6658
 7448SOL     OW33802   3.053   3.036   8.284 -0.3006 -0.1266 -0.3380
 7448SOL    HW133803   2.983   3.098   8.304 -0.0369 -0.0416  0.3019
 7448SOL    HW233804   3.114   3.088   8.231  0.6192 -2.9160 -2.0355
 7449SOL     OW33805   0.956   1.663   4.519 -0.5787  0.2787 -0.3158
 7449SOL    HW133806   0.928   1.601   4.452 -0.8972  0.5967 -0.4717
 7449SOL    HW233807   1.011   1.719   4.464  0.3400  1.8128  2.1821
 7450SOL     OW33808   3.969   4.520  10.329 -0.5522 -0.0691  0.7097
 7450SOL    HW133809   4.020   4.545  10.251  0.5726 -0.5970  1.2859
 7450SOL    HW233810   3.899   4.479  10.278 -0.3402 -0.8631  1.0706
 7451SOL     OW33811   1.795   4.183  13.724 -0.2482  0.0241  0.0683
 7451SOL    HW133812   1.767   4.270  13.697 -1.4142  0.0140  1.2555
 7451SOL    HW233813   1.797   4.211  13.816 -0.6444 -0.0762  0.1069
 7452SOL     OW33814   1.864   0.208  14.975  0.5947 -0.3478  0.0859
 7452SOL    HW133815   1.838   0.188  14.886 -0.8535 -1.1765  0.6930
 7452SOL    HW233816   1.860   0.303  14.964 -2.0834 -0.6706 -1.7298
 7453SOL     OW33817   1.249   3.930   8.473  0.2111  0.3381 -0.0051
 7453SOL    HW133818   1.243   3.842   8.510 -1.1458  0.0920 -0.8132
 7453SOL    HW233819   1.241   3.975   8.557 -3.2102 -0.0711 -0.0930
 7454SOL     OW33820   4.430   0.326   2.099 -0.1153  0.2267  0.1428
 7454SOL    HW133821   4.381   0.247   2.078  0.7309  0.1799 -1.6198
 7454SOL    HW233822   4.376   0.352   2.174  0.0008  0.5340  0.1198
 7455SOL     OW33823   4.217   4.006   5.888  0.2792 -0.6644 -0.2972
 7455SOL    HW133824   4.302   4.005   5.844 -0.0285 -0.0122 -0.9137
 7455SOL    HW233825   4.224   3.935   5.952  0.0677 -0.2325  0.2165
 7456SOL     OW33826   2.320   1.996   1.740 -0.1049  0.1500 -0.6186
 7456SOL    HW133827   2.241   1.950   1.711 -1.6031  0.8471  2.3086
 7456SOL    HW233828   2.380   1.963   1.674 -1.4720 -0.6855 -1.4222
 7457SOL     OW33829   2.380   3.798   1.403 -0.2884 -0.8098  0.0544
 7457SOL    HW133830   2.424   3.816   1.320 -0.6885 -0.0348  0.0132
 7457SOL    HW233831   2.371   3.704   1.385 -0.6966 -0.9479  0.9699
 7458SOL     OW33832   3.307   0.225  10.271 -1.1985 -0.3837 -0.3199
 7458SOL    HW133833   3.231   0.251  10.324 -0.0825  0.0151  1.1126
 7458SOL    HW233834   3.337   0.306  10.230 -0.9194 -0.6000 -0.5398
 7459SOL     OW33835   4.599   0.338   4.326 -0.0460 -0.0565 -0.2650
 7459SOL    HW133836   4.514   0.381   4.317  0.0217  0.3654  1.1100
 7459SOL    HW233837   4.640   0.390   4.257 -1.5966  0.8173 -0.5158
 7460SOL     OW33838   1.714   2.097   7.772 -0.2248 -0.4694 -0.0952
 7460SOL    HW133839   1.664   2.175   7.746  0.8150  0.2727  0.1225
 7460SOL    HW233840   1.783   2.144   7.819  0.8502 -2.1661  0.0026
 7461SOL     OW33841   1.862   1.209  11.677  0.2626  0.5997  0.1692
 7461SOL    HW133842   1.936   1.153  11.653  0.1319  1.3842 -2.0755
 7461SOL    HW233843   1.845   1.176  11.765  0.2369 -0.8709 -0.3727
 7462SOL     OW33844   3.069   2.060   7.410 -0.0410  0.2033 -0.3686
 7462SOL    HW133845   3.152   2.021   7.439  0.4164  1.9627  0.6981
 7462SOL    HW233846   3.045   2.083   7.500 -2.3885  1.1159 -1.2371
 7463SOL     OW33847   0.235   3.159   4.751  0.2346  0.1714  0.0337
 7463SOL    HW133848   0.142   3.179   4.766  0.3054  0.4163  0.1388
 7463SOL    HW233849   0.246   3.155   4.656  1.4608  0.6388  0.1560
 7464SOL     OW33850   2.604   3.811  13.327 -0.0935  0.4223  0.1606
 7464SOL    HW133851   2.528   3.869  13.317  1.2607  2.5607  2.1016
 7464SOL    HW233852   2.667   3.870  13.369 -0.7835  1.1932  0.1311
 7465SOL     OW33853   3.978   4.173   9.930  0.0480 -0.5301 -0.4014
 7465SOL    HW133854   3.898   4.130   9.901 -0.5966 -0.7661  1.8013
 7465SOL    HW233855   3.936   4.259   9.919 -0.7274 -0.7559  0.8196
 7466SOL     OW33856   2.274   3.980  15.830 -0.1477  0.2843 -0.2662
 7466SOL    HW133857   2.178   3.977  15.825 -0.2500 -1.7123  2.7814
 7466SOL    HW233858   2.297   3.912  15.766  1.7084 -0.9567  1.7409
 7467SOL     OW33859   0.889   0.521   5.475 -0.2299 -0.5406  0.5457
 7467SOL    HW133860   0.797   0.505   5.452  0.3267 -2.6902 -0.1885
 7467SOL    HW233861   0.924   0.496   5.389 -0.0554 -2.2095  1.0985
 7468SOL     OW33862   1.909   1.786   2.515 -0.0057  0.1071 -0.1623
 7468SOL    HW133863   1.893   1.764   2.423 -0.8987 -0.4999  0.1336
 7468SOL    HW233864   1.821   1.770   2.549  0.5400 -0.8163  0.8080
 7469SOL     OW33865   3.172   4.613   3.233  0.1879  0.2459  0.0461
 7469SOL    HW133866   3.147   4.685   3.175 -1.2533  1.6178  2.3921
 7469SOL    HW233867   3.088   4.571   3.250 -1.8442  3.0124 -3.1837
 7470SOL     OW33868   0.333   3.084   9.562 -0.3570  0.3022 -0.0021
 7470SOL    HW133869   0.271   3.066   9.493 -1.2056 -1.7722  1.3065
 7470SOL    HW233870   0.350   2.997   9.599 -1.9161  0.1305  0.2809
 7471SOL     OW33871   0.213   2.945   2.939 -0.1312  0.0829  0.2632
 7471SOL    HW133872   0.117   2.947   2.931  0.0049 -1.5720 -1.7042
 7471SOL    HW233873   0.242   3.009   2.874  0.5572 -0.7490 -0.2383
 7472SOL     OW33874   3.664   2.855   3.860 -0.8280  0.1408 -0.2738
 7472SOL    HW133875   3.670   2.881   3.769 -2.0196  0.8111 -0.1569
 7472SOL    HW233876   3.571   2.869   3.875 -0.8508 -0.2637 -0.0354
 7473SOL     OW33877   3.525   3.262   5.694  0.2829  0.0088 -0.2003
 7473SOL    HW133878   3.523   3.283   5.788  1.1376 -0.4670 -0.0803
 7473SOL    HW233879   3.442   3.218   5.675 -0.1390  0.2597  1.0697
 7474SOL     OW33880   3.106   1.017   0.960  0.2932  0.0646  0.5457
 7474SOL    HW133881   3.148   1.001   1.044  0.7050 -0.3874  0.2554
 7474SOL    HW233882   3.131   1.109   0.952  0.2773  0.0603  0.4494
 7475SOL     OW33883   4.405   0.668   2.754  0.1285 -0.5144  0.2937
 7475SOL    HW133884   4.470   0.694   2.688 -1.2713 -2.3486 -1.8421
 7475SOL    HW233885   4.452   0.593   2.791  0.7504 -0.9949 -1.4512
 7476SOL     OW33886   1.964   0.012  10.187  0.4816 -0.5054 -0.2388
 7476SOL    HW133887   1.899   0.058  10.239  0.3946 -2.4907  1.4187
 7476SOL    HW233888   1.911   4.659  10.160  0.3764 -1.3471  2.2640
 7477SOL     OW33889   0.026   4.570   0.531  0.4494  0.1332  0.1945
 7477SOL    HW133890   0.083   4.645   0.551 -1.9436  1.9545  0.2580
 7477SOL    HW233891   0.021   4.595   0.438 -0.6515 -1.9240 -0.2988
 7478SOL     OW33892   1.498   3.434   3.682 -0.1251  0.5358  0.0537
 7478SOL    HW133893   1.567   3.407   3.622 -1.1328 -1.5879 -0.1321
 7478SOL    HW233894   1.444   3.355   3.690 -1.5848  1.6810  1.6889
 7479SOL     OW33895   2.769   0.626   1.340 -0.2830  0.0247 -0.4819
 7479SOL    HW133896   2.845   0.580   1.303  1.0985  1.6167  0.4024
 7479SOL    HW233897   2.697   0.600   1.283  0.4087  1.6907 -2.0981
 7480SOL     OW33898   3.023   0.833   2.645 -0.2561 -0.4470 -0.4716
 7480SOL    HW133899   2.946   0.889   2.636 -0.3383 -0.1508  2.0635
 7480SOL    HW233900   3.083   0.904   2.624 -0.5202 -0.1244 -0.1367
 7481SOL     OW33901   1.225   2.242   7.141  0.0369 -0.2481  0.4928
 7481SOL    HW133902   1.262   2.320   7.184 -0.3066  1.3499 -2.1198
 7481SOL    HW233903   1.154   2.216   7.199 -0.0681  0.3240  0.6226
 7482SOL     OW33904   2.530   3.689   2.763  0.2900 -0.0204  0.3122
 7482SOL    HW133905   2.575   3.705   2.846  0.7512  1.6411 -0.2658
 7482SOL    HW233906   2.528   3.775   2.721 -1.6324  0.6480  1.7638
 7483SOL     OW33907   0.545   3.152   2.917  0.2697  0.3332  0.1973
 7483SOL    HW133908   0.544   3.149   2.821  1.6767  1.0565  0.1625
 7483SOL    HW233909   0.476   3.089   2.936 -0.5683  0.9486 -0.7682
 7484SOL     OW33910   0.984   1.191   4.478 -0.5891 -0.0393 -0.2856
 7484SOL    HW133911   0.915   1.222   4.537 -2.0037 -0.5444 -1.6688
 7484SOL    HW233912   1.040   1.267   4.466  0.2268 -0.5628  0.1971
 7485SOL     OW33913   0.564   0.730  15.748  0.3935  0.2602  0.0794
 7485SOL    HW133914   0.473   0.753  15.729  0.0182 -1.3755 -0.0974
 7485SOL    HW233915   0.570   0.636  15.728  2.0764  0.5854 -0.9059
 7486SOL     OW33916   1.995   3.716   2.283 -0.1920  0.1228  0.6901
 7486SOL    HW133917   2.088   3.693   2.283 -0.4081 -0.7851 -1.0140
 7486SOL    HW233918   1.990   3.760   2.368 -1.5402 -1.5851  1.5023
 7487SOL     OW33919   1.499   3.035   4.530  0.3995  0.1237 -0.4540
 7487SOL    HW133920   1.455   3.051   4.447 -1.6345  0.5532  0.7148
 7487SOL    HW233921   1.567   2.970   4.512  0.1791 -0.7291  1.7061
 7488SOL     OW33922   0.579   4.343  13.538 -0.0211 -0.2671 -0.6514
 7488SOL    HW133923   0.573   4.378  13.449  0.5188 -0.4833 -0.7720
 7488SOL    HW233924   0.555   4.251  13.536  0.5292 -0.4236  0.1574
 7489SOL     OW33925   0.778   2.072   4.385  0.0736 -0.3823  0.0908
 7489SOL    HW133926   0.761   1.981   4.361  0.1300 -0.8014  1.6262
 7489SOL    HW233927   0.788   2.117   4.301 -2.4001  0.3518  0.1750
 7490SOL     OW33928   2.269   0.403  16.873 -0.2455 -0.5794 -0.3590
 7490SOL    HW133929   2.277   0.435  16.963 -2.4865  1.2210 -0.8211
 7490SOL    HW233930   2.357   0.364  16.864 -0.5475 -1.3418 -0.0310
 7491SOL     OW33931   2.862   4.481  16.380 -0.4623  0.7068  0.4573
 7491SOL    HW133932   2.951   4.495  16.413  0.2445 -0.0536 -1.1338
 7491SOL    HW233933   2.848   4.556  16.323  0.3836  3.1024  3.3704
 7492SOL     OW33934   0.035   2.460   5.169 -0.3261  0.2203 -0.0022
 7492SOL    HW133935   4.717   2.475   5.255 -0.9257 -0.2328 -0.2008
 7492SOL    HW233936   0.114   2.414   5.196 -1.5712 -2.2032 -0.5134
 7493SOL     OW33937   0.855   3.607   6.204  0.2158 -0.8880 -0.3331
 7493SOL    HW133938   0.810   3.618   6.288  3.7641  1.7023  1.2040
 7493SOL    HW233939   0.803   3.532   6.175  0.3869 -0.1436 -2.6241
 7494SOL     OW33940   0.707   2.927  16.214 -0.1834 -0.3860  0.8541
 7494SOL    HW133941   0.774   2.862  16.191  0.5348  0.4875  0.4891
 7494SOL    HW233942   0.668   2.945  16.128  1.5753  1.8479  0.5346
 7495SOL     OW33943   3.719   0.966   3.872 -0.5846 -0.9293 -0.7929
 7495SOL    HW133944   3.773   0.953   3.794 -0.7642 -1.0129 -0.9031
 7495SOL    HW233945   3.729   1.061   3.872  0.5423 -1.0402 -1.2037
 7496SOL     OW33946   4.503   4.313  12.045  0.5276 -0.2193 -0.2767
 7496SOL    HW133947   4.520   4.386  11.986 -2.6930  1.5832  0.9634
 7496SOL    HW233948   4.526   4.353  12.129 -1.6926  1.3661 -0.3926
 7497SOL     OW33949   1.178   0.727  15.305  0.2584 -0.2852  0.6986
 7497SOL    HW133950   1.173   0.648  15.358 -0.9477 -0.6722  0.0011
 7497SOL    HW233951   1.167   0.692  15.217  2.1467  0.4861  0.1449
 7498SOL     OW33952   2.271   0.585   6.197  0.6480  0.5070  0.4849
 7498SOL    HW133953   2.339   0.630   6.247  1.4589 -0.6127  0.3901
 7498SOL    HW233954   2.234   0.655   6.144 -2.6950 -0.9141  0.9435
 7499SOL     OW33955   0.481   0.661   6.550  0.8106 -1.0065 -0.6188
 7499SOL    HW133956   0.502   0.748   6.514 -0.8601 -0.5833 -0.5922
 7499SOL    HW233957   0.507   0.672   6.641 -2.2355 -0.4920  0.1786
 7500SOL     OW33958   3.719   0.818   5.226  0.4095 -0.1861  0.2659
 7500SOL    HW133959   3.645   0.864   5.185 -1.3730 -2.3418  1.0386
 7500SOL    HW233960   3.793   0.856   5.180  0.0063  0.3721  0.0773
 7501SOL     OW33961   3.487   3.208   1.249 -0.0244 -0.0065 -0.0286
 7501SOL    HW133962   3.394   3.221   1.267  0.1874  0.0067  1.0323
 7501SOL    HW233963   3.503   3.261   1.171 -0.0178  1.3354  0.8918
 7502SOL     OW33964   2.838   1.443  10.053 -0.1312  0.2229  0.3730
 7502SOL    HW133965   2.904   1.449   9.984 -2.6983 -0.6839 -2.1553
 7502SOL    HW233966   2.833   1.348  10.065 -2.9487  0.5831  1.9668
 7503SOL     OW33967   3.177   1.572   8.449  0.2697 -0.4696 -0.3992
 7503SOL    HW133968   3.269   1.583   8.473  0.2492  0.7362 -0.8943
 7503SOL    HW233969   3.151   1.661   8.425  3.2942  0.2488 -1.0154
 7504SOL     OW33970   1.142   0.527  15.086  0.1283 -0.1425 -0.4832
 7504SOL    HW133971   1.079   0.513  15.016  1.0948 -0.6025 -1.2650
 7504SOL    HW233972   1.117   0.448  15.134  1.4089 -0.5496 -0.4877
 7505SOL     OW33973   4.524   0.371  11.648  0.6310  0.3403  0.5582
 7505SOL    HW133974   4.611   0.385  11.610  1.4674  0.3501  2.4639
 7505SOL    HW233975   4.551   0.370  11.740  1.0056  2.9877  0.5002
 7506SOL     OW33976   2.642   3.054  16.639 -0.2788 -0.0613  0.0049
 7506SOL    HW133977   2.616   3.035  16.729  0.8229  1.5402  0.6517
 7506SOL    HW233978   2.593   3.136  16.632  0.5243  0.4526  0.3506
 7507SOL     OW33979   0.100   0.806  16.247 -0.2274  0.1961  0.1608
 7507SOL    HW133980   0.077   0.783  16.157 -2.5305  2.4857  0.1790
 7507SOL    HW233981   0.111   0.722  16.292 -2.1034  0.4213  1.0675
 7508SOL     OW33982   2.596   0.001  15.306 -0.5525  0.4041  0.2045
 7508SOL    HW133983   2.656   4.693  15.237  0.8672 -1.1539  2.1010
 7508SOL    HW233984   2.558   0.078  15.263  0.4865 -0.2993 -1.9950
 7509SOL     OW33985   1.660   4.650   8.008 -0.2059 -0.0625  0.0036
 7509SOL    HW133986   1.701   4.602   7.936  1.0903  1.3107 -0.1804
 7509SOL    HW233987   1.655   4.586   8.079 -1.9646 -0.0570 -0.1107
 7510SOL     OW33988   3.512   3.257   3.896 -0.2165 -0.7940 -0.6403
 7510SOL    HW133989   3.490   3.314   3.822  2.0749 -0.5458 -1.1198
 7510SOL    HW233990   3.439   3.196   3.890 -0.5408 -0.3767 -0.9425
 7511SOL     OW33991   1.251   4.278  17.575 -0.3195  0.1519  0.4241
 7511SOL    HW133992   1.253   4.251  17.484  1.0935  2.6104 -0.2807
 7511SOL    HW233993   1.180   4.220  17.602  1.9790 -2.0596  1.6957
 7512SOL     OW33994   0.086   0.689   0.587 -0.2304  0.5573 -0.1045
 7512SOL    HW133995   0.092   0.613   0.646 -0.1409  0.9223  0.3510
 7512SOL    HW233996   4.713   0.696   0.571 -0.0335  3.5060  0.0894
 7513SOL     OW33997   2.970   1.732  17.557 -0.0280  0.2287  0.0752
 7513SOL    HW133998   2.903   1.748  17.490 -0.1328  2.9242  0.8338
 7513SOL    HW233999   3.049   1.741  17.504 -2.4751  0.8986 -3.5066
 7514SOL     OW34000   4.644   0.105  14.562  0.4081 -0.2315 -0.1655
 7514SOL    HW134001   4.702   0.028  14.561 -0.8105 -1.1648  1.7653
 7514SOL    HW234002   4.573   0.069  14.508 -0.1726  2.2892 -1.0891
 7515SOL     OW34003   3.814   2.696  15.752  0.3827  0.2050 -0.3290
 7515SOL    HW134004   3.789   2.751  15.826  0.4100  1.7496 -1.4543
 7515SOL    HW234005   3.908   2.680  15.764 -0.6366 -3.4645  2.4517
 7516SOL     OW34006   1.976   0.654   7.921  0.7243  0.2035  0.0542
 7516SOL    HW134007   2.071   0.642   7.931  0.5229  1.4159  3.4265
 7516SOL    HW234008   1.946   0.564   7.932  0.5902  0.1527 -0.7561
 7517SOL     OW34009   0.784   1.364   2.485 -0.5865  0.2235 -0.0679
 7517SOL    HW134010   0.780   1.312   2.405 -0.4312  0.2095 -0.0661
 7517SOL    HW234011   0.769   1.453   2.452 -3.0098  0.0803  0.6117
 7518SOL     OW34012   0.697   2.041  12.115  0.1888  0.4716 -0.3381
 7518SOL    HW134013   0.719   2.128  12.084 -1.0226  1.2576  1.0432
 7518SOL    HW234014   0.783   1.999  12.124 -0.2754 -0.4780 -0.2465
 7519SOL     OW34015   3.888   3.434   4.470 -0.3527  0.8284 -0.2904
 7519SOL    HW134016   3.807   3.412   4.425  0.8627 -0.4136 -1.8797
 7519SOL    HW234017   3.881   3.527   4.446 -2.2828  0.3760 -1.5024
 7520SOL     OW34018   3.260   4.247   7.729 -0.0930  0.1557  0.5444
 7520SOL    HW134019   3.251   4.163   7.684  2.7756  0.1045  0.1234
 7520SOL    HW234020   3.204   4.243   7.807 -0.2875  2.7509  0.5347
 7521SOL     OW34021   3.036   0.685  13.011  0.1518  0.2209 -0.1690
 7521SOL    HW134022   3.058   0.618  12.946 -2.1812 -0.3036 -0.4220
 7521SOL    HW234023   2.997   0.744  12.946 -1.6970  0.8111  1.4877
 7522SOL     OW34024   3.987   2.315   8.343 -0.4310  0.2255 -0.1799
 7522SOL    HW134025   3.932   2.251   8.389  0.5133  0.1674  0.8551
 7522SOL    HW234026   4.028   2.258   8.277  0.7640  1.2719 -0.3452
 7523SOL     OW34027   0.308   4.226   9.456 -0.5678 -0.0457  0.5859
 7523SOL    HW134028   0.402   4.235   9.439 -0.4278  0.1067  1.4543
 7523SOL    HW234029   0.300   4.321   9.463  4.0325  0.6771 -3.9077
 7524SOL     OW34030   4.616   3.082   8.839 -0.4197  0.1366 -0.6402
 7524SOL    HW134031   4.522   3.078   8.860 -0.0378  1.6024  1.3191
 7524SOL    HW234032   4.624   2.997   8.796  1.1778 -0.3729  0.6922
 7525SOL     OW34033   2.552   0.447   6.474  0.4928 -0.3379  0.0148
 7525SOL    HW134034   2.610   0.374   6.453  0.4376 -0.0279 -1.2479
 7525SOL    HW234035   2.472   0.411   6.438 -0.0385  0.7980  0.0490
 7526SOL     OW34036   0.426   0.051   7.944 -0.1021  0.5033 -0.7045
 7526SOL    HW134037   0.424   4.707   8.014 -1.4943 -0.1304 -1.3377
 7526SOL    HW234038   0.355   0.107   7.974 -0.3549 -1.2180  1.8917
 7527SOL     OW34039   0.470   4.023   4.752 -0.1523 -0.2434 -0.0260
 7527SOL    HW134040   0.495   4.113   4.731  1.4892 -0.9373 -1.0976
 7527SOL    HW234041   0.492   4.017   4.845 -1.7131  1.1144  0.4264
 7528SOL     OW34042   0.481   2.976  13.333 -0.2293 -0.2070  0.2335
 7528SOL    HW134043   0.492   3.007  13.243  0.0706  1.0154  0.6921
 7528SOL    HW234044   0.458   3.061  13.371  1.5367 -0.1915  1.2857
 7529SOL     OW34045   0.155   4.449   6.384  0.1791  0.2053  0.0410
 7529SOL    HW134046   0.212   4.513   6.341  0.6102  0.1945  0.5951
 7529SOL    HW234047   0.071   4.495   6.384  0.8366  1.3949 -1.7968
 7530SOL     OW34048   3.928   1.961   4.671  0.9957 -0.3868 -0.5288
 7530SOL    HW134049   3.911   2.015   4.748 -0.9619 -0.7915 -0.6703
 7530SOL    HW234050   3.903   1.875   4.704  0.6497  0.3726  1.1454
 7531SOL     OW34051   3.865   2.747   5.668  0.1051  0.2758 -0.5392
 7531SOL    HW134052   3.923   2.802   5.720 -0.6979 -0.2769  0.9502
 7531SOL    HW234053   3.926   2.719   5.600  1.1555  0.4688  0.3223
 7532SOL     OW34054   3.087   3.242   5.889 -0.4396 -0.0448  0.2620
 7532SOL    HW134055   3.124   3.182   5.825 -0.5761  2.2591 -1.9833
 7532SOL    HW234056   3.062   3.322   5.842  1.3756  1.5219  1.9499
 7533SOL     OW34057   2.380   1.690   3.184 -0.0338  0.3395  0.7161
 7533SOL    HW134058   2.381   1.777   3.222 -1.5719  0.5068  0.3406
 7533SOL    HW234059   2.289   1.663   3.183  0.2741 -0.6708 -0.4825
 7534SOL     OW34060   1.330   3.073  16.605  0.3857 -0.8153 -0.1397
 7534SOL    HW134061   1.322   3.158  16.562  1.6043 -0.4779  0.3043
 7534SOL    HW234062   1.390   3.027  16.546  1.4630  0.7748 -0.2658
 7535SOL     OW34063   1.816   2.005   7.227 -0.9395 -0.0479  0.1574
 7535SOL    HW134064   1.730   2.009   7.270 -0.9155 -0.9154  0.2716
 7535SOL    HW234065   1.866   1.991   7.307 -1.1544 -0.7029  0.1766
 7536SOL     OW34066   0.459   4.043   0.748  0.4478 -0.4586  0.2559
 7536SOL    HW134067   0.367   4.048   0.774  0.9618 -0.3095  1.9958
 7536SOL    HW234068   0.512   4.046   0.827 -1.4971  0.0343  1.5296
 7537SOL     OW34069   2.531   4.403   5.053 -0.2402 -0.2756 -0.5597
 7537SOL    HW134070   2.523   4.313   5.085 -0.5805  0.1652  0.5895
 7537SOL    HW234071   2.490   4.443   5.129 -1.0597 -1.0518 -0.5950
 7538SOL     OW34072   1.465   2.144   5.843 -0.1746  0.1891  0.8057
 7538SOL    HW134073   1.473   2.173   5.934 -0.1676  0.8825  0.5828
 7538SOL    HW234074   1.449   2.223   5.791 -2.7880  0.9487  2.8039
 7539SOL     OW34075   3.825   0.819   5.490  0.4722 -0.4749 -0.0838
 7539SOL    HW134076   3.880   0.756   5.442  0.7448  0.2059 -0.6655
 7539SOL    HW234077   3.766   0.833   5.417 -0.7396 -0.6721  0.8682
 7540SOL     OW34078   4.356   4.686   9.097 -0.0077 -0.1789 -0.0918
 7540SOL    HW134079   4.380   4.598   9.125  1.9771  0.0890 -0.9955
 7540SOL    HW234080   4.260   4.686   9.090  0.0394  1.5707 -0.5688
 7541SOL     OW34081   2.577   3.314  16.689 -0.2907  0.2574 -0.2281
 7541SOL    HW134082   2.601   3.308  16.782 -1.5965  1.7060  0.2133
 7541SOL    HW234083   2.544   3.404  16.682  1.5305  0.8129 -1.6338
 7542SOL     OW34084   4.151   3.107   9.609 -0.8340 -0.1339  0.8371
 7542SOL    HW134085   4.076   3.166   9.619 -0.7211 -0.1731  1.9594
 7542SOL    HW234086   4.155   3.062   9.694 -1.8474 -0.6086  0.6332
 7543SOL     OW34087   1.301   1.995   1.084 -0.2849  0.5118  0.4266
 7543SOL    HW134088   1.336   2.081   1.106  1.5001 -0.0419 -0.2481
 7543SOL    HW234089   1.361   1.940   1.134  0.2282  0.4868 -0.2243
 7544SOL     OW34090   3.708   3.464  17.496 -0.1900 -0.2943  0.1247
 7544SOL    HW134091   3.685   3.557  17.502 -1.4066 -0.4359 -2.1940
 7544SOL    HW234092   3.790   3.475  17.448  0.4856  0.2417  1.3873
 7545SOL     OW34093   0.380   3.536  12.988  0.5123 -0.1839  0.6806
 7545SOL    HW134094   0.352   3.445  12.990  0.8905 -0.3801 -2.0746
 7545SOL    HW234095   0.473   3.530  12.965  0.6497  1.1822  0.8547
 7546SOL     OW34096   0.788   3.412   5.909  0.0677 -0.7013 -0.1305
 7546SOL    HW134097   0.862   3.471   5.923 -0.5569 -0.5952  2.6273
 7546SOL    HW234098   0.806   3.378   5.821 -1.4922 -2.3718  0.1873
 7547SOL     OW34099   4.146   1.204   4.915 -0.4292 -0.1269 -0.0968
 7547SOL    HW134100   4.141   1.176   4.824  2.0273 -0.7707 -0.0280
 7547SOL    HW234101   4.088   1.281   4.918 -0.8486 -0.4872  1.2604
 7548SOL     OW34102   0.367   2.820   1.860 -0.2595  0.0996  0.7694
 7548SOL    HW134103   0.433   2.889   1.862 -0.0038 -0.1382  0.4726
 7548SOL    HW234104   0.385   2.769   1.938 -1.6402 -2.1930 -0.4193
 7549SOL     OW34105   2.325   4.252   4.528  0.3054 -0.0945 -0.3249
 7549SOL    HW134106   2.253   4.277   4.586  0.7939 -0.5634  0.4775
 7549SOL    HW234107   2.272   4.190   4.477  2.6614 -1.8579 -0.6472
 7550SOL     OW34108   1.874   2.333   1.675 -0.1521  0.1391 -0.0842
 7550SOL    HW134109   1.881   2.245   1.711  1.0626 -0.2749 -1.3181
 7550SOL    HW234110   1.961   2.361   1.704 -0.4106  0.5704  0.2807
 7551SOL     OW34111   0.303   3.993   5.084  0.0494 -0.2160 -0.2416
 7551SOL    HW134112   0.234   4.015   5.146 -0.0262 -2.1331  0.3426
 7551SOL    HW234113   0.312   3.904   5.118 -0.2367 -0.5848 -1.1263
 7552SOL     OW34114   0.916   4.187   0.981 -0.2506  0.2987  0.2293
 7552SOL    HW134115   0.976   4.151   1.046  1.3209 -0.6554 -1.7278
 7552SOL    HW234116   0.888   4.275   1.008 -1.2773 -0.2008  0.7826
 7553SOL     OW34117   0.296   1.034  10.591  0.1745  0.8372  0.1655
 7553SOL    HW134118   0.318   1.072  10.676 -1.2153  0.3791  0.7138
 7553SOL    HW234119   0.201   1.030  10.600 -0.1256  0.4707 -3.1143
 7554SOL     OW34120   4.475   0.817   6.553  0.0555  0.0963  0.6604
 7554SOL    HW134121   4.415   0.884   6.584 -0.2257  0.4360 -0.6297
 7554SOL    HW234122   4.417   0.778   6.487  1.2555 -0.0928 -0.2834
 7555SOL     OW34123   0.101   3.232  12.869 -0.6463 -0.0168 -0.5254
 7555SOL    HW134124   0.042   3.157  12.884 -0.2736 -0.2086 -0.0177
 7555SOL    HW234125   0.036   3.302  12.880 -1.1949 -0.6137  0.0528
 7556SOL     OW34126   1.344   1.044   7.260  0.5808 -0.3165 -0.0798
 7556SOL    HW134127   1.412   1.109   7.278  0.6632  0.0070 -1.6012
 7556SOL    HW234128   1.366   0.972   7.319 -1.7554  0.9645  2.3592
 7557SOL     OW34129   4.673   0.068   6.795  0.6296 -0.0726 -0.0656
 7557SOL    HW134130   4.596   0.109   6.835  1.1485 -1.4207  2.2915
 7557SOL    HW234131   4.689   0.135   6.728  1.1695  0.3478  0.4726
 7558SOL     OW34132   1.497   2.811   6.459 -0.3502 -0.3100  0.1211
 7558SOL    HW134133   1.547   2.829   6.379  0.2661 -0.8122  0.3984
 7558SOL    HW234134   1.463   2.724   6.438  1.3393 -1.3861  1.8529
 7559SOL     OW34135   3.803   2.529   2.798 -0.1319  0.2280 -0.0854
 7559SOL    HW134136   3.789   2.470   2.872  0.7990 -0.5286 -0.5186
 7559SOL    HW234137   3.811   2.477   2.719  2.3135  1.0277 -0.3558
 7560SOL     OW34138   0.875   0.818   6.802  0.5959 -0.1340  0.2351
 7560SOL    HW134139   0.970   0.820   6.790  0.4005  0.2335 -1.3055
 7560SOL    HW234140   0.853   0.903   6.841 -1.6218 -0.5564 -0.0919
 7561SOL     OW34141   3.415   2.050   7.049  0.8429  0.2227 -0.0968
 7561SOL    HW134142   3.426   2.111   6.976 -0.1946 -0.7316 -1.0452
 7561SOL    HW234143   3.342   2.084   7.100  0.5581 -1.1353  0.4107
 7562SOL     OW34144   2.866   3.274   1.339 -0.1476  0.2858  0.4363
 7562SOL    HW134145   2.860   3.299   1.247  0.5380  0.8365  0.5436
 7562SOL    HW234146   2.777   3.291   1.370 -0.4006 -1.7089  0.8241
 7563SOL     OW34147   2.452   0.319  14.372  0.1781 -0.2430  0.6151
 7563SOL    HW134148   2.409   0.404  14.358 -0.4471 -0.8985 -1.3709
 7563SOL    HW234149   2.501   0.336  14.452 -0.0075 -1.1072  0.9005
 7564SOL     OW34150   0.864   0.640  15.312  0.3318 -0.1266 -0.4205
 7564SOL    HW134151   0.927   0.602  15.373  1.1355  2.4632  0.3782
 7564SOL    HW234152   0.900   0.728  15.300  1.3692 -0.0927  3.0843
 7565SOL     OW34153   0.926   3.913  10.374 -0.0144 -0.2074 -0.6656
 7565SOL    HW134154   0.948   3.937  10.464  1.8308  0.0753 -1.1965
 7565SOL    HW234155   0.838   3.950  10.367 -0.0488  0.2833  2.6547
 7566SOL     OW34156   3.635   0.592   8.547  0.3479  0.5433  0.8032
 7566SOL    HW134157   3.702   0.655   8.521  0.4058 -0.2623 -0.9793
 7566SOL    HW234158   3.590   0.577   8.464  3.2560 -1.5611 -0.4003
 7567SOL     OW34159   2.346   3.494   6.205 -0.4006 -0.3067 -0.5121
 7567SOL    HW134160   2.401   3.421   6.231  0.8304  1.5218  1.9844
 7567SOL    HW234161   2.269   3.438   6.207  0.8221 -1.9078  0.8003
 7568SOL     OW34162   1.625   2.375   0.421  0.2153 -0.1073  0.4010
 7568SOL    HW134163   1.660   2.296   0.380  0.5121 -0.3534  1.1300
 7568SOL    HW234164   1.573   2.417   0.353  1.0403  0.4095  0.1039
 7569SOL     OW34165   2.002   0.805  12.798  0.1246 -0.2069 -0.0463
 7569SOL    HW134166   1.949   0.770  12.870  0.8886  1.8777  1.5158
 7569SOL    HW234167   1.953   0.782  12.719 -0.7659 -1.9667  0.9972
 7570SOL     OW34168   0.656   3.490   7.689  0.9280  1.1804 -0.0288
 7570SOL    HW134169   0.601   3.544   7.632 -1.4236 -0.9151  0.2622
 7570SOL    HW234170   0.725   3.460   7.630 -0.4948 -0.0639 -1.0679
 7571SOL     OW34171   0.357   4.467   4.571  0.1792 -0.1102 -0.1454
 7571SOL    HW134172   0.297   4.462   4.497 -0.2404 -1.3857  0.2839
 7571SOL    HW234173   0.318   4.541   4.619  0.2204 -0.3780  0.3017
 7572SOL     OW34174   3.111   3.005   1.438  0.6762  0.1214  0.5185
 7572SOL    HW134175   3.094   2.958   1.357  1.2900 -1.7037  1.4467
 7572SOL    HW234176   3.072   2.942   1.498 -2.1541  1.3822 -0.0051
 7573SOL     OW34177   3.089   3.988  16.767 -0.4054 -0.0772 -0.4679
 7573SOL    HW134178   3.124   3.977  16.679 -0.8638  1.0745 -0.7984
 7573SOL    HW234179   3.055   3.899  16.777 -0.5294 -0.0700 -0.8272
 7574SOL     OW34180   2.312   2.267   1.812  0.1247  0.1261  0.5422
 7574SOL    HW134181   2.262   2.307   1.741  1.6215 -0.1084 -0.6470
 7574SOL    HW234182   2.369   2.206   1.766  0.4224  0.9715 -0.2144
 7575SOL     OW34183   0.887   0.747   8.396 -0.5730 -0.4387 -0.2276
 7575SOL    HW134184   0.823   0.748   8.468  1.0902 -0.6811  1.2348
 7575SOL    HW234185   0.945   0.815   8.429  1.3460 -2.4533  0.5223
 7576SOL     OW34186   2.515   1.113   5.484 -0.3958 -0.1096  0.2176
 7576SOL    HW134187   2.489   1.093   5.394 -0.5104 -1.0213  0.4520
 7576SOL    HW234188   2.451   1.173   5.521  0.8268  1.4034 -0.1370
 7577SOL     OW34189   1.188   3.940  10.864  0.6824  0.9739  0.1536
 7577SOL    HW134190   1.167   3.905  10.950 -0.0809 -3.1462 -1.7015
 7577SOL    HW234191   1.249   3.875  10.830 -0.7963 -0.0699 -0.4886
 7578SOL     OW34192   1.390   2.833   1.641  0.2554 -0.2772  0.0992
 7578SOL    HW134193   1.313   2.778   1.626  0.8253 -0.8290 -0.7795
 7578SOL    HW234194   1.445   2.760   1.669 -2.0122 -2.1053 -0.1530
 7579SOL     OW34195   4.645   3.964  11.814 -0.1116  0.3749 -0.2215
 7579SOL    HW134196   0.004   3.991  11.770  1.0373  1.5456  2.6754
 7579SOL    HW234197   4.684   3.898  11.871 -0.1255  1.1399  0.6511
 7580SOL     OW34198   1.614   3.926   3.902  0.2133  0.3220  0.4798
 7580SOL    HW134199   1.569   3.878   3.971  0.0393 -0.3171 -0.0799
 7580SOL    HW234200   1.620   3.859   3.834 -2.1981 -0.4328  1.0470
 7581SOL     OW34201   0.860   0.589   2.773  0.0107 -0.1012  0.3541
 7581SOL    HW134202   0.821   0.544   2.848  1.0430  1.2915  1.7318
 7581SOL    HW234203   0.881   0.675   2.811 -1.3593 -0.2486  1.4659
 7582SOL     OW34204   3.199   4.070  14.239 -0.2429  0.2243 -1.1101
 7582SOL    HW134205   3.151   4.123  14.302  0.8031 -0.1176 -0.0066
 7582SOL    HW234206   3.284   4.059  14.283 -1.6854 -1.3160  1.3285
 7583SOL     OW34207   3.437   3.958   6.468 -0.5476  0.0716  0.4840
 7583SOL    HW134208   3.458   4.045   6.435  2.4293 -0.2057  1.6066
 7583SOL    HW234209   3.357   3.973   6.518 -0.3675  0.1726  0.7417
 7584SOL     OW34210   3.360   0.756   8.344  0.7470 -0.4563 -0.5518
 7584SOL    HW134211   3.444   0.770   8.299  2.2921 -0.9939  2.1467
 7584SOL    HW234212   3.377   0.800   8.427  1.5718 -1.1348 -0.3571
 7585SOL     OW34213   3.235   2.526   5.050  0.2883  0.1183  0.2446
 7585SOL    HW134214   3.163   2.466   5.066 -1.3121  1.9832  0.0727
 7585SOL    HW234215   3.186   2.603   5.022  0.2049  0.2811  0.8614
 7586SOL     OW34216   2.203   3.885   3.358  0.3786 -0.9889  0.0798
 7586SOL    HW134217   2.137   3.837   3.308  2.9619 -4.1276 -0.3244
 7586SOL    HW234218   2.154   3.914   3.435 -0.3693 -1.6223 -0.1509
 7587SOL     OW34219   0.662   2.501   2.414  0.0752 -0.3120  0.4930
 7587SOL    HW134220   0.750   2.504   2.452 -0.2514 -0.2829  1.2559
 7587SOL    HW234221   0.616   2.433   2.463 -1.0930 -1.8810 -2.7763
 7588SOL     OW34222   2.455   3.898   4.933 -0.6327  0.8630  0.7708
 7588SOL    HW134223   2.505   3.973   4.964  1.0944 -1.1528  2.9194
 7588SOL    HW234224   2.421   3.930   4.849  2.8002  1.0285 -0.5632
 7589SOL     OW34225   4.389   3.503   4.417 -0.4830 -0.5558  0.4657
 7589SOL    HW134226   4.315   3.448   4.440 -0.2032 -0.6917  1.0489
 7589SOL    HW234227   4.346   3.587   4.403  0.0198 -0.2950  0.4850
 7590SOL     OW34228   1.661   2.296   7.032 -0.2726 -0.7690  0.1321
 7590SOL    HW134229   1.734   2.346   6.997  0.3504 -0.5611  1.6970
 7590SOL    HW234230   1.684   2.285   7.125  0.3619 -1.8663 -0.1511
 7591SOL     OW34231   2.531   3.149   7.734  0.1465  0.5345  0.6147
 7591SOL    HW134232   2.486   3.067   7.752  0.1961 -0.3472 -3.3584
 7591SOL    HW234233   2.610   3.129   7.784 -0.7486  1.3486  2.3551
 7592SOL     OW34234   3.778   1.180   5.335 -0.3154  0.5299 -0.4692
 7592SOL    HW134235   3.791   1.148   5.246  1.7845 -0.4208  0.1833
 7592SOL    HW234236   3.682   1.184   5.339 -0.3832 -2.9727  1.0939
 7593SOL     OW34237   3.474   0.759   0.528  0.2136 -0.0329  0.0280
 7593SOL    HW134238   3.408   0.732   0.591 -0.3802  0.5858 -0.3283
 7593SOL    HW234239   3.446   0.848   0.506 -2.5187 -0.7973  0.3721
 7594SOL     OW34240   2.338   3.355   7.784  0.1051  0.2927  0.3771
 7594SOL    HW134241   2.387   3.278   7.754  2.1240  1.7149  0.0519
 7594SOL    HW234242   2.333   3.412   7.708  1.2664  0.5340  0.4860
 7595SOL     OW34243   1.011   0.807   3.884 -0.1086  0.7632 -0.0221
 7595SOL    HW134244   1.057   0.889   3.868 -3.0195  2.2819 -0.6940
 7595SOL    HW234245   1.067   0.758   3.945  2.1155  2.0547 -1.0250
 7596SOL     OW34246   2.758   2.102   6.028 -0.9799 -0.4811 -0.0398
 7596SOL    HW134247   2.665   2.110   6.050 -0.9676 -0.0219 -0.1546
 7596SOL    HW234248   2.785   2.189   5.999  1.3205 -1.8632 -1.9904
 7597SOL     OW34249   3.228   4.601  14.131 -0.2046  0.0553 -0.2066
 7597SOL    HW134250   3.283   4.540  14.083  0.3374  1.2217 -1.0770
 7597SOL    HW234251   3.144   4.555  14.128 -0.6293  0.8686 -1.0077
 7598SOL     OW34252   1.503   1.173   6.068 -0.7198  0.0699 -0.7424
 7598SOL    HW134253   1.430   1.153   6.128  0.7380  1.0759  1.3714
 7598SOL    HW234254   1.495   1.268   6.062 -1.7592  0.1863  2.1838
 7599SOL     OW34255   0.228   3.893   9.742  0.0849  0.0363  0.1688
 7599SOL    HW134256   0.147   3.880   9.692  0.9127  0.6551 -1.2981
 7599SOL    HW234257   0.199   3.868   9.830  2.1006  0.1243  0.8613
 7600SOL     OW34258   4.567   2.032  17.063  0.4526 -0.4229  0.2015
 7600SOL    HW134259   4.532   1.946  17.084  1.8092 -1.0880 -0.2729
 7600SOL    HW234260   4.484   2.079  17.060 -0.4338 -2.1379 -1.7434
 7601SOL     OW34261   2.505   0.335  16.443  0.6557 -0.6890 -0.0212
 7601SOL    HW134262   2.579   0.385  16.411  0.4626 -0.9733 -0.9038
 7601SOL    HW234263   2.502   0.263  16.380 -0.2151 -0.9053  0.2648
 7602SOL     OW34264   4.070   3.756   7.254  0.1613 -0.1136  0.0997
 7602SOL    HW134265   3.988   3.718   7.224  0.4407  0.0691 -0.8859
 7602SOL    HW234266   4.111   3.805   7.183 -3.4228  2.5958 -0.0532
 7603SOL     OW34267   0.201   1.013   7.375 -0.1456  0.1817  0.0173
 7603SOL    HW134268   0.200   0.932   7.325 -0.5084 -0.1466  0.5543
 7603SOL    HW234269   0.243   1.067   7.308 -1.1695 -0.5164 -1.1910
 7604SOL     OW34270   1.523   0.094  15.224 -0.3970 -0.0655  0.3771
 7604SOL    HW134271   1.523   0.189  15.239  1.5544 -0.2555  1.5967
 7604SOL    HW234272   1.429   0.074  15.222 -0.1390 -1.0544 -1.1959
 7605SOL     OW34273   0.343   3.809  16.677 -0.4007 -0.5095  0.0716
 7605SOL    HW134274   0.381   3.738  16.728 -0.0822 -0.1157  0.3805
 7605SOL    HW234275   0.403   3.823  16.603  0.1007 -0.4541  0.4916
 7606SOL     OW34276   3.765   1.089   7.873  0.3072 -0.6337  0.2525
 7606SOL    HW134277   3.672   1.098   7.851  0.0581 -1.3982  0.9888
 7606SOL    HW234278   3.802   1.055   7.792 -0.3579  0.6466 -0.5876
 7607SOL     OW34279   3.386   0.127  16.425  0.8446  0.2344  0.2349
 7607SOL    HW134280   3.303   0.164  16.394 -0.3095 -2.5313  0.0024
 7607SOL    HW234281   3.371   0.084  16.509  1.7669 -1.2506 -0.3462
 7608SOL     OW34282   2.901   3.697   7.764 -1.1727 -0.3880  0.4722
 7608SOL    HW134283   2.988   3.702   7.724 -0.9573  0.6122  1.0694
 7608SOL    HW234284   2.869   3.779   7.726  0.7743  0.1103 -0.1206
 7609SOL     OW34285   4.093   0.202  15.015 -0.1437 -0.2987  0.1502
 7609SOL    HW134286   4.146   0.234  15.089  3.0767 -2.8061 -1.0762
 7609SOL    HW234287   4.024   0.146  15.050 -0.4450 -0.9753 -1.5345
 7610SOL     OW34288   0.826   1.728  15.601 -0.5900  0.0685 -0.4278
 7610SOL    HW134289   0.759   1.771  15.654 -1.3486 -0.5794 -0.8491
 7610SOL    HW234290   0.895   1.792  15.618 -3.1996  2.9530 -0.8330
 7611SOL     OW34291   1.054   1.749  17.529  0.0764  0.5104 -0.5253
 7611SOL    HW134292   1.125   1.761  17.592  1.2486 -1.5509 -1.4209
 7611SOL    HW234293   0.986   1.762  17.595  1.1140 -2.3713  1.1214
 7612SOL     OW34294   4.637   4.173   9.060 -0.5145 -0.5000  0.1069
 7612SOL    HW134295   4.682   4.239   9.007 -0.0929 -0.2665  0.7526
 7612SOL    HW234296   4.702   4.156   9.129 -2.0768  0.3410  1.7612
 7613SOL     OW34297   2.490   0.168   9.831 -0.2454  0.2360 -0.0470
 7613SOL    HW134298   2.551   0.240   9.844  0.2675 -0.3413  0.7251
 7613SOL    HW234299   2.472   0.172   9.737 -1.2465 -0.5750  0.1065
 7614SOL     OW34300   1.631   1.972  13.732 -0.3430  0.8477 -0.2761
 7614SOL    HW134301   1.692   2.012  13.671  0.3775 -0.3190 -0.3288
 7614SOL    HW234302   1.546   1.973  13.688 -0.4084 -1.1441 -0.2050
 7615SOL     OW34303   1.437   2.542  10.444 -0.8250 -0.5605  0.4338
 7615SOL    HW134304   1.380   2.466  10.429  1.2363 -1.6621 -1.8647
 7615SOL    HW234305   1.445   2.554  10.538 -2.4193  2.1971  0.2219
 7616SOL     OW34306   0.893   4.402   6.593 -0.0381 -0.0555  0.1241
 7616SOL    HW134307   0.916   4.436   6.680 -1.9486 -2.2892  1.4915
 7616SOL    HW234308   0.858   4.478   6.547 -2.2832 -1.2363 -0.0996
 7617SOL     OW34309   2.609   0.745   3.653  0.0602 -0.0848 -0.3140
 7617SOL    HW134310   2.573   0.660   3.624 -0.1781 -0.2985  0.6251
 7617SOL    HW234311   2.570   0.740   3.740 -1.2747 -0.4289 -0.9375
 7618SOL     OW34312   1.562   2.591   7.017  0.0926 -0.0185  0.4929
 7618SOL    HW134313   1.526   2.662   6.965  2.0080 -0.6187 -1.6209
 7618SOL    HW234314   1.630   2.559   6.958  0.1464 -2.0861  1.6811
 7619SOL     OW34315   4.459   0.594   1.389  0.0886 -0.5814  0.0006
 7619SOL    HW134316   4.431   0.673   1.436  0.4860  0.1033 -0.9285
 7619SOL    HW234317   4.376   0.551   1.367 -0.9745  0.5077  1.8140
 7620SOL     OW34318   1.362   0.044   1.420 -0.4734  0.4353  0.1026
 7620SOL    HW134319   1.387   4.695   1.360 -1.6988 -0.0550  0.1693
 7620SOL    HW234320   1.298   0.008   1.483 -0.4689  0.1353 -0.0637
 7621SOL     OW34321   1.985   2.275   7.055 -0.5907 -0.6075 -0.0241
 7621SOL    HW134322   1.992   2.224   6.974  0.2553  2.5546 -1.9420
 7621SOL    HW234323   1.943   2.354   7.021  0.6134 -0.5024 -1.2816
 7622SOL     OW34324   1.226   1.332   6.457 -0.0732  0.1313  0.2952
 7622SOL    HW134325   1.209   1.407   6.400  2.3547  0.3925 -0.0730
 7622SOL    HW234326   1.260   1.373   6.537  2.7402 -0.4184 -0.6157
 7623SOL     OW34327   4.501   1.233  14.406 -0.0621 -1.0550 -0.0360
 7623SOL    HW134328   4.587   1.219  14.366 -0.8660 -0.3608 -2.0011
 7623SOL    HW234329   4.451   1.259  14.328  0.5045 -0.6727 -0.2676
 7624SOL     OW34330   4.343   2.809   8.654 -0.4893  0.6827  0.1882
 7624SOL    HW134331   4.334   2.864   8.732 -1.0366  1.7109 -0.5960
 7624SOL    HW234332   4.373   2.728   8.694  1.1526  0.2327 -1.9502
 7625SOL     OW34333   4.085   0.386   2.322 -0.3416 -0.5701  0.0694
 7625SOL    HW134334   4.084   0.411   2.230 -0.3032 -0.0179  0.2171
 7625SOL    HW234335   3.991   0.372   2.337 -0.5186  0.7986  0.2848
 7626SOL     OW34336   2.793   3.146  13.042 -0.2186  0.3514  0.9359
 7626SOL    HW134337   2.799   3.097  13.123 -2.2383  2.0042  2.1011
 7626SOL    HW234338   2.787   3.078  12.975  0.2038  0.9666  0.2727
 7627SOL     OW34339   4.184   2.896   1.354 -0.2086 -0.2589  0.4481
 7627SOL    HW134340   4.269   2.890   1.397 -0.1749 -2.0247  0.1264
 7627SOL    HW234341   4.125   2.872   1.425 -1.8086  1.0097 -0.4532
 7628SOL     OW34342   3.333   0.164   4.487  0.2975  0.5049 -0.6095
 7628SOL    HW134343   3.357   0.116   4.408 -1.6583 -2.7482  0.7447
 7628SOL    HW234344   3.392   0.123   4.551  0.8738 -0.2062 -1.5911
 7629SOL     OW34345   3.957   3.770   0.078 -0.3180  0.3650  0.1356
 7629SOL    HW134346   3.957   3.795  17.674  0.5279 -1.1592 -0.2693
 7629SOL    HW234347   3.955   3.859   0.113  2.0118  0.4005  0.1882
 7630SOL     OW34348   2.568   3.245  14.854  0.2249 -0.1147 -0.4784
 7630SOL    HW134349   2.541   3.337  14.850  3.0905  0.8039  1.6180
 7630SOL    HW234350   2.486   3.203  14.825 -0.4057  0.5832  0.2932
 7631SOL     OW34351   0.812   0.542   4.763 -0.5329  0.0318 -0.2007
 7631SOL    HW134352   0.861   0.461   4.777 -3.5246 -2.0044 -1.6388
 7631SOL    HW234353   0.873   0.607   4.799  1.2379 -0.8450 -1.6171
 7632SOL     OW34354   3.982   1.895  16.766 -0.2017  0.0821  0.3192
 7632SOL    HW134355   3.906   1.919  16.819 -1.2563  2.7436 -2.3441
 7632SOL    HW234356   3.946   1.871  16.681  0.5513  1.2949 -0.3494
 7633SOL     OW34357   4.287   3.041  14.697 -0.7308  0.8325 -0.4082
 7633SOL    HW134358   4.256   2.955  14.727 -0.6798  0.3014 -1.8607
 7633SOL    HW234359   4.219   3.068  14.635 -0.9341  1.5126  0.1159
 7634SOL     OW34360   4.590   0.441   8.328  0.5191  0.8008 -0.2825
 7634SOL    HW134361   4.554   0.483   8.406  0.8007 -0.3441  0.4642
 7634SOL    HW234362   4.515   0.412   8.276  0.4562 -0.4876  0.5330
 7635SOL     OW34363   1.410   0.993   2.970 -0.6205  0.5243  0.0141
 7635SOL    HW134364   1.365   0.988   3.054  0.3519  0.9855  0.5718
 7635SOL    HW234365   1.349   0.937   2.923 -0.1439  0.0435 -0.0346
 7636SOL     OW34366   1.902   1.121   4.379 -0.4173  0.2474  0.4581
 7636SOL    HW134367   1.849   1.064   4.322  1.6873  0.2256 -1.4782
 7636SOL    HW234368   1.973   1.061   4.401  0.0632  1.0383  1.0463
 7637SOL     OW34369   4.435   2.881   8.423  0.1988 -0.1330  0.2302
 7637SOL    HW134370   4.417   2.859   8.514  1.7268 -0.8489  0.3665
 7637SOL    HW234371   4.503   2.948   8.427 -0.9873  1.2584 -2.8826
 7638SOL     OW34372   3.768   4.178   4.055 -0.0552  0.4845  0.2395
 7638SOL    HW134373   3.844   4.120   4.046 -1.0625 -0.9864  1.2498
 7638SOL    HW234374   3.802   4.255   4.100 -2.2166  0.2664  2.2357
 7639SOL     OW34375   1.660   1.606   6.036  0.1281  0.1288  0.6822
 7639SOL    HW134376   1.628   1.576   6.121 -1.9097  1.6547  0.4500
 7639SOL    HW234377   1.637   1.538   5.972  0.6403  1.0089 -0.4410
 7640SOL     OW34378   4.205   4.313   9.298 -0.5998 -0.8899 -0.4818
 7640SOL    HW134379   4.293   4.284   9.276  0.1858 -0.3115  1.8351
 7640SOL    HW234380   4.230   4.370   9.372 -0.6134 -0.6506 -0.6603
 7641SOL     OW34381   2.851   2.014  17.514  0.5247  0.0770  0.1057
 7641SOL    HW134382   2.759   2.013  17.541 -0.6934 -2.4298 -4.1705
 7641SOL    HW234383   2.885   1.966  17.589 -1.7070 -2.2443 -0.3630
 7642SOL     OW34384   1.719   4.201   3.861  0.2247 -0.4845 -0.0116
 7642SOL    HW134385   1.805   4.174   3.830  1.6365  3.2280  0.6967
 7642SOL    HW234386   1.672   4.124   3.829 -1.4096  0.6506 -0.3635
 7643SOL     OW34387   3.896   4.526   0.050  0.0169 -0.2847  0.2271
 7643SOL    HW134388   3.982   4.561   0.028  0.2247 -0.7854  0.2536
 7643SOL    HW234389   3.835   4.577  17.684  0.8839 -1.3783 -1.7560
 7644SOL     OW34390   2.390   2.387   0.092  0.1472  0.8360 -0.1335
 7644SOL    HW134391   2.304   2.428   0.100 -0.3168 -0.4061  1.2450
 7644SOL    HW234392   2.434   2.412   0.173  0.7701  1.7722 -0.7659
 7645SOL     OW34393   1.935   0.082   3.647  0.5523 -0.0628  0.5646
 7645SOL    HW134394   1.933   0.114   3.737 -1.2558  1.7275 -0.1240
 7645SOL    HW234395   2.020   0.038   3.634  0.5154  0.6018 -1.8515
 7646SOL     OW34396   3.023   3.781   7.071  0.3530  0.3950  0.4576
 7646SOL    HW134397   3.083   3.755   7.141  0.2694 -0.9697  0.0233
 7646SOL    HW234398   2.989   3.867   7.093  1.3139  1.2175 -1.3181
 7647SOL     OW34399   0.513   4.692   3.952  0.0075 -0.0852 -0.0923
 7647SOL    HW134400   0.496   4.697   4.046  1.0838  1.2344  0.0372
 7647SOL    HW234401   0.606   4.669   3.947 -0.3625 -1.7501  1.0885
 7648SOL     OW34402   3.010   4.092   7.116 -0.4160 -0.1900  0.4362
 7648SOL    HW134403   3.006   4.187   7.105 -0.0225 -0.3862 -1.4093
 7648SOL    HW234404   3.076   4.099   7.184 -0.0320 -0.8826  0.1415
 7649SOL     OW34405   1.727   3.788   1.353  0.4346  0.1713  0.0537
 7649SOL    HW134406   1.674   3.717   1.391  1.1366 -0.7791 -0.7544
 7649SOL    HW234407   1.724   3.860   1.416 -0.6289  1.4432 -1.4409
 7650SOL     OW34408   3.808   4.270   6.797  0.0248 -0.2732  0.0575
 7650SOL    HW134409   3.897   4.240   6.814  0.3139 -0.8454 -2.3900
 7650SOL    HW234410   3.753   4.204   6.840 -2.0225  1.7946  0.6613
 7651SOL     OW34411   0.836   4.123   9.259 -0.0479 -0.4705 -0.3342
 7651SOL    HW134412   0.743   4.121   9.282 -0.8467 -1.2221 -3.6394
 7651SOL    HW234413   0.841   4.191   9.191 -0.3553  0.4176  0.5368
 7652SOL     OW34414   2.923   2.469   0.585  0.0789  0.2363 -0.2971
 7652SOL    HW134415   3.011   2.450   0.619  0.1971  3.0987  1.0368
 7652SOL    HW234416   2.944   2.487   0.493  0.8249  0.5973 -0.0559
 7653SOL     OW34417   3.406   1.646   9.192 -0.0204  0.4037 -0.2208
 7653SOL    HW134418   3.460   1.720   9.163 -0.0991  0.0587 -1.2690
 7653SOL    HW234419   3.463   1.610   9.260  1.0897  1.0998 -0.7763
 7654SOL     OW34420   1.752   2.225  14.681  0.0340 -0.3566 -0.0204
 7654SOL    HW134421   1.698   2.228  14.602  0.1902  2.0815 -0.0498
 7654SOL    HW234422   1.838   2.195  14.652  0.1938 -1.3095  1.4371
 7655SOL     OW34423   1.994   1.001  15.899  0.1370 -0.1642 -0.2090
 7655SOL    HW134424   1.937   1.003  15.976  0.7105 -0.5833  0.2179
 7655SOL    HW234425   2.074   0.958  15.929  1.5311  2.7647  0.2643
 7656SOL     OW34426   2.304   0.887   8.258  0.1047  0.2023 -0.3716
 7656SOL    HW134427   2.324   0.805   8.304  2.3297  0.0766 -1.5489
 7656SOL    HW234428   2.281   0.946   8.330  1.6535 -0.9413  1.0723
 7657SOL     OW34429   3.325   0.745  14.540 -0.0318  0.0140 -0.1617
 7657SOL    HW134430   3.392   0.807  14.513  1.1804 -1.5865 -0.8328
 7657SOL    HW234431   3.369   0.705  14.615 -0.1768 -0.9729 -0.6106
 7658SOL     OW34432   3.943   0.151  11.380  0.7410 -0.0168  0.0017
 7658SOL    HW134433   3.931   0.225  11.320 -0.7779  0.8933  1.4199
 7658SOL    HW234434   3.996   0.199  11.444  1.4235  1.0218 -1.3511
 7659SOL     OW34435   3.395   0.719   4.929 -0.3832 -0.0668  0.2616
 7659SOL    HW134436   3.417   0.720   4.836 -2.0096  0.2490 -0.1099
 7659SOL    HW234437   3.302   0.701   4.915 -0.7281  2.2888 -0.3595
 7660SOL     OW34438   3.509   0.484   2.193 -0.1372  0.2750 -0.0560
 7660SOL    HW134439   3.445   0.511   2.127 -0.0637  1.0092  0.1805
 7660SOL    HW234440   3.455   0.476   2.272 -1.4684  1.2137 -0.8762
 7661SOL     OW34441   2.121   4.274   2.989 -0.1399 -0.1646 -0.1685
 7661SOL    HW134442   2.048   4.324   2.955  0.3605  1.1354  0.6774
 7661SOL    HW234443   2.176   4.266   2.911 -0.1167  0.2807 -0.1982
 7662SOL     OW34444   3.133   4.020   5.591  0.5341 -0.0409  0.5335
 7662SOL    HW134445   3.128   3.975   5.675 -0.8675  0.3926  0.6868
 7662SOL    HW234446   3.219   3.989   5.564  1.4917  1.3599  2.0191
 7663SOL     OW34447   2.318   3.783  14.390  0.6309 -0.1556  0.2969
 7663SOL    HW134448   2.270   3.712  14.431 -0.1783  2.1561  3.2942
 7663SOL    HW234449   2.296   3.853  14.451  1.2286  0.1706  0.1449
 7664SOL     OW34450   0.135   2.456   8.770  0.1925  0.1262 -0.3563
 7664SOL    HW134451   0.047   2.420   8.757  0.5282 -0.9275  0.3412
 7664SOL    HW234452   0.185   2.377   8.750  0.0372 -0.4761  1.6875
 7665SOL     OW34453   0.961   1.431   4.008  0.1074 -0.0881  0.1068
 7665SOL    HW134454   1.049   1.464   3.988 -0.3228  0.2469 -1.2763
 7665SOL    HW234455   0.958   1.366   3.937  2.7004 -1.5193  1.2961
 7666SOL     OW34456   2.881   1.904   6.350 -0.5970  0.2706 -0.0420
 7666SOL    HW134457   2.786   1.910   6.343 -1.0609 -2.9175  3.8022
 7666SOL    HW234458   2.899   1.910   6.256  0.3291  0.3493  0.1410
 7667SOL     OW34459   2.970   1.524   6.343 -0.0989  0.3921 -0.7503
 7667SOL    HW134460   2.966   1.592   6.410  0.5224 -1.0111  0.7150
 7667SOL    HW234461   2.902   1.554   6.282  0.0629  1.5344 -0.3645
 7668SOL     OW34462   4.665   3.118   9.649 -0.1980 -0.3626 -0.2317
 7668SOL    HW134463   4.720   3.091   9.576 -0.2882 -1.1866  0.0035
 7668SOL    HW234464   0.011   3.162   9.701 -0.3230 -0.2638 -0.1525
 7669SOL     OW34465   0.119   3.747   9.976 -0.0771  0.4035 -0.0998
 7669SOL    HW134466   0.155   3.680  10.035  0.9302 -0.5218 -1.7589
 7669SOL    HW234467   0.029   3.716   9.980 -0.4974  1.6829  0.3308
 7670SOL     OW34468   1.746   2.817  11.978 -0.0199  0.0874  0.1088
 7670SOL    HW134469   1.759   2.802  11.884  0.4544 -0.2571  0.2276
 7670SOL    HW234470   1.837   2.830  12.003 -0.2597  0.1724  0.9277
 7671SOL     OW34471   0.947   0.074  14.863 -0.1313 -0.5103 -0.3254
 7671SOL    HW134472   0.974   0.133  14.793 -2.7391  0.7403 -0.2761
 7671SOL    HW234473   1.019   0.079  14.926  1.3749 -0.1831 -2.0699
 7672SOL     OW34474   2.428   0.245   2.205  0.3358  0.2675  0.3320
 7672SOL    HW134475   2.485   0.181   2.163 -0.8251 -1.4292  1.3289
 7672SOL    HW234476   2.385   0.200   2.278  0.5337  0.0963  0.3414
 7673SOL     OW34477   2.201   2.691  11.160  0.1873 -0.1582  0.4285
 7673SOL    HW134478   2.256   2.625  11.118 -2.6401 -1.7264 -0.8504
 7673SOL    HW234479   2.255   2.769  11.155  0.2497 -0.2654 -0.6040
 7674SOL     OW34480   0.128   3.357   5.693 -0.3099  0.1871  0.3938
 7674SOL    HW134481   0.143   3.315   5.778 -0.1144 -1.7282 -0.5865
 7674SOL    HW234482   0.175   3.301   5.632 -0.9919 -0.0047  0.0456
 7675SOL     OW34483   3.614   3.203   8.387 -0.4406 -0.3866 -0.0571
 7675SOL    HW134484   3.618   3.126   8.330 -2.6622 -1.1693  0.8454
 7675SOL    HW234485   3.647   3.162   8.467 -2.2098  0.6344  1.1977
 7676SOL     OW34486   0.322   4.579   9.846  0.1969  0.1326  0.4231
 7676SOL    HW134487   0.364   4.563   9.762 -1.1116  1.9044 -0.5610
 7676SOL    HW234488   0.397   4.575   9.905  0.1165  0.9068  0.5692
 7677SOL     OW34489   0.567   0.635   7.322  0.3494 -0.5457 -0.1575
 7677SOL    HW134490   0.494   0.572   7.321 -0.6897  0.6690 -2.2644
 7677SOL    HW234491   0.613   0.579   7.384 -0.0340 -0.6445  0.0355
 7678SOL     OW34492   0.455   0.268  10.934 -0.6458  0.1224  0.1405
 7678SOL    HW134493   0.401   0.347  10.942 -2.1140 -1.0391  1.9406
 7678SOL    HW234494   0.404   0.201  10.980 -0.0337  0.7047  1.6481
 7679SOL     OW34495   0.003   3.046   3.196  0.3533  0.3092  0.0518
 7679SOL    HW134496   0.068   3.014   3.258  1.0680  0.6261 -0.5330
 7679SOL    HW234497   4.652   3.066   3.256  0.6655  0.7933  0.2706
 7680SOL     OW34498   4.130   4.547   0.277  0.3701  0.5713 -0.1306
 7680SOL    HW134499   4.175   4.478   0.228 -3.3489 -1.4943 -0.6767
 7680SOL    HW234500   4.159   4.524   0.365  0.9124 -2.3482 -1.0486
 7681SOL     OW34501   0.260   2.318   4.638  0.1931  0.1075  0.0235
 7681SOL    HW134502   0.321   2.340   4.709  0.0175 -1.2898  0.5909
 7681SOL    HW234503   0.179   2.348   4.679  0.5755 -0.9558  1.5417
 7682SOL     OW34504   2.335   4.505   6.954  0.3816 -0.5887  0.5827
 7682SOL    HW134505   2.331   4.537   7.044 -1.2773 -1.3537  0.7890
 7682SOL    HW234506   2.427   4.525   6.938  0.6862 -0.6882  2.1604
 7683SOL     OW34507   2.565   4.671   6.954 -0.9450 -0.2890 -0.6176
 7683SOL    HW134508   2.563   0.002   7.034 -0.9514 -2.1509  0.6032
 7683SOL    HW234509   2.570   0.016   6.886  0.8425  2.5297  2.2868
 7684SOL     OW34510   3.405   3.864   4.178  0.4472  0.5555 -0.9528
 7684SOL    HW134511   3.341   3.852   4.108 -0.2362 -1.7622  0.0458
 7684SOL    HW234512   3.362   3.844   4.261  1.2889 -1.5027 -0.9970
 7685SOL     OW34513   0.131   4.166   9.219  0.0261  0.4277  0.3774
 7685SOL    HW134514   0.213   4.216   9.215  0.1701  0.1207 -0.6355
 7685SOL    HW234515   0.167   4.078   9.219  0.6183  0.6547 -1.4547
 7686SOL     OW34516   1.343   4.038   6.549  0.6409 -0.2164 -0.1041
 7686SOL    HW134517   1.406   4.103   6.519  0.0149  1.2677  1.8823
 7686SOL    HW234518   1.294   4.093   6.610 -0.4267  0.5471 -1.6214
 7687SOL     OW34519   2.536   1.859  12.837 -0.2766  0.7973 -0.4974
 7687SOL    HW134520   2.474   1.814  12.895 -0.6751  1.7454 -0.1937
 7687SOL    HW234521   2.609   1.854  12.898 -1.0038  3.4502  0.5732
 7688SOL     OW34522   1.920   2.406   3.799 -0.5833  0.0841 -0.2212
 7688SOL    HW134523   1.888   2.392   3.888 -0.5557 -1.9514 -0.5235
 7688SOL    HW234524   1.929   2.501   3.807 -0.5988  0.2214 -1.8153
 7689SOL     OW34525   1.045   3.486   3.954 -0.0811  0.3612 -0.1865
 7689SOL    HW134526   1.035   3.581   3.945 -3.3006  0.0301 -0.2583
 7689SOL    HW234527   0.954   3.456   3.944 -0.0921  0.4933 -0.5047
 7690SOL     OW34528   1.121   2.288   1.974 -0.2037 -0.0527 -0.3012
 7690SOL    HW134529   1.102   2.339   1.896 -1.9315  0.9004  0.7398
 7690SOL    HW234530   1.158   2.207   1.939 -0.3132 -1.0064  1.7540
 7691SOL     OW34531   3.622   0.730  12.266  0.4523  0.1918 -0.4702
 7691SOL    HW134532   3.538   0.726  12.220 -0.7618  2.2898  1.5388
 7691SOL    HW234533   3.635   0.635  12.269 -1.6264 -0.0375  1.3184
 7692SOL     OW34534   0.310   1.572   6.669 -0.2050  0.0977 -0.1151
 7692SOL    HW134535   0.270   1.556   6.583  0.9987 -0.6587 -0.5476
 7692SOL    HW234536   0.262   1.652   6.688  0.7681  1.2962 -2.7158
 7693SOL     OW34537   0.432   1.741   5.887  0.3218 -0.1074  0.0971
 7693SOL    HW134538   0.364   1.794   5.845  0.1869  0.1836  0.6882
 7693SOL    HW234539   0.457   1.795   5.962  0.2251 -0.2995  0.2658
 7694SOL     OW34540   3.777   1.089  17.617  0.6181 -0.0526 -0.1402
 7694SOL    HW134541   3.728   1.168  17.595 -0.1004 -0.5653 -0.3992
 7694SOL    HW234542   3.710   1.032  17.578  0.8905  0.6969 -1.7187
 7695SOL     OW34543   4.695   0.782   4.770 -0.0035 -0.1076  0.3744
 7695SOL    HW134544   4.606   0.805   4.798  0.5689  1.0005  1.2554
 7695SOL    HW234545   0.004   0.725   4.840 -1.0982  0.9239  1.7057
 7696SOL     OW34546   4.218   4.183   2.828 -0.1398 -0.3945 -0.5983
 7696SOL    HW134547   4.219   4.271   2.788  2.3410  0.2451  0.8702
 7696SOL    HW234548   4.306   4.151   2.809 -0.1895 -0.4428 -0.7513
 7697SOL     OW34549   3.864   0.194  14.709  0.1566 -0.1844  0.0224
 7697SOL    HW134550   3.852   0.110  14.752  3.5406 -0.0562  1.2389
 7697SOL    HW234551   3.959   0.202  14.719  0.0142  1.4863  0.0745
 7698SOL     OW34552   3.527   4.012   0.783  0.3115 -0.4155 -0.2471
 7698SOL    HW134553   3.539   3.988   0.875  1.6135 -1.0321 -0.5853
 7698SOL    HW234554   3.593   4.078   0.766 -1.9118  1.9042  0.0353
 7699SOL     OW34555   3.737   2.602   4.334 -0.0097 -0.0959 -0.3342
 7699SOL    HW134556   3.763   2.545   4.407  1.2381  1.7426  0.6618
 7699SOL    HW234557   3.816   2.653   4.317  1.3395 -1.6406  1.1982
 7700SOL     OW34558   4.613   2.039   2.597 -0.3608  0.1841  0.5076
 7700SOL    HW134559   4.554   1.977   2.640 -0.5795  0.7868  1.0733
 7700SOL    HW234560   4.636   1.995   2.515  0.6820  0.2717  0.7602
 7701SOL     OW34561   0.180   2.816  11.674  0.5763 -0.1707  0.1045
 7701SOL    HW134562   0.183   2.814  11.770 -0.8276 -0.8639  0.1268
 7701SOL    HW234563   0.179   2.721  11.663 -1.1088 -0.0600 -0.5662
 7702SOL     OW34564   2.839   2.063  13.503 -0.0037  0.2500 -0.7963
 7702SOL    HW134565   2.747   2.070  13.527  0.5819 -2.7900  2.3852
 7702SOL    HW234566   2.869   2.002  13.572  1.6917 -0.6300 -2.3095
 7703SOL     OW34567   0.333   0.133  11.117  0.7079  0.0032  0.3316
 7703SOL    HW134568   0.341   0.077  11.195 -0.3622 -0.2821  0.2275
 7703SOL    HW234569   0.340   0.209  11.175  0.3850 -0.3695  0.8555
 7704SOL     OW34570   4.045   4.386   8.148 -0.0637  0.8567  0.3382
 7704SOL    HW134571   3.999   4.374   8.231  0.8218  2.2050  1.0223
 7704SOL    HW234572   3.969   4.406   8.093  0.0378 -2.7617 -1.1285
 7705SOL     OW34573   0.542   0.648   3.199 -0.3241 -0.1169 -0.4222
 7705SOL    HW134574   0.462   0.624   3.245 -1.1253  0.5685 -1.4697
 7705SOL    HW234575   0.609   0.607   3.253  0.5678  1.1140 -0.5763
 7706SOL     OW34576   4.637   4.213  14.871 -0.1025 -0.8122  0.5471
 7706SOL    HW134577   4.702   4.145  14.854 -0.3985 -0.7067 -0.9610
 7706SOL    HW234578   4.564   4.164  14.909 -0.8429  0.1821  0.4134
 7707SOL     OW34579   1.072   1.261   5.041  0.4344 -0.4867  0.7953
 7707SOL    HW134580   1.133   1.230   5.108 -0.2436  0.2562  1.7549
 7707SOL    HW234581   1.003   1.194   5.043  1.0613 -1.0997  1.4474
 7708SOL     OW34582   4.603   0.616   1.959 -0.0758 -0.1509 -0.0961
 7708SOL    HW134583   4.660   0.548   1.996  2.4674  1.6682 -0.6687
 7708SOL    HW234584   4.563   0.571   1.884 -0.1555  1.0637 -0.7853
 7709SOL     OW34585   4.449   3.701   5.139  0.5000  0.0756  0.1764
 7709SOL    HW134586   4.440   3.696   5.044 -5.1776  2.1908  0.6148
 7709SOL    HW234587   4.402   3.621   5.164  1.1923 -0.5873 -0.6177
 7710SOL     OW34588   0.644   4.219   7.555  0.0990 -0.2477  0.0185
 7710SOL    HW134589   0.573   4.192   7.498 -1.5518  0.1200  1.8841
 7710SOL    HW234590   0.602   4.278   7.618 -1.1220 -1.0476 -0.0510
 7711SOL     OW34591   3.279   1.513  11.166 -0.1161  0.0987 -0.1763
 7711SOL    HW134592   3.208   1.495  11.104 -2.1098 -0.6041  2.2791
 7711SOL    HW234593   3.245   1.585  11.220  1.0707  0.8166 -0.3889
 7712SOL     OW34594   2.898   4.219   2.826  0.4363 -0.0460 -0.2518
 7712SOL    HW134595   2.833   4.275   2.783  0.6610  1.0404  0.8023
 7712SOL    HW234596   2.856   4.192   2.908 -2.0030  2.0881 -0.7832
 7713SOL     OW34597   4.353   3.370   2.994  0.1712 -0.3956  0.5921
 7713SOL    HW134598   4.432   3.361   2.940 -0.2024 -0.0043 -0.0190
 7713SOL    HW234599   4.318   3.281   2.993  0.9533 -0.7188  2.1074
 7714SOL     OW34600   0.567   0.840   2.254 -0.8486 -0.1730 -0.5213
 7714SOL    HW134601   0.596   0.795   2.332 -1.0670 -0.8686 -0.8412
 7714SOL    HW234602   0.600   0.785   2.183  1.3822  1.3524 -0.6570
 7715SOL     OW34603   2.176   3.304   7.469 -0.0823  0.9114 -0.1299
 7715SOL    HW134604   2.239   3.240   7.504  0.5402  2.0525  0.8432
 7715SOL    HW234605   2.173   3.295   7.374  1.8298  0.0033 -0.1269
 7716SOL     OW34606   3.088   1.104   4.806  0.5030 -0.0351  0.5064
 7716SOL    HW134607   3.012   1.156   4.830  0.4430  0.2240 -0.2753
 7716SOL    HW234608   3.073   1.065   4.720 -3.0437  2.4281  0.0192
 7717SOL     OW34609   2.093   2.453   9.706 -0.0216  0.4116 -0.3942
 7717SOL    HW134610   2.094   2.435   9.800  0.9799 -0.4830 -0.5778
 7717SOL    HW234611   2.008   2.496   9.695 -0.3844 -0.1818  0.0586
 7718SOL     OW34612   0.980   2.460   1.540  0.3799  0.7007 -0.2896
 7718SOL    HW134613   1.058   2.424   1.498 -0.6559  0.8369 -2.2883
 7718SOL    HW234614   0.914   2.394   1.521 -0.6215  2.0517 -1.4429
 7719SOL     OW34615   2.893   1.748   4.251 -0.5234 -0.8843 -0.2147
 7719SOL    HW134616   2.972   1.752   4.196  0.2357 -0.6288  0.9010
 7719SOL    HW234617   2.827   1.777   4.188 -1.0958  0.6614  1.0893
 7720SOL     OW34618   2.876   0.927   6.260  0.4882 -0.3313 -0.6605
 7720SOL    HW134619   2.900   0.863   6.327  1.1617 -2.9735 -3.4857
 7720SOL    HW234620   2.958   0.938   6.214  0.7127 -1.2141 -0.4704
 7721SOL     OW34621   0.411   4.627   7.029  0.1979 -0.0319  0.1187
 7721SOL    HW134622   0.423   4.676   7.110  3.4357  1.4095 -1.2446
 7721SOL    HW234623   0.323   4.655   7.005  1.2181  1.9874 -1.2709
 7722SOL     OW34624   0.763   1.780  12.514  0.8039  0.2130  0.1831
 7722SOL    HW134625   0.711   1.844  12.466  1.5275  0.4397 -0.3113
 7722SOL    HW234626   0.772   1.714  12.445  0.5860 -0.3641  0.7098
 7723SOL     OW34627   2.274   4.036   7.223  0.3511 -0.0990 -0.7421
 7723SOL    HW134628   2.368   4.029   7.241 -0.1384  0.9726  2.1175
 7723SOL    HW234629   2.258   4.128   7.243  0.9989 -0.5271  1.6487
 7724SOL     OW34630   3.826   4.391   3.076 -0.0100  0.4419  0.3068
 7724SOL    HW134631   3.836   4.309   3.028 -2.9651  0.8940 -1.1236
 7724SOL    HW234632   3.910   4.391   3.121 -0.7400 -3.2368  1.7129
 7725SOL     OW34633   1.108   0.718  16.727  0.0078  0.4706  0.5683
 7725SOL    HW134634   1.068   0.637  16.759 -1.8397  0.4031 -1.8915
 7725SOL    HW234635   1.032   0.762  16.688  0.2526  0.1559 -0.2403
 7726SOL     OW34636   1.652   3.702  14.105 -0.5419  0.3004 -0.6257
 7726SOL    HW134637   1.691   3.751  14.033  1.7158 -2.1319 -1.0357
 7726SOL    HW234638   1.726   3.662  14.149 -0.9360 -1.3708 -1.4710
 7727SOL     OW34639   2.668   1.728   3.423 -0.4946  0.4019  0.8782
 7727SOL    HW134640   2.679   1.712   3.516 -0.3521 -0.2426  0.7529
 7727SOL    HW234641   2.749   1.777   3.409 -0.8723  0.7470 -0.1227
 7728SOL     OW34642   2.947   0.257   8.120  0.0698 -0.2223 -0.0781
 7728SOL    HW134643   2.876   0.250   8.057 -0.7353 -4.5508  1.3600
 7728SOL    HW234644   2.969   0.349   8.103  0.1932 -0.5088 -1.5530
 7729SOL     OW34645   2.680   1.664   3.683 -0.3223 -0.5566  0.2290
 7729SOL    HW134646   2.752   1.630   3.736 -0.5034  0.7899  1.3330
 7729SOL    HW234647   2.602   1.623   3.719 -1.3045  0.5197 -0.6861
 7730SOL     OW34648   0.462   2.037  16.333  0.7568  0.3109 -0.3152
 7730SOL    HW134649   0.398   2.104  16.359 -0.3698 -0.5437 -0.8736
 7730SOL    HW234650   0.534   2.053  16.393 -0.2795 -1.8655  1.4889
 7731SOL     OW34651   1.084   2.727   6.535 -0.2332 -0.2284 -0.1709
 7731SOL    HW134652   1.101   2.749   6.626 -0.2218 -4.2598  0.7678
 7731SOL    HW234653   0.993   2.751   6.520  0.6595  1.1477 -3.6272
 7732SOL     OW34654   2.749   0.275   2.290 -0.3749 -0.4339  0.1288
 7732SOL    HW134655   2.756   0.325   2.372 -2.3021 -0.6301  0.4117
 7732SOL    HW234656   2.797   0.200   2.324  0.0622 -0.1032  0.2411
 7733SOL     OW34657   1.640   3.882   7.216 -0.1565  0.0078  0.4125
 7733SOL    HW134658   1.721   3.932   7.214 -0.4102  0.3353 -1.3294
 7733SOL    HW234659   1.605   3.902   7.129 -0.6270 -0.0954  0.5759
 7734SOL     OW34660   1.793   0.123   5.363 -0.6002  0.4634 -0.0687
 7734SOL    HW134661   1.735   0.050   5.339  0.7699 -1.0279  1.2478
 7734SOL    HW234662   1.851   0.123   5.287  1.4941 -0.0850  1.5719
 7735SOL     OW34663   3.667   0.071   3.302 -0.1113 -0.0154  0.2061
 7735SOL    HW134664   3.755   0.036   3.308 -1.7001 -3.7030  2.1857
 7735SOL    HW234665   3.628   0.003   3.246  0.7054  0.2600 -0.6902
 7736SOL     OW34666   1.196   3.625   7.534 -0.1854  0.0774  0.5667
 7736SOL    HW134667   1.124   3.605   7.474  0.7864 -1.0578 -0.2119
 7736SOL    HW234668   1.254   3.550   7.518  0.4071  0.9303 -1.3421
 7737SOL     OW34669   4.666   3.625   5.268  0.3972 -0.0571 -0.3573
 7737SOL    HW134670   0.006   3.674   5.214  1.5229 -1.0781 -0.0159
 7737SOL    HW234671   4.586   3.664   5.233 -0.7388  0.4805  2.8371
 7738SOL     OW34672   1.578   2.935   9.526 -0.4686  0.9140  0.3527
 7738SOL    HW134673   1.632   2.907   9.451  0.3502  1.9584  0.5501
 7738SOL    HW234674   1.623   3.015   9.553  1.6379 -0.1367 -0.0385
 7739SOL     OW34675   2.564   2.348   9.331  0.4035  0.0057 -0.2576
 7739SOL    HW134676   2.516   2.423   9.365 -2.6706 -0.2928 -3.9285
 7739SOL    HW234677   2.613   2.316   9.407 -0.7257 -1.8640 -0.3231
 7740SOL     OW34678   1.968   0.705   8.412 -0.2135  0.3109  1.1555
 7740SOL    HW134679   1.945   0.769   8.480 -0.9629  1.3586 -0.0685
 7740SOL    HW234680   1.927   0.744   8.335 -1.8305  1.8101  2.7425
 7741SOL     OW34681   1.668   3.750  13.509  0.3237 -0.5376  0.0327
 7741SOL    HW134682   1.587   3.730  13.463 -0.9134  1.3816  1.3426
 7741SOL    HW234683   1.646   3.841  13.529  2.4622 -0.3852  1.7578
 7742SOL     OW34684   3.569   1.119   2.284  0.0884  0.1121 -0.0350
 7742SOL    HW134685   3.504   1.189   2.277 -0.4653 -0.6429 -2.4367
 7742SOL    HW234686   3.612   1.167   2.354 -0.2445 -0.0624  0.2876
 7743SOL     OW34687   0.882   2.657   4.905  0.8026 -0.0066 -0.3334
 7743SOL    HW134688   0.909   2.743   4.939 -0.9143 -0.1316  1.3429
 7743SOL    HW234689   0.861   2.600   4.979  0.0608 -1.4400 -1.6702
 7744SOL     OW34690   3.243   1.678   0.183 -0.2396  0.1724 -0.3797
 7744SOL    HW134691   3.236   1.640   0.095 -0.2542  0.0840 -0.3408
 7744SOL    HW234692   3.306   1.750   0.181 -0.0190 -0.0724 -2.1665
 7745SOL     OW34693   3.478   3.827  17.382  0.1918 -0.0820 -0.6542
 7745SOL    HW134694   3.526   3.787  17.454  0.5065  1.6643  0.1156
 7745SOL    HW234695   3.457   3.753  17.326 -2.0767  0.2519 -0.2635
 7746SOL     OW34696   2.183   2.166   9.869 -0.4889 -0.2546  0.7165
 7746SOL    HW134697   2.227   2.083   9.854 -0.9806 -0.8064  2.2924
 7746SOL    HW234698   2.192   2.202   9.781  1.1062  0.1772  1.0569
 7747SOL     OW34699   1.912   2.155   6.363 -0.2134 -0.6821  0.1844
 7747SOL    HW134700   1.882   2.210   6.291 -1.3390 -2.2687 -0.5564
 7747SOL    HW234701   2.005   2.175   6.357 -0.5315  1.3374  1.9849
 7748SOL     OW34702   2.261   1.330   8.037 -0.1732 -0.1135 -0.2027
 7748SOL    HW134703   2.352   1.345   8.012  0.2246 -2.3570 -0.0606
 7748SOL    HW234704   2.253   1.247   7.990  0.0267 -0.1330 -0.2049
 7749SOL     OW34705   3.109   3.455   3.777  0.0922 -0.3803 -0.1510
 7749SOL    HW134706   3.051   3.451   3.853 -0.0655  2.0883 -0.1387
 7749SOL    HW234707   3.048   3.415   3.715  0.0204  2.6204 -2.0276
 7750SOL     OW34708   3.079   1.488  12.803  0.0304  0.0721  0.2717
 7750SOL    HW134709   3.143   1.479  12.874  3.0626 -0.2462 -2.5146
 7750SOL    HW234710   3.135   1.486  12.725 -0.6272  3.1713 -0.2812
 7751SOL     OW34711   2.627   0.500   1.697  0.7343  0.5284 -0.1587
 7751SOL    HW134712   2.643   0.413   1.659 -1.5648 -0.0217  0.1155
 7751SOL    HW234713   2.584   0.480   1.781  0.6455 -1.6844 -0.7173
 7752SOL     OW34714   3.372   0.219   6.109 -0.0127  0.1717 -0.1620
 7752SOL    HW134715   3.448   0.206   6.051 -0.2115  2.9066 -1.0118
 7752SOL    HW234716   3.352   0.126   6.122  0.5342  0.4963  2.7707
 7753SOL     OW34717   1.877   4.572   5.472  0.2320  0.4361 -0.4260
 7753SOL    HW134718   1.811   4.592   5.405  2.2628 -0.7100 -2.7693
 7753SOL    HW234719   1.856   4.603   5.560 -0.5985 -0.5078 -0.2984
 7754SOL     OW34720   0.631   3.177   3.346 -0.0238 -0.2593 -0.6360
 7754SOL    HW134721   0.544   3.153   3.376  0.9677 -1.1279  1.4951
 7754SOL    HW234722   0.656   3.092   3.309  2.8039  0.3418 -0.1090
 7755SOL     OW34723   1.035   0.650   7.160  0.1648  0.1259  0.1196
 7755SOL    HW134724   1.066   0.564   7.189 -0.9406 -0.0968  0.6653
 7755SOL    HW234725   0.946   0.628   7.188 -0.3129  2.1350  0.1649
 7756SOL     OW34726   0.511   3.191  11.386  0.1213 -0.0141  0.0715
 7756SOL    HW134727   0.521   3.266  11.444  0.0852 -0.4113  0.5888
 7756SOL    HW234728   0.419   3.170  11.402 -0.1506  0.6194 -0.6566
 7757SOL     OW34729   3.251   4.603   3.745  0.0559  0.1688 -0.0507
 7757SOL    HW134730   3.199   4.683   3.745 -0.0351  0.1094 -0.0824
 7757SOL    HW234731   3.336   4.640   3.766  0.3843  0.0993 -1.2734
 7758SOL     OW34732   4.652   3.796   8.780  0.0633  0.0500 -0.3089
 7758SOL    HW134733   4.566   3.774   8.745  0.5942 -3.3494  0.5323
 7758SOL    HW234734   4.629   3.849   8.856  0.1987  0.5274 -0.6001
 7759SOL     OW34735   1.211   4.115   2.305  0.4900  0.5082  0.1316
 7759SOL    HW134736   1.133   4.060   2.302  0.4602  0.4786  1.6805
 7759SOL    HW234737   1.273   4.063   2.254  1.1061 -1.9851  3.4354
 7760SOL     OW34738   2.656   1.078   4.908 -0.4195  0.0705  0.1180
 7760SOL    HW134739   2.693   1.073   4.996 -2.8740 -0.7332  1.1029
 7760SOL    HW234740   2.704   1.001   4.880 -0.9261  0.8715 -2.9559
 7761SOL     OW34741   2.056   1.101   7.509 -0.3942  0.3200 -0.3003
 7761SOL    HW134742   1.961   1.104   7.517 -0.3904  1.8491 -0.7686
 7761SOL    HW234743   2.077   1.180   7.558 -0.4614 -0.1522  0.4784
 7762SOL     OW34744   2.666   1.338   3.279  0.7066 -0.2236  0.1497
 7762SOL    HW134745   2.736   1.404   3.273  0.7486 -0.1568  1.2724
 7762SOL    HW234746   2.715   1.278   3.336  1.1017  1.2810  1.4132
 7763SOL     OW34747   0.110   2.521   4.888 -0.4945  0.3106  0.1155
 7763SOL    HW134748   0.109   2.488   4.978  1.2837 -1.7890 -0.6535
 7763SOL    HW234749   0.145   2.609   4.906  1.8823 -0.4206 -0.9510
 7764SOL     OW34750   1.294   0.108  14.490  0.0659  0.2942  0.8227
 7764SOL    HW134751   1.208   0.120  14.529  0.4191 -3.1469  2.6981
 7764SOL    HW234752   1.265   0.031  14.442  1.1761  2.0315 -2.6478
 7765SOL     OW34753   0.539   0.607   8.761 -0.3226 -0.4329  0.4432
 7765SOL    HW134754   0.510   0.531   8.812 -3.0025 -1.0203 -1.9385
 7765SOL    HW234755   0.484   0.610   8.683  1.9825  0.6689 -1.1277
 7766SOL     OW34756   1.313   2.081   5.490  0.6317  0.4439  0.3892
 7766SOL    HW134757   1.379   2.124   5.436  0.1777 -1.0406 -1.3306
 7766SOL    HW234758   1.279   2.014   5.431  2.3461  0.6791 -0.8404
 7767SOL     OW34759   0.774   3.429   7.069 -0.1426 -0.6700 -0.2090
 7767SOL    HW134760   0.774   3.350   7.016 -1.5393 -0.7033 -0.1621
 7767SOL    HW234761   0.706   3.419   7.136 -1.2873 -0.3875 -1.3307
 7768SOL     OW34762   2.420   2.004  13.128  0.0794  0.3572  1.1132
 7768SOL    HW134763   2.357   1.996  13.056  0.6046 -2.5643  1.0037
 7768SOL    HW234764   2.460   1.918  13.131  0.5987  0.5703  0.4035
 7769SOL     OW34765   4.089   3.341   5.503  0.0924 -0.0014 -0.4148
 7769SOL    HW134766   4.030   3.266   5.503  1.2790 -0.9233  0.8997
 7769SOL    HW234767   4.164   3.316   5.450  1.4316  1.4891  0.7771
 7770SOL     OW34768   3.686   0.091   2.319  0.1792  0.1198  0.1660
 7770SOL    HW134769   3.628   0.085   2.243  1.3891  2.3106 -0.9607
 7770SOL    HW234770   3.615   0.081   2.382 -0.5490 -1.3309 -0.8918
 7771SOL     OW34771   2.474   2.911   9.972  0.0254  0.2411  0.0855
 7771SOL    HW134772   2.458   2.833  10.024 -1.0298  0.7217  0.4782
 7771SOL    HW234773   2.567   2.933   9.964 -0.2582  2.0986  1.9753
 7772SOL     OW34774   2.941   3.924   9.164  0.8842  0.3772  0.1650
 7772SOL    HW134775   3.010   3.858   9.162 -1.8659 -2.5435  1.4816
 7772SOL    HW234776   2.974   3.977   9.237 -0.9443  2.2283 -0.3630
 7773SOL     OW34777   2.750   2.307   7.952  0.4209 -0.1833 -0.6653
 7773SOL    HW134778   2.764   2.212   7.953 -0.5105 -0.3151  0.4422
 7773SOL    HW234779   2.678   2.313   8.016  0.5427 -1.9246 -0.3653
 7774SOL     OW34780   3.855   4.427   0.327 -0.3053 -0.3149 -0.0625
 7774SOL    HW134781   3.909   4.471   0.262  0.3750 -2.2189 -0.7868
 7774SOL    HW234782   3.897   4.458   0.407 -1.2797  1.4935 -0.2441
 7775SOL     OW34783   4.455   2.575  11.620 -0.3975 -0.5334 -0.5462
 7775SOL    HW134784   4.377   2.583  11.565 -1.1334  2.1557  0.8781
 7775SOL    HW234785   4.428   2.486  11.646  1.4711 -1.0344 -0.3305
 7776SOL     OW34786   3.256   1.242  15.047  0.1395 -0.7281 -0.1969
 7776SOL    HW134787   3.289   1.163  15.090 -1.3050 -1.1427  0.1572
 7776SOL    HW234788   3.251   1.289  15.131  1.4332  0.6829 -0.9228
 7777SOL     OW34789   2.065   3.946   0.810  0.2354  0.5600 -0.0507
 7777SOL    HW134790   2.018   3.985   0.884 -1.9463 -3.2527  0.6334
 7777SOL    HW234791   2.110   4.024   0.780  0.1613  0.0446 -1.5020
 7778SOL     OW34792   4.472   4.412   4.425  0.0600 -0.6648  0.1261
 7778SOL    HW134793   4.456   4.352   4.498  0.4819  0.2598  0.9812
 7778SOL    HW234794   4.504   4.486   4.476  0.7362 -0.1307 -1.0748
 7779SOL     OW34795   2.562   1.089   2.453  0.2235 -0.0861 -0.4262
 7779SOL    HW134796   2.553   1.124   2.364  0.4679  0.7061 -0.1404
 7779SOL    HW234797   2.508   1.150   2.504 -0.2562 -0.3490 -0.6149
 7780SOL     OW34798   2.580   2.765  15.688  0.6476 -0.6445  0.5685
 7780SOL    HW134799   2.665   2.771  15.734  1.0570 -0.3022 -0.2403
 7780SOL    HW234800   2.539   2.687  15.724  0.7108 -1.4594 -1.1320
 7781SOL     OW34801   3.574   2.010   4.614  0.0487 -0.4217  0.4645
 7781SOL    HW134802   3.566   1.981   4.704  1.2187 -4.1740 -0.6354
 7781SOL    HW234803   3.614   2.097   4.613  0.1873 -0.4890 -0.4363
 7782SOL     OW34804   2.546   2.587   7.810  0.6800  0.1648 -0.4813
 7782SOL    HW134805   2.536   2.605   7.903 -2.4209  1.5562 -1.0613
 7782SOL    HW234806   2.595   2.506   7.819 -0.5201 -0.3162  1.6702
 7783SOL     OW34807   1.220   3.882   6.122 -0.2868 -0.2239  0.5148
 7783SOL    HW134808   1.189   3.938   6.051  4.1184 -1.1789 -2.1315
 7783SOL    HW234809   1.313   3.893   6.103 -0.7462  0.6429 -1.2435
 7784SOL     OW34810   2.044   1.307   2.990  0.0875 -0.1606 -0.4456
 7784SOL    HW134811   1.974   1.362   3.026  0.4421 -0.4902  0.7144
 7784SOL    HW234812   2.038   1.332   2.897 -1.0398  0.2857 -0.2625
 7785SOL     OW34813   4.586   4.284  12.339 -0.1003  0.0940 -0.4058
 7785SOL    HW134814   4.605   4.200  12.381 -1.4980 -0.4126 -0.7973
 7785SOL    HW234815   4.669   4.299  12.293  1.2711 -0.2817  1.9417
 7786SOL     OW34816   4.507   1.280   6.206 -0.1377 -0.4109 -0.5476
 7786SOL    HW134817   4.547   1.200   6.172  1.4462  1.6708 -3.5466
 7786SOL    HW234818   4.587   1.331   6.198 -1.1036  1.6275  2.4395
 7787SOL     OW34819   4.466   0.109   6.162  0.0253  0.4703 -0.2628
 7787SOL    HW134820   4.477   0.065   6.077  1.0839 -0.2643  0.2607
 7787SOL    HW234821   4.425   0.050   6.224  0.8436 -0.8758 -1.0090
 7788SOL     OW34822   0.795   3.083   1.260  0.4251  0.0865  0.2273
 7788SOL    HW134823   0.707   3.097   1.294  0.5452  0.9947  0.1452
 7788SOL    HW234824   0.834   3.167   1.280  0.4755  0.5001 -1.6129
 7789SOL     OW34825   1.825   4.226  14.261  0.0737 -0.6949 -0.5133
 7789SOL    HW134826   1.776   4.162  14.312  0.4043  0.9644  1.9288
 7789SOL    HW234827   1.887   4.263  14.325  0.4787 -1.7974 -0.2773
 7790SOL     OW34828   3.289   2.075  15.396  0.9910 -0.8018  0.8165
 7790SOL    HW134829   3.239   2.072  15.314  1.9380 -2.2994  0.2855
 7790SOL    HW234830   3.332   2.161  15.403  0.5054 -0.3052 -2.2960
 7791SOL     OW34831   4.451   3.726  15.410  0.8914 -0.4933 -0.0670
 7791SOL    HW134832   4.386   3.735  15.480  1.0426  2.1549 -0.2801
 7791SOL    HW234833   4.512   3.799  15.422  1.0759 -0.9307  1.7197
 7792SOL     OW34834   4.024   1.655   3.287 -0.0950  0.5364  0.1382
 7792SOL    HW134835   3.936   1.628   3.312 -0.4045  0.9059 -0.5471
 7792SOL    HW234836   4.072   1.590   3.339 -0.1964 -0.3655 -0.8845
 7793SOL     OW34837   1.341   0.277   7.935 -0.6245 -0.4314  0.1465
 7793SOL    HW134838   1.427   0.300   7.901 -0.0967 -1.1145  0.9899
 7793SOL    HW234839   1.295   0.361   7.939 -0.6992 -0.2951 -4.5019
 7794SOL     OW34840   3.189   4.329   3.766  0.2894 -0.1731  0.3039
 7794SOL    HW134841   3.146   4.334   3.681  2.1395 -0.8191 -0.6582
 7794SOL    HW234842   3.255   4.397   3.756 -0.9241  1.0852  0.9437
 7795SOL     OW34843   1.910   0.485   2.696  0.1567 -0.9973 -0.4459
 7795SOL    HW134844   1.860   0.542   2.639 -1.0789 -0.1697  1.4594
 7795SOL    HW234845   1.980   0.545   2.722  0.6938 -1.2951 -1.2100
 7796SOL     OW34846   3.656   0.452  12.363 -0.6604  0.4997 -0.7202
 7796SOL    HW134847   3.611   0.401  12.295 -0.0478 -0.2904 -0.5307
 7796SOL    HW234848   3.731   0.392  12.365  1.2913  2.9177 -1.6338
 7797SOL     OW34849   0.090   1.916   1.665 -0.2044 -0.9407  0.1063
 7797SOL    HW134850   0.051   2.001   1.645 -1.9643 -2.0260 -1.1302
 7797SOL    HW234851   0.033   1.854   1.620  0.1671 -1.0855 -0.1617
 7798SOL     OW34852   1.945   3.236   1.701  0.2355 -0.0151 -0.3135
 7798SOL    HW134853   1.858   3.203   1.679 -0.6354  2.1179 -0.1029
 7798SOL    HW234854   1.981   3.220   1.614 -0.9757  1.4540 -1.0776
 7799SOL     OW34855   0.972   3.099   7.966  0.2471  0.0033  0.0352
 7799SOL    HW134856   0.921   3.038   7.913 -0.5461  1.2489 -0.6438
 7799SOL    HW234857   1.065   3.080   7.953  0.0434 -0.8892 -0.0619
 7800SOL     OW34858   4.081   4.385   4.071 -0.2817 -0.5383  0.2449
 7800SOL    HW134859   4.136   4.356   3.998 -0.0331 -0.4571  0.4000
 7800SOL    HW234860   4.145   4.402   4.140  0.1438  0.5640 -0.4244
 7801SOL     OW34861   1.573   1.211  12.491  0.0759 -0.1551  0.0198
 7801SOL    HW134862   1.653   1.159  12.486  1.0119  1.1681  1.3048
 7801SOL    HW234863   1.569   1.247  12.402 -3.0354  2.0627  1.0569
 7802SOL     OW34864   0.093   4.689   8.051 -0.6427  0.1513  0.2271
 7802SOL    HW134865   0.094   4.651   8.139 -0.9052  1.5029  0.7999
 7802SOL    HW234866   0.110   0.058   8.073 -0.1073  0.3750 -1.0749
 7803SOL     OW34867   0.241   1.859  10.496  0.0414 -0.1728  0.4954
 7803SOL    HW134868   0.187   1.886  10.571 -1.6134 -1.3191 -0.2828
 7803SOL    HW234869   0.183   1.880  10.423 -0.9835 -2.8836  0.5192
 7804SOL     OW34870   4.450   2.009   3.533  0.9566  0.5912  0.5883
 7804SOL    HW134871   4.501   2.019   3.453  0.6989 -0.4440  0.2835
 7804SOL    HW234872   4.371   1.969   3.495  1.6728 -0.4792  0.2279
 7805SOL     OW34873   3.516   2.305   0.558 -0.0243  0.5094 -0.4786
 7805SOL    HW134874   3.558   2.385   0.527  0.6686  0.6090  0.6885
 7805SOL    HW234875   3.525   2.311   0.654  1.8471 -1.4686 -0.5378
 7806SOL     OW34876   1.214   0.490   6.541  0.6462 -0.2985 -0.2735
 7806SOL    HW134877   1.199   0.396   6.557 -1.7586  0.6107  2.7322
 7806SOL    HW234878   1.125   0.524   6.550  1.3581  1.6654 -0.8429
 7807SOL     OW34879   3.977   3.091   1.863  0.5042 -0.0363  0.6452
 7807SOL    HW134880   3.984   3.185   1.879  1.0435  0.2237 -1.0987
 7807SOL    HW234881   3.899   3.089   1.807  0.9165  1.6175  0.0319
 7808SOL     OW34882   1.410   4.612  11.447  0.6575 -0.5309 -0.8008
 7808SOL    HW134883   1.454   4.693  11.422 -0.3011 -1.1564 -4.5886
 7808SOL    HW234884   1.385   4.625  11.538  0.2810  0.1771 -1.0095
 7809SOL     OW34885   2.644   0.734   5.784  0.7073  0.0533 -0.5992
 7809SOL    HW134886   2.569   0.788   5.758 -0.9803 -1.7705  0.4796
 7809SOL    HW234887   2.694   0.743   5.704  0.5148 -0.5102 -0.7859
 7810SOL     OW34888   3.392   4.028   1.490  0.4962 -0.4225  0.0477
 7810SOL    HW134889   3.336   4.097   1.524 -0.8232  0.0896 -3.1793
 7810SOL    HW234890   3.374   4.019   1.397 -1.7470  2.3676  0.2125
 7811SOL     OW34891   1.015   0.925   4.370 -0.3591  0.0126  0.3102
 7811SOL    HW134892   1.037   1.013   4.402  0.5561 -1.0395  2.5292
 7811SOL    HW234893   0.921   0.937   4.361 -0.5925 -2.7940 -0.9240
 7812SOL     OW34894   4.551   0.248   6.360 -0.1370  0.2224  0.3139
 7812SOL    HW134895   4.467   0.204   6.371 -0.0203  0.7387  3.3766
 7812SOL    HW234896   4.558   0.235   6.266  1.7035  2.2327  0.1811
 7813SOL     OW34897   2.299   0.499   2.588  0.4241  0.2385 -0.0832
 7813SOL    HW134898   2.390   0.529   2.581  0.8563 -0.6953  1.5665
 7813SOL    HW234899   2.251   0.578   2.563  1.0746  1.5092  2.6506
 7814SOL     OW34900   3.220   1.843   8.645 -0.1930 -0.1161 -0.1297
 7814SOL    HW134901   3.285   1.808   8.706 -0.8289 -2.6313 -0.8829
 7814SOL    HW234902   3.176   1.911   8.695 -2.1915  0.4523 -2.6669
 7815SOL     OW34903   3.028   1.586   1.345 -0.4993  0.1934  0.2635
 7815SOL    HW134904   2.944   1.551   1.315 -0.4657 -0.6250  1.0975
 7815SOL    HW234905   3.076   1.503   1.340  1.4943  1.3217  0.4600
 7816SOL     OW34906   3.261   3.256   4.548  0.0457  0.5504 -0.4305
 7816SOL    HW134907   3.318   3.209   4.486  0.5993 -1.1310  1.3727
 7816SOL    HW234908   3.293   3.234   4.636 -0.7652 -0.4647 -0.3973
 7817SOL     OW34909   1.716   2.209   1.471  0.1344 -0.2331 -0.0633
 7817SOL    HW134910   1.774   2.211   1.395  0.0754 -0.0429 -0.1050
 7817SOL    HW234911   1.767   2.247   1.542  0.4174  1.0444 -0.9337
 7818SOL     OW34912   0.769   4.023   2.139 -0.7377  0.0283  0.3323
 7818SOL    HW134913   0.686   3.988   2.105 -2.5927  2.2641  2.5267
 7818SOL    HW234914   0.735   4.111   2.158  0.0847  0.2999  0.5233
 7819SOL     OW34915   3.703   2.717  14.513 -0.2318  0.1174  0.8087
 7819SOL    HW134916   3.623   2.742  14.467 -0.3953  1.2491  1.7143
 7819SOL    HW234917   3.697   2.622  14.522  1.1222 -0.0926 -0.3794
 7820SOL     OW34918   0.341   3.583   4.711  0.2828  0.0775 -0.0525
 7820SOL    HW134919   0.256   3.599   4.671 -0.5023 -1.7623  0.8808
 7820SOL    HW234920   0.349   3.640   4.788  3.4568 -0.1225 -0.2067
 7821SOL     OW34921   0.261   3.410   9.209  0.1106 -0.1233  0.0044
 7821SOL    HW134922   0.342   3.402   9.259  1.2357 -0.7218 -1.9075
 7821SOL    HW234923   0.238   3.502   9.220  0.5999  0.0216 -0.1750
 7822SOL     OW34924   1.127   0.739  16.384 -0.0194  0.6223  0.2469
 7822SOL    HW134925   1.067   0.742  16.309 -1.4195 -0.1471  1.3265
 7822SOL    HW234926   1.068   0.768  16.453  0.1666  2.7887 -0.5128
 7823SOL     OW34927   0.424   2.300  12.866  0.3063  0.3203  0.5266
 7823SOL    HW134928   0.470   2.343  12.794  2.1658 -0.0474  1.4700
 7823SOL    HW234929   0.342   2.348  12.872  0.7189  1.0323  0.5542
 7824SOL     OW34930   4.651   0.416   8.985 -0.3063  0.3994 -0.0266
 7824SOL    HW134931   4.622   0.391   8.897  1.1178 -0.4098 -0.2593
 7824SOL    HW234932   4.632   0.510   8.983  0.8874  0.6453  0.1492
 7825SOL     OW34933   0.601   3.307   4.561 -0.0228 -0.4382  0.7058
 7825SOL    HW134934   0.617   3.346   4.475 -0.2945  0.6782  1.1613
 7825SOL    HW234935   0.664   3.238   4.538 -0.4354 -1.3342  2.2686
 7826SOL     OW34936   3.928   1.259   6.549 -0.5087 -0.6178  0.6130
 7826SOL    HW134937   3.968   1.210   6.477  0.2032  0.8695  0.0113
 7826SOL    HW234938   3.869   1.312   6.495  0.8792  0.7755  0.4856
 7827SOL     OW34939   1.631   3.529   9.835 -0.1086  0.1905 -0.5062
 7827SOL    HW134940   1.640   3.624   9.834  0.3710  0.1389 -0.7115
 7827SOL    HW234941   1.680   3.511   9.915 -0.2671 -0.4812 -0.5636
 7828SOL     OW34942   1.525   2.435  17.247 -0.8004  0.2174 -0.0358
 7828SOL    HW134943   1.502   2.391  17.329 -1.5679  1.4383  0.3941
 7828SOL    HW234944   1.541   2.524  17.277 -0.4219 -0.4253  1.7310
 7829SOL     OW34945   4.532   1.870   9.467  0.8011 -0.0856 -0.3841
 7829SOL    HW134946   4.511   1.811   9.394  0.6839 -0.8290  0.2470
 7829SOL    HW234947   4.601   1.918   9.423 -0.0282  0.8259 -0.7021
 7830SOL     OW34948   1.030   2.326  15.587 -0.1546  0.5695  0.0187
 7830SOL    HW134949   0.998   2.410  15.619  0.3406  0.3118  1.1562
 7830SOL    HW234950   1.025   2.272  15.666 -0.6160  1.6076  0.6931
 7831SOL     OW34951   1.518   0.290   6.858  0.5663 -0.1606  0.2828
 7831SOL    HW134952   1.529   0.334   6.943 -0.4443  3.5637 -1.5024
 7831SOL    HW234953   1.499   0.361   6.797  0.6458 -0.1654  0.2531
 7832SOL     OW34954   0.587   2.682   6.753  0.4796  0.0308 -0.6481
 7832SOL    HW134955   0.598   2.690   6.848 -0.6848  0.3362 -0.5360
 7832SOL    HW234956   0.491   2.673   6.754  0.4929 -0.0121  0.0574
 7833SOL     OW34957   1.110   2.855  11.549  0.2008 -0.5419 -0.0778
 7833SOL    HW134958   1.016   2.870  11.556  0.5259  1.3427  0.5371
 7833SOL    HW234959   1.132   2.894  11.634  2.1818 -1.8345  0.0044
 7834SOL     OW34960   3.443   1.544  17.360 -0.0691 -0.0896 -0.3167
 7834SOL    HW134961   3.535   1.546  17.386  0.0620  0.1006 -0.7868
 7834SOL    HW234962   3.455   1.502  17.275 -3.8709 -1.1871 -0.3124
 7835SOL     OW34963   2.431   2.785   7.319  0.2948  0.2282  0.4213
 7835SOL    HW134964   2.365   2.808   7.254  0.1455  0.8163  0.7769
 7835SOL    HW234965   2.380   2.722   7.370 -0.6243 -0.4139 -1.3037
 7836SOL     OW34966   0.706   2.135   9.597 -0.1437 -0.3575  0.6022
 7836SOL    HW134967   0.671   2.127   9.686 -0.2707  0.2129  0.6059
 7836SOL    HW234968   0.772   2.066   9.598 -0.7463 -0.9352  0.5439
 7837SOL     OW34969   0.562   0.119   2.280 -0.0579 -0.1339  0.0506
 7837SOL    HW134970   0.649   0.083   2.258  0.0232 -0.4639  0.9434
 7837SOL    HW234971   0.547   0.182   2.209  1.8390  0.6497  0.3502
 7838SOL     OW34972   4.209   2.091   8.590 -0.3538 -1.0509 -0.2339
 7838SOL    HW134973   4.266   2.015   8.579  0.0360 -0.6497 -0.9386
 7838SOL    HW234974   4.260   2.148   8.533 -1.3809 -1.0321 -1.1217
 7839SOL     OW34975   2.778   2.354   4.892 -0.5398 -0.0200  0.3231
 7839SOL    HW134976   2.721   2.279   4.877 -1.6880  1.0194 -0.5987
 7839SOL    HW234977   2.789   2.386   4.802  1.2689  0.5142  0.7430
 7840SOL     OW34978   2.842   3.374   0.562  0.0552  0.7295 -0.5402
 7840SOL    HW134979   2.894   3.320   0.503  1.0091 -0.1631  1.1245
 7840SOL    HW234980   2.802   3.442   0.508  1.4637  2.2297  0.2939
 7841SOL     OW34981   3.014   3.683   8.302 -0.0707  0.1268  0.1160
 7841SOL    HW134982   3.056   3.612   8.252  1.2524 -0.3240  1.8633
 7841SOL    HW234983   2.993   3.744   8.231  0.6613 -1.9174 -1.8874
 7842SOL     OW34984   1.005   1.444   9.262 -0.0882  0.0075  0.1630
 7842SOL    HW134985   0.983   1.504   9.190  0.5467 -0.2618 -0.2498
 7842SOL    HW234986   1.016   1.500   9.339  0.2671 -0.0586  0.1601
 7843SOL     OW34987   3.416   3.389  12.155 -0.0203  0.5277 -0.3815
 7843SOL    HW134988   3.474   3.437  12.215 -3.0819  1.6480  1.6729
 7843SOL    HW234989   3.333   3.373  12.199  1.2052 -1.1894  1.3015
 7844SOL     OW34990   2.123   1.724   1.993  0.5448  0.0211 -0.8085
 7844SOL    HW134991   2.214   1.696   1.980  0.6864 -0.1165  0.3984
 7844SOL    HW234992   2.138   1.818   2.004 -1.9963  0.3697 -0.3400
 7845SOL     OW34993   0.258   0.124   4.924  0.1883  0.6409  0.7989
 7845SOL    HW134994   0.323   0.173   4.873  2.2888 -2.6104  0.3799
 7845SOL    HW234995   0.213   0.205   4.949 -1.1180 -0.2303  1.2179
 7846SOL     OW34996   4.472   0.864   1.884  0.0510  0.3885  0.0763
 7846SOL    HW134997   4.503   0.784   1.927 -0.2991  0.6105  0.7428
 7846SOL    HW234998   4.394   0.838   1.834  0.1320  0.5383 -0.1243
 7847SOL     OW34999   1.283   1.748   8.003  0.3801 -0.3271  0.1341
 7847SOL    HW135000   1.357   1.696   8.035  0.8391 -0.7103 -1.5726
 7847SOL    HW235001   1.312   1.837   8.021 -0.1824  0.1774 -1.4556
 7848SOL     OW35002   2.603   0.737   3.284  0.5100 -0.9167  0.1889
 7848SOL    HW135003   2.665   0.670   3.311  0.7210 -0.1549  1.6002
 7848SOL    HW235004   2.635   0.745   3.195 -2.0487 -0.3729 -0.6904
 7849SOL     OW35005   1.553   4.565   2.915  0.3804 -0.1040 -0.1313
 7849SOL    HW135006   1.622   4.609   2.865  0.6363 -1.2471 -0.7822
 7849SOL    HW235007   1.490   4.637   2.921  0.9523  0.4456 -0.6414
 7850SOL     OW35008   4.615   4.508   2.334 -0.3218  0.2476  0.0053
 7850SOL    HW135009   4.650   4.535   2.249  2.6993 -1.1344  0.8184
 7850SOL    HW235010   4.549   4.454   2.289 -0.4969 -0.6264  1.3335
 7851SOL     OW35011   2.750   4.717   0.934 -0.2873  0.3350 -0.0464
 7851SOL    HW135012   2.683   4.652   0.914 -0.4565  0.5578 -0.1932
 7851SOL    HW235013   2.806   4.667   0.994 -0.1071 -1.2080 -1.4961
 7852SOL     OW35014   2.444   4.126   3.291 -0.1944  0.3368  0.3902
 7852SOL    HW135015   2.404   4.118   3.377  0.2688 -0.0166  0.5719
 7852SOL    HW235016   2.468   4.036   3.271 -1.0422 -0.1079  1.3850
 7853SOL     OW35017   1.801   0.910  13.055 -0.3626  0.3758  0.1274
 7853SOL    HW135018   1.821   0.817  13.042  1.7136  0.7851  0.4364
 7853SOL    HW235019   1.706   0.917  13.044 -0.8335 -1.4385  2.8609
 7854SOL     OW35020   3.875   2.338  14.128  0.1978  0.7218  0.3466
 7854SOL    HW135021   3.829   2.371  14.205  2.2260  2.9241  0.6044
 7854SOL    HW235022   3.923   2.414  14.095  2.4724 -0.4155  1.0043
 7855SOL     OW35023   1.975   2.866   4.893  0.0126  0.5493 -0.3067
 7855SOL    HW135024   2.056   2.828   4.928  0.8522  0.7832 -1.9875
 7855SOL    HW235025   2.014   2.948   4.861 -1.7973  1.5033 -0.0871
 7856SOL     OW35026   4.700   0.723   8.502 -0.1359 -0.0878 -0.3291
 7856SOL    HW135027   4.675   0.741   8.593 -3.0452 -1.8654 -0.7630
 7856SOL    HW235028   4.616   0.691   8.469 -0.0146 -0.5390 -0.2007
 7857SOL     OW35029   2.216   1.761   4.139  0.1775  0.7240 -0.1549
 7857SOL    HW135030   2.298   1.780   4.184  0.2569  0.2106 -0.0911
 7857SOL    HW235031   2.151   1.798   4.199  0.4204  0.1385  0.4693
 7858SOL     OW35032   2.612   2.803   4.725  0.0795 -0.6398  0.3803
 7858SOL    HW135033   2.518   2.806   4.738  0.1695 -3.8461  1.7387
 7858SOL    HW235034   2.636   2.823   4.815  0.5947  2.5044 -0.4470
 7859SOL     OW35035   2.259   0.986   2.652  0.2341 -0.4629  0.3604
 7859SOL    HW135036   2.204   0.921   2.609  0.6440 -0.7942  0.3417
 7859SOL    HW235037   2.338   0.963   2.604  1.5283  0.7871  1.8837
 7860SOL     OW35038   0.277   1.913   0.370  0.6118 -0.3017 -0.1955
 7860SOL    HW135039   0.297   1.881   0.458 -0.1434  0.0538  0.1086
 7860SOL    HW235040   0.197   1.860   0.366  0.7156 -0.4771  0.0386
 7861SOL     OW35041   4.435   3.745   3.448 -0.4628  0.0112 -0.3667
 7861SOL    HW135042   4.362   3.730   3.388  1.3004 -1.0493 -2.2561
 7861SOL    HW235043   4.421   3.685   3.521 -0.5390  1.0645  0.4898
 7862SOL     OW35044   0.436   1.414   4.098  0.2755  0.6523  0.2232
 7862SOL    HW135045   0.486   1.391   4.177 -1.8904  0.6337  1.5909
 7862SOL    HW235046   0.355   1.455   4.126  0.9842  1.9313  0.4214
 7863SOL     OW35047   4.247   0.024  12.329 -0.2208 -0.6561 -0.1894
 7863SOL    HW135048   4.242   0.119  12.327 -0.1658 -0.6280  1.0839
 7863SOL    HW235049   4.278   0.002  12.241  0.6340 -0.0519 -0.0353
 7864SOL     OW35050   1.663   1.415   2.016 -0.0009 -0.0774 -0.1126
 7864SOL    HW135051   1.745   1.400   2.063 -0.3378 -0.3518  0.3737
 7864SOL    HW235052   1.700   1.474   1.950 -0.7377  1.1726  0.5998
 7865SOL     OW35053   4.377   2.381   7.664  0.1307  0.1223 -0.6976
 7865SOL    HW135054   4.305   2.432   7.703  0.5390  0.2963 -0.1808
 7865SOL    HW235055   4.445   2.448   7.655  1.7317 -1.3334  0.7930
 7866SOL     OW35056   0.461   3.185  16.251  0.4760  0.7215 -0.0358
 7866SOL    HW135057   0.429   3.198  16.161 -2.3283  2.1253  1.1596
 7866SOL    HW235058   0.543   3.234  16.242 -0.0499  1.7931  0.9475
 7867SOL     OW35059   0.702   0.258   0.549 -0.6578  0.2389  0.3570
 7867SOL    HW135060   0.758   0.332   0.528  0.8807 -1.1406 -0.4008
 7867SOL    HW235061   0.710   0.201   0.472  2.3929 -1.1144  1.6783
 7868SOL     OW35062   3.519   2.639   5.973 -0.0412  0.3068  0.1539
 7868SOL    HW135063   3.536   2.586   5.895  0.8300 -0.0154  0.5640
 7868SOL    HW235064   3.602   2.686   5.964  0.2315  0.0339  1.3227
 7869SOL     OW35065   2.629   0.442   7.417  0.5539 -0.0614 -0.1444
 7869SOL    HW135066   2.563   0.373   7.412  0.4522  0.0358 -0.1504
 7869SOL    HW235067   2.578   0.498   7.476  0.3286  2.3579 -2.6560
 7870SOL     OW35068   3.065   3.779   4.235  0.2926 -0.1616 -0.2564
 7870SOL    HW135069   2.979   3.820   4.231  0.2009 -0.1990  1.3359
 7870SOL    HW235070   3.107   3.842   4.295  0.1827  0.1190 -0.4761
 7871SOL     OW35071   3.394   3.264  15.986 -0.0092 -0.4089 -0.2532
 7871SOL    HW135072   3.353   3.263  15.900 -1.8789  0.1881  0.6323
 7871SOL    HW235073   3.325   3.287  16.048  1.0311  1.0983  0.3583
 7872SOL     OW35074   3.755   3.664   1.957 -0.2194 -0.1680  0.7726
 7872SOL    HW135075   3.710   3.736   1.912  0.2130 -0.4195 -0.0589
 7872SOL    HW235076   3.688   3.597   1.973 -0.4949 -0.0447  0.1273
 7873SOL     OW35077   3.223   0.615   3.873  0.1200 -0.5431 -0.2874
 7873SOL    HW135078   3.304   0.566   3.882 -0.2077 -1.2974 -1.3575
 7873SOL    HW235079   3.246   0.684   3.810 -0.8994 -1.4584 -1.6803
 7874SOL     OW35080   3.550   1.513  13.904  0.1269  0.1431 -0.4770
 7874SOL    HW135081   3.490   1.587  13.917 -0.4280 -0.1611 -1.3345
 7874SOL    HW235082   3.610   1.548  13.838  3.1665 -1.1621  1.6102
 7875SOL     OW35083   0.560   1.176   6.382 -0.2637  0.0773 -0.3845
 7875SOL    HW135084   0.513   1.231   6.320  1.5379  1.9749 -0.0426
 7875SOL    HW235085   0.646   1.217   6.379 -1.4487  2.6674  1.9543
 7876SOL     OW35086   4.049   2.490  11.673 -0.4563  0.0883  0.1083
 7876SOL    HW135087   4.018   2.539  11.749 -0.8158 -1.8889  1.2398
 7876SOL    HW235088   4.112   2.549  11.632 -2.4875  0.7381 -2.1260
 7877SOL     OW35089   3.482   2.161  13.149  0.1256  0.2288 -0.7391
 7877SOL    HW135090   3.518   2.189  13.233 -0.4869 -0.0775 -0.3733
 7877SOL    HW235091   3.396   2.203  13.157  0.8980  1.2850  2.1005
 7878SOL     OW35092   0.868   0.628  10.665 -0.1568 -0.8814 -0.2830
 7878SOL    HW135093   0.876   0.723  10.668 -0.4880 -0.8746  0.4822
 7878SOL    HW235094   0.772   0.632  10.664 -0.0727  1.0636  0.5624
 7879SOL     OW35095   1.186   2.701   0.891 -0.5464 -0.0722  0.6077
 7879SOL    HW135096   1.160   2.790   0.865 -1.6801 -0.7789 -0.7080
 7879SOL    HW235097   1.206   2.661   0.806 -1.6157 -0.7009  0.6518
 7880SOL     OW35098   2.729   4.411   5.496  0.5955  0.3159  0.6733
 7880SOL    HW135099   2.784   4.436   5.571 -1.5180  1.9543  1.6815
 7880SOL    HW235100   2.640   4.411   5.530  0.3364  1.5869  0.0155
 7881SOL     OW35101   0.288   0.441   1.681 -0.6359 -0.4787 -0.6054
 7881SOL    HW135102   0.197   0.410   1.684 -0.4895 -1.0790 -2.8180
 7881SOL    HW235103   0.322   0.353   1.674  0.6841 -0.0231  0.1004
 7882SOL     OW35104   3.641   3.704  15.643 -0.5607 -0.4149  0.4515
 7882SOL    HW135105   3.716   3.651  15.619 -0.4379  0.8511 -2.0059
 7882SOL    HW235106   3.642   3.773  15.576  0.2952 -1.0916 -0.2235
 7883SOL     OW35107   4.513   4.375   6.221  0.0150  0.5893 -0.9431
 7883SOL    HW135108   4.546   4.460   6.248  1.4563 -0.1356 -0.4063
 7883SOL    HW235109   4.440   4.354   6.280  0.4439  1.4633 -0.1116
 7884SOL     OW35110   3.031   3.944   3.869 -0.3491 -0.0767  0.4942
 7884SOL    HW135111   2.980   4.025   3.875  0.5265  0.5349 -0.3983
 7884SOL    HW235112   2.977   3.892   3.808 -0.7668  1.2444 -0.2603
 7885SOL     OW35113   2.273   4.131  15.533 -0.0746 -0.0469 -0.9880
 7885SOL    HW135114   2.334   4.199  15.504 -0.2528  0.5476  0.0476
 7885SOL    HW235115   2.322   4.053  15.508  2.7688  0.5542  2.8232
 7886SOL     OW35116   0.765   0.065  16.319 -0.0573  0.0209 -0.2378
 7886SOL    HW135117   0.855   0.096  16.332  0.1887 -1.6446  1.9965
 7886SOL    HW235118   0.781   4.700  16.282  0.6470  0.4947 -1.0351
 7887SOL     OW35119   0.506   3.819   2.330 -0.4696 -0.8649  0.1794
 7887SOL    HW135120   0.434   3.811   2.269 -0.8261 -2.5449  0.8154
 7887SOL    HW235121   0.482   3.775   2.411  1.8646  0.1799  1.4401
 7888SOL     OW35122   1.068   3.642   0.232 -1.1301  0.0958  1.0608
 7888SOL    HW135123   1.082   3.696   0.154  0.2221  0.4615  1.5659
 7888SOL    HW235124   0.974   3.657   0.226 -0.9394  0.5706 -0.8365
 7889SOL     OW35125   1.655   2.018   6.957  0.1363 -0.7265  0.5259
 7889SOL    HW135126   1.683   1.940   7.004 -1.1372 -1.9600 -0.7452
 7889SOL    HW235127   1.668   2.089   7.019  0.4301  1.0543 -1.5520
 7890SOL     OW35128   4.305   3.904   9.651  0.3176 -0.4336 -0.5252
 7890SOL    HW135129   4.225   3.854   9.668 -0.3993  0.8526 -0.1261
 7890SOL    HW235130   4.327   3.880   9.561 -0.6097 -0.1218 -0.8404
 7891SOL     OW35131   1.698   1.651  11.095  0.2923  0.3637  0.5821
 7891SOL    HW135132   1.726   1.692  11.013 -0.8520  0.9806  0.4979
 7891SOL    HW235133   1.706   1.561  11.064 -0.9392  0.1480  0.8755
 7892SOL     OW35134   0.939   1.484   0.872 -0.0703  0.2057 -0.5692
 7892SOL    HW135135   0.917   1.397   0.839 -2.1602  0.3171  0.5300
 7892SOL    HW235136   1.022   1.459   0.912 -0.1124 -1.1352 -1.3133
 7893SOL     OW35137   0.622   3.044   4.151  0.3564 -0.1777  0.4224
 7893SOL    HW135138   0.662   3.019   4.067 -1.6559  0.3803 -0.6916
 7893SOL    HW235139   0.676   2.990   4.209  1.7507 -0.9577 -1.5814
 7894SOL     OW35140   3.008   4.539   5.450 -0.4821  0.0026  0.3469
 7894SOL    HW135141   3.030   4.576   5.535 -0.7549  2.7253 -0.7620
 7894SOL    HW235142   3.021   4.446   5.469 -0.5411 -0.0646  0.0548
 7895SOL     OW35143   1.926   4.571   6.823 -0.8775 -0.1421  0.3617
 7895SOL    HW135144   1.967   4.584   6.909 -0.3211  0.5652 -0.0045
 7895SOL    HW235145   1.956   4.652   6.780  1.0907  0.1750  2.3380
 7896SOL     OW35146   2.079   3.760  15.322  0.4658  0.0029  0.1751
 7896SOL    HW135147   2.050   3.801  15.403 -1.0856 -1.7443  0.5097
 7896SOL    HW235148   2.149   3.814  15.287  0.2189  0.1305 -0.1137
 7897SOL     OW35149   2.939   2.890   8.465 -0.5222  0.1952  0.1949
 7897SOL    HW135150   3.004   2.821   8.476 -1.9812 -1.5794 -2.4248
 7897SOL    HW235151   2.986   2.941   8.399 -1.1259 -1.9964 -1.9043
 7898SOL     OW35152   2.736   0.271   1.039 -0.6966 -0.7003  0.2334
 7898SOL    HW135153   2.815   0.297   1.086  0.3064 -2.7499 -0.3143
 7898SOL    HW235154   2.763   0.181   1.020 -0.8534 -0.7832  0.3962
 7899SOL     OW35155   0.297   2.604  14.429 -0.5353  0.2546 -0.4199
 7899SOL    HW135156   0.384   2.643  14.416 -0.2578 -0.7355 -1.5134
 7899SOL    HW235157   0.243   2.668  14.383  1.2221  0.5149 -2.1713
 7900SOL     OW35158   2.980   3.698  16.787 -0.0054 -0.8794 -0.1725
 7900SOL    HW135159   2.938   3.747  16.858  1.3614  0.2690 -0.1528
 7900SOL    HW235160   3.003   3.618  16.834 -1.3309 -2.7652 -2.7056
 7901SOL     OW35161   2.462   1.111   5.230 -0.1932 -0.1742 -0.1213
 7901SOL    HW135162   2.416   1.084   5.151 -0.6897 -2.3289  0.9189
 7901SOL    HW235163   2.408   1.188   5.250  0.1696  0.0334  0.0594
 7902SOL     OW35164   2.230   2.140   6.702  0.5077 -0.8255  0.0082
 7902SOL    HW135165   2.262   2.219   6.746  0.3765 -1.5509  1.3733
 7902SOL    HW235166   2.280   2.150   6.621  0.0873  0.4786 -0.0895
 7903SOL     OW35167   0.357   0.708   9.163  0.1491 -0.1708 -0.1812
 7903SOL    HW135168   0.286   0.644   9.155 -2.0326  2.2948 -0.5205
 7903SOL    HW235169   0.428   0.649   9.190 -0.4635 -1.2439 -0.9196
 7904SOL     OW35170   4.243   1.249   3.215 -0.0905  0.1726 -0.2648
 7904SOL    HW135171   4.278   1.313   3.152  0.3601  0.9573  0.7961
 7904SOL    HW235172   4.172   1.301   3.253 -1.0450 -0.1505 -1.5909
 7905SOL     OW35173   0.033   4.077   5.567 -0.3691  0.2697 -0.1863
 7905SOL    HW135174   0.103   4.132   5.532  1.0197 -1.1261  0.4324
 7905SOL    HW235175   0.035   3.997   5.514  0.9121 -0.9405  1.7235
 7906SOL     OW35176   1.562   0.916   4.524 -0.3190  0.5800 -0.0186
 7906SOL    HW135177   1.572   0.832   4.569 -0.1879  0.7740  0.3129
 7906SOL    HW235178   1.609   0.887   4.446 -0.7925 -0.4384  0.0773
 7907SOL     OW35179   2.027   3.754   8.768  0.2045  0.0052  0.0627
 7907SOL    HW135180   2.098   3.790   8.716 -0.2605  0.5893 -0.1718
 7907SOL    HW235181   2.066   3.677   8.808 -0.1727  0.7511  1.8663
 7908SOL     OW35182   4.227   0.107   8.401 -0.0613 -0.3230  0.5996
 7908SOL    HW135183   4.146   0.150   8.426 -1.6576 -2.3827 -1.0918
 7908SOL    HW235184   4.243   0.086   8.493  1.7685 -0.2892  0.2936
 7909SOL     OW35185   0.736   0.773   3.829 -0.8231 -0.3076 -0.1552
 7909SOL    HW135186   0.831   0.768   3.834 -0.8577  0.8411  1.4975
 7909SOL    HW235187   0.719   0.712   3.902  0.3006 -2.3405 -1.5967
 7910SOL     OW35188   2.704   4.624   4.037 -0.1437 -0.4803  0.2899
 7910SOL    HW135189   2.628   4.682   4.034  0.3769  0.1945  0.1867
 7910SOL    HW235190   2.678   4.543   3.993 -1.0851 -0.1911  0.3135
 7911SOL     OW35191   2.498   1.710   6.086 -0.3429 -0.1332 -0.1161
 7911SOL    HW135192   2.458   1.650   6.150 -0.5429 -1.6019 -1.6077
 7911SOL    HW235193   2.417   1.758   6.068  0.8892  1.0697 -2.4001
 7912SOL     OW35194   3.921   1.002   0.128  0.4911  0.4607  0.4087
 7912SOL    HW135195   3.853   0.996   0.195 -1.1009 -2.0641 -1.4280
 7912SOL    HW235196   3.870   1.046   0.060  0.4207  0.3332  0.3787
 7913SOL     OW35197   1.122   4.625  10.387 -0.3592  1.0801  0.5330
 7913SOL    HW135198   1.215   4.645  10.398 -0.1452 -0.1120  0.9122
 7913SOL    HW235199   1.107   4.550  10.446  0.3987 -1.3426 -2.3711
 7914SOL     OW35200   2.673   2.965   8.082 -0.1599 -0.0323  0.0343
 7914SOL    HW135201   2.726   2.923   8.149 -1.4515  1.0795  1.7380
 7914SOL    HW235202   2.642   3.043   8.129  1.6970  0.5997  0.1945
 7915SOL     OW35203   3.571   1.238   3.424 -0.2586  0.1681  0.2197
 7915SOL    HW135204   3.565   1.145   3.406 -1.6092 -0.5206  4.3709
 7915SOL    HW235205   3.660   1.247   3.390 -0.2379  0.3961  0.3322
 7916SOL     OW35206   1.345   4.373   7.964  0.5480 -0.5183  0.1429
 7916SOL    HW135207   1.397   4.328   7.897 -1.2338 -1.1127 -0.8411
 7916SOL    HW235208   1.257   4.340   7.946 -0.8017  2.5855  1.0630
 7917SOL     OW35209   2.542   2.552   6.393  0.1275  0.5374  0.1133
 7917SOL    HW135210   2.606   2.612   6.430  0.4895 -0.6060  1.3477
 7917SOL    HW235211   2.539   2.486   6.462  0.5173  0.1276 -0.2615
 7918SOL     OW35212   1.645   3.982   1.537 -0.1962  0.0193 -0.0489
 7918SOL    HW135213   1.636   4.068   1.497 -2.8616  0.1379  0.8320
 7918SOL    HW235214   1.691   3.999   1.619  0.7503  2.3215 -1.0564
 7919SOL     OW35215   3.263   2.583   4.434 -0.1600  0.0919  0.2076
 7919SOL    HW135216   3.274   2.566   4.528 -0.0169  1.1622  0.3832
 7919SOL    HW235217   3.352   2.612   4.414 -0.3071 -0.5929 -1.4330
 7920SOL     OW35218   0.049   3.151   5.415 -0.3013  0.5884 -0.2187
 7920SOL    HW135219   0.017   3.241   5.422 -0.8714  0.3861 -0.2201
 7920SOL    HW235220   0.105   3.141   5.492  0.1243 -3.0529 -0.9916
 7921SOL     OW35221   3.416   1.789  17.520  0.6188 -0.1937  0.2321
 7921SOL    HW135222   3.404   1.728  17.446 -0.0936 -0.3517  0.4738
 7921SOL    HW235223   3.505   1.820  17.507  0.4772  0.0000 -0.2912
 7922SOL     OW35224   3.285   1.500   7.809  0.2031  0.2897 -0.3793
 7922SOL    HW135225   3.327   1.572   7.761 -2.0751  3.4703  2.3423
 7922SOL    HW235226   3.216   1.547   7.857 -0.2875 -0.8612  0.0266
 7923SOL     OW35227   4.210   2.748  15.473 -0.3705  0.4052  0.2024
 7923SOL    HW135228   4.237   2.706  15.392 -2.1598 -2.2175  0.9957
 7923SOL    HW235229   4.293   2.772  15.515  0.2249 -1.1252 -0.0947
 7924SOL     OW35230   2.085   2.774  17.161 -0.1674 -0.1608  0.3162
 7924SOL    HW135231   2.147   2.829  17.113 -0.6998  0.3934  0.2700
 7924SOL    HW235232   2.147   2.702  17.176 -1.2716 -1.3397 -0.8345
 7925SOL     OW35233   2.416   1.071  12.525 -0.1754 -0.4555  0.1610
 7925SOL    HW135234   2.346   1.008  12.506 -0.1130  0.1181 -1.9233
 7925SOL    HW235235   2.364   1.151  12.534 -1.1782 -0.9633 -1.1268
 7926SOL     OW35236   2.714   4.086   4.717  0.2750 -0.1143 -0.0593
 7926SOL    HW135237   2.659   4.081   4.639 -1.6819 -0.6298  1.3392
 7926SOL    HW235238   2.758   4.171   4.706  1.5636 -0.9303 -1.1091
 7927SOL     OW35239   3.916   0.684  16.599 -0.4289 -0.5487  0.4906
 7927SOL    HW135240   3.934   0.641  16.682 -4.0425  0.0750  1.5555
 7927SOL    HW235241   3.995   0.739  16.607 -0.3941 -0.8928  2.2733
 7928SOL     OW35242   1.580   0.836   8.782  0.5898  0.6210 -0.0850
 7928SOL    HW135243   1.486   0.848   8.800  0.4480  0.9868 -1.0255
 7928SOL    HW235244   1.604   0.769   8.845  0.4169 -1.1133 -1.8584
 7929SOL     OW35245   2.550   4.473   1.394  0.1008  0.0481 -0.8091
 7929SOL    HW135246   2.504   4.492   1.477 -0.0228  2.0673 -1.3255
 7929SOL    HW235247   2.579   4.562   1.373  0.3149 -0.4116 -2.4348
 7930SOL     OW35248   0.873   3.885  14.086  0.6335 -0.6397 -0.1678
 7930SOL    HW135249   0.821   3.848  14.015 -3.4249  3.9161  0.4826
 7930SOL    HW235250   0.956   3.854  14.050  0.5091 -2.1379  0.8519
 7931SOL     OW35251   2.852   1.539  16.107 -0.2596  0.4679 -0.3331
 7931SOL    HW135252   2.786   1.496  16.053 -0.3551  0.1616  0.0302
 7931SOL    HW235253   2.801   1.600  16.160  1.2505 -0.1690  1.8433
 7932SOL     OW35254   1.168   1.227   6.795 -0.0319 -0.7707 -0.0322
 7932SOL    HW135255   1.200   1.182   6.873 -0.1278  1.9871  1.5806
 7932SOL    HW235256   1.143   1.313   6.828  1.6067 -0.2464 -0.2106
 7933SOL     OW35257   1.114   3.029  10.662 -0.7841 -0.1402 -0.6711
 7933SOL    HW135258   1.048   3.079  10.709 -0.4982  0.3102 -0.7547
 7933SOL    HW235259   1.105   2.943  10.703  0.5311  0.1534  0.1990
 7934SOL     OW35260   2.214   4.504  11.543 -0.2316 -0.5119  0.0821
 7934SOL    HW135261   2.153   4.473  11.611 -1.6431  0.2526 -0.8350
 7934SOL    HW235262   2.170   4.480  11.461  0.4739 -0.3356 -0.3455
 7935SOL     OW35263   1.661   2.731  11.540  0.2572 -0.1641 -0.4711
 7935SOL    HW135264   1.602   2.657  11.535 -0.8817  0.6712  0.4954
 7935SOL    HW235265   1.681   2.759  11.451  0.6153  0.5069 -0.1790
 7936SOL     OW35266   4.707   4.558   2.759 -0.3043  0.0778 -0.0582
 7936SOL    HW135267   0.034   4.556   2.841  1.7062  1.4310 -1.2064
 7936SOL    HW235268   4.679   4.467   2.759  0.6251 -0.2118  0.2304
 7937SOL     OW35269   4.361   4.006   3.563  0.7326 -0.0919  0.6684
 7937SOL    HW135270   4.400   4.014   3.650  0.0301 -1.6028  1.1376
 7937SOL    HW235271   4.356   3.913   3.540 -2.8338  0.3630 -0.4081
 7938SOL     OW35272   4.173   1.693   1.597 -0.1406 -0.0499 -0.5057
 7938SOL    HW135273   4.085   1.729   1.603 -0.3333 -0.4467 -0.9436
 7938SOL    HW235274   4.158   1.650   1.513 -1.9695  2.1801 -1.2891
 7939SOL     OW35275   2.906   1.732  12.410 -0.3004  0.6749  0.0188
 7939SOL    HW135276   2.889   1.696  12.497  0.0043 -2.6108 -1.3148
 7939SOL    HW235277   2.969   1.673  12.369 -1.2485 -0.7618  0.6400
 7940SOL     OW35278   1.388   4.655   9.345  1.0047  0.2150  0.2414
 7940SOL    HW135279   1.344   0.017   9.362 -2.2663 -1.6192  0.8491
 7940SOL    HW235280   1.336   4.640   9.266 -0.7343  1.4069  1.1386
 7941SOL     OW35281   1.071   2.468   4.833 -0.2439  0.3332 -0.4176
 7941SOL    HW135282   1.106   2.517   4.758 -1.1376 -1.4605 -2.0009
 7941SOL    HW235283   1.004   2.533   4.857  1.0738  1.3179  0.5876
 7942SOL     OW35284   1.101   0.095   7.412  0.1203  0.1755  0.2813
 7942SOL    HW135285   1.166   0.042   7.365 -0.9963 -0.3632 -0.6602
 7942SOL    HW235286   1.095   0.050   7.496  0.1075  0.9352  0.6855
 7943SOL     OW35287   1.577   3.447   6.694  0.3741  0.6366 -0.3398
 7943SOL    HW135288   1.552   3.426   6.604 -1.1072 -2.5671  0.8397
 7943SOL    HW235289   1.499   3.494   6.722 -0.1043 -0.2979 -0.1172
 7944SOL     OW35290   1.090   1.550   0.465 -0.4224  0.1131 -0.3477
 7944SOL    HW135291   1.005   1.505   0.465  0.0638 -0.7680 -1.6446
 7944SOL    HW235292   1.123   1.521   0.381 -0.6599 -1.9919  0.2816
 7945SOL     OW35293   0.185   2.756   2.318  0.1697  0.4431  0.1068
 7945SOL    HW135294   0.115   2.820   2.305 -0.7059 -0.0043  2.5500
 7945SOL    HW235295   0.218   2.736   2.230  1.1161 -0.3122  0.6418
 7946SOL     OW35296   1.105   0.911   5.319  0.2180 -0.2082  0.3000
 7946SOL    HW135297   1.089   0.977   5.386 -0.3285 -0.4991  0.4525
 7946SOL    HW235298   1.023   0.861   5.317  0.1365 -0.0205 -0.7897
 7947SOL     OW35299   3.954   4.515   0.595 -0.2496  0.4794 -0.0977
 7947SOL    HW135300   3.962   4.496   0.688  0.1391 -1.0800 -0.4583
 7947SOL    HW235301   4.034   4.566   0.586  1.2187 -1.9269 -0.6920
 7948SOL     OW35302   4.387   2.600   6.409  0.5283  0.3628  0.3530
 7948SOL    HW135303   4.382   2.642   6.324  1.2731 -0.4211 -0.0769
 7948SOL    HW235304   4.295   2.605   6.435  0.5586  0.1887  0.4996
 7949SOL     OW35305   1.658   0.293   4.106  0.2780 -0.3295  0.0989
 7949SOL    HW135306   1.712   0.312   4.183  2.9974  2.7949 -2.6063
 7949SOL    HW235307   1.581   0.256   4.150  0.8772  0.2217  1.6035
 7950SOL     OW35308   4.513   4.644   4.550  0.5433  0.7200 -0.9605
 7950SOL    HW135309   4.477   4.706   4.487  0.0466  0.5621 -0.8355
 7950SOL    HW235310   4.591   4.689   4.583  1.2603 -1.1936 -0.0399
 7951SOL     OW35311   3.250   1.584   8.095  0.0666  0.3320  0.0362
 7951SOL    HW135312   3.290   1.501   8.122  0.5785  0.5604 -0.0215
 7951SOL    HW235313   3.163   1.557   8.065 -0.2339 -0.7508  1.8729
 7952SOL     OW35314   0.675   4.507   4.622 -0.3653 -0.2197  0.7484
 7952SOL    HW135315   0.613   4.564   4.577  2.3462  0.5783 -1.9675
 7952SOL    HW235316   0.751   4.511   4.564 -0.2409  1.9730  1.0502
 7953SOL     OW35317   0.631   2.995   2.003 -0.2767 -0.4187  0.1089
 7953SOL    HW135318   0.548   3.029   1.968 -1.1859 -1.8545  0.8681
 7953SOL    HW235319   0.689   3.012   1.928  0.2437 -0.1082  0.5866
 7954SOL     OW35320   2.402   1.173   9.977  0.0928 -0.8110  0.4678
 7954SOL    HW135321   2.371   1.179  10.068 -0.9346 -1.9082  0.1884
 7954SOL    HW235322   2.417   1.266   9.963 -0.8937 -0.4883  1.5037
 7955SOL     OW35323   1.863   0.161   3.917  0.6892  0.1613  0.2512
 7955SOL    HW135324   1.877   0.243   3.964  0.5096  0.2696  0.1135
 7955SOL    HW235325   1.776   0.139   3.951 -0.2053  3.0624 -0.1984
 7956SOL     OW35326   2.304   4.544   3.016 -0.4444 -0.4656 -0.1757
 7956SOL    HW135327   2.343   4.478   3.072  1.7955 -0.0230 -1.2091
 7956SOL    HW235328   2.214   4.545   3.050 -0.0566  1.8926  0.8060
 7957SOL     OW35329   4.369   4.098   5.410  0.2107  0.3787  0.2860
 7957SOL    HW135330   4.361   4.192   5.390 -1.4135  0.0691 -0.6204
 7957SOL    HW235331   4.426   4.110   5.486 -0.1236 -2.0061  0.9126
 7958SOL     OW35332   4.145   0.837   8.052 -0.0533 -0.5487  0.0220
 7958SOL    HW135333   4.147   0.921   8.098 -2.7627  0.2543 -1.3269
 7958SOL    HW235334   4.152   0.876   7.966 -0.4245 -1.0357 -0.2301
 7959SOL     OW35335   2.568   0.174   6.763 -0.3609 -0.2435 -0.1119
 7959SOL    HW135336   2.655   0.202   6.791 -0.5005 -0.6937  0.7844
 7959SOL    HW235337   2.571   0.171   6.668 -3.3706 -1.9249 -0.1741
 7960SOL     OW35338   2.286   4.139   9.790 -0.1636 -0.2854 -0.3384
 7960SOL    HW135339   2.219   4.162   9.854  0.7587  0.3955  0.3893
 7960SOL    HW235340   2.334   4.075   9.842  0.2752 -0.8252 -1.4148
 7961SOL     OW35341   0.608   1.710   6.309 -0.4812 -0.1093 -0.6264
 7961SOL    HW135342   0.652   1.633   6.273  1.0626 -0.2944  1.6737
 7961SOL    HW235343   0.645   1.692   6.396  0.0469 -0.3620 -0.9038
 7962SOL     OW35344   2.442   2.963   9.196 -0.1679  0.0803  0.4288
 7962SOL    HW135345   2.463   2.906   9.270 -1.8381 -1.5125 -0.3231
 7962SOL    HW235346   2.348   2.950   9.188 -0.2698  1.0254  0.0235
 7963SOL     OW35347   2.026   3.364  17.151  0.5353  0.0795 -0.6828
 7963SOL    HW135348   1.975   3.445  17.158 -1.9943 -1.9160  4.3069
 7963SOL    HW235349   2.085   3.395  17.083  2.0107 -0.8570  0.1726
 7964SOL     OW35350   2.876   2.055  12.569  0.0854 -0.3722 -0.1568
 7964SOL    HW135351   2.919   2.141  12.578 -0.7136 -0.0822  0.8369
 7964SOL    HW235352   2.787   2.074  12.598  0.6807  1.4207  0.5276
 7965SOL     OW35353   4.694   0.155   5.737 -0.3342 -0.4065  0.4627
 7965SOL    HW135354   0.005   0.104   5.663 -1.3289 -1.3173  0.6495
 7965SOL    HW235355   0.031   0.227   5.715 -1.1657 -0.6326 -2.4716
 7966SOL     OW35356   1.638   2.039  14.855  0.2285  0.2906 -0.4103
 7966SOL    HW135357   1.696   2.044  14.931 -1.3803 -1.3118  0.9075
 7966SOL    HW235358   1.657   2.124  14.814 -0.4802 -0.5351 -2.4499
 7967SOL     OW35359   1.048   0.529  15.467  0.3189 -0.1939  0.0147
 7967SOL    HW135360   1.056   0.555  15.559 -0.0326 -1.0854  0.2931
 7967SOL    HW235361   1.061   0.436  15.485  0.6919 -0.3000 -0.7956
 7968SOL     OW35362   1.548   0.365  15.233 -0.0542 -0.2410  0.3987
 7968SOL    HW135363   1.483   0.435  15.235 -0.2316 -0.3770 -0.6512
 7968SOL    HW235364   1.596   0.384  15.153  0.2336 -0.8853  0.4154
 7969SOL     OW35365   4.653   1.701  13.851  0.1614  0.3116  0.1912
 7969SOL    HW135366   4.577   1.718  13.906  0.8711  0.4092  1.1385
 7969SOL    HW235367   4.666   1.607  13.844  0.9362  0.5093 -1.1249
 7970SOL     OW35368   2.616   1.818   8.061  0.0622 -0.2824  0.2080
 7970SOL    HW135369   2.698   1.782   8.094  0.0424 -0.2894  0.2488
 7970SOL    HW235370   2.562   1.807   8.139 -3.5970  0.8000 -2.1434
 7971SOL     OW35371   3.995   2.327   5.049  0.0059 -0.0135 -0.0812
 7971SOL    HW135372   3.960   2.300   5.134  0.6582  1.8651  0.7603
 7971SOL    HW235373   4.060   2.262   5.021 -1.6939 -0.6916 -2.4588
 7972SOL     OW35374   4.107   2.527   0.086 -0.1101 -0.3582  0.4835
 7972SOL    HW135375   4.148   2.597   0.036  2.3560 -0.5818  2.1792
 7972SOL    HW235376   4.103   2.457   0.021 -0.6289  0.8932 -0.8143
 7973SOL     OW35377   4.048   4.716   9.522 -0.2210  0.8558  0.5733
 7973SOL    HW135378   4.110   0.039   9.580  0.1445  1.5293 -0.3327
 7973SOL    HW235379   3.962   0.012   9.560 -0.8735 -1.4932  0.2029
 7974SOL     OW35380   0.721   3.589  11.137 -0.2818  0.3834  0.2712
 7974SOL    HW135381   0.805   3.571  11.094  1.0053  2.0885  2.0518
 7974SOL    HW235382   0.740   3.629  11.222  1.8060 -1.4486  0.6836
 7975SOL     OW35383   0.591   2.555   0.710  0.2388  0.0932 -0.1527
 7975SOL    HW135384   0.550   2.614   0.773 -1.1615 -0.5322 -0.4709
 7975SOL    HW235385   0.598   2.470   0.754 -2.4682 -1.2510 -2.2678
 7976SOL     OW35386   1.045   1.304   5.769 -0.2751 -0.0803  0.1956
 7976SOL    HW135387   1.067   1.320   5.677  0.3153  1.1763  0.5606
 7976SOL    HW235388   1.081   1.380   5.814 -0.5735  0.4466 -0.4487
 7977SOL     OW35389   4.312   3.314   2.308 -1.0076  0.8815 -0.5345
 7977SOL    HW135390   4.234   3.297   2.360 -0.0120 -3.8141 -0.5585
 7977SOL    HW235391   4.348   3.229   2.281 -0.9684  1.2299 -1.5955
 7978SOL     OW35392   1.103   0.164   7.868 -0.1482  0.3173 -0.1527
 7978SOL    HW135393   1.177   0.219   7.895  0.3311 -0.2752 -0.2566
 7978SOL    HW235394   1.134   0.076   7.892  0.3893  1.4505  3.3849
 7979SOL     OW35395   2.777   3.130   2.899  0.0379  0.2890 -0.3563
 7979SOL    HW135396   2.687   3.096   2.901  0.5415 -0.9531  1.3243
 7979SOL    HW235397   2.820   3.054   2.861 -0.7807  1.0504 -2.8584
 7980SOL     OW35398   1.633   2.886   6.238  0.3100 -0.3942 -0.2064
 7980SOL    HW135399   1.637   2.868   6.144 -0.7348  0.0120 -0.3271
 7980SOL    HW235400   1.727   2.894   6.253 -0.4545  3.3558  2.4287
 7981SOL     OW35401   2.562   3.860   8.223 -0.0434  0.2640  0.4944
 7981SOL    HW135402   2.550   3.865   8.318  1.2576 -3.0163  0.8513
 7981SOL    HW235403   2.654   3.887   8.218 -0.7567  2.1863 -2.3436
 7982SOL     OW35404   2.195   3.616   3.628  0.1683 -0.2477 -0.0499
 7982SOL    HW135405   2.149   3.561   3.565  0.0059 -0.9953  0.7275
 7982SOL    HW235406   2.125   3.676   3.652 -0.8178 -1.0695 -0.8847
 7983SOL     OW35407   2.722   3.807   6.715  0.4794 -0.3712  0.0438
 7983SOL    HW135408   2.788   3.841   6.776 -2.1676  1.8864  1.6845
 7983SOL    HW235409   2.740   3.713   6.720 -1.0352 -0.6436  0.3371
 7984SOL     OW35410   1.915   3.008   8.464  0.5144  0.7915 -0.2330
 7984SOL    HW135411   1.949   2.933   8.415 -3.3708 -1.3849  0.3880
 7984SOL    HW235412   1.908   3.076   8.397 -0.4944 -0.3566 -1.2906
 7985SOL     OW35413   0.129   3.526   8.241 -0.4341 -0.3185 -0.1053
 7985SOL    HW135414   0.061   3.529   8.308 -0.3325 -1.6895  0.0694
 7985SOL    HW235415   0.180   3.453   8.277 -0.4781  0.8536  2.3509
 7986SOL     OW35416   0.197   0.906   8.887 -0.0139 -0.2035 -0.1575
 7986SOL    HW135417   0.283   0.893   8.926  0.3390  0.5597 -0.6808
 7986SOL    HW235418   0.207   0.858   8.805 -1.5918 -0.4918 -0.1856
 7987SOL     OW35419   2.702   1.219   3.762 -0.6735 -1.1596  0.5515
 7987SOL    HW135420   2.738   1.145   3.810  0.6012 -0.5617  0.5145
 7987SOL    HW235421   2.771   1.285   3.767 -0.9368 -0.8154 -0.2787
 7988SOL     OW35422   2.715   3.538   1.521 -0.3760  0.5195 -0.0224
 7988SOL    HW135423   2.793   3.539   1.466 -0.3348  1.7544  0.0535
 7988SOL    HW235424   2.688   3.447   1.537  2.7922 -0.4488 -0.2075
 7989SOL     OW35425   2.388   3.651   8.355  0.1846  0.2257 -0.5809
 7989SOL    HW135426   2.435   3.726   8.391  1.1936 -0.9184  0.4845
 7989SOL    HW235427   2.336   3.630   8.433  0.5223 -0.8779 -0.6460
 7990SOL     OW35428   4.685   2.319   7.320  0.0219  0.2475  0.0675
 7990SOL    HW135429   0.029   2.293   7.255  2.0168  0.6082  1.9025
 7990SOL    HW235430   4.629   2.242   7.322  0.0790  0.2000 -0.3798
 7991SOL     OW35431   2.153   1.059   5.191  0.7385 -0.3077 -0.0815
 7991SOL    HW135432   2.200   1.092   5.114 -1.7748  2.4303 -0.4181
 7991SOL    HW235433   2.192   1.101   5.268  2.0879 -0.1894 -0.8215
 7992SOL     OW35434   2.525   1.698   7.821  0.2890  0.2462  0.0301
 7992SOL    HW135435   2.464   1.760   7.781 -1.4222 -0.6879  1.1834
 7992SOL    HW235436   2.546   1.751   7.899 -0.4978  1.8215 -0.8235
 7993SOL     OW35437   0.172   4.134   0.513 -0.6311  0.3126  0.2908
 7993SOL    HW135438   0.083   4.119   0.483 -0.7049  2.3993 -0.5961
 7993SOL    HW235439   0.174   4.098   0.601  2.5476 -3.5328 -1.3841
 7994SOL     OW35440   3.466   3.841   6.714  0.5755  0.3617  0.2735
 7994SOL    HW135441   3.487   3.878   6.628  0.9368  1.4798  0.8350
 7994SOL    HW235442   3.396   3.897   6.746 -0.3041  0.7970 -2.3880
 7995SOL     OW35443   3.230   0.634   5.414  0.5745  0.2932  0.0932
 7995SOL    HW135444   3.147   0.682   5.417  0.3276 -0.2269  1.3572
 7995SOL    HW235445   3.246   0.623   5.320 -2.7810 -1.4454 -0.2657
 7996SOL     OW35446   3.666   1.619  14.418  0.2711  0.0181  0.0656
 7996SOL    HW135447   3.753   1.587  14.440 -0.1887 -2.7209 -2.0397
 7996SOL    HW235448   3.675   1.714  14.410  1.2299 -0.0749  0.0701
 7997SOL     OW35449   3.744   4.051   9.863  0.7004  0.4442 -0.6116
 7997SOL    HW135450   3.696   4.031   9.783  2.5808  0.9285 -1.8693
 7997SOL    HW235451   3.691   3.993   9.917 -1.3417  2.6018 -0.3044
 7998SOL     OW35452   1.255   2.758   5.008  0.0444  0.1618  0.2833
 7998SOL    HW135453   1.253   2.731   4.916  0.6882 -1.5149  0.7589
 7998SOL    HW235454   1.222   2.681   5.054 -3.0572  0.6046 -1.1952
 7999SOL     OW35455   1.707   1.370   3.927  0.0906  0.3538  0.6721
 7999SOL    HW135456   1.782   1.353   3.871 -1.1511 -0.0177 -0.8797
 7999SOL    HW235457   1.723   1.308   3.998  1.5583  0.2718  0.2751
 8000SOL     OW35458   1.068   2.398   8.430  0.0718  0.0678 -0.8575
 8000SOL    HW135459   1.061   2.472   8.368  0.0539 -1.1209 -2.2797
 8000SOL    HW235460   0.987   2.419   8.477  0.0709  1.2391 -1.3649
 8001SOL     OW35461   2.038   0.562   3.664 -0.1443  0.9819  0.6368
 8001SOL    HW135462   1.987   0.483   3.680  0.8172  0.6639  2.0956
 8001SOL    HW235463   2.069   0.548   3.574 -1.8846 -2.3489  0.5688
 8002SOL     OW35464   1.452   4.149  14.732  0.0430  0.2589 -0.1622
 8002SOL    HW135465   1.390   4.087  14.695  2.3706 -2.3845  0.3236
 8002SOL    HW235466   1.399   4.220  14.769 -1.3491 -0.7047 -0.3073
 8003SOL     OW35467   1.167   2.990  10.325  0.5630  0.3202  0.1515
 8003SOL    HW135468   1.158   2.988  10.229  0.0242  0.0208  0.2116
 8003SOL    HW235469   1.082   2.959  10.355  2.1557 -3.5428  0.6338
 8004SOL     OW35470   4.604   3.544  14.907  0.4989  0.8417 -0.1363
 8004SOL    HW135471   4.526   3.496  14.935 -0.0495  1.8169  0.0138
 8004SOL    HW235472   4.581   3.636  14.918 -2.7678  0.0828 -0.8352
 8005SOL     OW35473   1.655   4.679   3.866  0.0652  0.6610 -0.1401
 8005SOL    HW135474   1.661   4.589   3.897 -0.6358 -0.1987 -2.4788
 8005SOL    HW235475   1.691   4.677   3.777  2.4275 -3.0795  0.9093
 8006SOL     OW35476   1.000   4.273   5.239  0.1440 -0.0896 -0.1063
 8006SOL    HW135477   1.032   4.214   5.171  0.8515  1.9575 -1.5323
 8006SOL    HW235478   1.028   4.221   5.315  2.0749 -0.7001 -1.2533
 8007SOL     OW35479   1.643   3.901   5.514 -0.3103  0.0612 -0.4576
 8007SOL    HW135480   1.643   3.969   5.447 -0.3797  2.2316  1.7825
 8007SOL    HW235481   1.721   3.926   5.564 -0.9010  0.1025  0.4290
 8008SOL     OW35482   3.095   3.184  12.581  0.3451 -0.3109  0.0465
 8008SOL    HW135483   3.111   3.110  12.640 -1.9984  0.0049  1.0839
 8008SOL    HW235484   3.008   3.215  12.606 -0.2122  0.3944 -2.8039
 8009SOL     OW35485   2.097   0.270  10.077 -0.5698  0.8136 -0.1729
 8009SOL    HW135486   2.180   0.225  10.062  1.2010  3.9063  0.2988
 8009SOL    HW235487   2.064   0.206  10.140 -0.9059 -0.5556 -1.7246
 8010SOL     OW35488   4.186   2.972   1.979  0.8608  0.5050 -0.1788
 8010SOL    HW135489   4.260   3.032   1.983  1.3794 -0.0356 -1.5701
 8010SOL    HW235490   4.114   3.022   1.939  0.1516 -1.5762 -1.5146
 8011SOL     OW35491   2.995   0.742   6.446 -0.4165  0.0105 -0.6760
 8011SOL    HW135492   3.028   0.741   6.536 -0.5561 -1.0088 -0.6407
 8011SOL    HW235493   3.049   0.681   6.396  0.0698 -2.7838  3.2961
 8012SOL     OW35494   3.623   3.623   4.922 -0.5455 -0.1317 -0.0292
 8012SOL    HW135495   3.643   3.683   4.850 -0.3702 -0.3864 -0.1901
 8012SOL    HW235496   3.710   3.597   4.954 -0.5303  2.1313  1.8323
 8013SOL     OW35497   3.894   2.708   9.029  0.5233  0.5449 -0.1282
 8013SOL    HW135498   3.948   2.733   8.954  1.2377 -2.3531 -0.5880
 8013SOL    HW235499   3.866   2.621   9.001  0.0896 -0.0284  2.0679
 8014SOL     OW35500   3.936   2.111   8.573 -0.1288  0.6285 -0.7025
 8014SOL    HW135501   3.919   2.017   8.577  1.7272  0.3851  1.7343
 8014SOL    HW235502   4.031   2.115   8.584 -0.0826  1.7050 -1.4740
 8015SOL     OW35503   1.283   1.130  12.565  0.0683 -0.2867 -0.5171
 8015SOL    HW135504   1.378   1.119  12.560  0.0733 -0.6351  0.4752
 8015SOL    HW235505   1.250   1.081  12.489 -2.5417 -0.5635  0.8146
 8016SOL     OW35506   0.421   0.269   4.768 -0.4922 -0.3246  0.1977
 8016SOL    HW135507   0.374   0.318   4.700 -1.6161 -0.7660  0.6495
 8016SOL    HW235508   0.429   0.331   4.839  1.9508  0.6363 -0.9179
 8017SOL     OW35509   2.554   1.475  16.416  0.3658  0.0373  0.3493
 8017SOL    HW135510   2.567   1.388  16.453 -0.0592 -0.3487 -0.3987
 8017SOL    HW235511   2.519   1.515  16.495  0.4172  0.3307  0.2228
 8018SOL     OW35512   1.310   0.382   2.479  0.7094  0.3349 -0.0163
 8018SOL    HW135513   1.308   0.305   2.422 -1.4333  1.0897 -0.9531
 8018SOL    HW235514   1.235   0.353   2.532 -0.7766  2.0242 -1.1816
 8019SOL     OW35515   2.809   2.677  15.845  0.2741 -0.4631 -0.7070
 8019SOL    HW135516   2.866   2.612  15.807  1.2175  0.9308 -1.6734
 8019SOL    HW235517   2.772   2.624  15.916  1.3186 -1.5213 -0.9681
 8020SOL     OW35518   0.517   1.810   9.769 -0.5450  0.3220  0.6285
 8020SOL    HW135519   0.453   1.792   9.838  0.2852 -0.8865  1.0819
 8020SOL    HW235520   0.481   1.890   9.731 -0.7379  0.0720  0.2895
 8021SOL     OW35521   3.509   3.376  16.939 -0.4041 -0.2689 -0.5188
 8021SOL    HW135522   3.584   3.331  16.898  0.1668 -1.6605  2.0874
 8021SOL    HW235523   3.465   3.432  16.876  1.1521 -0.2277 -1.5846
 8022SOL     OW35524   1.302   3.948   4.030 -0.2354 -0.1814 -0.5844
 8022SOL    HW135525   1.233   3.909   4.083 -1.7574  2.0041 -0.9627
 8022SOL    HW235526   1.301   3.875   3.968  2.5043  0.8882 -1.8882
 8023SOL     OW35527   2.042   3.388   0.738 -0.0772  0.2882 -0.4595
 8023SOL    HW135528   2.019   3.481   0.740  3.2983  1.1311 -1.5571
 8023SOL    HW235529   1.980   3.358   0.804  0.1885  0.8058  0.0206
 8024SOL     OW35530   2.611   4.093   0.409  0.6979  0.5651 -0.3899
 8024SOL    HW135531   2.578   4.019   0.359 -0.8231  1.4826 -0.7683
 8024SOL    HW235532   2.685   4.124   0.358  0.9442 -0.1478 -0.4546
 8025SOL     OW35533   1.092   3.166   1.769  0.1142 -0.2433  0.3984
 8025SOL    HW135534   1.033   3.232   1.805 -1.2910 -1.2149 -0.1202
 8025SOL    HW235535   1.045   3.091   1.805  0.4925 -0.1765  1.0197
 8026SOL     OW35536   0.974   2.040   3.295 -0.1405 -0.0132  0.1735
 8026SOL    HW135537   1.054   1.988   3.306 -0.6352 -0.4285  1.8052
 8026SOL    HW235538   0.996   2.083   3.213 -1.6421  2.5824  1.1445
 8027SOL     OW35539   2.908   0.061   7.504 -0.3350  0.5238 -0.0507
 8027SOL    HW135540   2.861   0.020   7.577  0.9312  2.0699  1.6368
 8027SOL    HW235541   2.893   0.155   7.518  0.4509  0.6460 -0.0580
 8028SOL     OW35542   4.498   4.064   8.728  0.6749  0.3401  0.2384
 8028SOL    HW135543   4.593   4.072   8.726  0.7474 -0.3406  1.1812
 8028SOL    HW235544   4.487   3.987   8.671 -0.0778  0.1771  0.6071
 8029SOL     OW35545   0.430   0.348   1.418 -0.0474  0.5988  0.5141
 8029SOL    HW135546   0.348   0.311   1.386  0.1855 -0.8051  1.5331
 8029SOL    HW235547   0.446   0.316   1.507  3.5483  1.0940  0.0307
 8030SOL     OW35548   0.656   3.357   4.840  0.6749 -0.1554  0.2297
 8030SOL    HW135549   0.669   3.310   4.758  0.4571 -0.2732  0.2638
 8030SOL    HW235550   0.576   3.315   4.870  1.7981 -2.4236  0.0232
 8031SOL     OW35551   0.650   1.997  11.112  0.2609  0.8795 -0.1614
 8031SOL    HW135552   0.627   2.079  11.069  0.0506  1.1767  0.5109
 8031SOL    HW235553   0.730   2.018  11.159  0.2222 -1.9395  1.1688
 8032SOL     OW35554   2.112   1.600   5.846  0.4399  0.3756  0.7884
 8032SOL    HW135555   2.050   1.661   5.885 -0.9726  1.6465 -3.4640
 8032SOL    HW235556   2.154   1.568   5.926 -0.1518 -0.6288  0.7004
 8033SOL     OW35557   1.386   3.147   4.279  0.1707  0.0635 -0.1777
 8033SOL    HW135558   1.387   3.242   4.270 -0.8014  0.0890 -0.0011
 8033SOL    HW235559   1.328   3.122   4.207 -0.8178  2.6139 -0.2423
 8034SOL     OW35560   3.488   2.459   3.439  0.1841 -0.5368 -0.0935
 8034SOL    HW135561   3.504   2.396   3.509 -0.1850 -0.9733 -0.4058
 8034SOL    HW235562   3.524   2.540   3.476  0.1711 -0.4873 -0.1886
 8035SOL     OW35563   4.463   2.220  10.736  0.0885  0.3215 -0.1179
 8035SOL    HW135564   4.369   2.236  10.742  0.7473  3.9365  0.3596
 8035SOL    HW235565   4.465   2.129  10.705 -2.8570 -0.0440  0.7718
 8036SOL     OW35566   4.626   4.490  11.885  0.0776  0.2248 -0.5776
 8036SOL    HW135567   4.637   4.564  11.826 -1.7956 -0.5054 -1.8525
 8036SOL    HW235568   4.620   4.430  11.811  0.7742  0.9871 -1.2400
 8037SOL     OW35569   4.589   3.516   4.591 -0.2607  0.0298 -0.4704
 8037SOL    HW135570   4.678   3.493   4.567 -0.5110 -1.2336 -0.1580
 8037SOL    HW235571   4.549   3.505   4.504 -1.7442 -1.8057  0.4518
 8038SOL     OW35572   1.458   3.058   5.660  0.3916  0.1314  0.2571
 8038SOL    HW135573   1.384   3.115   5.637 -0.2729 -0.7957  0.1055
 8038SOL    HW235574   1.523   3.124   5.683 -0.0133 -0.4974  3.2426
 8039SOL     OW35575   4.397   3.317   4.718  0.0110 -0.2053 -0.0233
 8039SOL    HW135576   4.461   3.290   4.783  0.1730  3.0197  1.1822
 8039SOL    HW235577   4.449   3.363   4.652 -0.4477 -0.7353 -0.7492
 8040SOL     OW35578   4.417   4.005   5.008  0.4266 -0.3023 -0.7130
 8040SOL    HW135579   4.339   4.059   5.017  0.6364 -0.4966  2.1856
 8040SOL    HW235580   4.400   3.945   4.935  0.8016 -0.9145 -0.3004
 8041SOL     OW35581   1.437   3.509   5.239 -0.3952  0.4273  0.0006
 8041SOL    HW135582   1.391   3.573   5.293  0.3992  1.8078 -0.9318
 8041SOL    HW235583   1.368   3.458   5.199  0.2469  0.5081 -1.2224
 8042SOL     OW35584   1.396   1.706   0.891 -0.0419  0.3896 -0.0738
 8042SOL    HW135585   1.445   1.729   0.970  1.7048  0.7995 -1.2656
 8042SOL    HW235586   1.312   1.741   0.921 -0.7380 -1.4171  0.0947
 8043SOL     OW35587   3.997   3.649  11.143 -0.7057 -0.3940  0.4356
 8043SOL    HW135588   3.939   3.695  11.082  0.2205  1.6099  1.0390
 8043SOL    HW235589   4.000   3.563  11.102  0.9547  0.1386 -0.5848
 8044SOL     OW35590   1.550   2.336  15.010 -0.2276 -0.1940 -0.1060
 8044SOL    HW135591   1.506   2.354  14.927 -0.7946 -2.2195 -0.2629
 8044SOL    HW235592   1.490   2.364  15.078 -2.4812 -3.9826 -0.4975
 8045SOL     OW35593   2.957   2.161   3.046  0.5733 -0.2183  0.0158
 8045SOL    HW135594   2.972   2.085   3.101  1.0266  2.6788  3.8992
 8045SOL    HW235595   2.895   2.201   3.106  1.0930 -1.2139  1.2136
 8046SOL     OW35596   1.961   3.342   7.854 -0.8905 -0.0666  0.5472
 8046SOL    HW135597   1.955   3.418   7.913  0.0327  1.4159 -1.2474
 8046SOL    HW235598   1.963   3.384   7.768 -3.4466 -0.6269  0.2070
 8047SOL     OW35599   0.111   4.156   7.230  0.4869  0.2412  0.2335
 8047SOL    HW135600   0.039   4.185   7.175  1.0103 -0.7949 -1.0124
 8047SOL    HW235601   0.183   4.137   7.169  0.1140  1.3910 -0.5536
 8048SOL     OW35602   3.999   4.523   5.715  0.2336 -0.5590 -0.7498
 8048SOL    HW135603   3.948   4.504   5.636 -0.8865  0.8267 -0.3543
 8048SOL    HW235604   4.087   4.520   5.678  0.1572 -1.1083 -0.8902
 8049SOL     OW35605   4.539   1.939   6.018 -0.1156  0.0269 -0.0018
 8049SOL    HW135606   4.492   1.920   6.099  0.0869  2.4149  0.6779
 8049SOL    HW235607   4.617   1.884   6.021  1.2386  1.8965 -0.7159
 8050SOL     OW35608   3.311   3.117   7.513  0.0977  0.4767  0.5165
 8050SOL    HW135609   3.362   3.079   7.441  0.9229  0.8876  0.8808
 8050SOL    HW235610   3.282   3.200   7.476  1.4975  0.3403 -0.8867
 8051SOL     OW35611   4.153   1.898   2.597  0.5159  0.0438 -0.3845
 8051SOL    HW135612   4.084   1.836   2.621 -1.3188  2.1811 -0.1053
 8051SOL    HW235613   4.181   1.865   2.511  1.3179 -0.7099  0.1713
 8052SOL     OW35614   1.187   2.119   5.739  0.5728 -0.1323  0.0244
 8052SOL    HW135615   1.228   2.112   5.653 -0.4069 -0.4086 -0.4144
 8052SOL    HW235616   1.264   2.144   5.789 -0.5462  0.1692  1.5818
 8053SOL     OW35617   3.485   2.573   0.319  0.0158  0.0541  0.1213
 8053SOL    HW135618   3.404   2.526   0.300  1.1141 -2.6119  2.0875
 8053SOL    HW235619   3.453   2.655   0.357 -3.8447 -0.9016 -1.0177
 8054SOL     OW35620   3.659   3.954   7.504  0.4228 -0.5104 -0.3786
 8054SOL    HW135621   3.637   3.986   7.592 -0.5826 -0.8119 -0.5142
 8054SOL    HW235622   3.617   3.868   7.509 -0.9468  0.2813  1.5730
 8055SOL     OW35623   2.829   1.388  15.061  0.2832 -0.1763 -0.4301
 8055SOL    HW135624   2.793   1.300  15.068 -1.0458  0.4280  0.3012
 8055SOL    HW235625   2.900   1.391  15.125  0.6640 -0.8757 -0.8267
 8056SOL     OW35626   1.260   3.304   5.802 -0.3161  0.2549  0.7552
 8056SOL    HW135627   1.333   3.356   5.835  1.0302 -1.1892  0.0688
 8056SOL    HW235628   1.234   3.257   5.881  1.0194  0.5113  1.3435
 8057SOL     OW35629   3.322   1.087   4.403 -0.9486  0.6109 -0.0202
 8057SOL    HW135630   3.408   1.095   4.446 -1.0854 -1.3895  0.6710
 8057SOL    HW235631   3.310   1.175   4.368 -1.5922  0.4286 -0.2394
 8058SOL     OW35632   3.062   3.513   0.631  0.4282 -0.0344 -0.0792
 8058SOL    HW135633   2.969   3.490   0.633 -0.3034  2.7437 -1.5442
 8058SOL    HW235634   3.112   3.433   0.647 -0.2633 -0.5248 -0.4077
 8059SOL     OW35635   0.592   3.036   0.003 -0.0601  0.4001 -0.4542
 8059SOL    HW135636   0.662   3.101   0.008 -0.3666  0.7764 -1.1972
 8059SOL    HW235637   0.526   3.098   0.033  1.0648  1.6688 -0.6397
 8060SOL     OW35638   0.609   3.418  17.277  0.4248 -0.9380 -0.3394
 8060SOL    HW135639   0.618   3.509  17.246 -0.6363 -0.0554  1.9468
 8060SOL    HW235640   0.697   3.388  17.299 -0.1097 -1.6248  0.8472
 8061SOL     OW35641   3.427   1.842   7.454 -0.4251  0.5309 -0.1492
 8061SOL    HW135642   3.506   1.789   7.457  0.4022  1.9350  2.5594
 8061SOL    HW235643   3.412   1.849   7.360  0.8076  0.8359 -0.3205
 8062SOL     OW35644   3.448   3.377   5.385  0.3011 -0.2859 -0.3246
 8062SOL    HW135645   3.491   3.432   5.319 -1.3376 -1.2930 -2.2089
 8062SOL    HW235646   3.525   3.362   5.441 -0.4435 -1.2588  0.4373
 8063SOL     OW35647   4.236   0.135   3.220 -0.3163 -0.1724  0.1980
 8063SOL    HW135648   4.222   0.186   3.300  3.0318 -1.4949  1.6269
 8063SOL    HW235649   4.330   0.120   3.214 -0.4886 -0.9668 -0.5581
 8064SOL     OW35650   3.259   2.564   1.997 -0.2519 -0.6381  0.0427
 8064SOL    HW135651   3.213   2.571   2.080 -2.2649  1.2793 -1.2383
 8064SOL    HW235652   3.321   2.637   1.989 -2.4157  1.4739  2.6704
 8065SOL     OW35653   4.014   4.411  10.604  0.0685 -0.0390 -0.2142
 8065SOL    HW135654   3.986   4.441  10.517 -0.9831  2.3968  0.9599
 8065SOL    HW235655   4.109   4.421  10.596  0.0109 -0.4026 -1.3802
 8066SOL     OW35656   1.278   0.461  16.022  0.2002  0.5238  0.6536
 8066SOL    HW135657   1.265   0.368  16.037  0.7091  0.8212  2.8333
 8066SOL    HW235658   1.188   0.494  16.020 -1.1254 -3.1656  1.1379
 8067SOL     OW35659   3.099   0.739   6.714 -0.6233 -0.2803  0.3949
 8067SOL    HW135660   3.172   0.751   6.775 -0.3601  1.3685 -0.2188
 8067SOL    HW235661   3.041   0.691   6.772 -0.8314 -0.1349  0.3057
 8068SOL     OW35662   1.051   3.780   0.811  0.2521 -0.6469  0.0970
 8068SOL    HW135663   1.077   3.691   0.834 -1.5311 -1.2224 -0.1606
 8068SOL    HW235664   0.988   3.767   0.741  0.8140  0.0733 -0.5503
 8069SOL     OW35665   1.123   4.220   3.164  0.5582  0.5175 -0.3710
 8069SOL    HW135666   1.117   4.223   3.069  1.8803 -4.0636 -0.6248
 8069SOL    HW235667   1.065   4.149   3.191 -0.5969  0.5200 -2.9709
 8070SOL     OW35668   1.382   4.576  14.647  0.1257 -0.0833 -0.4549
 8070SOL    HW135669   1.398   4.668  14.624  0.6445  0.3541  1.6724
 8070SOL    HW235670   1.296   4.577  14.690 -0.3134 -1.8688 -1.2876
 8071SOL     OW35671   2.803   0.049   1.750  0.2185 -0.1470  0.5312
 8071SOL    HW135672   2.833   0.116   1.689 -1.7208 -0.5049 -0.7827
 8071SOL    HW235673   2.708   0.056   1.752  0.1227 -1.1672 -0.2747
 8072SOL     OW35674   1.955   4.336   6.713 -0.6617  0.8631  0.3569
 8072SOL    HW135675   2.046   4.309   6.724 -0.2847  1.6736 -0.8390
 8072SOL    HW235676   1.954   4.430   6.732 -0.1823  0.6103  1.6616
 8073SOL     OW35677   3.158   2.360   6.031 -0.7208 -0.4073 -0.5072
 8073SOL    HW135678   3.101   2.429   5.995  0.5278  1.1884  0.5837
 8073SOL    HW235679   3.197   2.325   5.950  0.3125 -1.7967  0.5998
 8074SOL     OW35680   1.388   3.722   4.419  0.1879 -0.1956 -0.0825
 8074SOL    HW135681   1.439   3.793   4.457  0.3414  0.1586 -0.9542
 8074SOL    HW235682   1.405   3.734   4.325  2.1142 -1.9198  0.0514
 8075SOL     OW35683   0.881   1.219   7.388 -0.2433  0.0444  0.4821
 8075SOL    HW135684   0.933   1.242   7.311  0.4396 -2.6190  0.1427
 8075SOL    HW235685   0.940   1.155   7.428 -1.6777 -1.5056  0.1528
 8076SOL     OW35686   1.732   1.195   4.166 -0.2254  0.0303 -0.2276
 8076SOL    HW135687   1.772   1.214   4.251  0.2631  0.8579 -0.6447
 8076SOL    HW235688   1.807   1.155   4.122 -0.9223 -0.8823 -0.6078
 8077SOL     OW35689   0.107   0.552  15.188 -0.5687  0.1443  0.6524
 8077SOL    HW135690   0.090   0.505  15.106  0.9479 -0.3983  0.6566
 8077SOL    HW235691   0.055   0.630  15.170  0.5426  0.7312  0.0533
 8078SOL     OW35692   2.067   2.383   9.980 -0.3596 -0.5379  0.5071
 8078SOL    HW135693   1.988   2.342  10.014  0.1869  0.6881  3.2057
 8078SOL    HW235694   2.111   2.301   9.959 -0.0048 -0.2268  0.0187
 8079SOL     OW35695   4.000   0.414   8.154 -0.3860  0.1552 -0.3382
 8079SOL    HW135696   3.953   0.344   8.198  0.9282 -0.0686  0.7192
 8079SOL    HW235697   4.034   0.355   8.086 -0.3988 -0.6897  0.3886
 8080SOL     OW35698   3.034   2.898   1.194  0.4555 -0.4731  0.0281
 8080SOL    HW135699   3.091   2.859   1.128 -0.3120 -3.3456  1.0365
 8080SOL    HW235700   2.994   2.957   1.130  0.5344  0.5091  0.8950
 8081SOL     OW35701   0.815   2.890   4.278  0.0567  0.0058 -0.0197
 8081SOL    HW135702   0.897   2.878   4.326  0.6314  0.9647 -0.7663
 8081SOL    HW235703   0.832   2.852   4.192  1.9482 -1.9991  1.2525
 8082SOL     OW35704   2.477   1.846   1.537  0.4747  0.1168  0.0111
 8082SOL    HW135705   2.531   1.773   1.566 -0.5036 -0.9327 -0.8223
 8082SOL    HW235706   2.442   1.801   1.460 -0.3344 -0.3566  0.6614
 8083SOL     OW35707   3.795   3.082   6.623  0.2811 -0.1538 -0.1181
 8083SOL    HW135708   3.709   3.061   6.659  0.2989 -1.3302 -0.7365
 8083SOL    HW235709   3.759   3.137   6.553  0.3350  1.4139  1.0885
 8084SOL     OW35710   0.919   2.603   9.032  0.0055 -0.1295 -0.7258
 8084SOL    HW135711   0.956   2.530   9.082 -2.3237 -0.4079  0.5646
 8084SOL    HW235712   0.991   2.665   9.019  0.9793 -0.7803  1.7281
 8085SOL     OW35713   3.157   1.599  12.397 -0.1456  0.4629 -0.1230
 8085SOL    HW135714   3.223   1.559  12.453 -2.1081 -0.3115  1.6288
 8085SOL    HW235715   3.205   1.680  12.375 -0.1012  0.9964  1.9666
 8086SOL     OW35716   2.238   1.057   8.503 -0.2038  0.5259 -0.9595
 8086SOL    HW135717   2.144   1.071   8.514 -0.0060  1.1205  0.0110
 8086SOL    HW235718   2.270   1.135   8.457 -0.4233  0.4669 -1.2139
 8087SOL     OW35719   3.845   0.969   1.238  0.4270 -0.6116  0.5904
 8087SOL    HW135720   3.797   0.941   1.160  2.8616  1.9157 -1.8089
 8087SOL    HW235721   3.826   1.063   1.242 -3.8019 -1.5705  3.4462
 8088SOL     OW35722   1.691   2.626   8.687 -0.0577  0.6717 -0.5915
 8088SOL    HW135723   1.602   2.590   8.689  0.0616  0.5528  2.0123
 8088SOL    HW235724   1.729   2.585   8.764 -0.8243 -1.7852 -1.4978
 8089SOL     OW35725   4.070   1.363   2.679  0.3682 -0.3755 -0.3238
 8089SOL    HW135726   4.132   1.294   2.654  0.3205 -1.6143  2.9716
 8089SOL    HW235727   3.992   1.307   2.681  0.0835  0.0597  0.6996
 8090SOL     OW35728   0.441   2.869   0.278 -0.1077  0.1306  0.0517
 8090SOL    HW135729   0.346   2.876   0.291 -0.2242 -1.3501 -0.0388
 8090SOL    HW235730   0.466   2.960   0.294 -0.1771  0.4360 -1.5909
 8091SOL     OW35731   1.937   3.569   7.982  0.2868 -0.2391 -0.7097
 8091SOL    HW135732   1.922   3.607   8.069  1.4236  1.8348 -1.4370
 8091SOL    HW235733   1.948   3.646   7.927  1.6712 -0.8880 -1.3444
 8092SOL     OW35734   2.644   2.573   1.213  0.1632  0.0442 -0.3630
 8092SOL    HW135735   2.623   2.660   1.179 -1.9490  1.2047  3.9649
 8092SOL    HW235736   2.736   2.575   1.187  0.0530  1.9063 -0.6482
 8093SOL     OW35737   1.611   3.218   5.961  0.6190 -0.3088 -0.5526
 8093SOL    HW135738   1.565   3.136   5.973 -1.2905  0.7722 -0.4857
 8093SOL    HW235739   1.700   3.188   5.978  0.5590 -0.3099 -0.2455
 8094SOL     OW35740   0.103   1.418  10.440 -0.0542  0.4735  0.6850
 8094SOL    HW135741   0.070   1.459  10.520  0.0248  0.9354  0.4845
 8094SOL    HW235742   0.089   1.491  10.379  0.9888 -1.9317 -2.4031
 8095SOL     OW35743   3.225   0.634   2.502  0.3671  0.1496 -0.2011
 8095SOL    HW135744   3.182   0.703   2.552 -0.6705  1.2378 -2.6421
 8095SOL    HW235745   3.173   0.620   2.424 -1.6678  0.9278  1.0189
 8096SOL     OW35746   3.272   1.536   2.986  0.4419  0.2294  0.1088
 8096SOL    HW135747   3.267   1.520   2.892 -3.3339 -0.4182  0.4202
 8096SOL    HW235748   3.312   1.623   2.984  1.9867 -0.4760  0.8566
 8097SOL     OW35749   3.276   1.074   3.262  0.8362 -0.1013 -0.0674
 8097SOL    HW135750   3.326   1.004   3.219 -2.2908  0.4787 -4.6778
 8097SOL    HW235751   3.188   1.037   3.256  0.6565  0.6544 -2.0971
 8098SOL     OW35752   1.944   3.482   6.597 -0.1316 -0.2229 -0.4563
 8098SOL    HW135753   1.978   3.552   6.541 -2.1505  1.7446  0.7846
 8098SOL    HW235754   1.855   3.515   6.612  0.3637  0.9325 -0.0338
 8099SOL     OW35755   1.247   3.693   5.455  0.0893  0.1279 -0.1620
 8099SOL    HW135756   1.206   3.614   5.491 -0.5909  0.5533 -0.0040
 8099SOL    HW235757   1.321   3.704   5.514 -0.4590  1.1970  0.3351
 8100SOL     OW35758   3.357   0.892  11.931  0.5086 -0.6563  0.3039
 8100SOL    HW135759   3.369   0.970  11.878 -0.1525 -1.1357 -0.5480
 8100SOL    HW235760   3.330   0.928  12.016 -2.3590  2.4715 -1.9425
 8101SOL     OW35761   3.124   3.928   3.313 -0.0755  0.4349  0.1586
 8101SOL    HW135762   3.160   4.013   3.336  0.0777  0.2636  0.5550
 8101SOL    HW235763   3.107   3.933   3.219  2.5957  1.0548 -0.2945
 8102SOL     OW35764   3.360   2.612   6.844  0.6089  0.4463 -0.1414
 8102SOL    HW135765   3.329   2.523   6.860  0.3721  0.9638  2.2150
 8102SOL    HW235766   3.370   2.644   6.933  0.4341 -1.5160  0.5766
 8103SOL     OW35767   4.450   0.026  14.406  0.5946 -0.5056 -0.1222
 8103SOL    HW135768   4.357   0.045  14.395  0.4379 -1.3690 -0.2416
 8103SOL    HW235769   4.480   0.011  14.316  1.1107 -0.3688  0.0265
 8104SOL     OW35770   3.911   0.924   1.661  0.1750 -0.4164  0.2528
 8104SOL    HW135771   3.839   0.862   1.667  0.9759 -1.3287  0.5237
 8104SOL    HW235772   3.862   0.996   1.622  2.9758  0.7183 -1.1988
 8105SOL     OW35773   0.278   0.594   8.860 -0.2242  0.2434 -0.2301
 8105SOL    HW135774   0.257   0.558   8.946  0.7945 -1.1518 -0.5788
 8105SOL    HW235775   0.356   0.648   8.874 -0.1572  0.4161 -1.2560
 8106SOL     OW35776   2.874   1.463   4.000  0.7373 -0.1329  0.5385
 8106SOL    HW135777   2.779   1.473   4.009  0.6908 -0.2123  0.1313
 8106SOL    HW235778   2.880   1.418   3.916  2.8755  0.4639  0.3858
 8107SOL     OW35779   1.088   3.609   9.111 -0.1550  0.1071 -0.1571
 8107SOL    HW135780   1.032   3.687   9.113  1.1118  1.0402 -0.9674
 8107SOL    HW235781   1.141   3.635   9.036 -1.1164  1.8814 -0.2260
 8108SOL     OW35782   4.622   0.197   3.980  0.4762  0.0912  0.1800
 8108SOL    HW135783   4.637   0.105   3.958 -0.7548  0.2959 -1.4711
 8108SOL    HW235784   4.564   0.190   4.056  0.0175 -1.1679 -0.2817
 8109SOL     OW35785   2.364   0.185  10.165  0.2236  0.7827 -0.2875
 8109SOL    HW135786   2.400   0.191  10.077 -1.5543  0.2121 -1.0534
 8109SOL    HW235787   2.441   0.180  10.222 -0.8708 -1.3726  1.0144
 8110SOL     OW35788   1.973   2.372   4.400 -0.1750 -0.0369  0.3470
 8110SOL    HW135789   1.925   2.433   4.342  0.4100 -0.9666 -1.1185
 8110SOL    HW235790   2.009   2.438   4.460  1.0771  0.5661 -1.0644
 8111SOL     OW35791   0.674   2.811   1.724  0.4154 -0.2219 -0.0344
 8111SOL    HW135792   0.652   2.723   1.696  1.5977 -0.4234 -0.2924
 8111SOL    HW235793   0.640   2.864   1.652  1.2518 -0.3555 -0.5218
 8112SOL     OW35794   2.419   3.757   7.674  0.0176  0.5360 -0.0575
 8112SOL    HW135795   2.392   3.676   7.630 -1.2064  1.3326 -0.7803
 8112SOL    HW235796   2.493   3.721   7.723 -1.1462 -3.0527 -0.9379
 8113SOL     OW35797   1.765   3.857   3.025 -0.4513  0.0164  0.2991
 8113SOL    HW135798   1.789   3.917   2.954 -3.8486 -0.8405 -1.5883
 8113SOL    HW235799   1.710   3.795   2.977 -0.5041 -0.7546  1.3754
 8114SOL     OW35800   0.169   0.233   1.379 -0.3735 -0.6947 -0.1235
 8114SOL    HW135801   0.095   0.293   1.378  0.1644 -0.0635 -1.1568
 8114SOL    HW235802   0.178   0.217   1.285 -4.9658  1.5381 -0.9109
 8115SOL     OW35803   0.231   2.605  15.086  0.2957  0.6161 -0.3219
 8115SOL    HW135804   0.240   2.578  15.178  3.4942  2.8508  0.0343
 8115SOL    HW235805   0.322   2.603  15.056  0.0468 -0.0794 -1.0162
 8116SOL     OW35806   4.104   2.966   2.826 -0.2625  0.4340  0.6900
 8116SOL    HW135807   4.060   2.962   2.741  0.5166  0.0992  0.2954
 8116SOL    HW235808   4.195   2.947   2.801 -0.0482 -0.0291  1.8503
 8117SOL     OW35809   1.913   4.099  10.970 -0.3441  0.5613  0.1350
 8117SOL    HW135810   1.992   4.070  11.016 -1.8209 -1.4390  1.3970
 8117SOL    HW235811   1.845   4.099  11.037  0.4709  1.9508  0.9418
 8118SOL     OW35812   0.539   2.551   1.678  0.2276  0.3775 -0.3316
 8118SOL    HW135813   0.485   2.484   1.636  1.4684 -1.0152  0.3148
 8118SOL    HW235814   0.565   2.511   1.761 -0.3036 -1.3059 -0.9784
 8119SOL     OW35815   2.248   1.474   1.940 -0.0685  0.0785  0.4616
 8119SOL    HW135816   2.185   1.487   2.011 -0.0431  2.2290  0.0629
 8119SOL    HW235817   2.184   1.435   1.881 -0.1421  0.0013  0.5936
 8120SOL     OW35818   1.321   3.074  14.786 -0.1823 -0.4614 -0.5452
 8120SOL    HW135819   1.250   3.012  14.774  0.2895 -1.5197  2.2033
 8120SOL    HW235820   1.309   3.143  14.720  0.3120 -1.7419 -1.9566
 8121SOL     OW35821   3.940   0.431  12.169  0.5625  0.1863  0.1767
 8121SOL    HW135822   4.018   0.393  12.127 -0.7923  0.5068 -2.6175
 8121SOL    HW235823   3.927   0.358  12.229 -2.0561  0.1218 -0.4797
 8122SOL     OW35824   2.199   3.099  11.671 -0.3739 -0.0768  0.5178
 8122SOL    HW135825   2.139   3.138  11.734  0.0166 -0.2052  0.9724
 8122SOL    HW235826   2.160   3.012  11.663  0.5430 -0.5304  1.0037
 8123SOL     OW35827   3.827   3.132   9.200 -0.7744 -0.2730  0.0375
 8123SOL    HW135828   3.885   3.198   9.161 -1.1966 -0.1488 -0.3805
 8123SOL    HW235829   3.883   3.054   9.199  1.4575  1.3257  2.6802
 8124SOL     OW35830   1.816   0.353  16.514  0.0943 -0.0558  0.3224
 8124SOL    HW135831   1.820   0.359  16.419  1.0549  1.7563  0.4751
 8124SOL    HW235832   1.888   0.291  16.530 -1.2382 -1.6741  0.0780
 8125SOL     OW35833   2.374   1.606   1.504  0.7193 -0.1624  0.3107
 8125SOL    HW135834   2.344   1.549   1.433 -1.5230  0.4588  0.7571
 8125SOL    HW235835   2.409   1.552   1.576 -0.5999 -0.0182  1.0629
 8126SOL     OW35836   0.887   4.647  17.237 -0.3210 -0.1197 -0.9225
 8126SOL    HW135837   0.904   4.671  17.145  1.5884  1.7538 -0.0827
 8126SOL    HW235838   0.967   4.691  17.266 -1.3258  0.7985  0.4397
 8127SOL     OW35839   2.267   2.764   7.114 -0.2699  0.3776  0.4533
 8127SOL    HW135840   2.191   2.799   7.159 -2.5091 -0.3556 -2.7969
 8127SOL    HW235841   2.235   2.675   7.103 -2.2684  0.9345  1.8331
 8128SOL     OW35842   0.894   1.739  13.528 -0.5242 -1.0638  0.3878
 8128SOL    HW135843   0.840   1.765  13.453  1.1599  2.2932  0.3263
 8128SOL    HW235844   0.900   1.828  13.564  2.6920 -0.6932 -1.0406
 8129SOL     OW35845   0.766   1.959  14.670 -0.4352 -0.1738  0.0014
 8129SOL    HW135846   0.718   1.946  14.589  0.6575  0.6889 -0.7943
 8129SOL    HW235847   0.793   1.869  14.686  0.2770 -0.3079 -1.9810
 8130SOL     OW35848   3.705   4.673   8.451  0.1838 -0.2340 -0.1211
 8130SOL    HW135849   3.733   4.622   8.527  0.5643  0.5691  0.2741
 8130SOL    HW235850   3.766   0.024   8.463 -1.4121  0.7789  1.8674
 8131SOL     OW35851   3.024   2.475   1.869 -0.7056 -0.4665  0.1380
 8131SOL    HW135852   3.056   2.424   1.795 -1.4554  0.0905 -0.5762
 8131SOL    HW235853   3.109   2.503   1.902  0.4457  0.2910 -3.5013
 8132SOL     OW35854   1.624   3.979   6.359 -0.1668  0.1033  0.1630
 8132SOL    HW135855   1.616   3.898   6.407 -1.4491  0.4597  0.5729
 8132SOL    HW235856   1.654   4.041   6.426  1.5962 -0.0300 -0.5113
 8133SOL     OW35857   3.070   2.723   2.547 -0.5538  0.2479 -0.0681
 8133SOL    HW135858   3.054   2.690   2.635 -2.0715  0.1592 -0.3740
 8133SOL    HW235859   3.162   2.749   2.554 -1.1406  1.1313  4.6021
 8134SOL     OW35860   2.047   3.329  15.794  0.1398 -1.0018  0.1946
 8134SOL    HW135861   2.021   3.361  15.707  0.6014  0.0837  0.4478
 8134SOL    HW235862   2.104   3.404  15.813  0.1883 -0.1305 -3.2683
 8135SOL     OW35863   4.139   3.394   6.365 -0.3401 -0.1296  0.1534
 8135SOL    HW135864   4.102   3.345   6.439 -1.7385  1.2493  0.3642
 8135SOL    HW235865   4.231   3.396   6.390 -0.4026  0.1186  0.3581
 8136SOL     OW35866   3.841   1.314   9.339  0.1809 -0.7535 -0.4926
 8136SOL    HW135867   3.929   1.333   9.308  0.4815 -2.6025 -0.7577
 8136SOL    HW235868   3.854   1.293   9.432 -0.4489 -0.0895 -0.2572
 8137SOL     OW35869   3.209   0.300   5.033 -0.0458  0.2869 -0.9894
 8137SOL    HW135870   3.211   0.205   5.041 -1.0907  0.2995 -0.6191
 8137SOL    HW235871   3.136   0.321   5.092  0.8983  0.4608  0.1079
 8138SOL     OW35872   3.829   2.190   9.997 -0.4091  0.2022 -0.5610
 8138SOL    HW135873   3.824   2.245   9.919 -0.8883  2.1814  0.8526
 8138SOL    HW235874   3.924   2.177   9.990  0.0085  2.4194  0.8431
 8139SOL     OW35875   1.010   3.162  11.801 -0.0384 -0.5322 -0.1326
 8139SOL    HW135876   1.052   3.077  11.821  1.2001 -0.2667 -1.5464
 8139SOL    HW235877   0.970   3.177  11.886  0.4965  0.3945 -0.0460
 8140SOL     OW35878   3.034   3.431   9.886  0.4933 -0.0262  0.8299
 8140SOL    HW135879   2.961   3.480   9.922 -0.3101 -0.5817 -0.0335
 8140SOL    HW235880   3.039   3.345   9.928  0.4240 -0.8840 -0.9118
 8141SOL     OW35881   4.105   3.876   3.805  0.3580  0.2328 -0.1472
 8141SOL    HW135882   4.196   3.847   3.813 -0.7198 -2.2777  3.1377
 8141SOL    HW235883   4.059   3.793   3.798  0.4315  0.1577  0.2296
 8142SOL     OW35884   1.912   0.235   3.352 -0.0023 -0.1463  0.7174
 8142SOL    HW135885   1.977   0.305   3.348 -1.2096  0.9906  1.2201
 8142SOL    HW235886   1.912   0.214   3.446 -2.4379 -0.8982  0.5408
 8143SOL     OW35887   3.094   3.611   6.531  0.2186 -0.0022 -0.0697
 8143SOL    HW135888   3.097   3.659   6.614 -2.9539  0.0247  0.0262
 8143SOL    HW235889   3.050   3.531   6.559  1.8421 -0.0142  2.4349
 8144SOL     OW35890   2.042   1.229   2.205 -0.1683  0.4322 -0.5057
 8144SOL    HW135891   2.108   1.234   2.273  0.5428 -1.6154 -1.0565
 8144SOL    HW235892   2.105   1.208   2.136 -0.0649  0.1275 -0.3142
 8145SOL     OW35893   3.285   3.250  13.576 -0.0291  0.1506 -0.1754
 8145SOL    HW135894   3.377   3.260  13.600  0.3916 -1.9344 -0.9007
 8145SOL    HW235895   3.256   3.179  13.633 -0.7200 -0.7370 -1.6264
 8146SOL     OW35896   4.168   3.848  16.759  0.1355  0.0120  0.2992
 8146SOL    HW135897   4.212   3.879  16.679 -1.2538  0.4846 -0.2873
 8146SOL    HW235898   4.245   3.810  16.801  0.3147 -0.2180 -0.2301
 8147SOL     OW35899   2.528   2.278   6.252  0.0355 -0.8948  0.1785
 8147SOL    HW135900   2.612   2.261   6.295  1.5594  1.9253 -1.7319
 8147SOL    HW235901   2.523   2.371   6.228  0.7675 -1.7924 -3.5048
 8148SOL     OW35902   0.373   1.723  10.301 -0.6172  0.0825  0.4516
 8148SOL    HW135903   0.332   1.776  10.369 -1.3951 -1.1842  0.9824
 8148SOL    HW235904   0.294   1.677  10.271 -0.5757  0.8580 -0.8525
 8149SOL     OW35905   1.001   2.482   3.238  0.2364  0.1463 -0.3105
 8149SOL    HW135906   1.067   2.481   3.168  0.7341  1.4523  0.1318
 8149SOL    HW235907   0.930   2.454   3.180  0.4989 -1.5714  0.2255
 8150SOL     OW35908   3.565   3.547  17.144 -0.0990 -0.1370  0.1692
 8150SOL    HW135909   3.540   3.494  17.069 -2.0218  1.5847 -0.4041
 8150SOL    HW235910   3.479   3.566  17.182 -0.3582 -2.8619  0.9161
 8151SOL     OW35911   1.923   0.226   2.253 -0.6054 -0.3217 -0.6473
 8151SOL    HW135912   1.898   0.250   2.163 -0.1000  1.2838 -0.3586
 8151SOL    HW235913   1.996   0.287   2.261 -0.6786 -0.6315  2.0599
 8152SOL     OW35914   3.262   2.025   3.585  0.4867 -0.5487  0.1822
 8152SOL    HW135915   3.333   1.983   3.634  0.7384  1.1236  1.2360
 8152SOL    HW235916   3.241   1.964   3.514  0.9171 -0.0804 -0.3466
 8153SOL     OW35917   2.845   2.107  13.853  0.4439 -0.0547 -0.1350
 8153SOL    HW135918   2.811   2.071  13.935 -3.3869  1.1580 -1.1828
 8153SOL    HW235919   2.927   2.059  13.843  1.3505  1.0455  1.8149
 8154SOL     OW35920   1.096   3.443   5.510 -0.0622 -0.3543  0.3428
 8154SOL    HW135921   1.063   3.431   5.599 -1.7152 -2.6027 -0.5877
 8154SOL    HW235922   1.014   3.442   5.461  0.2637 -0.8903 -0.1883
 8155SOL     OW35923   3.797   2.193   4.169  0.3592  0.2487 -0.5644
 8155SOL    HW135924   3.776   2.233   4.254  2.5746  2.1459 -0.9224
 8155SOL    HW235925   3.777   2.266   4.111  0.5457 -0.4564 -1.5076
 8156SOL     OW35926   4.674   1.494   1.670  0.1843 -0.5044  0.2402
 8156SOL    HW135927   4.686   1.400   1.667 -1.5106 -0.7461  0.8961
 8156SOL    HW235928   4.598   1.499   1.612 -0.3082 -0.9348  0.8429
 8157SOL     OW35929   3.537   2.376   4.271  0.0480  0.5141  0.4287
 8157SOL    HW135930   3.549   2.470   4.285  2.0660  0.2336  0.5987
 8157SOL    HW235931   3.541   2.342   4.361 -1.8021 -0.5314  0.1049
 8158SOL     OW35932   3.172   2.288   3.257  0.1701  0.0563  0.1877
 8158SOL    HW135933   3.115   2.309   3.183  1.3572  2.1815 -0.1338
 8158SOL    HW235934   3.156   2.194   3.261  0.5635 -0.0813 -1.7670
 8159SOL     OW35935   2.292   0.707   7.750  0.4748 -0.1192 -0.0117
 8159SOL    HW135936   2.218   0.768   7.755 -0.0418 -0.8510  1.2557
 8159SOL    HW235937   2.343   0.753   7.816 -0.9471  1.6691 -0.1768
 8160SOL     OW35938   0.094   2.343   2.277 -0.3175  0.6266 -0.4043
 8160SOL    HW135939   0.003   2.347   2.247 -0.6011 -0.1323  0.3565
 8160SOL    HW235940   0.128   2.310   2.193  1.0581  0.8998  0.0426
 8161SOL     OW35941   1.814   4.441   1.704  0.1666 -0.6840 -0.2539
 8161SOL    HW135942   1.726   4.478   1.705  0.7507  0.6933  0.9976
 8161SOL    HW235943   1.805   4.357   1.661 -0.1449 -1.9493  2.2702
 8162SOL     OW35944   0.708   0.416   2.412 -0.6247 -0.1961  0.6881
 8162SOL    HW135945   0.785   0.383   2.365  0.5105  2.0092  1.0089
 8162SOL    HW235946   0.644   0.359   2.370 -1.1420  1.2683 -0.5145
 8163SOL     OW35947   2.058   2.311   7.476 -0.1000 -0.4208  0.5262
 8163SOL    HW135948   2.129   2.374   7.472 -0.4133 -0.1340 -0.4308
 8163SOL    HW235949   2.019   2.355   7.551  0.4710 -0.0708  0.6142
 8164SOL     OW35950   1.726   0.010   0.618 -0.1540  0.0172 -0.1019
 8164SOL    HW135951   1.707   0.087   0.671  1.4318 -2.0297  3.4543
 8164SOL    HW235952   1.818   0.005   0.645 -0.0474 -0.6484 -0.5871
 8165SOL     OW35953   1.573   2.467   0.907  0.0163  0.1671 -0.0697
 8165SOL    HW135954   1.552   2.420   0.827 -0.1992 -0.6817  0.4795
 8165SOL    HW235955   1.662   2.432   0.920  0.5187  2.0578  1.6273
 8166SOL     OW35956   2.856   4.568   0.033 -0.1078 -0.1759 -0.0983
 8166SOL    HW135957   2.930   4.626   0.013 -0.1038 -0.2070 -0.1732
 8166SOL    HW235958   2.898   4.502   0.089  0.4966 -0.7750 -1.2753
 8167SOL     OW35959   3.133   0.625   0.295 -0.1167 -0.0217  0.4139
 8167SOL    HW135960   3.038   0.630   0.304 -0.3215 -1.7426 -0.8190
 8167SOL    HW235961   3.152   0.702   0.349  4.1967  0.5465 -1.9118
 8168SOL     OW35962   1.686   4.321  11.935  0.2279 -0.5825 -0.4432
 8168SOL    HW135963   1.614   4.262  11.957  0.2687  0.0877  1.4959
 8168SOL    HW235964   1.692   4.317  11.840 -1.5345  0.4114 -0.5999
 8169SOL     OW35965   4.537   2.454   5.391  0.8159 -0.0903  0.2359
 8169SOL    HW135966   4.449   2.473   5.361  1.9171  2.9371 -0.9671
 8169SOL    HW235967   4.534   2.358   5.396  0.9368 -0.0784  0.5399
 8170SOL     OW35968   3.979   4.688   2.685  0.4389 -0.2364  0.1727
 8170SOL    HW135969   4.072   4.710   2.680  0.7611 -1.5111  0.4921
 8170SOL    HW235970   3.985   4.594   2.706 -0.2043 -0.0703  1.1236
 8171SOL     OW35971   3.000   2.995   4.574 -0.1338 -0.0178  0.6153
 8171SOL    HW135972   3.050   3.064   4.617 -0.5884  0.1863  0.8151
 8171SOL    HW235973   2.912   3.019   4.604 -1.1856  0.3076 -2.7149
 8172SOL     OW35974   4.644   2.846   0.221  0.0941 -0.1796 -0.2519
 8172SOL    HW135975   4.680   2.795   0.149 -1.9574  0.0710 -1.4715
 8172SOL    HW235976   4.615   2.920   0.167 -0.9128 -0.9426 -0.7591
 8173SOL     OW35977   2.358   1.949   3.258  0.3016  0.2897 -0.3513
 8173SOL    HW135978   2.268   1.980   3.254  0.0849 -0.4112 -0.7868
 8173SOL    HW235979   2.382   1.946   3.351  0.0136 -0.8929 -0.3285
 8174SOL     OW35980   2.868   0.068   5.295 -0.0209  0.4661 -0.9965
 8174SOL    HW135981   2.832   0.156   5.283 -0.3413  0.2491 -1.6484
 8174SOL    HW235982   2.847   0.045   5.385  0.4926 -0.2545 -1.0596
 8175SOL     OW35983   3.707   3.859  11.402 -0.2517  0.2725  0.4402
 8175SOL    HW135984   3.753   3.805  11.466  0.0141 -1.2763 -1.0368
 8175SOL    HW235985   3.780   3.885  11.346  0.3093  0.4292  1.2488
 8176SOL     OW35986   4.546   2.986   5.733 -0.0017 -0.5491  0.0963
 8176SOL    HW135987   4.636   2.954   5.737  0.4620  0.8252  0.7963
 8176SOL    HW235988   4.557   3.076   5.704  0.2257 -1.2616 -1.9913
 8177SOL     OW35989   2.685   3.417  10.732  0.1540 -0.5970 -0.4719
 8177SOL    HW135990   2.765   3.374  10.700  0.3230 -0.3593 -0.3694
 8177SOL    HW235991   2.631   3.339  10.720  1.0037 -1.1036 -1.0801
 8178SOL     OW35992   2.818   3.341   5.091  0.2636 -0.6207 -0.3304
 8178SOL    HW135993   2.904   3.303   5.078  0.0972 -1.1154  0.0024
 8178SOL    HW235994   2.790   3.371   5.005  1.8611 -1.5041 -1.1442
 8179SOL     OW35995   1.621   0.491  16.614  0.3773  0.0231 -0.1526
 8179SOL    HW135996   1.696   0.453  16.569 -1.1951 -1.2038 -1.7634
 8179SOL    HW235997   1.656   0.580  16.622  1.0503 -0.1216 -1.6141
 8180SOL     OW35998   4.540   0.073   4.265  0.0884 -0.4853  0.6251
 8180SOL    HW135999   4.447   0.092   4.258  0.3450  0.4762 -0.1070
 8180SOL    HW236000   4.578   0.160   4.281  0.3949 -0.3030 -1.0954
 8181SOL     OW36001   1.070   3.699  14.014  0.2154 -0.1548 -0.4548
 8181SOL    HW136002   1.138   3.644  13.976  2.0658  1.2026  0.9046
 8181SOL    HW236003   1.028   3.633  14.070  0.5214  0.3859  0.4185
 8182SOL     OW36004   4.151   1.969   3.393  0.1998  0.5206  0.2172
 8182SOL    HW136005   4.157   2.054   3.348 -1.0320  0.6513  0.3020
 8182SOL    HW236006   4.097   1.912   3.339  1.4804  0.3899 -0.9400
 8183SOL     OW36007   1.476   3.917  14.172  0.0416 -0.4800  0.1866
 8183SOL    HW136008   1.408   3.859  14.204 -0.4753  0.5536  0.9658
 8183SOL    HW236009   1.551   3.858  14.170  0.1444 -0.3121 -0.7447
 8184SOL     OW36010   1.306   1.464  17.203  0.4688 -0.7362  0.5712
 8184SOL    HW136011   1.232   1.523  17.214  1.7099  0.9330 -0.1159
 8184SOL    HW236012   1.271   1.409  17.273 -0.1818 -2.5783 -1.1756
 8185SOL     OW36013   1.094   3.800  13.743  0.8176 -0.5612 -0.6438
 8185SOL    HW136014   1.101   3.709  13.713 -2.0152 -0.4187 -1.7956
 8185SOL    HW236015   1.067   3.789  13.834 -1.0152  1.9635 -0.8889
 8186SOL     OW36016   3.444   2.117   5.224 -0.3904 -0.0630  0.3846
 8186SOL    HW136017   3.356   2.147   5.246  0.1260  1.1448  0.7941
 8186SOL    HW236018   3.430   2.023   5.237  1.5396 -0.4521 -0.4226
 8187SOL     OW36019   1.535   4.266  16.530  0.3792 -0.1714  0.5609
 8187SOL    HW136020   1.573   4.354  16.527 -0.9710  0.4500  1.6714
 8187SOL    HW236021   1.610   4.209  16.517  0.8940  0.3601  1.2139
 8188SOL     OW36022   2.319   3.771  15.628 -0.1919 -0.5364  0.3834
 8188SOL    HW136023   2.393   3.828  15.605 -0.3919 -1.1444 -1.7597
 8188SOL    HW236024   2.339   3.700  15.567 -1.9684  0.3629 -1.2353
 8189SOL     OW36025   1.750   1.019  15.705  0.0802 -0.1043  0.5017
 8189SOL    HW136026   1.692   1.009  15.780  0.7758  0.1836  1.0858
 8189SOL    HW236027   1.680   1.027  15.641 -0.2540 -0.3487  0.8371
 8190SOL     OW36028   2.705   4.496   3.654 -0.0896 -0.6360 -0.6520
 8190SOL    HW136029   2.778   4.539   3.610 -0.8084  1.4123  0.1888
 8190SOL    HW236030   2.761   4.455   3.721  2.5349 -1.4856 -3.3826
 8191SOL     OW36031   1.032   2.878   1.564  0.0459 -0.1619  0.3098
 8191SOL    HW136032   0.943   2.873   1.531  1.0173 -2.3915 -1.9510
 8191SOL    HW236033   1.083   2.812   1.519 -0.5243 -0.2421 -0.2105
 8192SOL     OW36034   3.814   2.560   1.185  0.3885 -0.0239 -0.6212
 8192SOL    HW136035   3.763   2.552   1.105 -2.6390 -0.6393  1.3884
 8192SOL    HW236036   3.882   2.620   1.154 -0.6350  1.4662  0.0320
 8193SOL     OW36037   3.744   3.680   7.101  0.6009 -0.4721 -0.0355
 8193SOL    HW136038   3.696   3.744   7.048  1.2813 -0.1267 -0.2353
 8193SOL    HW236039   3.680   3.610   7.101  1.1849 -1.0034 -0.0865
 8194SOL     OW36040   1.001   3.119   4.269 -0.5062 -0.4109  0.0421
 8194SOL    HW136041   1.056   3.135   4.346 -0.8692  1.1065 -0.0155
 8194SOL    HW236042   0.917   3.084   4.300  0.1970 -1.3482  0.8881
 8195SOL     OW36043   1.624   3.140  15.190 -0.1282 -0.0670 -0.7586
 8195SOL    HW136044   1.577   3.179  15.264 -0.0952 -2.7370  0.6808
 8195SOL    HW236045   1.563   3.150  15.117 -1.3997 -1.7927  0.0504
 8196SOL     OW36046   4.278   3.444  13.934  0.3971 -0.6136 -0.5212
 8196SOL    HW136047   4.186   3.468  13.942  0.7197  0.7257 -0.7864
 8196SOL    HW236048   4.306   3.403  14.015 -0.9867 -1.5851 -0.5397
 8197SOL     OW36049   0.031   3.879   9.574 -0.4037 -0.1245 -0.0213
 8197SOL    HW136050   4.681   3.935   9.604  1.7496  2.3625  0.4039
 8197SOL    HW236051   4.706   3.805   9.535  0.5979 -1.5665  1.4790
 8198SOL     OW36052   2.448   0.389   3.221  0.2314 -0.6386  0.4585
 8198SOL    HW136053   2.416   0.452   3.156 -3.1580 -2.1593  0.6472
 8198SOL    HW236054   2.378   0.379   3.285 -1.0614 -2.6713 -1.2619
 8199SOL     OW36055   4.069   0.738   8.601  0.2282  0.4735  0.5367
 8199SOL    HW136056   4.141   0.800   8.594 -0.0726  0.5343 -1.8282
 8199SOL    HW236057   4.121   0.660   8.620  1.2581  0.9473 -0.3416
 8200SOL     OW36058   0.807   4.058  17.454 -1.3775  0.1513  0.6979
 8200SOL    HW136059   0.811   4.085  17.362 -1.7235 -0.8544  0.3903
 8200SOL    HW236060   0.715   4.071  17.473 -1.6862  0.7960 -1.2818
 8201SOL     OW36061   3.491   4.479   6.933 -0.0029  0.7277 -0.5056
 8201SOL    HW136062   3.574   4.457   6.890  2.0509 -0.8306  4.2860
 8201SOL    HW236063   3.508   4.483   7.027  1.0617  0.8965 -0.7008
 8202SOL     OW36064   3.710   3.265   3.474 -0.0217  0.0955 -0.3315
 8202SOL    HW136065   3.655   3.193   3.443 -0.9146  1.0157 -0.9288
 8202SOL    HW236066   3.752   3.289   3.391  1.4488 -0.7114  0.1990
 8203SOL     OW36067   1.828   2.587   5.093 -0.2542  0.2427  0.3198
 8203SOL    HW136068   1.826   2.679   5.064 -0.4088 -0.0207 -0.5127
 8203SOL    HW236069   1.894   2.588   5.162 -1.4008 -0.7469  1.4303
 8204SOL     OW36070   0.831   4.492  10.564 -0.0141 -0.1070  0.4093
 8204SOL    HW136071   0.799   4.515  10.651 -3.3943 -1.3592 -0.5114
 8204SOL    HW236072   0.924   4.474  10.576 -0.4324 -0.2635  3.3512
 8205SOL     OW36073   1.278   0.947   7.978 -0.4160 -0.6330 -0.1057
 8205SOL    HW136074   1.347   0.944   7.912 -0.1798  1.8251  0.0552
 8205SOL    HW236075   1.249   1.038   7.975 -0.9262 -0.8182 -0.7149
 8206SOL     OW36076   1.483   2.925  16.443 -0.1605  0.8111 -0.1487
 8206SOL    HW136077   1.536   2.845  16.444 -1.9003 -0.3348  0.3602
 8206SOL    HW236078   1.554   2.987  16.427 -0.9027  1.3184 -1.4735
 8207SOL     OW36079   3.417   3.279  11.905  0.4511  0.1047 -0.0419
 8207SOL    HW136080   3.442   3.320  11.988 -2.3642 -0.5235  1.1095
 8207SOL    HW236081   3.434   3.187  11.924  0.3741  0.0283 -0.3398
 8208SOL     OW36082   2.604   2.546   4.020  0.2038 -0.1173  0.3090
 8208SOL    HW136083   2.684   2.531   3.968 -0.1019  0.8699 -0.4440
 8208SOL    HW236084   2.549   2.584   3.952 -3.2354 -2.3584  1.8199
 8209SOL     OW36085   0.948   4.327   8.641  0.2025  0.3628  0.1347
 8209SOL    HW136086   0.870   4.380   8.659 -1.2093 -1.5068 -0.4095
 8209SOL    HW236087   0.981   4.345   8.553 -0.8859 -0.0983 -0.3695
 8210SOL     OW36088   3.439   4.396   5.841  0.1298  0.1423 -0.0808
 8210SOL    HW136089   3.416   4.311   5.804 -2.1486  0.1292  1.3657
 8210SOL    HW236090   3.349   4.426   5.854 -0.3433 -1.7171  1.0131
 8211SOL     OW36091   0.127   3.273  14.540  0.1775  0.1330  0.1208
 8211SOL    HW136092   0.117   3.211  14.612  0.6134  0.9847  0.9034
 8211SOL    HW236093   0.098   3.352  14.584 -0.1131  1.3446 -2.2366
 8212SOL     OW36094   1.510   0.748   3.220 -0.5247  0.2155  0.5618
 8212SOL    HW136095   1.422   0.741   3.183  0.0804  0.6949 -0.9757
 8212SOL    HW236096   1.539   0.656   3.223  1.2271  0.6372 -3.9660
 8213SOL     OW36097   0.013   4.619  10.341 -0.7676 -0.8944 -0.0222
 8213SOL    HW136098   0.079   4.551  10.339  1.8707  1.6387  0.4801
 8213SOL    HW236099   4.696   4.601  10.255 -3.9100 -0.2716  1.2477
 8214SOL     OW36100   3.779   1.500  15.111 -0.2313 -0.0439  0.0493
 8214SOL    HW136101   3.775   1.414  15.069  2.3616 -0.2942  0.3166
 8214SOL    HW236102   3.697   1.529  15.072 -1.1910 -2.6513  0.1300
 8215SOL     OW36103   3.823   3.240   2.671 -0.0040  0.3897  0.0264
 8215SOL    HW136104   3.863   3.214   2.753  0.0035  2.3689  0.6414
 8215SOL    HW236105   3.780   3.156   2.654  2.8141 -1.0652  0.0326
 8216SOL     OW36106   0.135   3.179  10.334 -0.0547 -0.1974  0.0718
 8216SOL    HW136107   0.212   3.236  10.339 -1.7620  2.2637 -1.5055
 8216SOL    HW236108   0.072   3.236  10.378  1.4943  0.3680  1.5715
 8217SOL     OW36109   1.449   1.173   5.062 -0.1134 -0.4777  0.0116
 8217SOL    HW136110   1.398   1.096   5.085 -0.8499  0.1766  0.5660
 8217SOL    HW236111   1.445   1.185   4.967  0.1351  3.1206  0.4488
 8218SOL     OW36112   4.229   2.194   5.009 -0.1498 -0.2315 -0.2695
 8218SOL    HW136113   4.268   2.172   4.924  0.8873 -2.4394  0.7736
 8218SOL    HW236114   4.310   2.191   5.060  0.5930 -1.6312 -1.5160
 8219SOL     OW36115   2.264   1.473   7.573  0.9221  0.4418  0.3234
 8219SOL    HW136116   2.184   1.427   7.600 -0.2163  1.7094 -0.8557
 8219SOL    HW236117   2.332   1.407   7.588 -1.8714 -2.4701  0.3281
 8220SOL     OW36118   1.998   3.218  16.636  0.0018 -0.0983 -0.2341
 8220SOL    HW136119   2.054   3.283  16.680  0.7993 -0.1735 -1.1119
 8220SOL    HW236120   1.996   3.266  16.553 -0.8397 -0.1984 -0.2697
 8221SOL     OW36121   2.124   0.024  12.052 -0.3923 -0.2125  0.4003
 8221SOL    HW136122   2.077   0.104  12.028 -0.6444 -0.0236  1.5008
 8221SOL    HW236123   2.216   0.044  12.033 -0.7444 -0.5049 -1.6217
 8222SOL     OW36124   0.245   3.085  14.132 -0.2492 -0.4487 -0.2197
 8222SOL    HW136125   0.298   3.120  14.060  1.8515 -1.0688  1.0468
 8222SOL    HW236126   0.261   2.992  14.121 -0.2622 -0.3862 -0.7552
 8223SOL     OW36127   0.357   2.287   3.746  0.0712  0.3770  0.5379
 8223SOL    HW136128   0.423   2.263   3.681  1.1497  1.4037  1.2594
 8223SOL    HW236129   0.393   2.260   3.831 -0.8402 -0.4826  0.6623
 8224SOL     OW36130   3.291   0.108   7.025 -0.2364  0.1232  0.5184
 8224SOL    HW136131   3.339   0.059   6.959  0.0963  1.3132 -0.1177
 8224SOL    HW236132   3.359   0.168   7.057 -1.7335  2.5976 -0.9800
 8225SOL     OW36133   4.145   0.379   6.701  0.5943 -0.5200  0.2824
 8225SOL    HW136134   4.240   0.380   6.708  0.8061 -1.0561 -2.7268
 8225SOL    HW236135   4.118   0.292   6.732 -0.2784  0.1587  1.4410
 8226SOL     OW36136   0.706   2.316   4.613 -0.5471 -0.0449  0.3470
 8226SOL    HW136137   0.680   2.225   4.630 -2.2170  0.9013  2.8411
 8226SOL    HW236138   0.769   2.309   4.541 -0.3370 -0.3975  0.5661
 8227SOL     OW36139   3.707   2.688  15.496 -0.1441  0.0310 -0.3004
 8227SOL    HW136140   3.722   2.676  15.590 -0.9201 -2.2729 -0.4727
 8227SOL    HW236141   3.773   2.753  15.473 -0.6896  0.9554  0.7444
 8228SOL     OW36142   1.791   2.199   8.346  0.1037 -0.2211  0.0690
 8228SOL    HW136143   1.787   2.292   8.322  2.0445 -0.7285 -2.1749
 8228SOL    HW236144   1.881   2.177   8.325  0.1211  1.2255 -1.4327
 8229SOL     OW36145   2.380   0.711   7.038 -0.4753  0.3010  0.5039
 8229SOL    HW136146   2.416   0.645   6.979 -1.5013 -0.9466  1.2779
 8229SOL    HW236147   2.462   0.754   7.060 -0.4505 -0.5540  2.0512
 8230SOL     OW36148   1.787   1.451   3.557 -0.9257  0.8003  0.0733
 8230SOL    HW136149   1.874   1.411   3.549 -0.6649  1.1849  1.0116
 8230SOL    HW236150   1.802   1.512   3.628  1.5839  0.9553 -0.5829
 8231SOL     OW36151   0.338   3.582   8.684  0.4132  0.3268  0.3248
 8231SOL    HW136152   0.354   3.625   8.769  3.0306 -1.7424  0.8866
 8231SOL    HW236153   0.262   3.630   8.651  0.2533 -2.0931 -2.7917
 8232SOL     OW36154   1.366   2.827   8.661  0.0276 -0.3330 -0.0331
 8232SOL    HW136155   1.391   2.838   8.753 -1.4018  0.5591  0.2578
 8232SOL    HW236156   1.282   2.782   8.662 -0.7612  1.1024 -1.0218
 8233SOL     OW36157   4.141   2.500   3.527 -0.1039  0.1130  0.3433
 8233SOL    HW136158   4.101   2.533   3.446  1.2744  1.1919  0.0944
 8233SOL    HW236159   4.157   2.409   3.505  3.2918  0.6930  0.3497
 8234SOL     OW36160   3.542   3.312   5.963  0.3775  0.0081  0.4902
 8234SOL    HW136161   3.492   3.237   5.996 -0.4656  0.7998  0.9939
 8234SOL    HW236162   3.557   3.365   6.041  1.4084  0.8187 -0.2596
 8235SOL     OW36163   0.300   3.634  10.851  0.7495  0.1570 -0.1777
 8235SOL    HW136164   0.297   3.584  10.769  0.2849 -1.0581  0.5760
 8235SOL    HW236165   0.377   3.593  10.890  2.6594  2.3307 -1.7305
 8236SOL     OW36166   2.267   0.214  17.661 -0.0746 -0.1869 -0.1610
 8236SOL    HW136167   2.279   0.120  17.675  3.1652  0.4055  1.0339
 8236SOL    HW236168   2.184   0.224   0.019 -0.2576 -3.4912  0.2368
 8237SOL     OW36169   3.246   2.250   5.815  0.2214 -0.4856  0.2414
 8237SOL    HW136170   3.321   2.260   5.757  1.0835 -1.6239  1.1884
 8237SOL    HW236171   3.176   2.284   5.758  0.4744 -0.8356 -0.2798
 8238SOL     OW36172   1.949   2.918  15.281 -0.0311  0.0938 -0.2768
 8238SOL    HW136173   1.906   2.834  15.296 -0.8372  0.4886 -0.3550
 8238SOL    HW236174   2.018   2.916  15.348  0.1164 -1.8716 -0.4838
 8239SOL     OW36175   4.662   0.250  14.799 -0.2054 -0.5286 -0.0367
 8239SOL    HW136176   4.674   0.193  14.723 -0.4997 -0.1834 -0.3419
 8239SOL    HW236177   4.583   0.208  14.834 -0.8755  0.2566 -0.6090
 8240SOL     OW36178   3.418   3.731   3.720 -0.2213 -0.2197 -0.1929
 8240SOL    HW136179   3.347   3.757   3.662 -0.2659 -2.9322 -1.3695
 8240SOL    HW236180   3.436   3.818   3.756  2.2518 -0.6983 -0.2462
 8241SOL     OW36181   2.795   3.778   4.731 -0.2766  0.1772 -0.3368
 8241SOL    HW136182   2.815   3.752   4.641  0.6259  0.8613 -0.3443
 8241SOL    HW236183   2.819   3.870   4.720  0.3840  0.0953  0.4230
 8242SOL     OW36184   3.135   0.131   3.780  0.2857  0.3716 -0.9112
 8242SOL    HW136185   3.171   0.180   3.707  2.6203  1.2044  0.7969
 8242SOL    HW236186   3.103   0.202   3.835 -1.5366  0.1014 -1.6305
 8243SOL     OW36187   4.253   3.410   5.842  0.1386 -0.1187 -0.0451
 8243SOL    HW136188   4.235   3.413   5.936  1.5027 -1.3377  0.2507
 8243SOL    HW236189   4.169   3.368   5.825 -0.7957  1.2160  1.3211
 8244SOL     OW36190   1.918   4.133  10.241 -0.5692  0.3219 -0.0243
 8244SOL    HW136191   1.908   4.041  10.264 -0.1468  0.7042  1.6843
 8244SOL    HW236192   1.955   4.166  10.323  0.9978  1.3428 -1.1415
 8245SOL     OW36193   0.677   1.513   7.479 -0.0936 -0.8786  0.2525
 8245SOL    HW136194   0.747   1.486   7.539 -0.5579  0.8720  1.5965
 8245SOL    HW236195   0.595   1.519   7.529 -0.2753  0.7314 -0.2527
 8246SOL     OW36196   2.988   2.980   5.669 -0.3842 -0.8409 -0.1931
 8246SOL    HW136197   3.006   2.961   5.577  1.6146 -0.9848  0.2467
 8246SOL    HW236198   2.918   3.044   5.651 -0.3838 -0.9727 -0.6488
 8247SOL     OW36199   1.027   0.156  15.256 -0.1757  0.9675  0.8713
 8247SOL    HW136200   1.085   0.132  15.328 -1.6252 -1.2607  1.2691
 8247SOL    HW236201   1.096   0.165  15.190 -1.0797  0.8019 -0.1013
 8248SOL     OW36202   1.479   3.523  13.977  0.0135  0.1402  0.3010
 8248SOL    HW136203   1.511   3.591  14.035 -0.4935 -0.1294  0.8887
 8248SOL    HW236204   1.481   3.577  13.897  0.4359 -0.8134 -0.3364
 8249SOL     OW36205   2.624   0.428   9.909 -0.1430 -0.1559 -0.1111
 8249SOL    HW136206   2.714   0.396   9.920  0.1514  1.4774  2.3463
 8249SOL    HW236207   2.636   0.519   9.881 -0.2367 -0.3107 -0.6443
 8250SOL     OW36208   0.442   3.724   4.944  0.4457  0.3435  0.3422
 8250SOL    HW136209   0.488   3.658   4.996  0.0366  1.1189  1.6912
 8250SOL    HW236210   0.510   3.760   4.886  0.7564  0.0332  0.5136
 8251SOL     OW36211   0.069   2.649   8.062  0.1620 -0.1599 -0.1144
 8251SOL    HW136212   4.719   2.588   8.082  1.7461 -2.3581 -1.1620
 8251SOL    HW236213   0.048   2.732   8.105 -2.1678 -0.5932 -0.4189
 8252SOL     OW36214   1.224   3.798   3.643  0.5668 -0.3946  0.0358
 8252SOL    HW136215   1.150   3.750   3.682  0.0296  2.6960  2.7931
 8252SOL    HW236216   1.201   3.886   3.673  1.6953 -0.3644  0.8084
 8253SOL     OW36217   1.987   3.095  15.634 -0.3892 -0.2329  0.2739
 8253SOL    HW136218   2.012   3.159  15.700 -0.5785 -0.0029  0.1267
 8253SOL    HW236219   2.011   3.149  15.558 -1.0286 -3.3905 -2.1652
 8254SOL     OW36220   1.902   2.062   1.174  0.0242  0.3909  0.0791
 8254SOL    HW136221   1.895   1.986   1.231 -0.1856  1.3033  1.2646
 8254SOL    HW236222   1.914   2.136   1.233 -0.8602 -0.1920  0.9938
 8255SOL     OW36223   1.344   0.818   2.763 -0.6411 -0.0589 -0.2596
 8255SOL    HW136224   1.402   0.746   2.789  1.2674  1.4135 -0.4537
 8255SOL    HW236225   1.266   0.768   2.738 -1.0447 -0.7441  2.3305
 8256SOL     OW36226   0.217   3.472  10.616 -0.1050  0.2656  0.0066
 8256SOL    HW136227   0.267   3.456  10.536  1.5510  0.6149  0.9644
 8256SOL    HW236228   0.169   3.391  10.636  0.7993  0.0464  1.3109
 8257SOL     OW36229   4.095   1.015   2.193  0.1585 -0.0913 -0.3144
 8257SOL    HW136230   4.173   0.963   2.211 -0.8342 -1.8300 -1.0008
 8257SOL    HW236231   4.030   0.951   2.222  0.8625  0.2917  2.0680
 8258SOL     OW36232   3.557   3.806   6.966 -0.2270 -0.1869  0.0944
 8258SOL    HW136233   3.481   3.828   7.020 -1.2139  1.8263 -2.1652
 8258SOL    HW236234   3.518   3.804   6.879  0.1032  0.8255 -0.0753
 8259SOL     OW36235   0.487   3.135  17.250  0.1998 -0.2940 -0.2595
 8259SOL    HW136236   0.417   3.172  17.195  0.5668  0.9626  0.1212
 8259SOL    HW236237   0.487   3.208  17.311 -1.5210  0.5002 -1.2069
 8260SOL     OW36238   2.205   0.275  13.854  0.3895 -0.7006 -0.0781
 8260SOL    HW136239   2.185   0.236  13.769 -2.0989  0.2442  0.0831
 8260SOL    HW236240   2.252   0.352  13.821 -0.4328 -0.3595 -0.4643
 8261SOL     OW36241   0.084   2.252   3.511 -0.2642 -0.4244  0.5266
 8261SOL    HW136242   0.177   2.242   3.492 -0.3826 -2.2765  0.9129
 8261SOL    HW236243   0.039   2.185   3.460  1.7468 -0.6440 -0.9556
 8262SOL     OW36244   3.678   2.971  10.917  0.8370  0.1007  0.4274
 8262SOL    HW136245   3.698   3.052  10.869 -2.0777 -1.0021 -2.6466
 8262SOL    HW236246   3.758   2.921  10.899  2.3030  2.0814  1.4336
 8263SOL     OW36247   3.193   1.974   7.865 -0.1887  0.2660  0.8050
 8263SOL    HW136248   3.199   1.919   7.943  0.6354  1.4122  1.5490
 8263SOL    HW236249   3.212   1.909   7.797  0.6485  0.7499  0.5786
 8264SOL     OW36250   1.516   2.688   2.695 -0.1083  0.0645 -0.0992
 8264SOL    HW136251   1.592   2.690   2.637  1.0429  0.8431  1.4331
 8264SOL    HW236252   1.519   2.605   2.741  1.8348  1.6346  2.6497
 8265SOL     OW36253   3.657   2.741   2.267 -0.0006 -0.6490  0.4322
 8265SOL    HW136254   3.733   2.685   2.252  0.1623 -0.2996 -0.0380
 8265SOL    HW236255   3.596   2.667   2.274 -1.2913  0.2969 -0.7520
 8266SOL     OW36256   1.167   3.604   6.225 -0.7689 -0.0210 -0.6062
 8266SOL    HW136257   1.075   3.585   6.207 -0.6872 -0.5685 -0.4454
 8266SOL    HW236258   1.171   3.699   6.234  0.0193  0.0681 -1.9828
 8267SOL     OW36259   0.895   1.597   8.961  0.2335  0.2305 -0.7522
 8267SOL    HW136260   0.855   1.676   8.998 -3.4161 -0.0502 -4.1077
 8267SOL    HW236261   0.961   1.637   8.906 -0.9679  0.1897 -2.2335
 8268SOL     OW36262   1.300   0.398  15.362 -0.4524 -0.6494 -0.2047
 8268SOL    HW136263   1.238   0.344  15.410 -0.0703 -0.7057  0.2260
 8268SOL    HW236264   1.374   0.399  15.422 -0.1371 -1.7165 -0.5829
 8269SOL     OW36265   1.513   0.659   4.647  0.4879 -0.1998  0.3078
 8269SOL    HW136266   1.463   0.598   4.701  0.5997  0.1253  0.7757
 8269SOL    HW236267   1.485   0.630   4.560  0.2524 -1.0208  0.6598
 8270SOL     OW36268   3.929   0.275   3.325  0.1995  0.4406 -0.2740
 8270SOL    HW136269   3.966   0.269   3.237  0.5643 -1.0132 -0.0079
 8270SOL    HW236270   3.914   0.186   3.355 -1.1456  1.6974  2.8478
 8271SOL     OW36271   2.860   0.376   2.944  0.1203 -0.6504  0.2079
 8271SOL    HW136272   2.891   0.426   3.020  0.4729 -2.7431  1.4509
 8271SOL    HW236273   2.911   0.419   2.875  1.5679  2.0695  2.9190
 8272SOL     OW36274   2.908   1.123  13.867  1.1034  0.4848  1.0959
 8272SOL    HW136275   2.987   1.071  13.853  0.3038 -0.3488 -0.2645
 8272SOL    HW236276   2.870   1.060  13.928  0.0808 -2.1333 -2.2831
 8273SOL     OW36277   2.831   2.256   5.369 -0.0705  0.0046  0.1753
 8273SOL    HW136278   2.919   2.254   5.333  0.3227 -0.3403  1.1712
 8273SOL    HW236279   2.803   2.165   5.354 -0.9884  0.0714  1.4354
 8274SOL     OW36280   3.880   3.757   2.198 -0.6660  0.2722  0.3558
 8274SOL    HW136281   3.911   3.667   2.211 -0.4275  0.5946  1.9413
 8274SOL    HW236282   3.835   3.750   2.113  1.1408  2.2047 -0.7637
 8275SOL     OW36283   4.427   3.393  13.002 -0.0423  0.2706 -0.5288
 8275SOL    HW136284   4.513   3.432  13.018  0.1929 -0.1554 -0.7560
 8275SOL    HW236285   4.400   3.371  13.091 -1.4616 -1.4572 -1.3792
 8276SOL     OW36286   0.741   3.650   3.254 -0.7081  0.4350 -0.0245
 8276SOL    HW136287   0.732   3.578   3.316 -0.8206  0.2131 -0.2955
 8276SOL    HW236288   0.805   3.614   3.192 -0.9681  1.2484 -0.7748
 8277SOL     OW36289   1.119   2.053   3.637 -0.4687  0.6706 -0.3915
 8277SOL    HW136290   1.122   2.102   3.555  1.0711  0.9269 -0.1817
 8277SOL    HW236291   1.113   1.962   3.609 -3.1594  0.6338  0.2228
 8278SOL     OW36292   3.077   3.137   2.365  0.4559  0.5157 -0.3238
 8278SOL    HW136293   3.105   3.216   2.319  1.7904 -0.1756 -0.7020
 8278SOL    HW236294   3.162   3.124   2.407 -0.2662  1.7382  1.5083
 8279SOL     OW36295   2.888   2.107   8.541  0.0637 -0.2107 -0.1048
 8279SOL    HW136296   2.870   2.200   8.526  1.8131  0.2117  0.3167
 8279SOL    HW236297   2.813   2.062   8.580  0.6912  1.2646  2.8319
 8280SOL     OW36298   3.383   2.849   0.341 -0.1628  0.3227 -0.2542
 8280SOL    HW136299   3.297   2.862   0.301 -0.5830  0.6181  0.7631
 8280SOL    HW236300   3.444   2.910   0.300 -0.0618 -0.8630 -1.8672
 8281SOL     OW36301   1.925   1.058  10.857  0.3566  0.0210 -0.0516
 8281SOL    HW136302   1.974   1.021  10.783  1.7113  0.0953  0.8120
 8281SOL    HW236303   2.000   1.091  10.906 -0.1732  1.9568 -0.5458
 8282SOL     OW36304   3.149   2.295   3.539  0.0628 -0.4582  0.5456
 8282SOL    HW136305   3.152   2.275   3.446  1.4511 -1.2429  0.7647
 8282SOL    HW236306   3.215   2.232   3.568  0.3066 -0.8591 -0.8894
 8283SOL     OW36307   2.814   2.080   6.753 -0.1195 -0.2868 -0.0844
 8283SOL    HW136308   2.903   2.114   6.752 -0.0044 -0.6326 -1.5823
 8283SOL    HW236309   2.829   1.987   6.739  0.1499 -0.3296  0.4641
 8284SOL     OW36310   0.344   0.992   2.976  0.0271  0.1014  0.4546
 8284SOL    HW136311   0.365   0.925   2.910 -1.2358  3.4938 -3.4157
 8284SOL    HW236312   0.249   0.976   2.980  0.0653  0.6568  3.6460
 8285SOL     OW36313   0.537   1.342   5.186 -0.2023 -0.2420  0.0753
 8285SOL    HW136314   0.461   1.341   5.129  0.2450  1.1819 -0.5665
 8285SOL    HW236315   0.574   1.256   5.166  0.9567  0.5439 -1.1714
 8286SOL     OW36316   3.466   1.317   9.062 -0.0203  0.1885  0.2919
 8286SOL    HW136317   3.494   1.364   9.141 -0.3843  0.9323 -0.0262
 8286SOL    HW236318   3.537   1.255   9.046  0.4572  0.7084  0.3737
 8287SOL     OW36319   3.288   0.111  14.295  0.3670 -0.5190 -0.2861
 8287SOL    HW136320   3.373   0.075  14.270  1.2412  0.0545  1.8512
 8287SOL    HW236321   3.227   0.071  14.233  0.8833 -1.4732 -0.1867
 8288SOL     OW36322   3.915   1.568  14.522 -0.0380  0.1501 -0.1746
 8288SOL    HW136323   3.927   1.507  14.595 -0.0739 -1.4955 -1.5313
 8288SOL    HW236324   3.989   1.625  14.537 -0.8442  1.4054 -0.9580
 8289SOL     OW36325   1.111   1.108   6.545 -0.3603  0.5073 -0.4183
 8289SOL    HW136326   1.151   1.179   6.496 -1.1857  1.9063  0.9360
 8289SOL    HW236327   1.125   1.146   6.632 -1.8708 -1.4785  0.6866
 8290SOL     OW36328   3.194   0.304   2.236  0.1016  0.1149 -0.1346
 8290SOL    HW136329   3.154   0.384   2.270 -1.1467 -0.2218 -0.8111
 8290SOL    HW236330   3.124   0.274   2.178 -1.2715  2.0656  0.5215
 8291SOL     OW36331   3.257   2.862  15.763  0.4505  0.5897 -0.3221
 8291SOL    HW136332   3.166   2.886  15.743  0.1411  1.4325  2.1257
 8291SOL    HW236333   3.301   2.941  15.794  1.1259 -0.1268  0.5398
 8292SOL     OW36334   0.839   3.056   7.571 -0.2352 -0.4244  0.1938
 8292SOL    HW136335   0.917   3.011   7.539 -0.7288 -1.4910  0.5031
 8292SOL    HW236336   0.766   3.038   7.512 -0.0605 -0.7442  0.0777
 8293SOL     OW36337   3.699   3.793   3.612 -0.2420  0.0710  0.1852
 8293SOL    HW136338   3.658   3.719   3.565 -0.4225  0.6228 -0.5248
 8293SOL    HW236339   3.641   3.865   3.587  0.5308  0.5218 -0.2967
 8294SOL     OW36340   2.005   1.567   2.776  0.0132  0.3288 -0.8117
 8294SOL    HW136341   1.987   1.637   2.839 -1.1835  0.7373 -1.6164
 8294SOL    HW236342   2.092   1.543   2.809 -0.6772 -1.1410 -0.0734
 8295SOL     OW36343   2.507   0.644  12.562 -0.6530  1.0470  0.7903
 8295SOL    HW136344   2.546   0.646  12.649 -0.7896 -1.4457  0.9021
 8295SOL    HW236345   2.477   0.734  12.551  0.3790  1.0583 -1.7950
 8296SOL     OW36346   0.215   1.359   4.439  0.1296 -0.7472  0.0653
 8296SOL    HW136347   0.167   1.393   4.364 -1.1551  3.0751  2.6143
 8296SOL    HW236348   0.188   1.422   4.506  1.8749  0.2463 -0.1604
 8297SOL     OW36349   3.561   0.393   0.639  0.2024 -0.4142  0.3194
 8297SOL    HW136350   3.523   0.306   0.637  0.8699 -0.6718 -0.8231
 8297SOL    HW236351   3.524   0.424   0.557  1.3775  0.6036  0.1762
 8298SOL     OW36352   4.223   3.188   8.883 -0.0721 -0.0039  0.0796
 8298SOL    HW136353   4.180   3.235   8.812  0.9714  2.1471  0.8687
 8298SOL    HW236354   4.296   3.246   8.903  0.9029 -0.2603 -2.7496
 8299SOL     OW36355   1.334   2.277   6.881  0.5422 -0.3440  0.0306
 8299SOL    HW136356   1.289   2.264   6.965 -0.7636 -0.3492 -0.6549
 8299SOL    HW236357   1.348   2.185   6.860 -3.0474 -1.0968  0.9693
 8300SOL     OW36358   0.511   0.418   7.795 -0.3113 -0.0138 -0.2480
 8300SOL    HW136359   0.509   0.378   7.881 -1.0485 -1.0901 -0.7758
 8300SOL    HW236360   0.547   0.504   7.818 -2.4198  0.6744  0.4078
 8301SOL     OW36361   1.594   4.338  14.170  0.3183  0.2112  0.0528
 8301SOL    HW136362   1.675   4.289  14.187  0.5403  0.5140 -0.1164
 8301SOL    HW236363   1.542   4.265  14.137  1.3079  0.2359 -1.5591
 8302SOL     OW36364   3.926   4.482  17.154 -0.2616  0.0634 -0.0384
 8302SOL    HW136365   3.928   4.390  17.180  0.0824  0.2193  0.4951
 8302SOL    HW236366   3.942   4.528  17.236 -3.0944 -0.2456  0.6628
 8303SOL     OW36367   2.724   3.918   2.826 -0.1266 -0.1466  0.2206
 8303SOL    HW136368   2.642   3.966   2.842  0.7012  0.6940  1.9989
 8303SOL    HW236369   2.737   3.955   2.739 -1.4637 -1.9512 -0.7368
 8304SOL     OW36370   4.269   1.639  16.858  0.0574 -0.0506  0.6770
 8304SOL    HW136371   4.284   1.713  16.917  0.5222  0.3053  0.1048
 8304SOL    HW236372   4.246   1.567  16.917  2.2740 -1.9283 -0.7375
 8305SOL     OW36373   3.397   2.157  14.916 -0.0272 -0.1186  0.7695
 8305SOL    HW136374   3.425   2.174  14.826 -1.9700  0.5415  0.2846
 8305SOL    HW236375   3.465   2.097  14.947  0.1561 -0.3136 -0.0075
 8306SOL     OW36376   2.447   1.674   2.652 -0.5667  0.0565 -0.0463
 8306SOL    HW136377   2.417   1.604   2.593 -0.3834 -2.0770  2.3700
 8306SOL    HW236378   2.542   1.663   2.650 -0.6083 -0.7828  3.1627
 8307SOL     OW36379   4.578   3.216   9.091 -0.0772  0.3647  0.1775
 8307SOL    HW136380   4.611   3.221   9.001 -0.0693  0.8765  0.2100
 8307SOL    HW236381   4.656   3.252   9.134 -1.4087  2.4592  0.7755
 8308SOL     OW36382   1.908   0.057  17.654 -0.0463  0.5352 -0.3961
 8308SOL    HW136383   1.967   0.113   0.016 -1.1268 -0.3019  1.8144
 8308SOL    HW236384   1.891   4.716   0.036 -2.0315  1.0804 -0.3743
 8309SOL     OW36385   0.389   3.770   5.293 -0.6068  0.0557  0.0855
 8309SOL    HW136386   0.471   3.808   5.263 -0.5125  0.4601  0.8793
 8309SOL    HW236387   0.423   3.711   5.360  0.4840 -0.0451 -0.5572
 8310SOL     OW36388   1.434   3.200  11.742 -0.5204 -0.3787  0.2074
 8310SOL    HW136389   1.376   3.206  11.666 -0.1422  1.2327  0.0389
 8310SOL    HW236390   1.369   3.201  11.812 -2.0148 -0.8687 -1.1814
 8311SOL     OW36391   1.284   2.541  17.611  0.1893  0.3756 -0.4108
 8311SOL    HW136392   1.337   2.467  17.580  0.5329  1.0117 -1.3388
 8311SOL    HW236393   1.225   2.559  17.538  0.6619  1.9125 -0.4019
 8312SOL     OW36394   2.661   0.184  10.303  0.2475 -0.3056 -0.7573
 8312SOL    HW136395   2.602   0.138  10.361  2.4616  0.4845  2.1115
 8312SOL    HW236396   2.692   0.262  10.350  1.1732 -0.2331 -1.4707
 8313SOL     OW36397   4.372   1.131   5.012 -0.2576  0.3864  0.0706
 8313SOL    HW136398   4.410   1.218   5.011  1.9636 -0.5756 -0.4393
 8313SOL    HW236399   4.287   1.149   4.972  0.2817  0.3167 -1.1104
 8314SOL     OW36400   2.650   1.856   9.791 -0.1969 -0.3184  0.5841
 8314SOL    HW136401   2.703   1.789   9.833  1.0998  0.3069 -0.0549
 8314SOL    HW236402   2.659   1.827   9.700 -1.9653  0.1986  0.2392
 8315SOL     OW36403   0.301   3.300  16.448 -0.1214 -0.2684 -0.3800
 8315SOL    HW136404   0.244   3.369  16.412  1.2082 -0.0653 -2.0849
 8315SOL    HW236405   0.343   3.279  16.365  1.9424 -0.3679  0.6789
 8316SOL     OW36406   4.068   3.234   6.567 -0.2174  0.3185  0.0984
 8316SOL    HW136407   4.015   3.154   6.577  0.8899 -0.4222  0.0678
 8316SOL    HW236408   4.057   3.257   6.659  0.7544  2.1332 -0.2478
 8317SOL     OW36409   3.712   3.847  13.843  0.0146 -0.2306 -0.0739
 8317SOL    HW136410   3.706   3.929  13.891 -0.4873 -1.4974  1.9960
 8317SOL    HW236411   3.802   3.846  13.808  0.0130  0.4072 -0.0938
 8318SOL     OW36412   1.079   1.014   8.940  0.4509  0.3930 -0.1651
 8318SOL    HW136413   1.030   1.022   8.858 -0.6845 -1.6784  0.2929
 8318SOL    HW236414   1.033   1.075   8.997 -1.2958 -1.0790 -0.0238
 8319SOL     OW36415   3.989   0.207  17.465  0.1742 -0.1905 -0.1106
 8319SOL    HW136416   3.905   0.219  17.509  0.1615  1.9166 -0.7126
 8319SOL    HW236417   3.986   0.119  17.425  0.1178  0.5416 -1.7193
 8320SOL     OW36418   2.253   3.548   2.632  0.5380  0.9567  0.3091
 8320SOL    HW136419   2.341   3.586   2.639  1.6248 -1.6171  0.7225
 8320SOL    HW236420   2.279   3.457   2.647 -1.0182  0.0511 -2.4374
 8321SOL     OW36421   2.645   1.363   5.728  0.0190 -0.4076  0.0257
 8321SOL    HW136422   2.717   1.405   5.775  1.2016  1.0641 -3.0402
 8321SOL    HW236423   2.630   1.418   5.651  0.1785 -1.4963 -0.7872
 8322SOL     OW36424   2.838   1.254   7.176  0.3728 -0.0546  0.0141
 8322SOL    HW136425   2.910   1.216   7.226 -0.1805 -0.5706  0.4293
 8322SOL    HW236426   2.777   1.181   7.167  1.9572 -1.5645  1.6701
 8323SOL     OW36427   2.765   2.482  16.039 -0.5763 -0.1725  0.7814
 8323SOL    HW136428   2.767   2.449  16.129 -0.8654  1.9306  1.5499
 8323SOL    HW236429   2.776   2.398  15.994  0.4779 -0.5786  1.7829
 8324SOL     OW36430   4.671   1.234   8.231 -0.0490  0.0585 -0.6930
 8324SOL    HW136431   0.014   1.259   8.164 -1.0260 -1.9289 -2.3773
 8324SOL    HW236432   4.718   1.270   8.306  1.0605 -4.0542  0.5883
 8325SOL     OW36433   0.658   3.493   2.770 -0.1622  0.1101  0.0093
 8325SOL    HW136434   0.566   3.471   2.787  0.4111  1.6178  5.0327
 8325SOL    HW236435   0.668   3.560   2.837 -3.7936  0.0449  0.6400
 8326SOL     OW36436   4.575   2.632  13.348  0.1136 -0.2336 -0.0640
 8326SOL    HW136437   4.506   2.589  13.399 -1.8987  1.6090 -1.2213
 8326SOL    HW236438   4.541   2.632  13.258  1.1527 -2.8347 -0.4520
 8327SOL     OW36439   2.205   2.713  10.651 -0.2631  0.4199  0.5918
 8327SOL    HW136440   2.296   2.694  10.628 -0.4090 -1.5362  1.6351
 8327SOL    HW236441   2.164   2.673  10.574  1.2034 -0.6462  0.3579
 8328SOL     OW36442   3.095   4.309   4.016  0.2229 -0.0417 -0.1765
 8328SOL    HW136443   3.127   4.288   3.929 -0.0976  0.7231 -0.4813
 8328SOL    HW236444   3.142   4.390   4.035 -0.7957  0.2887  0.9974
 8329SOL     OW36445   1.025   2.921   4.973 -0.3048  0.7608  0.4248
 8329SOL    HW136446   1.052   2.990   4.913 -1.6610  0.5959 -0.3917
 8329SOL    HW236447   1.107   2.874   4.987  0.1126  0.6645 -2.5220
 8330SOL     OW36448   2.230   3.880   1.045  0.5907 -0.1505  0.5126
 8330SOL    HW136449   2.191   3.888   0.958  1.6390 -1.7052 -0.0992
 8330SOL    HW236450   2.172   3.818   1.087 -0.9982  0.8630 -0.1731
 8331SOL     OW36451   4.594   4.127   9.596  0.0946 -0.2805  0.0849
 8331SOL    HW136452   4.544   4.204   9.623  0.1214 -0.4975  0.7667
 8331SOL    HW236453   4.606   4.154   9.505 -0.0845  1.5634  0.6181
 8332SOL     OW36454   3.637   0.867   4.423  0.0341  1.0288  0.6243
 8332SOL    HW136455   3.713   0.911   4.385  0.9510 -1.4579 -0.4217
 8332SOL    HW236456   3.592   0.943   4.459 -1.7427  0.4661 -0.3849
 8333SOL     OW36457   1.811   1.248   7.689 -0.3348  0.2136 -0.3235
 8333SOL    HW136458   1.754   1.319   7.662 -1.5568 -0.3923  0.7112
 8333SOL    HW236459   1.752   1.173   7.683  1.4892 -1.2280 -0.2682
 8334SOL     OW36460   2.060   3.198  11.878  0.2223 -0.2101 -0.1509
 8334SOL    HW136461   2.043   3.292  11.872 -2.0268 -0.5493  0.8087
 8334SOL    HW236462   1.970   3.166  11.884  0.1788  0.0014  0.2937
 8335SOL     OW36463   3.294   4.695  16.645 -0.0932 -0.3935 -0.2247
 8335SOL    HW136464   3.372   4.647  16.616  1.1069  1.8136 -0.6429
 8335SOL    HW236465   3.306   4.696  16.740 -0.8538  2.4743 -0.1837
 8336SOL     OW36466   0.659   3.489  14.482  0.2069  0.7256 -0.5062
 8336SOL    HW136467   0.686   3.442  14.402 -3.1931 -2.2543  0.1126
 8336SOL    HW236468   0.629   3.430  14.551 -1.6586  1.4952 -0.6629
 8337SOL     OW36469   3.594   4.706   4.997  0.0442  0.9483 -0.0385
 8337SOL    HW136470   3.565   4.624   5.037  1.3903  0.7841  0.6119
 8337SOL    HW236471   3.541   0.045   5.049 -0.5772  0.1526  0.2559
 8338SOL     OW36472   0.691   2.799  13.392 -0.1557 -0.2285  0.2189
 8338SOL    HW136473   0.639   2.878  13.377 -1.0312 -1.0975 -1.3358
 8338SOL    HW236474   0.626   2.733  13.416  1.0785 -1.8502 -0.8803
 8339SOL     OW36475   4.457   1.347  10.758 -0.3911  0.7048  0.2826
 8339SOL    HW136476   4.414   1.425  10.793 -0.9715  0.9013 -0.8583
 8339SOL    HW236477   4.381   1.301  10.723 -0.4015  0.6170  0.4213
 8340SOL     OW36478   0.467   3.092  13.655  0.5105  0.0511 -0.0672
 8340SOL    HW136479   0.407   3.085  13.581  0.3980 -1.3421  0.1549
 8340SOL    HW236480   0.556   3.103  13.623 -0.1158  0.3257 -1.7384
 8341SOL     OW36481   1.528   0.836   3.756 -0.3861  0.2500  0.1701
 8341SOL    HW136482   1.617   0.824   3.723  0.4004 -0.0366  2.4110
 8341SOL    HW236483   1.486   0.751   3.748 -0.5654  0.0908  2.9889
 8342SOL     OW36484   0.736   1.510   8.094 -0.6244  0.1083 -0.0634
 8342SOL    HW136485   0.782   1.429   8.115  0.3555  0.4782 -0.8306
 8342SOL    HW236486   0.694   1.533   8.177 -0.6285 -0.1712  0.0125
 8343SOL     OW36487   4.204   4.249   6.085  0.1089  0.1066  0.1816
 8343SOL    HW136488   4.273   4.278   6.025 -0.1126 -0.9230 -0.5765
 8343SOL    HW236489   4.144   4.323   6.070 -0.2915  0.2070  2.3420
 8344SOL     OW36490   1.073   1.654   1.747 -0.0183 -0.3448  0.3299
 8344SOL    HW136491   1.116   1.601   1.814 -0.2696 -2.4076 -1.1219
 8344SOL    HW236492   1.046   1.732   1.795  1.2618 -0.7865  1.7601
 8345SOL     OW36493   3.827   3.936  17.177  0.4347 -0.3854 -0.4770
 8345SOL    HW136494   3.742   3.972  17.205  0.8458  0.1012  0.1555
 8345SOL    HW236495   3.879   3.953  17.256  1.1541  2.4402 -1.5517
 8346SOL     OW36496   1.125   2.693   8.699  0.3042  0.0063  1.1092
 8346SOL    HW136497   1.100   2.600   8.694 -1.4316  0.4920  0.9716
 8346SOL    HW236498   1.123   2.715   8.792  0.6691  1.0705  0.8664
 8347SOL     OW36499   2.947   1.125   8.678 -0.1470  0.0262 -0.3883
 8347SOL    HW136500   3.024   1.070   8.687 -0.7583 -0.7425  0.1712
 8347SOL    HW236501   2.946   1.150   8.586  0.1034 -0.2108 -0.4565
 8348SOL     OW36502   3.315   4.025   7.576 -0.2806  0.5396 -0.2832
 8348SOL    HW136503   3.344   3.994   7.491 -0.2029  0.4633 -0.2286
 8348SOL    HW236504   3.393   4.005   7.628  0.1346 -1.1694 -1.5420
 8349SOL     OW36505   0.414   0.688   4.416 -0.2515 -0.2152 -0.0675
 8349SOL    HW136506   0.368   0.731   4.488  0.4800 -0.3058  0.4453
 8349SOL    HW236507   0.491   0.642   4.449  0.3751  1.9486  1.4616
 8350SOL     OW36508   4.136   4.071   1.050  0.5672 -0.3327  0.4064
 8350SOL    HW136509   4.199   4.134   1.085  1.4038  0.1503 -2.0086
 8350SOL    HW236510   4.088   4.032   1.124  1.5646 -2.3251  0.0181
 8351SOL     OW36511   3.793   1.421   8.817  0.2043  0.0506 -0.2838
 8351SOL    HW136512   3.884   1.416   8.849  0.3467 -4.4936 -1.3310
 8351SOL    HW236513   3.758   1.342   8.858  0.7041  0.4806  0.9683
 8352SOL     OW36514   1.775   2.967   4.613 -0.1937  0.2666 -0.5562
 8352SOL    HW136515   1.812   3.045   4.570 -0.7036 -0.8286 -3.0226
 8352SOL    HW236516   1.723   2.992   4.689  0.0628 -3.2242  0.7394
 8353SOL     OW36517   1.468   2.807   9.735 -0.1878  0.2394  0.2370
 8353SOL    HW136518   1.511   2.870   9.677  0.1049  0.3996  0.6278
 8353SOL    HW236519   1.481   2.731   9.679  3.9798 -1.2442  3.2488
 8354SOL     OW36520   4.287   0.477   0.467 -0.3680  0.1423 -0.1517
 8354SOL    HW136521   4.237   0.544   0.515  1.5546  2.2880 -1.1249
 8354SOL    HW236522   4.283   0.523   0.383 -1.0274 -0.3897 -0.4057
 8355SOL     OW36523   2.323   2.583   8.253  0.3285  0.1107 -0.0617
 8355SOL    HW136524   2.243   2.627   8.223  0.1848  0.9731  1.6010
 8355SOL    HW236525   2.302   2.579   8.346  2.3939 -0.2627  0.3729
 8356SOL     OW36526   1.844   0.803   8.723  0.1017  0.0512  0.1851
 8356SOL    HW136527   1.913   0.804   8.790 -1.0420  2.0530  1.3267
 8356SOL    HW236528   1.764   0.822   8.772 -0.6757  0.1554 -1.1325
 8357SOL     OW36529   3.365   2.038   4.855 -0.3082  0.2332  0.2041
 8357SOL    HW136530   3.444   2.008   4.899 -0.7988 -0.7696  0.4069
 8357SOL    HW236531   3.394   2.127   4.836  0.8135 -0.0084  0.7850
 8358SOL     OW36532   0.692   0.979  12.698  0.3512 -0.2991 -0.1380
 8358SOL    HW136533   0.597   0.971  12.704  0.5064 -1.7215  0.4984
 8358SOL    HW236534   0.703   1.051  12.637  1.2941  0.5656  1.0470
 8359SOL     OW36535   0.490   2.140  11.783  0.3073 -0.0593  0.2658
 8359SOL    HW136536   0.495   2.082  11.707 -2.3809 -0.3337  0.3229
 8359SOL    HW236537   0.514   2.081  11.855 -0.1699  1.8120  1.9824
 8360SOL     OW36538   3.570   0.161   1.841  0.1752  0.1124  0.2004
 8360SOL    HW136539   3.637   0.228   1.849  1.3028 -1.1498  1.2987
 8360SOL    HW236540   3.570   0.156   1.745  0.9134  0.9291  0.1567
 8361SOL     OW36541   1.547   1.504  10.542 -0.5086  0.1348 -0.3233
 8361SOL    HW136542   1.636   1.470  10.543  0.3053  2.0424 -4.4459
 8361SOL    HW236543   1.505   1.465  10.465 -1.1042 -0.7138  0.4353
 8362SOL     OW36544   2.875   0.062   2.393 -0.4748  0.2295  0.3144
 8362SOL    HW136545   2.846   0.076   2.483  0.5446  0.0076  0.6735
 8362SOL    HW236546   2.946   4.721   2.407  1.1485  1.9656 -0.1414
 8363SOL     OW36547   3.649   4.674   5.415  0.5510  0.5701  0.9350
 8363SOL    HW136548   3.646   0.032   5.362  2.0991  1.0755  1.5794
 8363SOL    HW236549   3.568   4.680   5.466 -0.3892 -1.1125 -0.3666
 8364SOL     OW36550   3.208   3.779   2.616  0.4716 -0.1741  0.0105
 8364SOL    HW136551   3.219   3.784   2.522 -3.5226  0.0576 -0.4321
 8364SOL    HW236552   3.235   3.690   2.637 -0.5107 -0.6947 -0.9627
 8365SOL     OW36553   2.351   1.931  13.729  0.5921  0.1595 -0.3696
 8365SOL    HW136554   2.325   1.855  13.782  1.2086  0.1058 -0.1432
 8365SOL    HW236555   2.270   1.980  13.711  0.8253  0.8597  0.4602
 8366SOL     OW36556   1.089   2.685  14.564  0.1956  0.5910 -0.0873
 8366SOL    HW136557   1.067   2.613  14.623  0.9470  0.0776 -0.4443
 8366SOL    HW236558   1.182   2.668  14.555 -0.0732 -0.1034 -1.4809
 8367SOL     OW36559   2.967   0.811   5.096  0.2130  0.8676 -0.3950
 8367SOL    HW136560   2.904   0.760   5.147  1.7285  0.4464  1.0510
 8367SOL    HW236561   3.045   0.760   5.116 -1.6861 -1.6337  0.7557
 8368SOL     OW36562   1.820   2.031   8.896  0.5012 -0.4306 -0.4507
 8368SOL    HW136563   1.818   2.032   8.801 -0.4543 -1.1702 -0.4469
 8368SOL    HW236564   1.842   2.122   8.913  0.5112 -0.3543 -0.8892
 8369SOL     OW36565   1.333   4.159   3.350  0.1327  0.4102  0.1483
 8369SOL    HW136566   1.247   4.154   3.309  0.0925 -0.4591  0.3393
 8369SOL    HW236567   1.390   4.195   3.282  2.8599 -2.3733  0.9499
 8370SOL     OW36568   2.368   1.345   5.315 -0.0147 -0.1490 -0.2848
 8370SOL    HW136569   2.375   1.410   5.245  1.9159  0.3509  0.3694
 8370SOL    HW236570   2.303   1.381   5.375 -2.7049 -2.6831 -1.6835
 8371SOL     OW36571   3.651   1.637   3.414  0.2183  0.1660  1.0373
 8371SOL    HW136572   3.731   1.604   3.453  0.6642  0.2434  0.1783
 8371SOL    HW236573   3.668   1.612   3.323  0.6338  0.2869  1.0846
 8372SOL     OW36574   0.864   3.460   8.561 -0.1079  0.0599 -0.1852
 8372SOL    HW136575   0.874   3.552   8.537 -0.1071  0.2502  0.5281
 8372SOL    HW236576   0.952   3.436   8.591 -0.4109 -0.1702  0.5279
 8373SOL     OW36577   3.071   1.542   0.480 -0.8118 -0.1441 -0.2408
 8373SOL    HW136578   3.155   1.584   0.459  0.0287 -1.5224  0.3571
 8373SOL    HW236579   3.098   1.450   0.478  0.6918  0.2920 -0.4305
 8374SOL     OW36580   1.677   4.508  12.161  0.9253  0.2348  0.0637
 8374SOL    HW136581   1.713   4.447  12.096  0.4210  0.5687 -0.5302
 8374SOL    HW236582   1.766   4.523  12.195  1.0751 -0.2412 -0.1100
 8375SOL     OW36583   2.245   2.601   5.406 -0.0057  0.5226 -0.4162
 8375SOL    HW136584   2.310   2.575   5.471  1.6264  2.3675 -1.3049
 8375SOL    HW236585   2.229   2.691   5.437 -1.5015  0.1679 -0.1432
 8376SOL     OW36586   2.584   2.568   9.882  0.4224 -1.1414 -0.2268
 8376SOL    HW136587   2.599   2.660   9.859  1.7743 -0.9351  1.4844
 8376SOL    HW236588   2.590   2.579   9.977  0.4553  1.7122 -0.5539
 8377SOL     OW36589   1.438   2.187   0.035  0.4373 -0.7884 -0.4086
 8377SOL    HW136590   1.366   2.177   0.098  0.4273  1.3062 -0.0672
 8377SOL    HW236591   1.483   2.104   0.024 -0.5818 -1.3253 -0.5202
 8378SOL     OW36592   3.828   0.797   4.052  0.3902 -0.1620  0.6547
 8378SOL    HW136593   3.789   0.713   4.030 -0.7815  0.1979  1.3489
 8378SOL    HW236594   3.768   0.860   4.012 -0.8180 -1.5831  0.2500
 8379SOL     OW36595   1.641   0.805  16.343  0.1878 -0.3486  0.3396
 8379SOL    HW136596   1.665   0.857  16.419 -3.1542  1.0196  0.4371
 8379SOL    HW236597   1.730   0.775  16.322  0.2866  2.1477 -2.9022
 8380SOL     OW36598   3.346   2.243  14.639 -0.4865 -0.6260 -0.5239
 8380SOL    HW136599   3.338   2.299  14.562  1.7618  1.5356  0.8097
 8380SOL    HW236600   3.433   2.262  14.673 -0.6210 -0.1196 -0.4587
 8381SOL     OW36601   3.984   1.669  11.422 -0.3155  0.1013 -0.2353
 8381SOL    HW136602   3.973   1.575  11.429 -3.8148  0.5094 -0.1014
 8381SOL    HW236603   3.960   1.696  11.510 -0.1438  1.2333 -0.5276
 8382SOL     OW36604   1.406   1.232  13.139  0.0286  0.0916  0.1033
 8382SOL    HW136605   1.479   1.192  13.094  0.7391 -0.5177  1.7952
 8382SOL    HW236606   1.364   1.275  13.065  0.8004  1.8623  0.6879
 8383SOL     OW36607   1.571   4.662   2.488 -0.4007 -0.5970 -0.1270
 8383SOL    HW136608   1.595   0.018   2.437  1.6997 -0.5391  0.9734
 8383SOL    HW236609   1.637   4.665   2.557 -1.4622 -1.4778  0.9266
 8384SOL     OW36610   0.438   1.451   9.490  0.5788 -0.2444  0.1884
 8384SOL    HW136611   0.445   1.538   9.529  0.0736 -0.0908 -0.0636
 8384SOL    HW236612   0.515   1.408   9.526  1.0819  0.6969  0.2316
 8385SOL     OW36613   3.767   1.998   2.979  0.1571 -0.1454 -0.5748
 8385SOL    HW136614   3.680   2.037   2.971 -0.2441 -0.4426  2.3594
 8385SOL    HW236615   3.818   2.026   2.902  1.6297 -0.4535  0.2881
 8386SOL     OW36616   3.437   4.626   5.653 -0.5588  0.2680 -0.3396
 8386SOL    HW136617   3.477   4.585   5.729 -1.6730 -0.5611 -0.2013
 8386SOL    HW236618   3.364   4.676   5.688  0.9649  1.5445  0.9979
 8387SOL     OW36619   0.300   0.112   5.633 -0.1657 -0.0282 -0.5209
 8387SOL    HW136620   0.243   0.050   5.588 -1.7838 -0.8027  2.6530
 8387SOL    HW236621   0.378   0.069   5.598 -0.0801 -0.5325  0.3062
 8388SOL     OW36622   4.598   2.940   0.592  0.5934 -0.2769  0.0369
 8388SOL    HW136623   4.649   2.872   0.547 -0.5436 -1.6360  0.8183
 8388SOL    HW236624   4.590   2.904   0.680 -1.3049  2.1909  0.8652
 8389SOL     OW36625   2.513   1.561  16.145 -0.0106 -0.0990  0.4808
 8389SOL    HW136626   2.486   1.653  16.141 -1.1317 -0.4233  0.6851
 8389SOL    HW236627   2.512   1.548  16.239  1.9294 -2.0351  0.2273
 8390SOL     OW36628   1.354   2.374   1.780 -0.0200 -0.5968  0.1690
 8390SOL    HW136629   1.448   2.377   1.792 -0.0832  0.5647  0.4261
 8390SOL    HW236630   1.333   2.283   1.802  0.9130 -0.3254  2.1492
 8391SOL     OW36631   1.732   3.974  14.026  0.1063 -0.4834 -0.4196
 8391SOL    HW136632   1.786   4.049  14.050  0.6933 -0.8447 -0.6077
 8391SOL    HW236633   1.657   4.012  13.980 -0.1331 -0.4480 -0.0018
 8392SOL     OW36634   1.248   4.007  15.364 -0.2835  0.2478  0.3635
 8392SOL    HW136635   1.205   3.923  15.349  0.8682  0.1275 -2.2910
 8392SOL    HW236636   1.290   4.013  15.278 -1.3480  1.4522 -0.0638
 8393SOL     OW36637   4.371   2.892   3.864 -0.2946 -0.0894  0.4640
 8393SOL    HW136638   4.322   2.837   3.804  0.6140 -1.8042  1.3035
 8393SOL    HW236639   4.430   2.822   3.893  1.1087  1.2059  0.7436
 8394SOL     OW36640   4.460   0.977   6.325  0.2389 -0.3661 -0.7011
 8394SOL    HW136641   4.454   0.890   6.365  0.8472  0.5923  1.4515
 8394SOL    HW236642   4.553   0.997   6.335  0.3207 -2.4028  2.6680
 8395SOL     OW36643   3.535   1.127   7.725 -0.1914  0.0280  0.8603
 8395SOL    HW136644   3.472   1.182   7.773  0.0807  1.7416 -0.7487
 8395SOL    HW236645   3.497   1.153   7.641 -2.7193  1.1813  2.3683
 8396SOL     OW36646   2.352   2.181   4.369  0.5657 -0.9030  0.1917
 8396SOL    HW136647   2.342   2.264   4.415 -0.4843 -1.8304  1.6337
 8396SOL    HW236648   2.426   2.190   4.309  0.6416  3.9702  1.0248
 8397SOL     OW36649   4.050   0.633   1.495  0.0275 -0.0022  0.0015
 8397SOL    HW136650   4.127   0.682   1.468  1.2830 -1.8959  0.1876
 8397SOL    HW236651   4.056   0.554   1.441  1.8545 -1.7489  2.7536
 8398SOL     OW36652   3.855   2.471   3.233  0.4084  1.0493  0.1797
 8398SOL    HW136653   3.937   2.520   3.223  1.0032  0.0893  0.3012
 8398SOL    HW236654   3.846   2.431   3.146  0.3380  0.5223  0.4314
 8399SOL     OW36655   3.018   0.023   8.366 -0.2238  0.5431  0.2926
 8399SOL    HW136656   2.978   0.094   8.417 -0.8819  0.8779 -0.6806
 8399SOL    HW236657   3.100   0.004   8.411 -0.2193  0.3188  0.1868
 8400SOL     OW36658   1.831   4.174   5.294  0.0511  0.0541 -0.3703
 8400SOL    HW136659   1.925   4.160   5.302  0.0042 -0.9127 -1.6103
 8400SOL    HW236660   1.831   4.256   5.245  0.0159 -0.6477 -1.5463
 8401SOL     OW36661   3.768   0.562   0.629  0.0551  0.2214 -0.1921
 8401SOL    HW136662   3.824   0.541   0.554  0.1998 -0.7847  0.1887
 8401SOL    HW236663   3.718   0.482   0.642  0.0721  0.1629 -0.4828
 8402SOL     OW36664   4.643   2.464   3.437 -0.0567 -1.2109  0.5019
 8402SOL    HW136665   4.587   2.476   3.513 -0.9748  2.3340 -0.7462
 8402SOL    HW236666   4.688   2.381   3.456 -0.3860 -1.6187 -0.4673
 8403SOL     OW36667   3.668   3.605   0.761 -0.4954  0.3417  0.4669
 8403SOL    HW136668   3.639   3.685   0.718 -0.9145 -0.7616 -1.3035
 8403SOL    HW236669   3.718   3.562   0.691  1.5218 -0.4643  2.3852
 8404SOL     OW36670   3.116   4.385   2.824  0.0651 -0.1973 -0.2606
 8404SOL    HW136671   3.056   4.459   2.833  0.6858  0.2542  0.1367
 8404SOL    HW236672   3.056   4.312   2.839  1.5193 -1.1182  1.1644
 8405SOL     OW36673   0.956   1.120   1.596  0.6192  0.0722  0.5401
 8405SOL    HW136674   0.911   1.202   1.577 -0.9821 -0.8203  0.5489
 8405SOL    HW236675   0.901   1.097   1.670  0.9519  2.9991  1.7015
 8406SOL     OW36676   2.510   0.019  14.335  0.3087  0.2218  0.2405
 8406SOL    HW136677   2.561   4.683  14.392 -1.7192 -0.9619  0.8771
 8406SOL    HW236678   2.440   0.046  14.396 -0.0298  0.3923 -0.2254
 8407SOL     OW36679   2.171   0.862   3.620 -0.0315  0.7280 -0.1453
 8407SOL    HW136680   2.239   0.816   3.572 -0.2106  0.5259 -0.2072
 8407SOL    HW236681   2.097   0.802   3.630 -0.7413  1.6626  0.2182
 8408SOL     OW36682   3.295   1.676   4.203 -0.5030 -0.2110 -0.2391
 8408SOL    HW136683   3.274   1.750   4.260 -0.4281 -1.4489  1.4054
 8408SOL    HW236684   3.236   1.604   4.227 -0.5583  0.0926  0.5351
 8409SOL     OW36685   0.285   4.211  14.911  0.6665  0.3630 -0.7882
 8409SOL    HW136686   0.360   4.155  14.892 -0.4787 -1.6692  0.7094
 8409SOL    HW236687   0.213   4.173  14.861  0.2749 -1.5448  1.2006
 8410SOL     OW36688   2.248   2.261   9.589 -0.4033  0.5284 -0.3603
 8410SOL    HW136689   2.240   2.288   9.498 -3.9622  1.8549  0.3293
 8410SOL    HW236690   2.181   2.320   9.625  3.7083  4.1328  1.2876
 8411SOL     OW36691   2.097   0.335   6.659 -0.2566  0.1831  0.3806
 8411SOL    HW136692   2.112   0.422   6.621 -0.1829  0.1400  0.3115
 8411SOL    HW236693   2.151   0.337   6.738 -0.3994 -0.0857  0.4866
 8412SOL     OW36694   2.908   1.751  11.486  0.0974  0.1042 -0.0967
 8412SOL    HW136695   2.852   1.829  11.485  0.9150  0.6849  0.1554
 8412SOL    HW236696   2.850   1.684  11.523  0.1928  0.3027  0.4126
 8413SOL     OW36697   4.527   3.493   5.835  0.0435  0.0664 -0.0597
 8413SOL    HW136698   4.552   3.444   5.914  0.2539  0.1964 -0.0475
 8413SOL    HW236699   4.433   3.474   5.830 -0.4543  2.1871  1.0173
 8414SOL     OW36700   2.352   4.053   5.973  0.0021 -0.9405 -0.1221
 8414SOL    HW136701   2.338   3.978   6.030 -0.6280 -1.9826 -1.6542
 8414SOL    HW236702   2.414   4.100   6.030  0.6130 -0.6870 -0.9945
 8415SOL     OW36703   0.423   3.046  14.653 -0.0009 -0.5641 -0.4856
 8415SOL    HW136704   0.332   3.064  14.678  0.0957  1.1219 -1.3317
 8415SOL    HW236705   0.447   3.012  14.739  1.1611 -2.8950 -1.7357
 8416SOL     OW36706   2.607   1.519   4.662  0.7775  0.3275  0.0612
 8416SOL    HW136707   2.676   1.537   4.598 -0.8340  2.1220 -1.1531
 8416SOL    HW236708   2.625   1.427   4.685 -0.0579  0.1799  0.1031
 8417SOL     OW36709   0.009   0.394   1.684  0.1508  0.5972  0.0532
 8417SOL    HW136710   4.646   0.405   1.727  0.1658  0.5819  0.0867
 8417SOL    HW236711   4.718   0.406   1.590 -2.5988 -1.2113  0.2164
 8418SOL     OW36712   4.074   1.126   5.186 -0.1176  0.1408 -0.4963
 8418SOL    HW136713   4.086   1.194   5.252 -0.3453  1.5230 -1.8586
 8418SOL    HW236714   4.143   1.147   5.123 -0.3329  1.6673 -0.2234
 8419SOL     OW36715   4.590   1.226   1.565 -0.3860  0.1621  0.2930
 8419SOL    HW136716   4.512   1.193   1.521  0.1642  0.1736 -0.6915
 8419SOL    HW236717   4.616   1.148   1.615 -0.9587  0.5887  1.2651
 8420SOL     OW36718   0.357   3.301  17.464 -0.1602 -0.0688  0.4984
 8420SOL    HW136719   0.395   3.268  17.546  2.0002  0.3868 -0.3094
 8420SOL    HW236720   0.412   3.379  17.454 -0.3513  0.1679  1.3415
 8421SOL     OW36721   4.243   2.157   5.990  0.0519  0.4787  0.1834
 8421SOL    HW136722   4.222   2.250   5.993  0.0179  0.5402 -2.0257
 8421SOL    HW236723   4.154   2.122   5.988  0.1206  0.2243  2.3697
 8422SOL     OW36724   0.060   1.529   3.279  0.0602  0.4109 -0.7531
 8422SOL    HW136725   0.143   1.508   3.322 -1.0283  2.8915  2.6419
 8422SOL    HW236726   0.006   1.450   3.280  0.7364 -0.0467 -0.7314
 8423SOL     OW36727   2.889   0.506   1.828 -0.5082  0.2569 -0.0207
 8423SOL    HW136728   2.927   0.419   1.841 -1.0866  0.2853  1.8746
 8423SOL    HW236729   2.809   0.485   1.781 -0.3854  0.0815 -0.1530
 8424SOL     OW36730   2.779   0.571   3.423  0.5127  0.2310  0.4052
 8424SOL    HW136731   2.821   0.642   3.472 -0.9405  1.7193 -0.4815
 8424SOL    HW236732   2.722   0.532   3.488  2.0539 -2.0991  0.3313
 8425SOL     OW36733   2.390   3.913   4.671  0.2967  0.2211  0.6436
 8425SOL    HW136734   2.372   3.847   4.604  0.8983  0.2424  0.4659
 8425SOL    HW236735   2.447   3.966   4.616 -1.1761 -1.0373 -2.1094
 8426SOL     OW36736   4.656   4.274  11.721  0.0943 -0.0732 -0.1716
 8426SOL    HW136737   4.711   4.214  11.671  0.0072 -0.1818 -0.1395
 8426SOL    HW236738   4.596   4.283  11.647  0.5646 -0.3522 -0.5890
 8427SOL     OW36739   4.541   2.783   3.581 -0.0592 -0.2705 -0.0882
 8427SOL    HW136740   4.556   2.825   3.665  1.2320 -0.6935 -0.1101
 8427SOL    HW236741   4.535   2.692   3.609  1.4386 -0.3876 -0.1759
 8428SOL     OW36742   1.383   1.336   2.637  0.1564  0.0783 -0.0879
 8428SOL    HW136743   1.427   1.253   2.620  0.2051 -0.0102  0.4629
 8428SOL    HW236744   1.377   1.339   2.732  0.3126 -0.0579 -0.0739
 8429SOL     OW36745   4.365   1.928   8.369  0.0304  0.3721 -0.4544
 8429SOL    HW136746   4.376   1.863   8.300 -1.2916 -0.2483 -0.0869
 8429SOL    HW236747   4.444   1.911   8.419 -2.6812 -1.7038  3.1550
 8430SOL     OW36748   1.295   0.630   3.568  0.2642  0.0641  0.1369
 8430SOL    HW136749   1.334   0.618   3.654 -1.8469  1.2742  1.2608
 8430SOL    HW236750   1.203   0.652   3.586  0.3281  1.1558 -0.8371
 8431SOL     OW36751   4.544   1.850   3.745 -0.6193  0.3533  0.4268
 8431SOL    HW136752   4.593   1.926   3.777  0.2747  0.0466 -0.2062
 8431SOL    HW236753   4.484   1.893   3.685  0.7395  1.1170 -0.3944
 8432SOL     OW36754   3.593   4.078  15.809  0.1208 -0.0993  0.3884
 8432SOL    HW136755   3.542   4.149  15.770 -0.3767 -0.1058  1.0443
 8432SOL    HW236756   3.575   4.080  15.903  0.3078  0.5719  0.4107
 8433SOL     OW36757   0.302   2.236   3.352  0.2158  0.0836 -0.0875
 8433SOL    HW136758   0.369   2.168   3.358 -0.8639 -0.9109  0.8796
 8433SOL    HW236759   0.301   2.261   3.260 -4.2662 -0.6683 -0.2719
 8434SOL     OW36760   1.315   1.430  12.920 -0.0970 -0.0750 -0.4467
 8434SOL    HW136761   1.264   1.481  12.857 -1.3613 -1.1862 -0.3350
 8434SOL    HW236762   1.380   1.399  12.857 -0.6132 -1.5618 -0.2638
 8435SOL     OW36763   4.639   0.151  13.726  0.7749 -0.3304 -0.0079
 8435SOL    HW136764   4.665   0.222  13.668  2.6469  0.5419  1.9017
 8435SOL    HW236765   4.552   0.168  13.764 -0.5064 -1.1053 -2.5773
 8436SOL     OW36766   1.025   3.656   3.341  0.2293 -0.2156 -0.3617
 8436SOL    HW136767   1.078   3.736   3.344 -0.3004  0.0892  0.8608
 8436SOL    HW236768   1.008   3.638   3.249  2.0669  1.2723 -0.9939
 8437SOL     OW36769   3.517   3.703   5.473 -0.4117  0.3447  0.2241
 8437SOL    HW136770   3.509   3.755   5.394  0.8867 -0.1664 -0.2486
 8437SOL    HW236771   3.576   3.635   5.441 -0.0798  0.5227  0.4662
 8438SOL     OW36772   2.284   1.615   8.098 -0.3629  0.2321  0.1644
 8438SOL    HW136773   2.236   1.535   8.075 -1.5576  0.7617  0.8027
 8438SOL    HW236774   2.372   1.580   8.106 -0.9316 -0.8115  1.8085
 8439SOL     OW36775   0.963   2.031   9.625  0.0192  0.2491  0.1031
 8439SOL    HW136776   1.046   1.986   9.642 -1.4514 -2.2905  0.5062
 8439SOL    HW236777   0.993   2.117   9.595  0.6906 -0.6430 -1.7944
 8440SOL     OW36778   3.373   3.347   8.348  0.0236 -0.0744 -0.7235
 8440SOL    HW136779   3.466   3.325   8.346 -0.0323 -0.6707  2.4916
 8440SOL    HW236780   3.375   3.362   8.443 -0.3185 -2.6208 -0.3222
 8441SOL     OW36781   1.250   4.088  17.309 -0.3557 -0.3788  0.0668
 8441SOL    HW136782   1.336   4.068  17.271 -0.0716  1.2879 -0.1894
 8441SOL    HW236783   1.196   4.075  17.231 -0.2625 -2.4798  0.3542
 8442SOL     OW36784   0.386   4.088  12.585 -0.3742  0.0759  0.1475
 8442SOL    HW136785   0.350   4.124  12.504  1.2900  0.2888 -0.5030
 8442SOL    HW236786   0.463   4.144  12.590  0.2944 -0.8287  0.0634
 8443SOL     OW36787   1.405   4.357   2.897 -0.1940  0.0347  0.0193
 8443SOL    HW136788   1.468   4.429   2.900 -0.5274  0.2767  1.0518
 8443SOL    HW236789   1.453   4.302   2.835 -0.2838  0.1043 -0.1097
 8444SOL     OW36790   1.240   1.642  16.783  0.0990 -0.2364  0.1159
 8444SOL    HW136791   1.148   1.645  16.809 -0.3229 -0.8971 -1.2699
 8444SOL    HW236792   1.281   1.582  16.845 -1.1496  0.6850  1.8091
 8445SOL     OW36793   3.991   0.432   7.557 -0.3658  0.6949  0.5183
 8445SOL    HW136794   3.991   0.368   7.627 -0.5877  0.7520  0.5713
 8445SOL    HW236795   3.921   0.494   7.579  0.4090  1.9956 -0.6926
 8446SOL     OW36796   3.517   4.032   7.737 -0.3766  0.2421  0.0707
 8446SOL    HW136797   3.602   4.032   7.781  0.2653 -0.6562 -1.1573
 8446SOL    HW236798   3.469   4.055   7.816 -0.2138  0.8876 -0.0150
 8447SOL     OW36799   2.738   0.400  10.459  0.2980  0.1186 -0.4322
 8447SOL    HW136800   2.792   0.448  10.521 -0.9288  0.1124  0.6325
 8447SOL    HW236801   2.663   0.384  10.516  0.5662 -0.8727 -0.3601
 8448SOL     OW36802   4.145   2.680   6.509  0.0386  0.1342  0.6120
 8448SOL    HW136803   4.154   2.773   6.491  0.4992 -0.3433 -1.6481
 8448SOL    HW236804   4.161   2.657   6.601 -0.1785 -0.1674  0.5776
 8449SOL     OW36805   3.758   2.759   4.879 -0.1387  0.1888  0.2831
 8449SOL    HW136806   3.743   2.670   4.911  0.4045  0.1097  0.3089
 8449SOL    HW236807   3.816   2.743   4.805 -0.2842  1.7099 -0.1577
 8450SOL     OW36808   1.337   2.228   1.196  0.0743  0.0329 -0.4214
 8450SOL    HW136809   1.359   2.318   1.172 -0.3315  0.2709  0.0948
 8450SOL    HW236810   1.347   2.232   1.291  0.7154  2.5481 -0.5834
 8451SOL     OW36811   4.473   0.550   1.030 -0.6808 -0.3212 -0.5127
 8451SOL    HW136812   4.476   0.621   0.965  0.7372  1.3988  1.4408
 8451SOL    HW236813   4.411   0.592   1.089 -0.6540  1.5943 -1.8589
 8452SOL     OW36814   0.871   3.204  17.372  0.3062 -0.4956 -0.2544
 8452SOL    HW136815   0.870   3.153  17.453  0.7673 -3.2144 -1.9531
 8452SOL    HW236816   0.959   3.192  17.337  0.5253  2.0616 -0.5636
 8453SOL     OW36817   2.238   0.547   3.158  0.5549 -0.0377  0.1280
 8453SOL    HW136818   2.237   0.642   3.144 -3.2333 -0.0125  0.5477
 8453SOL    HW236819   2.261   0.511   3.072 -0.0740 -1.8863  0.7494
 8454SOL     OW36820   0.021   0.474   0.717  0.1003  0.4758  0.1076
 8454SOL    HW136821   4.695   0.410   0.665  0.1499 -0.5465  1.3345
 8454SOL    HW236822   4.706   0.463   0.804  3.1625  1.4053  1.5143
 8455SOL     OW36823   4.091   4.404   3.162 -0.5008 -0.4628  0.0313
 8455SOL    HW136824   4.095   4.418   3.257 -1.3074 -1.7220  0.2438
 8455SOL    HW236825   4.161   4.338   3.164 -1.4785 -1.4849  0.1064
 8456SOL     OW36826   1.565   2.992  15.989 -0.1360  0.2387 -0.0894
 8456SOL    HW136827   1.633   2.927  15.969 -2.2072 -2.4506  1.5736
 8456SOL    HW236828   1.485   2.951  15.955  1.9874 -1.7161 -2.8137
 8457SOL     OW36829   4.521   4.413   0.095 -0.4789  0.1267 -0.7162
 8457SOL    HW136830   4.581   4.472   0.050  1.1696 -0.8815  0.1719
 8457SOL    HW236831   4.521   4.345   0.027  1.1475 -1.7674  1.1883
 8458SOL     OW36832   2.342   4.671   7.773  0.0552 -0.4058  0.6317
 8458SOL    HW136833   2.294   4.610   7.829 -1.7335 -0.3007 -0.7763
 8458SOL    HW236834   2.269   0.010   7.764  0.0842 -0.5936 -0.8712
 8459SOL     OW36835   1.774   3.557   3.048  0.3484  0.2261 -0.7373
 8459SOL    HW136836   1.864   3.573   3.020  1.0360 -0.8411  0.8291
 8459SOL    HW236837   1.779   3.530   3.140 -1.3274 -1.6592 -1.2141
 8460SOL     OW36838   0.342   0.768   4.926  0.0251 -0.4272 -0.1633
 8460SOL    HW136839   0.314   0.784   4.836 -2.0624  0.4742  0.6352
 8460SOL    HW236840   0.433   0.747   4.906 -0.0431 -0.5430 -0.3539
 8461SOL     OW36841   0.335   3.375   0.870  0.1340  0.6109  0.4120
 8461SOL    HW136842   0.428   3.365   0.851  0.0230  0.7276 -0.2032
 8461SOL    HW236843   0.313   3.460   0.832  1.5502  1.2250  0.9881
 8462SOL     OW36844   3.465   0.062   8.452 -0.4357  0.4097  0.2408
 8462SOL    HW136845   3.554   0.028   8.443 -0.1072  1.4663 -0.5256
 8462SOL    HW236846   3.487   0.155   8.456 -1.4976  0.6333  1.0632
 8463SOL     OW36847   2.837   0.101   3.376  0.1081 -0.1842  0.5679
 8463SOL    HW136848   2.922   0.145   3.363  0.5888 -1.3681 -0.3299
 8463SOL    HW236849   2.786   0.176   3.346 -2.2387 -1.2538  1.9261
 8464SOL     OW36850   4.087   1.696   2.134  0.3145 -0.2643 -0.8152
 8464SOL    HW136851   4.086   1.601   2.125  0.2239 -0.3490  0.1428
 8464SOL    HW236852   4.157   1.728   2.076  0.6308 -0.9974 -0.8378
 8465SOL     OW36853   3.383   3.338   2.600 -0.4676 -0.0607  0.1121
 8465SOL    HW136854   3.436   3.278   2.652 -0.5461  0.6924  1.0525
 8465SOL    HW236855   3.330   3.280   2.544  2.2560 -0.8689 -1.6405
 8466SOL     OW36856   1.505   3.565   7.411  0.3196 -0.0920 -0.4155
 8466SOL    HW136857   1.441   3.495   7.422  0.3690  0.1548  1.3460
 8466SOL    HW236858   1.461   3.623   7.350 -0.2089  0.4529  0.4911
 8467SOL     OW36859   1.620   3.698   2.307  0.4793 -0.2359 -0.1341
 8467SOL    HW136860   1.677   3.736   2.241  0.2267 -0.1809 -0.3205
 8467SOL    HW236861   1.551   3.664   2.250  1.8478  1.3316 -2.7255
 8468SOL     OW36862   4.099   2.493   9.688  0.1699  0.0197  0.0274
 8468SOL    HW136863   4.018   2.509   9.736 -0.3650 -2.1435 -0.1610
 8468SOL    HW236864   4.142   2.443   9.756  1.4712  0.6517 -0.3380
 8469SOL     OW36865   3.046   3.628   6.254 -0.1332  0.2764 -0.0998
 8469SOL    HW136866   3.019   3.720   6.250 -2.9937 -0.5511 -0.3821
 8469SOL    HW236867   3.074   3.620   6.345  1.0425  0.9629 -0.4035
 8470SOL     OW36868   0.932   4.042   3.188  0.1228 -0.3673  0.3065
 8470SOL    HW136869   0.942   3.950   3.215  0.4691 -0.6128 -0.6566
 8470SOL    HW236870   0.878   4.032   3.110 -0.6448  0.8303  0.6869
 8471SOL     OW36871   0.925   4.686   4.204  0.1692 -0.2890 -0.3640
 8471SOL    HW136872   0.991   4.619   4.190  2.0111  1.0405  2.0107
 8471SOL    HW236873   0.883   4.650   4.282  2.2269  0.2286  0.9793
 8472SOL     OW36874   4.159   0.779  12.719 -0.1634 -0.3676 -0.8363
 8472SOL    HW136875   4.072   0.805  12.688 -0.0938  0.5891 -0.2154
 8472SOL    HW236876   4.194   0.736  12.641  0.7037  0.1489 -0.7212
 8473SOL     OW36877   0.324   4.562   8.773  0.0045 -0.2104  0.9355
 8473SOL    HW136878   0.310   4.537   8.865 -0.4679  0.5993  1.0854
 8473SOL    HW236879   0.236   4.600   8.770  1.1351  2.5264  2.3812
 8474SOL     OW36880   1.208   1.410  17.448 -0.1046 -0.2642 -0.0273
 8474SOL    HW136881   1.220   1.333  17.503 -1.6884  0.7001  1.7117
 8474SOL    HW236882   1.267   1.464  17.501 -0.0438 -1.5525  1.2116
 8475SOL     OW36883   0.908   3.372   2.785  0.0525  0.0238 -0.2914
 8475SOL    HW136884   0.825   3.419   2.786 -1.0079 -1.8215 -1.2232
 8475SOL    HW236885   0.912   3.308   2.713 -1.7272 -0.1367 -0.2376
 8476SOL     OW36886   3.218   3.818   4.003  0.3290  0.4042  0.4122
 8476SOL    HW136887   3.169   3.858   3.931  1.4917 -0.5396 -0.8952
 8476SOL    HW236888   3.144   3.799   4.060 -1.2840  0.6393 -1.5998
 8477SOL     OW36889   3.920   2.544   3.778  0.0272  0.0033 -0.2559
 8477SOL    HW136890   3.835   2.513   3.810 -1.2757  2.9072 -0.8909
 8477SOL    HW236891   3.905   2.532   3.684  1.0530 -2.7435 -0.0668
 8478SOL     OW36892   3.569   4.111   3.863  0.0263 -0.2467 -0.2170
 8478SOL    HW136893   3.541   4.179   3.803 -0.3592 -0.1003  0.1320
 8478SOL    HW236894   3.637   4.156   3.913  2.0690 -0.9814 -2.3431
 8479SOL     OW36895   1.168   0.279   4.150 -0.2103 -0.2033 -0.3557
 8479SOL    HW136896   1.120   0.322   4.221 -0.3925  1.1881 -1.3223
 8479SOL    HW236897   1.118   0.322   4.081 -0.1579  1.2993  0.5330
 8480SOL     OW36898   3.651   1.629   8.887  0.4769  0.1379 -0.7418
 8480SOL    HW136899   3.578   1.567   8.880  1.9559 -1.7793  0.7453
 8480SOL    HW236900   3.718   1.572   8.849  1.9437  1.8155 -0.6909
 8481SOL     OW36901   1.501   4.104  12.066  0.7509 -0.4139  0.3153
 8481SOL    HW136902   1.441   4.164  12.110 -2.2305 -3.4034  0.2432
 8481SOL    HW236903   1.441   4.032  12.049  1.2299 -1.3544  2.5945
 8482SOL     OW36904   3.900   4.699   1.490 -0.1677 -0.3029 -0.2283
 8482SOL    HW136905   3.896   4.637   1.418  1.5910 -2.0920  1.2223
 8482SOL    HW236906   3.897   4.634   1.561  1.6942  1.1616  1.1804
 8483SOL     OW36907   0.505   4.077  10.180  0.0786  0.3307  0.3184
 8483SOL    HW136908   0.557   4.119  10.111 -0.8142 -0.2037 -0.6852
 8483SOL    HW236909   0.419   4.085  10.139 -1.2673 -0.1088  3.0827
 8484SOL     OW36910   3.149   4.655   4.053 -0.2427  0.0376 -0.3859
 8484SOL    HW136911   3.059   4.686   4.063  0.0120  0.6382  0.0311
 8484SOL    HW236912   3.164   4.648   3.959 -0.0766 -2.2885 -0.1694
 8485SOL     OW36913   4.119   1.083   7.593 -0.1736 -0.3436 -0.1763
 8485SOL    HW136914   4.171   1.007   7.567 -0.0608  0.0863 -1.2005
 8485SOL    HW236915   4.152   1.156   7.540  1.8965 -0.8405  0.4112
 8486SOL     OW36916   2.006   2.299   5.174 -0.2546  0.4831  0.4101
 8486SOL    HW136917   2.075   2.265   5.231  0.6314 -0.8536 -1.4419
 8486SOL    HW236918   2.056   2.302   5.092 -0.4092 -1.2183  0.2481
 8487SOL     OW36919   4.592   1.833   8.491  0.2405 -0.1204  0.7204
 8487SOL    HW136920   4.607   1.740   8.506  2.5768  0.2142  0.5075
 8487SOL    HW236921   4.674   1.862   8.451 -0.6700  1.0547 -0.2839
 8488SOL     OW36922   1.815   0.769   8.203 -0.1521 -0.9302 -0.3173
 8488SOL    HW136923   1.876   0.701   8.175  0.3924 -0.6163  0.1016
 8488SOL    HW236924   1.727   0.731   8.202 -0.5445 -0.0165  0.3300
 8489SOL     OW36925   3.659   2.752   6.709 -0.1478  0.1393 -0.3899
 8489SOL    HW136926   3.621   2.834   6.678 -2.3424 -0.4283  0.7527
 8489SOL    HW236927   3.721   2.731   6.639 -1.3494  0.5608 -1.5852
 8490SOL     OW36928   2.611   2.253   4.222 -1.7636  0.2162  0.2419
 8490SOL    HW136929   2.606   2.334   4.272 -1.9040 -0.0252  0.6176
 8490SOL    HW236930   2.615   2.302   4.140  0.9922  0.8277  0.7276
 8491SOL     OW36931   4.106   3.525   3.279  0.5168  0.5238  0.0463
 8491SOL    HW136932   4.087   3.456   3.215  2.1009 -0.1922  0.3459
 8491SOL    HW236933   4.035   3.527   3.343  1.2340 -1.1465  0.8959
 8492SOL     OW36934   1.800   2.347   2.920 -0.5920  0.7689 -0.6265
 8492SOL    HW136935   1.868   2.380   2.860 -1.5124 -0.7910 -2.5314
 8492SOL    HW236936   1.822   2.371   3.010  0.9722  1.7523 -1.2791
 8493SOL     OW36937   2.599   2.551  12.497  0.3220  0.4792  0.0920
 8493SOL    HW136938   2.669   2.504  12.450  0.2387  0.3343  0.1127
 8493SOL    HW236939   2.576   2.614  12.429  0.3855  1.0869  0.6322
 8494SOL     OW36940   0.926   3.429  15.043 -0.2548  0.6042 -0.5469
 8494SOL    HW136941   0.900   3.489  14.973  0.1414  0.4399 -0.8339
 8494SOL    HW236942   0.966   3.359  14.991  0.3144  1.2061 -0.9247
 8495SOL     OW36943   1.465   1.599   2.297  0.0347 -0.0563 -0.2292
 8495SOL    HW136944   1.551   1.619   2.261 -0.1998  1.3498 -0.0160
 8495SOL    HW236945   1.469   1.505   2.314  2.9045  0.2897  0.9052
 8496SOL     OW36946   1.179   1.553  12.734  0.1999  0.8662 -0.9308
 8496SOL    HW136947   1.192   1.503  12.654  0.2817  0.7136 -0.8224
 8496SOL    HW236948   1.113   1.490  12.763  2.3240 -0.7108  0.4713
 8497SOL     OW36949   4.520   0.011   5.890  0.0322 -0.2407  0.1556
 8497SOL    HW136950   4.575   0.053   5.824 -0.9866  0.5271 -0.2124
 8497SOL    HW236951   4.438   4.715   5.844  0.4652 -0.0555 -0.6869
 8498SOL     OW36952   2.440   0.672   5.178  0.1429 -0.0870  0.4499
 8498SOL    HW136953   2.444   0.621   5.259 -1.4063 -0.0019  0.5842
 8498SOL    HW236954   2.351   0.704   5.195  0.1049  1.3645 -2.6250
 8499SOL     OW36955   0.929   2.111   1.151 -0.5939 -0.3752  0.2787
 8499SOL    HW136956   0.985   2.138   1.077 -1.8664  0.2552 -0.4612
 8499SOL    HW236957   0.851   2.083   1.103 -0.6464  0.0500  0.1137
 8500SOL     OW36958   0.023   3.187   8.256  0.3599 -0.4628  0.1760
 8500SOL    HW136959   4.670   3.247   8.247  0.8784 -0.2074 -2.2992
 8500SOL    HW236960   0.087   3.233   8.202  1.5674 -2.5821 -0.1622
 8501SOL     OW36961   3.994   2.861   5.123 -0.1371  0.1986 -0.0470
 8501SOL    HW136962   3.911   2.908   5.129  1.1887  2.2183  2.7502
 8501SOL    HW236963   4.050   2.938   5.111 -0.4579  0.8948  2.7909
 8502SOL     OW36964   0.780   1.904  11.535 -0.2261  0.2781  0.4974
 8502SOL    HW136965   0.859   1.882  11.583 -0.6431 -1.5690  0.3465
 8502SOL    HW236966   0.786   1.841  11.463  1.5960 -1.4232  2.1567
 8503SOL     OW36967   1.351   2.039   3.215 -0.2849  0.1538  0.3125
 8503SOL    HW136968   1.308   2.048   3.130  0.6403  0.7694 -0.0857
 8503SOL    HW236969   1.377   1.947   3.221 -0.9366 -0.0115  0.6549
 8504SOL     OW36970   3.801   1.561  15.373 -0.4714  0.2473 -0.0043
 8504SOL    HW136971   3.795   1.547  15.279 -0.4160  1.0576 -0.1298
 8504SOL    HW236972   3.719   1.523  15.405 -0.1239 -0.9362 -0.5173
 8505SOL     OW36973   4.270   3.858   5.359 -0.6563 -0.0811  0.4755
 8505SOL    HW136974   4.323   3.838   5.282 -1.7486  0.9826 -0.5388
 8505SOL    HW236975   4.291   3.949   5.380 -0.8144 -0.4317  2.1704
 8506SOL     OW36976   2.282   2.794   2.466 -0.3127  0.3151 -0.1141
 8506SOL    HW136977   2.246   2.842   2.540  2.0352 -1.2771  2.0710
 8506SOL    HW236978   2.204   2.785   2.412 -0.1276  0.2542 -0.3747
 8507SOL     OW36979   3.588   2.560   5.383 -0.3392  0.3487  0.0952
 8507SOL    HW136980   3.512   2.504   5.367  0.0953  0.1675 -1.2907
 8507SOL    HW236981   3.659   2.498   5.398 -1.7903 -1.2064  0.4313
 8508SOL     OW36982   2.569   2.414   2.273  0.2935  0.0115 -0.1753
 8508SOL    HW136983   2.554   2.464   2.354  0.2754  1.6635 -1.1938
 8508SOL    HW236984   2.627   2.343   2.299 -1.9644 -1.2837  1.3614
 8509SOL     OW36985   3.464   0.157   3.057 -0.1559 -0.0176 -0.0928
 8509SOL    HW136986   3.513   0.125   2.981 -1.0761  1.2151 -1.1910
 8509SOL    HW236987   3.485   0.099   3.130 -1.6571 -0.3322  0.0733
 8510SOL     OW36988   4.243   1.167  10.659  0.8021  0.6403 -0.0075
 8510SOL    HW136989   4.237   1.079  10.696 -0.8405 -0.2414 -2.4303
 8510SOL    HW236990   4.249   1.144  10.566  0.2734  0.5267 -0.0103
 8511SOL     OW36991   0.459   2.735   0.890 -0.1544  0.6271 -0.4364
 8511SOL    HW136992   0.494   2.798   0.828 -0.3731  1.0976 -0.0818
 8511SOL    HW236993   0.447   2.793   0.965  1.8362 -1.3667  1.4335
 8512SOL     OW36994   2.719   0.471   7.162  0.5213 -0.3772  0.4077
 8512SOL    HW136995   2.682   0.457   7.249  0.8996 -4.2381 -0.0804
 8512SOL    HW236996   2.655   0.415   7.120 -1.5274  2.8346 -0.7791
 8513SOL     OW36997   0.648   1.244   7.653  0.1620 -0.2536  0.6939
 8513SOL    HW136998   0.710   1.313   7.676 -0.0417 -0.4766  1.8951
 8513SOL    HW236999   0.677   1.167   7.702 -2.5141 -0.6226  1.7377
 8514SOL     OW37000   0.878   2.587   1.328 -0.0315 -0.0999  0.1326
 8514SOL    HW137001   0.926   2.571   1.410 -1.9385  1.4096  1.5206
 8514SOL    HW237002   0.843   2.675   1.341  3.1213  1.5358 -2.1820
 8515SOL     OW37003   3.050   3.619   5.022  0.3467 -0.4717  0.0185
 8515SOL    HW137004   3.041   3.524   5.033  0.9469 -0.4172  0.9599
 8515SOL    HW237005   3.113   3.613   4.951 -1.4972  1.4825 -1.7847
 8516SOL     OW37006   4.064   3.851  12.176 -0.2024  0.2382  0.0797
 8516SOL    HW137007   3.981   3.890  12.151 -0.8551 -0.9702  0.3390
 8516SOL    HW237008   4.061   3.760  12.146 -1.6716  0.3121  0.0347
 8517SOL     OW37009   0.051   2.602  14.909 -0.2559 -0.4099 -0.2106
 8517SOL    HW137010   0.129   2.611  14.965 -0.8546 -0.0943  0.5795
 8517SOL    HW237011   0.029   2.513  14.934 -4.7097  0.2365 -1.8431
 8518SOL     OW37012   0.943   0.015   8.360 -0.5914  0.5473  0.2208
 8518SOL    HW137013   1.014   0.034   8.422 -1.1868  1.7484  0.5246
 8518SOL    HW237014   0.874   0.080   8.369 -0.6405  0.9225 -2.8042
 8519SOL     OW37015   1.545   3.868  16.353  0.6536 -0.1199 -0.1816
 8519SOL    HW137016   1.599   3.790  16.339 -2.6486 -2.6386  1.0063
 8519SOL    HW237017   1.619   3.925  16.374  0.6550 -0.1735 -0.0437
 8520SOL     OW37018   0.569   4.455  13.278  0.1453  0.1371 -0.4390
 8520SOL    HW137019   0.539   4.447  13.188  1.8483  1.4083 -1.1212
 8520SOL    HW237020   0.540   4.542  13.304 -3.8883 -1.4989  0.5832
 8521SOL     OW37021   3.651   3.728   7.752  0.0871  0.3657  0.0044
 8521SOL    HW137022   3.619   3.695   7.836  0.6261 -0.9905 -0.3116
 8521SOL    HW237023   3.696   3.806   7.782  1.3461 -0.1756 -0.4765
 8522SOL     OW37024   4.019   4.216  15.264  0.1746  0.2325  0.5101
 8522SOL    HW137025   4.024   4.240  15.356 -0.7690 -2.4313  1.2605
 8522SOL    HW237026   3.993   4.300  15.226 -0.9394 -0.2447  0.2184
 8523SOL     OW37027   4.488   3.745   6.448  0.6038 -0.1036  0.0889
 8523SOL    HW137028   4.524   3.833   6.456  0.3238  0.1021 -0.8717
 8523SOL    HW237029   4.409   3.754   6.500  0.8461  1.6219  0.1573
 8524SOL     OW37030   4.288   0.226  15.228  0.1823  0.0089 -0.1739
 8524SOL    HW137031   4.289   0.145  15.280 -2.5949  0.5059  0.6328
 8524SOL    HW237032   4.315   0.290  15.294 -2.3026 -1.0352  1.8583
 8525SOL     OW37033   1.291   0.735  12.189  0.3357  0.2410  0.3685
 8525SOL    HW137034   1.219   0.719  12.128 -0.7276  1.2115  1.3669
 8525SOL    HW237035   1.303   0.645  12.219  2.1843 -0.1054 -1.4231
 8526SOL     OW37036   0.181   2.670  11.923  0.3369 -0.6955  0.6974
 8526SOL    HW137037   0.141   2.583  11.927  0.7893 -0.9473 -0.1883
 8526SOL    HW237038   0.155   2.701  12.010 -1.0094 -1.3286  0.5285
 8527SOL     OW37039   3.069   0.340  11.644  0.2838  0.3697 -0.5607
 8527SOL    HW137040   3.134   0.293  11.696 -0.8481  1.0728  1.5027
 8527SOL    HW237041   2.992   0.318  11.697 -1.0137  2.6102 -1.4863
 8528SOL     OW37042   2.495   0.723   3.888  1.1108  0.6885  0.1841
 8528SOL    HW137043   2.402   0.714   3.906  0.6179  0.6468 -2.3751
 8528SOL    HW237044   2.534   0.682   3.966 -1.1298 -0.7365  0.5637
 8529SOL     OW37045   3.679   0.382   6.118 -0.5920  0.0817 -0.9179
 8529SOL    HW137046   3.721   0.344   6.041  0.5187  0.3238 -0.4410
 8529SOL    HW237047   3.615   0.441   6.078  1.4593  3.4782  0.8179
 8530SOL     OW37048   0.441   0.558   2.180  0.3249 -0.0493 -0.0672
 8530SOL    HW137049   0.441   0.629   2.245 -3.4446 -0.0108 -0.1095
 8530SOL    HW237050   0.505   0.592   2.118 -1.1541  0.8818 -1.1016
 8531SOL     OW37051   3.677   1.087   8.177 -0.7204 -0.7673 -0.1308
 8531SOL    HW137052   3.638   1.171   8.151  0.1026 -0.5198 -0.5711
 8531SOL    HW237053   3.757   1.093   8.125 -1.3180 -2.3742 -1.2316
 8532SOL     OW37054   2.086   2.812   3.314  0.3223 -0.1719 -0.4377
 8532SOL    HW137055   2.031   2.837   3.239  0.0576  1.7942  0.4056
 8532SOL    HW237056   2.020   2.759   3.360  0.0137  1.3413  0.8588
 8533SOL     OW37057   0.496   4.484   7.386  0.2554 -0.3708  0.6368
 8533SOL    HW137058   0.471   4.401   7.427 -0.8384 -0.3415  0.0215
 8533SOL    HW237059   0.410   4.512   7.354  1.1041  0.3744 -0.9649
 8534SOL     OW37060   4.133   3.858   2.337  0.2771  0.0748 -0.1105
 8534SOL    HW137061   4.052   3.812   2.317 -0.7904  2.2307 -0.8094
 8534SOL    HW237062   4.187   3.789   2.375  0.2003 -0.4743 -1.0016
 8535SOL     OW37063   1.769   0.541   3.080  0.2962 -0.0766  0.1861
 8535SOL    HW137064   1.711   0.544   3.156  0.6062  1.0674  0.3836
 8535SOL    HW237065   1.813   0.456   3.084 -1.0818 -0.7702  0.4910
 8536SOL     OW37066   2.783   3.326   0.823 -0.4190  0.0566  0.4714
 8536SOL    HW137067   2.811   3.320   0.732  0.0756  0.4512  0.5971
 8536SOL    HW237068   2.731   3.407   0.818  0.8419  0.5650 -4.5520
 8537SOL     OW37069   0.833   2.137   3.518 -0.2276  0.1765  0.2812
 8537SOL    HW137070   0.864   2.087   3.442  0.5004  0.1403  0.5971
 8537SOL    HW237071   0.906   2.199   3.522  0.8795 -1.0507 -1.0150
 8538SOL     OW37072   2.188   4.396   7.457  0.4516 -0.3643 -0.2665
 8538SOL    HW137073   2.255   4.421   7.520 -2.0180  1.4973  1.6198
 8538SOL    HW237074   2.185   4.301   7.466  0.1324 -0.3020  0.2407
 8539SOL     OW37075   3.780   2.624  14.803  0.3422  0.1695  0.4928
 8539SOL    HW137076   3.709   2.659  14.856 -0.0672 -1.0054  0.7017
 8539SOL    HW237077   3.810   2.706  14.764 -0.3342  0.3999  0.4491
 8540SOL     OW37078   0.089   3.947   1.944 -0.2895  0.0885  0.3830
 8540SOL    HW137079   0.173   3.975   1.908 -0.5713 -0.0894 -0.4197
 8540SOL    HW237080   0.114   3.883   2.011 -0.0977  0.2736  0.4861
 8541SOL     OW37081   3.594   3.029   6.930  0.5052  0.5558 -0.1011
 8541SOL    HW137082   3.574   3.113   6.973 -2.9757 -1.1180  1.4834
 8541SOL    HW237083   3.526   3.002   6.869  0.0173  0.5557  0.4324
 8542SOL     OW37084   3.425   2.345  14.386  0.0686 -0.1609 -0.1706
 8542SOL    HW137085   3.474   2.317  14.309 -0.7225 -1.0219 -0.3613
 8542SOL    HW237086   3.367   2.420  14.375  0.0262 -0.2948 -0.8414
 8543SOL     OW37087   4.373   3.438   6.437 -0.0255 -0.8905  0.0771
 8543SOL    HW137088   4.468   3.434   6.446  0.1278  1.4827 -0.6912
 8543SOL    HW237089   4.352   3.482   6.519  3.7763 -0.1292  0.6240
 8544SOL     OW37090   4.289   2.399   8.183  0.1488  0.3888 -0.1188
 8544SOL    HW137091   4.253   2.332   8.125  0.2487  0.1036  0.1481
 8544SOL    HW237092   4.206   2.446   8.193 -0.7841 -1.3847  0.5007
 8545SOL     OW37093   0.488   3.020   7.311 -0.2502 -0.4336  0.1810
 8545SOL    HW137094   0.426   3.093   7.317 -0.6396 -0.7929  0.5376
 8545SOL    HW237095   0.516   3.047   7.224 -1.2405 -4.1184 -1.2590
 8546SOL     OW37096   3.606   1.129   1.362  0.0729  0.0040 -0.6189
 8546SOL    HW137097   3.533   1.072   1.387  0.5808  0.3717  1.7575
 8546SOL    HW237098   3.607   1.183   1.442 -0.6304 -0.3713 -0.3531
 8547SOL     OW37099   3.725   1.885   5.285 -0.3133  0.2035 -0.3986
 8547SOL    HW137100   3.676   1.878   5.203 -0.2986  2.1515 -0.5813
 8547SOL    HW237101   3.667   1.841   5.347  1.7356 -0.0253  1.3805
 8548SOL     OW37102   0.586   4.348  14.796  0.5038 -0.7215 -0.3848
 8548SOL    HW137103   0.521   4.292  14.753 -1.8967  0.2804  1.8939
 8548SOL    HW237104   0.606   4.408  14.724  0.6057 -1.3545 -0.8856
 8549SOL     OW37105   1.844   3.757   5.222  0.3328 -0.1904 -0.0776
 8549SOL    HW137106   1.882   3.839   5.192  0.8737 -1.1069 -1.8890
 8549SOL    HW237107   1.770   3.753   5.161 -0.0952 -2.0902  0.5478
 8550SOL     OW37108   0.090   3.849  16.599  0.0827  0.6290 -0.1286
 8550SOL    HW137109   0.054   3.907  16.666 -0.6482 -0.5135  0.4695
 8550SOL    HW237110   0.176   3.824  16.633  0.8304  2.9480 -0.3084
 8551SOL     OW37111   2.580   1.049   2.795  0.2444 -0.6515 -0.1029
 8551SOL    HW137112   2.607   0.969   2.751  0.3367 -1.3846  1.2983
 8551SOL    HW237113   2.493   1.020   2.822  0.4537 -0.9367  0.2615
 8552SOL     OW37114   3.355   2.429   5.283  0.5821 -0.6758  0.1162
 8552SOL    HW137115   3.329   2.463   5.197  1.9660 -1.5935 -0.6724
 8552SOL    HW237116   3.273   2.387   5.310  0.5758 -0.5673  0.2635
 8553SOL     OW37117   1.022   2.513   6.794 -0.5755  0.3128 -0.0007
 8553SOL    HW137118   0.944   2.549   6.753 -0.4132 -0.5256 -1.0555
 8553SOL    HW237119   0.998   2.421   6.780 -0.0847  0.0230  1.0272
 8554SOL     OW37120   3.116   4.480   6.813  0.0939  0.3920 -0.5870
 8554SOL    HW137121   3.175   4.519   6.749  0.4990  1.3194  0.3573
 8554SOL    HW237122   3.121   4.537   6.889 -0.0905 -1.6449  0.9464
 8555SOL     OW37123   2.997   1.690   4.540  0.2367  0.1819 -0.2642
 8555SOL    HW137124   2.967   1.748   4.470 -1.0452  0.0934  0.2172
 8555SOL    HW237125   2.946   1.611   4.520 -0.0663 -0.1722  1.9233
 8556SOL     OW37126   0.228   0.435   4.623  0.2299  0.3098  0.3348
 8556SOL    HW137127   0.170   0.485   4.566  1.2577 -1.1510 -1.9857
 8556SOL    HW237128   0.167   0.412   4.693  0.7016  1.0055  0.9728
 8557SOL     OW37129   1.579   2.154   3.253 -0.5279  0.2632 -0.0173
 8557SOL    HW137130   1.526   2.234   3.253 -1.1048 -0.1236  0.6398
 8557SOL    HW237131   1.512   2.088   3.234  0.0647 -0.4722  0.4533
 8558SOL     OW37132   3.423   3.804   4.611  0.3278  0.8599 -0.3250
 8558SOL    HW137133   3.356   3.777   4.674  0.5620  0.9877 -0.0220
 8558SOL    HW237134   3.504   3.761   4.639 -0.4865  1.2734  2.6510
 8559SOL     OW37135   1.244   0.517   8.565 -0.5704 -0.4257 -0.0547
 8559SOL    HW137136   1.259   0.600   8.519  2.7822  0.2278  2.2582
 8559SOL    HW237137   1.177   0.545   8.626  1.9027  1.3061  1.8578
 8560SOL     OW37138   3.847   1.532  13.300 -0.0064  0.2389 -0.5875
 8560SOL    HW137139   3.801   1.563  13.378  0.7322  0.4068 -0.2188
 8560SOL    HW237140   3.781   1.531  13.231 -0.2950  0.4441 -0.3149
 8561SOL     OW37141   0.694   0.477   1.158  0.3071  0.5043 -0.0696
 8561SOL    HW137142   0.762   0.500   1.095  0.8369 -0.3038  0.2088
 8561SOL    HW237143   0.613   0.523   1.135  0.8718  1.9209  0.7608
 8562SOL     OW37144   4.266   3.997   6.634  0.2868  0.2465 -0.4082
 8562SOL    HW137145   4.327   4.035   6.698  0.0606 -1.9867  1.1532
 8562SOL    HW237146   4.249   3.910   6.671 -1.5319  1.5309  1.7770
 8563SOL     OW37147   4.513   2.151   7.775  0.5645 -0.2454  0.2743
 8563SOL    HW137148   4.553   2.200   7.703 -1.6176  1.5457  0.2819
 8563SOL    HW237149   4.589   2.140   7.833  2.0749  2.9047 -1.1327
 8564SOL     OW37150   1.405   3.243   1.391 -0.5268 -0.3088  0.5103
 8564SOL    HW137151   1.349   3.173   1.426 -0.7800  0.0496  0.8132
 8564SOL    HW237152   1.486   3.193   1.395  0.1549  0.7694  0.1725
 8565SOL     OW37153   3.299   3.151   7.816 -0.3379 -0.0383 -0.0276
 8565SOL    HW137154   3.322   3.122   7.728 -0.3253  0.0033 -0.0378
 8565SOL    HW237155   3.378   3.199   7.840  0.7485 -1.4917 -0.6862
 8566SOL     OW37156   2.437   2.749   9.391 -0.2486  0.1991 -0.9185
 8566SOL    HW137157   2.531   2.740   9.377 -0.1314 -1.9531  1.3171
 8566SOL    HW237158   2.415   2.659   9.415 -0.4653  1.0086  2.0015
 8567SOL     OW37159   3.672   3.216  15.251  0.0813  0.4912  0.3638
 8567SOL    HW137160   3.741   3.282  15.254 -0.2394  0.8279  0.3626
 8567SOL    HW237161   3.703   3.162  15.323 -1.4005  0.3536  0.9094
 8568SOL     OW37162   3.241   2.614   3.358  0.4499 -0.0057 -0.6821
 8568SOL    HW137163   3.300   2.543   3.383  1.3907  1.2221  0.5980
 8568SOL    HW237164   3.257   2.665   3.437  1.9571 -2.2409  0.4741
 8569SOL     OW37165   1.247   2.132   7.867  0.6270  1.2230  0.3135
 8569SOL    HW137166   1.194   2.057   7.841  2.6525 -0.2755  0.4977
 8569SOL    HW237167   1.241   2.198   7.798 -0.3917 -0.2464 -0.9850
 8570SOL     OW37168   2.224   4.413   7.921  0.0798  0.1738 -0.2739
 8570SOL    HW137169   2.227   4.352   7.995  3.1269 -0.0830 -0.6123
 8570SOL    HW237170   2.131   4.398   7.902 -0.2852  1.5229  0.4269
 8571SOL     OW37171   0.354   2.298   9.027 -0.0779 -0.4436 -0.4106
 8571SOL    HW137172   0.380   2.385   9.058 -1.5921  0.2890 -1.1644
 8571SOL    HW237173   0.386   2.294   8.936  0.7519 -0.2042 -0.1295
 8572SOL     OW37174   1.145   1.797  12.842  0.3754  0.1837 -0.2642
 8572SOL    HW137175   1.074   1.824  12.784 -0.4264  2.4733  1.7791
 8572SOL    HW237176   1.160   1.710  12.806  1.8361  0.6193 -0.7258
 8573SOL     OW37177   0.821   1.650   1.540 -0.4663  0.0836 -0.6799
 8573SOL    HW137178   0.847   1.688   1.624 -0.1502 -1.1730 -0.2058
 8573SOL    HW237179   0.811   1.556   1.557  2.1115 -0.2600 -1.1661
 8574SOL     OW37180   3.389   3.316   6.684  0.4283 -0.1463 -0.6047
 8574SOL    HW137181   3.428   3.398   6.712 -2.3489  1.1564 -0.5444
 8574SOL    HW237182   3.305   3.320   6.730  0.6898 -0.6643 -0.0782
 8575SOL     OW37183   4.094   0.289  11.043  0.5744 -0.0525 -0.1021
 8575SOL    HW137184   4.012   0.333  11.022  0.7675 -0.2278 -1.2277
 8575SOL    HW237185   4.141   0.333  10.972 -0.0646  0.0540 -0.4669
 8576SOL     OW37186   0.027   2.661   8.432 -0.1993 -0.2503 -0.1716
 8576SOL    HW137187   0.002   2.704   8.350 -1.1149 -1.1667 -0.3693
 8576SOL    HW237188   4.714   2.573   8.420  0.7533 -0.7839  1.0159
 8577SOL     OW37189   0.029   2.255   6.717  0.4334  0.2350  0.1245
 8577SOL    HW137190   0.012   2.185   6.653 -3.4918 -0.0092  1.4105
 8577SOL    HW237191   0.124   2.257   6.721  0.5311  0.2819 -1.9799
 8578SOL     OW37192   1.250   1.202  17.616 -1.0982  0.4928 -0.3772
 8578SOL    HW137193   1.205   1.120  17.634  1.3441 -0.1758  2.8157
 8578SOL    HW237194   1.294   1.226   0.010  1.1085  1.1926 -1.7448
 8579SOL     OW37195   1.297   0.760   5.556  0.6597  0.0600 -0.3788
 8579SOL    HW137196   1.277   0.666   5.556  0.7637  0.0336 -1.2087
 8579SOL    HW237197   1.219   0.796   5.597 -0.3880 -2.8630  0.2188
 8580SOL     OW37198   0.463   0.863   8.944  0.0033  0.1883  0.1211
 8580SOL    HW137199   0.555   0.837   8.936  0.4344  1.7112  0.0713
 8580SOL    HW237200   0.451   0.830   9.033 -1.2425 -1.3196 -0.5959
 8581SOL     OW37201   2.045   3.769   2.549 -0.1263 -0.1711 -0.8450
 8581SOL    HW137202   2.109   3.722   2.602  0.0107 -0.2053 -1.0405
 8581SOL    HW237203   2.062   3.857   2.583 -1.9094 -0.6043  1.1881
 8582SOL     OW37204   0.191   0.887   3.697 -0.1832  0.3305 -0.2101
 8582SOL    HW137205   0.263   0.917   3.754  0.4350 -0.1740 -0.7181
 8582SOL    HW237206   0.138   0.840   3.761 -0.5400  0.5008 -0.3865
 8583SOL     OW37207   2.315   0.386   3.681 -0.5011  0.0226  0.0969
 8583SOL    HW137208   2.276   0.317   3.628  1.3467 -0.6380 -0.3939
 8583SOL    HW237209   2.261   0.462   3.659 -1.3533 -0.7467 -0.4454
 8584SOL     OW37210   0.031   0.688   1.318  0.2222 -0.6795  0.0510
 8584SOL    HW137211   0.006   0.778   1.300 -1.9469 -1.4218 -0.6642
 8584SOL    HW237212   4.672   0.640   1.335 -1.3087  1.8734  0.0071
 8585SOL     OW37213   2.884   2.873  10.571  0.2727  0.3263 -0.5240
 8585SOL    HW137214   2.897   2.954  10.620  1.8162  1.3609 -2.6798
 8585SOL    HW237215   2.788   2.871  10.573  0.2900 -0.5025 -0.2449
 8586SOL     OW37216   2.352   2.802   3.039 -0.0228 -0.0662 -0.0331
 8586SOL    HW137217   2.383   2.719   3.001  1.1472 -0.8927  2.7130
 8586SOL    HW237218   2.338   2.779   3.131 -1.2926 -2.0711 -0.7186
 8587SOL     OW37219   1.133   3.445   0.403 -0.2535 -0.0171  0.4320
 8587SOL    HW137220   1.132   3.534   0.368 -0.1908  0.2077  0.9920
 8587SOL    HW237221   1.132   3.396   0.321  1.4749  0.1149  0.3440
 8588SOL     OW37222   3.675   0.580   4.289 -0.2317  0.3112 -0.1042
 8588SOL    HW137223   3.692   0.576   4.195  1.1481  0.6315  0.1318
 8588SOL    HW237224   3.712   0.665   4.314  2.4357 -0.9323  0.1276
 8589SOL     OW37225   1.396   1.093   8.857 -0.1699  0.0104 -0.4351
 8589SOL    HW137226   1.477   1.144   8.858  0.3690 -0.8572 -0.0196
 8589SOL    HW237227   1.344   1.114   8.934  1.4822  0.8602  0.4399
 8590SOL     OW37228   3.211   1.623   2.488 -0.7820  0.2338 -0.7682
 8590SOL    HW137229   3.192   1.635   2.395 -0.4975  0.8473 -0.7486
 8590SOL    HW237230   3.191   1.529   2.491  0.4429 -0.0510 -1.3780
 8591SOL     OW37231   2.307   0.228   4.747  0.0890  0.3293  0.5186
 8591SOL    HW137232   2.214   0.203   4.749 -0.3513  1.9339  0.7515
 8591SOL    HW237233   2.303   0.285   4.670 -2.3126  1.3020  1.3465
 8592SOL     OW37234   0.274   0.988  13.317 -0.2161  0.7835  0.1314
 8592SOL    HW137235   0.229   1.025  13.393  1.2276  3.4199 -0.2798
 8592SOL    HW237236   0.281   0.897  13.346  1.6503 -0.1676 -3.1970
 8593SOL     OW37237   1.564   1.050   1.694  0.4454 -0.1901 -0.3216
 8593SOL    HW137238   1.587   1.042   1.787  0.5071  0.9831 -0.2287
 8593SOL    HW237239   1.591   1.140   1.676 -2.4142  0.9229  1.0717
 8594SOL     OW37240   2.786   2.504   3.833  0.3033  0.3054 -1.1769
 8594SOL    HW137241   2.831   2.420   3.823 -0.1632 -0.2134  1.0293
 8594SOL    HW237242   2.778   2.520   3.739 -0.4936 -2.2306 -1.5566
 8595SOL     OW37243   2.834   0.147   5.691  0.0136 -0.1573 -0.1808
 8595SOL    HW137244   2.871   0.175   5.775 -2.0707  2.2618 -0.0612
 8595SOL    HW237245   2.803   0.228   5.652  0.7211  0.0079 -0.3940
 8596SOL     OW37246   4.597   3.927   8.204 -0.1548 -0.3818 -0.5487
 8596SOL    HW137247   4.526   3.991   8.206  0.4449  0.2557  0.3160
 8596SOL    HW237248   4.596   3.892   8.115  0.5465  1.7181 -1.3801
 8597SOL     OW37249   1.021   1.764   1.303 -0.4394 -0.1413 -0.1372
 8597SOL    HW137250   1.059   1.754   1.390 -1.4130  1.0706  0.4164
 8597SOL    HW237251   1.094   1.740   1.246 -0.1880  0.4502 -0.0615
 8598SOL     OW37252   2.653   1.083   5.742 -0.2426 -0.5999 -0.6582
 8598SOL    HW137253   2.596   1.045   5.675  0.5445  0.1789 -1.7702
 8598SOL    HW237254   2.662   1.178   5.729  2.1468 -0.7499 -0.1610
 8599SOL     OW37255   0.433   1.143   8.224  0.2180 -0.1979  0.0208
 8599SOL    HW137256   0.446   1.070   8.286  1.4571 -1.0562 -1.2455
 8599SOL    HW237257   0.425   1.219   8.282  1.9564  0.9449 -1.2497
 8600SOL     OW37258   3.295   3.830   7.897  0.5815 -0.4725  0.0734
 8600SOL    HW137259   3.304   3.920   7.926 -0.1463 -0.7122  1.0545
 8600SOL    HW237260   3.365   3.792   7.951  0.2412 -0.0106  0.8372
 8601SOL     OW37261   3.815   1.633   1.864 -0.4797  0.2808  0.0745
 8601SOL    HW137262   3.776   1.591   1.941 -1.0905 -1.3786 -1.1532
 8601SOL    HW237263   3.823   1.726   1.888 -1.9260  0.1992  0.8398
 8602SOL     OW37264   2.306   1.231   2.917  0.2716 -0.3527 -0.0812
 8602SOL    HW137265   2.244   1.297   2.949  0.4800  0.1071 -0.6193
 8602SOL    HW237266   2.380   1.259   2.971  2.0641  0.2433 -2.9013
 8603SOL     OW37267   3.950   0.835   6.784 -0.3943  0.4119 -0.3276
 8603SOL    HW137268   4.019   0.894   6.752 -0.7978  0.9239 -0.2511
 8603SOL    HW237269   4.009   0.761   6.798 -0.3617  0.1909 -1.6272
 8604SOL     OW37270   3.150   1.223   6.370 -0.1348  0.0807 -0.1542
 8604SOL    HW137271   3.105   1.147   6.332  0.0925  0.4221 -1.1090
 8604SOL    HW237272   3.235   1.178   6.367  0.0128  0.4376 -1.2071
 8605SOL     OW37273   4.363   2.023  11.193 -0.0146  0.1652 -0.1093
 8605SOL    HW137274   4.329   1.981  11.115 -2.8043  0.5549  0.8876
 8605SOL    HW237275   4.306   1.969  11.248 -0.5114  1.6957  0.8737
 8606SOL     OW37276   4.066   3.478   7.140  0.7068  0.4758 -0.1274
 8606SOL    HW137277   4.063   3.487   7.236 -0.5089  0.9389 -0.2168
 8606SOL    HW237278   4.152   3.436   7.131  0.6222 -0.2110  2.0154
 8607SOL     OW37279   3.925   0.567  15.799  0.4490  0.2919  0.6275
 8607SOL    HW137280   3.973   0.611  15.729  0.5897 -0.4638  0.2510
 8607SOL    HW237281   3.880   0.647  15.827 -1.4728 -1.1344  1.6238
 8608SOL     OW37282   3.000   0.767   5.860  0.3550  0.2917 -0.1846
 8608SOL    HW137283   3.025   0.725   5.943  0.0664  1.3338  0.4268
 8608SOL    HW237284   2.933   0.831   5.881  1.0377  0.9116  0.1066
 8609SOL     OW37285   3.309   3.454   3.297  0.1008  0.2228  0.1343
 8609SOL    HW137286   3.301   3.535   3.347 -0.4861 -1.1393  2.2490
 8609SOL    HW237287   3.287   3.487   3.210 -1.9053  2.9561  1.6905
 8610SOL     OW37288   2.569   0.792  12.966 -0.0852  0.2656  0.1383
 8610SOL    HW137289   2.615   0.772  12.884  0.9324 -0.6123  0.9194
 8610SOL    HW237290   2.602   0.736  13.036  0.3064  1.0412  0.5703
 8611SOL     OW37291   1.119   2.044   6.942 -0.4585  0.1027 -0.1810
 8611SOL    HW137292   1.182   2.078   7.006  1.2153  1.1360 -2.4122
 8611SOL    HW237293   1.036   2.066   6.984 -0.0935 -0.1495  0.6760
 8612SOL     OW37294   3.595   3.575   6.142  0.0571  0.0342 -0.3140
 8612SOL    HW137295   3.677   3.591   6.095  0.2334  0.3735  0.1000
 8612SOL    HW237296   3.604   3.660   6.186 -1.8401  0.4893 -0.8312
 8613SOL     OW37297   1.601   0.217   8.637  0.7172  0.6298  0.0288
 8613SOL    HW137298   1.676   0.204   8.579  1.2501  1.0287  0.6321
 8613SOL    HW237299   1.553   0.287   8.593  0.8771  0.9611  0.3882
 8614SOL     OW37300   0.893   0.553  17.596 -0.0546  0.2034 -0.5595
 8614SOL    HW137301   0.955   0.552  17.669 -0.7031  0.5283 -0.0005
 8614SOL    HW237302   0.890   0.461  17.571  0.0741  0.1435 -0.3542
 8615SOL     OW37303   4.454   2.230   6.188 -0.1614 -0.6889 -0.2946
 8615SOL    HW137304   4.398   2.153   6.191  0.9729 -1.5654 -1.6909
 8615SOL    HW237305   4.417   2.274   6.111 -1.4657 -1.2080  0.0457
 8616SOL     OW37306   0.407   1.417  10.429 -0.1898  0.0089  0.3876
 8616SOL    HW137307   0.312   1.412  10.418 -0.1749  3.4569 -1.1877
 8616SOL    HW237308   0.427   1.331  10.467 -0.0397 -0.7242 -1.3315
 8617SOL     OW37309   4.353   4.614   6.964 -0.3590 -0.0733 -0.0315
 8617SOL    HW137310   4.435   4.566   6.975  0.8115  2.1061  0.7369
 8617SOL    HW237311   4.329   4.651   7.049  1.5311 -1.9497  1.3290
 8618SOL     OW37312   1.091   0.827   3.036  0.2009 -0.6242 -0.2620
 8618SOL    HW137313   1.036   0.754   3.065 -1.0850  0.1035 -0.8671
 8618SOL    HW237314   1.026   0.868   2.980 -0.9556 -1.4612  0.4634
 8619SOL     OW37315   3.196   3.571  17.433  0.2999 -0.6707 -0.1783
 8619SOL    HW137316   3.238   3.610  17.356 -0.6186 -0.1479 -0.4161
 8619SOL    HW237317   3.275   3.526  17.463 -0.9918 -3.1957 -0.5972
 8620SOL     OW37318   1.666   2.848   4.381  0.1152  0.3115  0.4489
 8620SOL    HW137319   1.713   2.776   4.424 -2.2052 -1.6348 -0.2219
 8620SOL    HW237320   1.735   2.911   4.366  0.2474 -0.2598 -1.3182
 8621SOL     OW37321   1.615   3.410  11.486  0.2297  0.4901 -0.4340
 8621SOL    HW137322   1.625   3.317  11.507 -1.0258  0.2860 -0.7420
 8621SOL    HW237323   1.704   3.444  11.477  0.1530  0.9354  0.5151
 8622SOL     OW37324   3.281   3.920   6.235 -0.9960 -0.1394  0.0382
 8622SOL    HW137325   3.208   3.875   6.193  1.5178 -3.7071 -0.4533
 8622SOL    HW237326   3.238   3.948   6.316  0.1950 -0.6819  0.8471
 8623SOL     OW37327   0.400   1.266   3.035 -0.5541 -0.2861 -0.0615
 8623SOL    HW137328   0.348   1.189   3.012 -2.7084  1.5804 -1.3692
 8623SOL    HW237329   0.429   1.223   3.115  2.5041 -0.2179 -1.1348
 8624SOL     OW37330   0.181   0.341   5.056  0.3368 -0.3070 -0.0023
 8624SOL    HW137331   0.123   0.384   4.993 -0.9319 -2.2057 -0.1419
 8624SOL    HW237332   0.112   0.295   5.103 -0.1330  1.5765  1.1727
 8625SOL     OW37333   0.777   4.331   2.937  0.1353 -0.0652  0.4816
 8625SOL    HW137334   0.844   4.395   2.964 -0.5829  1.2429 -0.8438
 8625SOL    HW237335   0.778   4.331   2.841  2.8406 -1.1983  0.5100
 8626SOL     OW37336   2.285   0.966  11.491  0.0070  0.2250  0.2677
 8626SOL    HW137337   2.375   0.963  11.524  0.7007  2.2676 -1.4436
 8626SOL    HW237338   2.250   1.034  11.549  1.5171  0.5770  0.7822
 8627SOL     OW37339   1.204   1.348   4.718 -0.3396 -0.5295 -0.2848
 8627SOL    HW137340   1.253   1.270   4.691 -1.2814 -2.7110  4.2230
 8627SOL    HW237341   1.242   1.423   4.672 -1.6303 -0.2503 -0.8813
 8628SOL     OW37342   3.442   0.627  14.753 -0.8362 -0.1326  0.1630
 8628SOL    HW137343   3.487   0.566  14.695 -0.2460 -0.8072  1.3176
 8628SOL    HW237344   3.372   0.569  14.784 -0.3484 -0.4324  0.7108
 8629SOL     OW37345   0.624   1.762  11.715 -0.5569  0.6455 -0.3829
 8629SOL    HW137346   0.571   1.825  11.764 -0.1186  0.4620  0.3255
 8629SOL    HW237347   0.638   1.817  11.638 -3.2370  1.6038 -0.1691
 8630SOL     OW37348   4.522   2.406   6.694 -0.4527  0.1545 -0.3834
 8630SOL    HW137349   4.599   2.349   6.693  0.6995  1.7072 -0.0864
 8630SOL    HW237350   4.477   2.384   6.613 -0.5350  1.5072 -0.6960
 8631SOL     OW37351   2.310   1.859   3.875 -0.3571 -0.4763  0.4542
 8631SOL    HW137352   2.336   1.947   3.901 -0.1347 -0.9794  1.9651
 8631SOL    HW237353   2.312   1.822   3.964 -0.3099  0.1941  0.7282
 8632SOL     OW37354   0.979   3.758   3.935 -0.1558 -0.4065  0.2791
 8632SOL    HW137355   0.950   3.845   3.907  1.1863  0.5299  1.7949
 8632SOL    HW237356   0.953   3.764   4.027 -3.6071 -0.0110 -0.7244
 8633SOL     OW37357   1.402   3.956   2.144 -0.0761  0.8632 -0.2612
 8633SOL    HW137358   1.325   3.987   2.096 -2.8221 -2.3176  2.0902
 8633SOL    HW237359   1.389   3.862   2.132  0.0246  0.8320 -0.1223
 8634SOL     OW37360   0.463   2.848   2.603  0.1501 -0.2539  0.3431
 8634SOL    HW137361   0.490   2.802   2.682 -0.2734 -0.3145  0.4503
 8634SOL    HW237362   0.370   2.826   2.608 -0.0113 -0.8256 -4.5911
 8635SOL     OW37363   2.539   0.625   1.144  0.3597 -0.4274 -0.3552
 8635SOL    HW137364   2.542   0.530   1.147  1.8454 -0.3143  1.5668
 8635SOL    HW237365   2.458   0.632   1.196  2.2924 -0.1422  2.6137
 8636SOL     OW37366   1.156   4.445   6.993  0.2791  0.0464  0.6169
 8636SOL    HW137367   1.215   4.415   7.062 -0.4166  0.4531  1.3798
 8636SOL    HW237368   1.072   4.443   7.039 -0.4777  0.8564 -0.7094
 8637SOL     OW37369   4.097   2.577   4.918  0.3582 -0.2882  0.3490
 8637SOL    HW137370   4.108   2.497   4.970  0.3444 -0.8218 -0.4806
 8637SOL    HW237371   4.111   2.633   4.995  0.2413 -2.6804  2.1135
 8638SOL     OW37372   2.764   2.783  14.744 -0.0628  0.1387  0.2691
 8638SOL    HW137373   2.719   2.765  14.661 -4.0474  0.7763  2.2745
 8638SOL    HW237374   2.697   2.822  14.800 -1.0250 -0.5315 -0.4128
 8639SOL     OW37375   1.895   1.685   3.700 -0.0553 -0.0000  0.4874
 8639SOL    HW137376   1.935   1.677   3.787  1.9755  0.4413 -0.3926
 8639SOL    HW237377   1.867   1.776   3.699  0.3482  0.1313  1.0032
 8640SOL     OW37378   0.950   2.127  16.180 -0.3325  0.2313  0.3055
 8640SOL    HW137379   1.015   2.137  16.250  1.7047 -0.3563 -1.5100
 8640SOL    HW237380   0.888   2.197  16.202 -0.0967 -0.0062  1.7243
 8641SOL     OW37381   0.943   2.602  15.651 -0.4789 -0.0935  0.5282
 8641SOL    HW137382   0.974   2.662  15.718 -1.3574  1.0282 -0.0741
 8641SOL    HW237383   0.918   2.667  15.586  0.6673 -1.3936 -1.2375
 8642SOL     OW37384   2.027   4.528  15.795  0.2170 -0.1568 -0.3143
 8642SOL    HW137385   2.025   4.527  15.699  0.5871 -1.7307 -0.3171
 8642SOL    HW237386   1.958   4.592  15.808  0.1705 -0.4268  0.7438
 8643SOL     OW37387   0.551   2.343   7.308  0.1706 -0.0988 -0.4776
 8643SOL    HW137388   0.465   2.385   7.316  0.5742  0.7937 -0.8522
 8643SOL    HW237389   0.542   2.303   7.221 -1.6573 -1.1509  0.1988
 8644SOL     OW37390   0.238   2.553   3.401 -0.6924  0.1640  0.4548
 8644SOL    HW137391   0.192   2.485   3.352  0.7749 -2.1676  2.2664
 8644SOL    HW237392   0.191   2.551   3.484 -0.7168  1.2015  0.4647
 8645SOL     OW37393   3.439   2.205   6.808  0.2264 -0.1069 -0.2508
 8645SOL    HW137394   3.368   2.218   6.746  1.6924 -1.6701 -2.2442
 8645SOL    HW237395   3.500   2.269   6.772  0.2165  0.9764  1.6656
 8646SOL     OW37396   0.172   4.303   7.818  0.6296  0.9720  0.7354
 8646SOL    HW137397   0.162   4.379   7.760 -0.1739  1.6196  1.7241
 8646SOL    HW237398   0.215   4.247   7.754  1.8412  1.9257  0.7283
 8647SOL     OW37399   3.076   2.329   5.626  0.1300 -0.4621  0.7660
 8647SOL    HW137400   2.981   2.317   5.636  0.2059 -2.2078 -0.7165
 8647SOL    HW237401   3.095   2.278   5.548  1.6947 -0.6193  1.2508
 8648SOL     OW37402   1.545   2.591  15.979  0.3098 -0.3275  0.3136
 8648SOL    HW137403   1.474   2.650  15.954 -0.7750 -0.9857  1.8876
 8648SOL    HW237404   1.539   2.530  15.906  1.5758  0.6306 -0.5846
 8649SOL     OW37405   1.319   0.999   4.113  0.2165 -0.1330  0.3151
 8649SOL    HW137406   1.390   1.057   4.085 -0.4055  1.0151  1.1236
 8649SOL    HW237407   1.252   1.029   4.051  0.3554 -1.5410 -0.5214
 8650SOL     OW37408   2.172   1.099   4.678 -0.5193  0.0203  0.1049
 8650SOL    HW137409   2.106   1.051   4.628  0.0759 -1.2274  0.5132
 8650SOL    HW237410   2.231   1.033   4.713 -1.1706 -0.2312  0.7187
 8651SOL     OW37411   0.691   1.908  17.351  0.5030 -0.1278  0.2982
 8651SOL    HW137412   0.630   1.842  17.385 -1.7668  1.6308 -0.3543
 8651SOL    HW237413   0.684   1.969  17.425 -1.0747 -1.0301  0.8992
 8652SOL     OW37414   2.352   0.053  13.101 -0.1311  0.0734  0.0711
 8652SOL    HW137415   2.394   4.698  13.062  2.6295  1.1286  0.9680
 8652SOL    HW237416   2.407   0.117  13.055  1.1323 -1.5951 -0.7617
 8653SOL     OW37417   0.285   0.080   2.865 -1.0664 -0.5860 -0.3857
 8653SOL    HW137418   0.311   4.710   2.854  0.3959 -0.5308  2.5995
 8653SOL    HW237419   0.356   0.117   2.916 -1.1530  2.2172 -2.2928
 8654SOL     OW37420   4.249   4.693   3.997  0.0615 -0.1817  0.2050
 8654SOL    HW137421   4.254   0.067   4.000 -1.0601 -0.1301  0.2620
 8654SOL    HW237422   4.188   4.682   3.924  0.9014 -0.7376 -0.4134
 8655SOL     OW37423   2.546   2.707   8.383  0.4928 -0.4457 -0.3142
 8655SOL    HW137424   2.468   2.689   8.330 -0.4077  2.3375  0.0729
 8655SOL    HW237425   2.549   2.622   8.429 -0.5286 -0.3168  0.0136
 8656SOL     OW37426   1.653   4.306   2.395  0.8542 -0.8205 -0.1033
 8656SOL    HW137427   1.564   4.336   2.376  1.0963  0.7507  1.2625
 8656SOL    HW237428   1.668   4.267   2.309  0.6217  0.4300 -0.7149
 8657SOL     OW37429   4.003   3.455  17.107 -0.0046  0.1504  0.3552
 8657SOL    HW137430   3.977   3.494  17.023 -2.6609 -1.6337  0.3485
 8657SOL    HW237431   3.931   3.483  17.163 -0.0067  1.2677 -0.2051
 8658SOL     OW37432   2.315   4.629   3.917 -0.2399 -0.6011  0.2411
 8658SOL    HW137433   2.308   4.599   4.007  1.3376 -1.9564 -0.0952
 8658SOL    HW237434   2.221   4.618   3.899 -0.0454  1.2136 -1.8726
 8659SOL     OW37435   3.807   1.062   7.605 -0.3065 -0.1707  0.3871
 8659SOL    HW137436   3.820   1.157   7.610 -1.5656  0.0747 -0.9864
 8659SOL    HW237437   3.888   1.043   7.557  0.0006  2.7952 -0.2833
 8660SOL     OW37438   0.089   1.540  13.426  0.2676 -0.0321  0.0303
 8660SOL    HW137439   0.018   1.535  13.362  0.8846 -0.8147 -0.5884
 8660SOL    HW237440   0.055   1.613  13.478 -2.1334 -1.9015  1.0746
 8661SOL     OW37441   1.497   4.384   3.213 -1.0132 -0.2803  0.0467
 8661SOL    HW137442   1.527   4.475   3.218  0.0115 -0.7558  2.8716
 8661SOL    HW237443   1.528   4.352   3.129 -0.4890  0.1860  0.0641
 8662SOL     OW37444   1.648   2.434   3.506  0.1255  0.0689 -0.1015
 8662SOL    HW137445   1.634   2.358   3.563 -0.1674 -1.1800 -1.8289
 8662SOL    HW237446   1.680   2.491   3.576 -0.4831  0.4793 -0.1476
 8663SOL     OW37447   0.591   2.759   3.053 -0.1938  0.1848 -0.2325
 8663SOL    HW137448   0.606   2.713   3.136  1.4863 -1.0434 -1.2221
 8663SOL    HW237449   0.557   2.841   3.088  0.5439  0.9420 -1.2869
 8664SOL     OW37450   2.147   0.197   6.426 -0.1038  0.0032 -0.4746
 8664SOL    HW137451   2.119   0.240   6.507  0.7754 -1.1239  0.4316
 8664SOL    HW237452   2.224   0.241   6.390 -0.4112  2.3125  1.6808
 8665SOL     OW37453   0.655   4.310   5.968 -0.5407 -0.1070  0.3902
 8665SOL    HW137454   0.700   4.301   6.052  0.4146 -2.8008 -0.4046
 8665SOL    HW237455   0.645   4.406   5.967  4.9621  0.4570  0.1136
 8666SOL     OW37456   2.579   0.463   3.595 -0.2953 -0.2809 -0.0789
 8666SOL    HW137457   2.606   0.415   3.673 -1.1264 -0.7110 -0.0598
 8666SOL    HW237458   2.486   0.446   3.607  0.0291 -0.5950  1.9851
 8667SOL     OW37459   2.940   2.111   7.687 -0.2040  0.1605 -0.1114
 8667SOL    HW137460   2.850   2.106   7.720  0.0608  0.2529  0.6116
 8667SOL    HW237461   2.982   2.153   7.761 -1.0985  0.1653  0.3930
 8668SOL     OW37462   0.389   4.149   7.052  0.4998 -0.7589 -0.2575
 8668SOL    HW137463   0.315   4.143   6.991  1.2690 -1.2041 -1.1455
 8668SOL    HW237464   0.444   4.215   7.011  2.0912 -0.4970  2.2914
 8669SOL     OW37465   4.386   3.226   2.646  0.0349 -0.1151 -0.4539
 8669SOL    HW137466   4.325   3.210   2.574  0.6642  0.4596 -1.1185
 8669SOL    HW237467   4.340   3.292   2.699 -1.4251 -0.5757 -1.1497
 8670SOL     OW37468   4.157   2.793  14.749 -0.4734  0.0099 -0.4118
 8670SOL    HW137469   4.163   2.701  14.726 -1.2889 -1.0271  3.4562
 8670SOL    HW237470   4.074   2.821  14.711 -0.5704 -0.9704 -0.9055
 8671SOL     OW37471   1.211   4.646   5.087 -0.6054 -0.1631 -0.4674
 8671SOL    HW137472   1.156   4.709   5.040  0.2916 -0.3586 -1.7566
 8671SOL    HW237473   1.266   4.607   5.019  0.3398  0.3851 -0.0141
 8672SOL     OW37474   1.947   3.319   1.293  0.0115  0.1193  0.2910
 8672SOL    HW137475   1.927   3.411   1.310  0.3607  0.4131 -0.8761
 8672SOL    HW237476   2.040   3.323   1.272  0.3683  0.6741  1.9861
 8673SOL     OW37477   1.708   4.156   4.316  0.0853  0.3055  0.3545
 8673SOL    HW137478   1.748   4.099   4.382  0.3291  1.3858  1.1470
 8673SOL    HW237479   1.782   4.138   4.259  0.4124 -1.2038  1.2635
 8674SOL     OW37480   2.473   3.089  17.687 -0.1024 -0.6687 -0.4900
 8674SOL    HW137481   2.425   3.062  17.608 -1.1417 -0.5721  0.1050
 8674SOL    HW237482   2.442   3.178   0.018  0.1990 -0.3686 -1.4044
 8675SOL     OW37483   4.344   0.537   9.575 -0.1820  0.2878 -0.1489
 8675SOL    HW137484   4.362   0.541   9.668 -0.1285 -0.2385 -0.1342
 8675SOL    HW237485   4.425   0.581   9.549  1.9131 -1.9076  2.7272
 8676SOL     OW37486   1.712   1.747   9.857  0.3999  0.2471  0.6630
 8676SOL    HW137487   1.714   1.792   9.772  0.2132 -0.6988  0.1530
 8676SOL    HW237488   1.635   1.779   9.903 -0.6708  1.1588 -1.7582
 8677SOL     OW37489   3.862   2.664   6.543 -0.1394 -0.5878 -0.1622
 8677SOL    HW137490   3.824   2.740   6.499 -2.2999 -1.7222 -0.2931
 8677SOL    HW237491   3.952   2.674   6.514  0.1458 -0.3395  0.8090
 8678SOL     OW37492   2.150   1.418   6.087  0.0487  0.0245  0.2195
 8678SOL    HW137493   2.069   1.445   6.129 -0.0113  0.3455 -0.0966
 8678SOL    HW237494   2.216   1.453   6.146  1.0766 -0.8933 -0.3791
 8679SOL     OW37495   3.716   2.455  15.352  0.3317 -0.3331  0.6972
 8679SOL    HW137496   3.707   2.546  15.381  0.9207 -0.0191 -0.1081
 8679SOL    HW237497   3.810   2.440  15.359  0.4454 -0.6713 -1.5704
 8680SOL     OW37498   0.292   0.442   5.992 -0.5475 -0.2130 -0.4221
 8680SOL    HW137499   0.383   0.414   5.982 -0.7941 -1.3751  0.5618
 8680SOL    HW237500   0.269   0.425   6.083  1.0786  1.7043  0.3534
 8681SOL     OW37501   2.541   0.158   3.758  0.3637 -0.1180  0.0971
 8681SOL    HW137502   2.635   0.175   3.765  0.5915 -1.1725 -0.3934
 8681SOL    HW237503   2.516   0.137   3.849  2.2619  0.9296  0.8670
 8682SOL     OW37504   0.058   2.451   7.695  0.4866  0.8198  0.0944
 8682SOL    HW137505   4.706   2.436   7.755  0.4423  3.3315  0.6810
 8682SOL    HW237506   0.120   2.406   7.753  0.0167 -0.3700 -0.3314
 8683SOL     OW37507   4.452   1.799  17.106  0.1438  0.0481  0.0843
 8683SOL    HW137508   4.484   1.714  17.076  0.9833  0.2591  0.3640
 8683SOL    HW237509   4.396   1.784  17.183  0.0128  2.4406  0.4415
 8684SOL     OW37510   0.953   0.336  12.601  0.0598  0.2056  0.2347
 8684SOL    HW137511   0.930   0.299  12.687  1.6218  2.5600  1.6666
 8684SOL    HW237512   0.964   0.430  12.619 -0.6344  0.8141 -2.5413
 8685SOL     OW37513   0.941   3.368   1.852 -0.4055 -0.0224  0.2267
 8685SOL    HW137514   0.934   3.411   1.767 -0.0279  0.2707  0.3445
 8685SOL    HW237515   0.861   3.393   1.899 -0.6079 -1.5613  0.6845
 8686SOL     OW37516   4.341   1.527  10.447 -0.0751 -0.2098 -0.1976
 8686SOL    HW137517   4.404   1.460  10.471 -0.1653 -0.0634  0.4425
 8686SOL    HW237518   4.260   1.479  10.433 -0.1439  0.8422 -3.4182
 8687SOL     OW37519   2.616   1.588  16.822 -0.6527  0.0081  0.1428
 8687SOL    HW137520   2.667   1.534  16.883 -1.6479  1.3377  2.1462
 8687SOL    HW237521   2.672   1.574  16.746  0.9662 -4.5193  2.1907
 8688SOL     OW37522   2.938   3.095  10.714  0.8876 -0.3052 -0.3547
 8688SOL    HW137523   2.985   3.179  10.716 -1.6032  1.0889  0.4343
 8688SOL    HW237524   2.903   3.084  10.803 -2.4431  2.3424 -1.3304
 8689SOL     OW37525   0.449   2.332   2.586  0.1619 -0.1820  0.5170
 8689SOL    HW137526   0.394   2.389   2.532  0.2761 -0.9666 -0.4089
 8689SOL    HW237527   0.436   2.368   2.674 -1.3800 -2.7293  1.3252
 8690SOL     OW37528   1.426   4.471   1.862 -0.9013  0.5833 -0.0844
 8690SOL    HW137529   1.423   4.377   1.882  0.2131  0.3947 -0.8116
 8690SOL    HW237530   1.489   4.499   1.928 -3.4772  0.2358  2.5315
 8691SOL     OW37531   4.363   2.985   0.962  0.0345  0.3360  0.6012
 8691SOL    HW137532   4.289   2.978   0.901  2.6337 -1.9211 -2.3178
 8691SOL    HW237533   4.337   2.929   1.035 -0.0234  2.5741  2.2961
 8692SOL     OW37534   2.573   2.692  13.045 -0.1553  0.4703  0.1709
 8692SOL    HW137535   2.615   2.762  13.095  1.8094  0.4514 -1.4543
 8692SOL    HW237536   2.618   2.699  12.961  1.4239 -1.4732  0.8426
 8693SOL     OW37537   1.026   4.266  11.174 -0.5450  0.0138  0.6612
 8693SOL    HW137538   1.029   4.234  11.084 -0.6200  0.5839  0.4557
 8693SOL    HW237539   1.118   4.266  11.198 -0.8841  1.2202  1.9858
 8694SOL     OW37540   3.235   3.797   2.347  0.1887 -0.5951  0.4030
 8694SOL    HW137541   3.279   3.873   2.308 -0.6455 -0.0650  0.5086
 8694SOL    HW237542   3.157   3.788   2.292 -0.6124  3.4242  0.8846
 8695SOL     OW37543   3.172   3.975  13.970 -0.2564 -0.0893 -0.1776
 8695SOL    HW137544   3.178   4.011  14.058 -1.0453 -0.3418 -0.0263
 8695SOL    HW237545   3.158   3.881  13.986 -2.3943  0.2925  0.1656
 8696SOL     OW37546   4.580   4.624   2.097  0.3127 -0.9046  0.3524
 8696SOL    HW137547   4.611   4.704   2.140 -2.6429 -0.3845  1.5591
 8696SOL    HW237548   4.491   4.634   2.131  0.1430  0.0874 -0.3882
 8697SOL     OW37549   0.993   0.729   1.554  0.2034 -0.6390  0.0026
 8697SOL    HW137550   0.900   0.728   1.575 -0.6897  1.7195 -3.8604
 8697SOL    HW237551   0.994   0.708   1.460 -1.6856 -0.5072 -0.0509
 8698SOL     OW37552   3.682   1.233   1.928  0.1137 -0.3142  0.0557
 8698SOL    HW137553   3.692   1.159   1.989 -1.6955  0.1374  0.9092
 8698SOL    HW237554   3.748   1.282   1.977  1.4956 -1.4841 -0.6480
 8699SOL     OW37555   3.277   1.988   1.721 -0.3849 -0.4704  0.3642
 8699SOL    HW137556   3.275   1.964   1.628 -1.4046  0.9947  0.0183
 8699SOL    HW237557   3.356   2.042   1.730 -0.1385 -0.9705  1.2159
 8700SOL     OW37558   3.946   3.605   6.927  0.6811 -0.0276  0.1234
 8700SOL    HW137559   3.871   3.618   6.985 -1.6616 -0.2169 -2.8687
 8700SOL    HW237560   4.003   3.563   6.992  0.4048 -1.1126 -0.3266
 8701SOL     OW37561   3.570   0.628   8.831  0.2409 -0.2186  0.0302
 8701SOL    HW137562   3.551   0.721   8.845  0.7489 -0.2985  1.2969
 8701SOL    HW237563   3.594   0.626   8.738  1.1627 -1.3623  0.2879
 8702SOL     OW37564   3.976   0.622   3.293 -0.0038 -0.8170  0.4026
 8702SOL    HW137565   3.968   0.648   3.201 -0.6937  0.9979  0.9668
 8702SOL    HW237566   4.036   0.548   3.285 -0.1090 -0.9355  0.7395
 8703SOL     OW37567   3.151   0.526   6.518  0.7167 -0.0429 -0.5896
 8703SOL    HW137568   3.172   0.591   6.585 -0.7227  0.1471 -0.3409
 8703SOL    HW237569   3.214   0.455   6.534 -1.1787 -1.1803  1.8706
 8704SOL     OW37570   0.506   0.284   2.711 -0.1022  0.4366 -0.0424
 8704SOL    HW137571   0.554   0.222   2.766 -1.0550 -0.4226 -0.1883
 8704SOL    HW237572   0.438   0.231   2.670 -1.3313  2.4856 -0.6753
 8705SOL     OW37573   1.207   2.758  14.114  0.6101  0.1929  0.4562
 8705SOL    HW137574   1.240   2.671  14.138 -1.0246 -0.6375 -0.2524
 8705SOL    HW237575   1.179   2.798  14.196  1.2061 -0.2999  0.9059
 8706SOL     OW37576   1.020   1.699   0.683  0.2430 -0.6661  0.3666
 8706SOL    HW137577   0.955   1.636   0.714 -1.0459  0.4055 -0.1514
 8706SOL    HW237578   1.057   1.646   0.612  0.2064 -1.1684  0.7233
 8707SOL     OW37579   0.425   4.569   8.158  0.1637 -0.1851  0.0814
 8707SOL    HW137580   0.370   4.491   8.152  0.1708 -0.1623 -0.2846
 8707SOL    HW237581   0.411   4.595   8.249 -0.2367 -1.0066  0.2513
 8708SOL     OW37582   4.613   2.807   5.378  0.2260 -0.4004  0.3859
 8708SOL    HW137583   4.557   2.745   5.332  0.7529 -0.9276  0.4617
 8708SOL    HW237584   4.585   2.782   5.466  0.5286 -0.1797  0.5447
 8709SOL     OW37585   2.295   4.319   7.177  0.1176  0.1179 -0.3141
 8709SOL    HW137586   2.263   4.364   7.255  0.4397 -1.2924  0.6280
 8709SOL    HW237587   2.211   4.284   7.146 -1.1129  1.9375  0.9962
 8710SOL     OW37588   1.962   3.805  13.693 -0.1440 -0.2198  0.3078
 8710SOL    HW137589   1.973   3.900  13.681 -0.5587 -0.1125  0.7911
 8710SOL    HW237590   1.922   3.780  13.609 -0.7366 -0.6132  0.7078
 8711SOL     OW37591   0.261   3.695   9.353 -0.4036  0.0706  0.2928
 8711SOL    HW137592   0.302   3.636   9.416 -2.9712  0.5785  2.3931
 8711SOL    HW237593   0.273   3.779   9.397  1.3289  0.2692 -0.5531
 8712SOL     OW37594   1.621   2.600   7.633 -0.2685 -0.4087  0.5638
 8712SOL    HW137595   1.610   2.695   7.627  2.3671 -0.2470 -2.0245
 8712SOL    HW237596   1.622   2.598   7.729 -1.6511  0.6952  0.6041
 8713SOL     OW37597   0.218   4.284   4.140  0.3612 -0.4909  0.2425
 8713SOL    HW137598   0.295   4.262   4.193  2.8030  0.8508 -2.7007
 8713SOL    HW237599   0.192   4.199   4.105  0.5702 -0.7663  0.7589
 8714SOL     OW37600   2.304   4.232   4.154 -0.1914 -0.2560  0.5237
 8714SOL    HW137601   2.250   4.219   4.076 -0.4793 -1.7592  0.9678
 8714SOL    HW237602   2.249   4.190   4.221  1.7873 -0.9895  1.6775
 8715SOL     OW37603   0.034   2.075   5.117 -0.1522  0.2066  0.0701
 8715SOL    HW137604   0.084   2.134   5.174 -0.3709  1.5317 -1.1154
 8715SOL    HW237605   0.110   2.044   5.068 -1.1416  0.3460 -1.5382
 8716SOL     OW37606   0.826   2.557   7.515  0.4881 -0.1523 -0.2592
 8716SOL    HW137607   0.780   2.499   7.576  1.7407 -3.4113 -2.4118
 8716SOL    HW237608   0.857   2.630   7.569 -0.2323 -0.8291  1.0668
 8717SOL     OW37609   2.954   0.519   5.694  0.5340 -0.0410 -0.4383
 8717SOL    HW137610   2.933   0.600   5.742 -0.9109 -1.6076  1.5887
 8717SOL    HW237611   2.897   0.452   5.734  0.0207  0.7957  0.2503
 8718SOL     OW37612   3.171   1.059   2.615  0.0614 -0.1779  0.0056
 8718SOL    HW137613   3.232   1.132   2.626 -1.9502  1.6642 -1.0430
 8718SOL    HW237614   3.162   1.068   2.520 -0.5653  2.2756  0.3066
 8719SOL     OW37615   0.016   3.352   4.899 -0.2437 -0.7355  0.3564
 8719SOL    HW137616   0.020   3.332   4.992  0.1984 -0.8911  0.3055
 8719SOL    HW237617   0.027   3.447   4.898  2.0160 -0.9710  1.2794
 8720SOL     OW37618   2.018   3.930   6.797  0.2285  0.2747  0.0946
 8720SOL    HW137619   1.980   3.999   6.851 -2.1986  0.7040 -2.1288
 8720SOL    HW237620   1.970   3.924   6.714  2.5934 -1.3574 -1.1711
 8721SOL     OW37621   3.684   1.333   4.608  0.1152 -0.2746 -0.5450
 8721SOL    HW137622   3.778   1.350   4.617  0.0306 -1.2438  2.1516
 8721SOL    HW237623   3.667   1.373   4.523  0.6177  0.4995 -0.2751
 8722SOL     OW37624   1.142   0.759   7.410  0.4123  0.2765 -0.3629
 8722SOL    HW137625   1.142   0.707   7.329  1.6464 -0.1117 -0.1103
 8722SOL    HW237626   1.236   0.758   7.426  0.2578  0.1840  0.5092
 8723SOL     OW37627   4.326   1.803   5.837 -0.2488 -0.8774  0.5251
 8723SOL    HW137628   4.383   1.821   5.763 -0.6787 -2.3120 -0.1655
 8723SOL    HW237629   4.364   1.859   5.904  0.6137 -0.7948 -0.0340
 8724SOL     OW37630   0.422   1.274   3.586  0.5299 -0.2161  0.2571
 8724SOL    HW137631   0.501   1.252   3.636  1.1161  0.8024 -0.2208
 8724SOL    HW237632   0.421   1.369   3.598  3.7693  0.1000 -1.7737
 8725SOL     OW37633   4.149   0.459   7.855  0.2221  0.9065 -0.4907
 8725SOL    HW137634   4.180   0.437   7.942 -0.0399  0.5910 -0.4775
 8725SOL    HW237635   4.067   0.507   7.870  1.1274  2.8678 -1.7781
 8726SOL     OW37636   3.827   4.505   8.622 -0.4226  0.0130 -0.1669
 8726SOL    HW137637   3.882   4.557   8.680 -0.6408  0.1792 -0.1114
 8726SOL    HW237638   3.785   4.447   8.685  1.0260 -0.2715  0.5406
 8727SOL     OW37639   1.152   3.568   4.967 -0.0993  0.3319 -0.0078
 8727SOL    HW137640   1.190   3.485   4.996 -2.0678  0.1805  2.0952
 8727SOL    HW237641   1.208   3.597   4.895  2.8726 -1.1492  1.7063
 8728SOL     OW37642   4.560   2.798  14.750  0.4631 -0.0714 -1.0516
 8728SOL    HW137643   4.599   2.885  14.761 -0.0884 -0.0329  0.6515
 8728SOL    HW237644   4.611   2.772  14.674  0.1662 -0.9651 -0.9427
 8729SOL     OW37645   3.232   2.344   8.349 -0.3825 -0.5133  0.1282
 8729SOL    HW137646   3.177   2.413   8.312  0.1367 -0.3504 -0.3436
 8729SOL    HW237647   3.196   2.330   8.437 -1.0459 -0.1957 -0.0947
 8730SOL     OW37648   3.995   0.705   7.369 -0.6502 -0.3704 -0.4903
 8730SOL    HW137649   3.930   0.721   7.438  0.6183 -2.0010  1.0755
 8730SOL    HW237650   4.053   0.645   7.415 -0.1101  1.0989  0.7638
 8731SOL     OW37651   4.264   0.570   7.604 -0.1429 -0.7665  0.4009
 8731SOL    HW137652   4.199   0.545   7.538  0.6567 -0.5111 -0.4835
 8731SOL    HW237653   4.241   0.527   7.686  0.4444 -0.3623  0.7814
 8732SOL     OW37654   3.399   2.262  11.270  0.2880 -0.3871 -0.0877
 8732SOL    HW137655   3.444   2.336  11.311 -2.7183  1.3869  0.0266
 8732SOL    HW237656   3.325   2.306  11.228 -1.5228 -0.7654  2.6962
 8733SOL     OW37657   3.365   1.183   9.321  0.6604  0.1899  0.0920
 8733SOL    HW137658   3.297   1.175   9.388  2.0494  0.5972  1.5541
 8733SOL    HW237659   3.427   1.129   9.369 -0.3649  1.6398  3.0276
 8734SOL     OW37660   1.620   1.169  11.556 -0.0990  0.3970  0.7804
 8734SOL    HW137661   1.577   1.100  11.605  2.8383 -2.6333 -0.8748
 8734SOL    HW237662   1.702   1.180  11.604  0.8033 -1.1256 -0.3997
 8735SOL     OW37663   0.407   4.128   2.755 -0.6917  0.2938  0.1094
 8735SOL    HW137664   0.463   4.165   2.824  1.0480  0.9719 -1.6631
 8735SOL    HW237665   0.419   4.034   2.771  1.0160  0.7487  1.6088
 8736SOL     OW37666   1.770   0.961   9.025  0.7823 -0.4231  0.2751
 8736SOL    HW137667   1.851   0.927   9.063  1.6795  1.5834  0.1486
 8736SOL    HW237668   1.722   0.878   9.019 -0.9203  0.4851  1.1126
 8737SOL     OW37669   3.908   1.658   7.349  0.2255  0.1556 -0.0780
 8737SOL    HW137670   3.924   1.566   7.329  0.4286  0.0658  0.4962
 8737SOL    HW237671   3.995   1.690   7.326 -0.1611  0.2684 -1.3775
 8738SOL     OW37672   1.862   3.819   8.987 -0.5357  0.2140 -0.1768
 8738SOL    HW137673   1.909   3.824   8.904 -0.4207  0.1204 -0.1172
 8738SOL    HW237674   1.902   3.743   9.029 -0.1669 -0.6025 -2.0058
 8739SOL     OW37675   4.072   1.464   6.285 -0.2090  0.2631 -0.3589
 8739SOL    HW137676   4.136   1.414   6.234  1.2114  1.2451  0.4748
 8739SOL    HW237677   4.110   1.460   6.373 -2.8624 -2.0753  0.6633
 8740SOL     OW37678   4.078   2.052   7.348 -0.8888 -0.0649  1.0192
 8740SOL    HW137679   4.091   2.122   7.283  0.6932 -1.0070  0.3177
 8740SOL    HW237680   4.154   2.079   7.399 -1.3316  2.5516  0.3272
 8741SOL     OW37681   1.725   2.019  11.175 -0.1662  0.2412  0.2943
 8741SOL    HW137682   1.703   2.070  11.253  0.3727  0.2376  0.4468
 8741SOL    HW237683   1.647   2.032  11.121  0.1447  0.9932  0.0343
 8742SOL     OW37684   2.691   0.271   4.230 -0.1535 -0.0918 -0.6094
 8742SOL    HW137685   2.654   0.298   4.314 -0.6780  0.4046 -1.0023
 8742SOL    HW237686   2.727   0.183   4.242 -0.5479 -0.2728 -0.7557
 8743SOL     OW37687   3.485   1.544   2.534  0.3858  0.0565  0.1655
 8743SOL    HW137688   3.468   1.507   2.447  1.0407 -0.5956  0.3206
 8743SOL    HW237689   3.406   1.598   2.536  1.0067  1.0560 -2.2141
 8744SOL     OW37690   2.183   3.359   2.035  0.4912  0.3490 -0.0266
 8744SOL    HW137691   2.206   3.276   1.994 -0.2675  0.0865  0.0793
 8744SOL    HW237692   2.220   3.356   2.123 -1.6282 -0.9586  0.8012
 8745SOL     OW37693   2.045   1.409  14.989  0.2437 -0.1372 -0.3444
 8745SOL    HW137694   2.100   1.483  14.964  0.0859  1.0455  2.8121
 8745SOL    HW237695   2.099   1.384  15.065  0.6143  0.2014 -0.4918
 8746SOL     OW37696   1.320   3.768   6.575  0.4129  0.1844 -0.2169
 8746SOL    HW137697   1.225   3.780   6.579  0.6559  2.0877 -0.2799
 8746SOL    HW237698   1.340   3.861   6.584 -4.3408  1.4100 -2.2129
 8747SOL     OW37699   4.519   2.621   4.963  0.2782 -0.1098 -0.2635
 8747SOL    HW137700   4.517   2.525   4.958 -0.1941 -0.1618  0.9060
 8747SOL    HW237701   4.480   2.641   4.878  1.6657 -1.3700 -1.1988
 8748SOL     OW37702   3.556   3.287  13.550  0.1171  0.5094 -0.8780
 8748SOL    HW137703   3.599   3.208  13.584 -0.4656  0.4790 -0.2119
 8748SOL    HW237704   3.576   3.290  13.457 -0.3370 -1.0652 -1.0324
 8749SOL     OW37705   2.674   3.292   3.148  0.3096 -0.1382 -0.3303
 8749SOL    HW137706   2.627   3.345   3.084  3.8239  0.5450 -2.3207
 8749SOL    HW237707   2.681   3.206   3.107  1.0562 -0.6563  0.8560
 8750SOL     OW37708   0.515   1.760   8.262  0.1842  0.2239 -0.2891
 8750SOL    HW137709   0.608   1.783   8.266 -0.5101  2.5264  2.9143
 8750SOL    HW237710   0.506   1.681   8.316  0.3971  1.0536  0.9539
 8751SOL     OW37711   3.586   4.372  16.642  0.8127  0.9016  0.5344
 8751SOL    HW137712   3.504   4.324  16.658 -0.1035  3.0802  2.4487
 8751SOL    HW237713   3.629   4.383  16.727 -0.4877  0.9552  1.1803
 8752SOL     OW37714   3.405   1.267   2.538 -0.0935  0.3249  0.1720
 8752SOL    HW137715   3.397   1.260   2.443 -1.0072 -2.8106  0.4836
 8752SOL    HW237716   3.368   1.356   2.537 -1.5513 -0.2619  1.9617
 8753SOL     OW37717   2.068   3.788   7.061  0.1329 -0.2625 -0.1288
 8753SOL    HW137718   2.059   3.694   7.046 -0.7719 -0.2684  0.4516
 8753SOL    HW237719   2.069   3.823   6.972 -1.0129  1.9746  0.7303
 8754SOL     OW37720   2.514   3.328   2.915 -0.7087  0.2495 -0.1231
 8754SOL    HW137721   2.510   3.238   2.883  1.0573  0.5880 -1.3096
 8754SOL    HW237722   2.516   3.368   2.828 -2.4464  0.9784  0.1638
 8755SOL     OW37723   0.483   3.899   7.969 -0.1519 -0.2525 -0.3157
 8755SOL    HW137724   0.548   3.931   7.907  2.3338 -2.0167  1.3938
 8755SOL    HW237725   0.523   3.821   8.007 -0.6932  0.5484  1.9155
 8756SOL     OW37726   3.853   0.567   1.287 -0.4387 -0.4818 -0.1575
 8756SOL    HW137727   3.910   0.494   1.311  0.4108 -0.4710 -2.1459
 8756SOL    HW237728   3.786   0.529   1.231 -0.7262 -1.6140  0.9571
 8757SOL     OW37729   0.839   4.218   7.336  0.4281  0.1663 -0.0899
 8757SOL    HW137730   0.806   4.187   7.420  1.9924  0.3477  0.5871
 8757SOL    HW237731   0.804   4.307   7.334  0.7885  0.3265  0.7934
 8758SOL     OW37732   2.414   1.487   1.743  0.2220 -0.7132 -1.0621
 8758SOL    HW137733   2.322   1.502   1.765  0.7359  0.5075  0.2410
 8758SOL    HW237734   2.445   1.538   1.818  1.9950  1.3502 -3.1880
 8759SOL     OW37735   0.163   1.567   8.298 -0.0583  0.3780  0.8745
 8759SOL    HW137736   0.156   1.474   8.320  0.1491  0.1121 -0.1544
 8759SOL    HW237737   0.242   1.589   8.347  0.7847  0.7068 -0.6246
 8760SOL     OW37738   2.551   2.116   3.114  0.4267  0.4368  0.3811
 8760SOL    HW137739   2.482   2.059   3.148 -2.8727  3.7195 -0.8768
 8760SOL    HW237740   2.620   2.053   3.094 -1.6742 -1.1237 -2.0656
 8761SOL     OW37741   1.845   2.479   8.504  0.9356 -0.3639  0.2816
 8761SOL    HW137742   1.777   2.530   8.548  1.4665  1.2575 -0.7603
 8761SOL    HW237743   1.815   2.470   8.413 -0.7184  0.0213  0.7809
 8762SOL     OW37744   0.262   1.314   2.044 -0.1851 -0.4721 -0.2008
 8762SOL    HW137745   0.342   1.279   2.006  0.1602  1.7844 -1.5584
 8762SOL    HW237746   0.197   1.251   2.011 -0.6898  0.1277 -0.3531
 8763SOL     OW37747   1.901   0.605  12.608  0.1821  0.0757 -0.6144
 8763SOL    HW137748   1.844   0.588  12.533 -0.6454  1.9129 -0.3819
 8763SOL    HW237749   1.967   0.535  12.605 -2.1841 -2.2158  0.2997
 8764SOL     OW37750   0.203   0.445   8.640  0.0774 -0.3913  0.2385
 8764SOL    HW137751   0.277   0.401   8.597 -0.8061 -0.1304 -1.5574
 8764SOL    HW237752   0.240   0.459   8.727 -1.9987  0.5710  0.9620
 8765SOL     OW37753   0.039   1.426   6.246  0.2022  0.1300  0.1417
 8765SOL    HW137754   0.097   1.475   6.304  0.7164  0.9217 -1.0398
 8765SOL    HW237755   0.022   1.356   6.309 -2.1282 -1.1771 -1.9168
 8766SOL     OW37756   2.169   3.473  16.938  0.5806  0.2572 -0.1199
 8766SOL    HW137757   2.210   3.559  16.941  1.4680 -0.2902  2.5707
 8766SOL    HW237758   2.235   3.410  16.910 -0.3168 -0.8947  0.3469
 8767SOL     OW37759   4.081   1.324   1.692  0.9467  0.0913  0.3962
 8767SOL    HW137760   4.056   1.389   1.758  1.3999 -1.3158  1.9583
 8767SOL    HW237761   4.174   1.340   1.676  0.9156 -0.9390 -0.8069
 8768SOL     OW37762   0.728   1.806   4.301  0.0161 -0.1418  0.2647
 8768SOL    HW137763   0.781   1.849   4.234 -0.2926 -1.7621 -1.0315
 8768SOL    HW237764   0.672   1.748   4.247 -1.5317  0.2757  1.4097
 8769SOL     OW37765   3.917   0.223   5.218 -0.0067 -0.2306  0.4494
 8769SOL    HW137766   3.883   0.268   5.141  2.2999  0.2700 -0.2766
 8769SOL    HW237767   3.969   0.289   5.266 -1.3189  0.1256  1.3762
 8770SOL     OW37768   0.756   1.642   9.902  0.0384 -0.3308 -0.0170
 8770SOL    HW137769   0.728   1.561   9.858 -0.1248 -0.1965 -0.1615
 8770SOL    HW237770   0.846   1.626   9.930  0.0137  1.0215  0.8250
 8771SOL     OW37771   2.164   3.336   7.198 -0.3033  0.0127  0.4027
 8771SOL    HW137772   2.074   3.354   7.225 -0.7679 -0.3228 -0.9055
 8771SOL    HW237773   2.147   3.257   7.147  0.6203  0.1957 -0.1784
 8772SOL     OW37774   0.497   2.303  13.647 -0.3534 -0.1493  0.3158
 8772SOL    HW137775   0.550   2.229  13.676 -0.1254  0.4624  1.4726
 8772SOL    HW237776   0.558   2.372  13.672  0.5881 -0.8756 -0.0020
 8773SOL     OW37777   3.050   3.414   4.682 -0.3045 -0.0353  0.1889
 8773SOL    HW137778   2.971   3.422   4.628  0.5608  3.4336 -0.5766
 8773SOL    HW237779   3.121   3.374   4.632 -1.8360 -1.9127 -0.4894
 8774SOL     OW37780   2.516   4.422   1.700 -0.2097 -0.2384  0.1665
 8774SOL    HW137781   2.611   4.429   1.696 -0.1386 -0.4544  1.5252
 8774SOL    HW237782   2.502   4.329   1.686 -1.0012  0.0975 -1.3003
 8775SOL     OW37783   3.321   0.034   1.660 -0.1412  0.1983  0.1810
 8775SOL    HW137784   3.410   4.720   1.654  0.1753  0.8533  1.0711
 8775SOL    HW237785   3.307   0.069   1.572 -1.9759 -1.2675 -0.1014
 8776SOL     OW37786   1.445   0.678   7.685  0.5729  0.3304 -0.1940
 8776SOL    HW137787   1.484   0.722   7.761 -0.0353 -1.4650  1.1652
 8776SOL    HW237788   1.411   0.602   7.732 -2.5329  0.8874 -1.5576
 8777SOL     OW37789   0.430   0.570   8.509  0.1250 -0.3589 -0.1818
 8777SOL    HW137790   0.487   0.519   8.452  0.0448 -0.5994 -0.0442
 8777SOL    HW237791   0.359   0.582   8.446  2.5681  2.8402 -2.3480
 8778SOL     OW37792   1.812   2.598  17.397  0.2059 -0.1944  0.3529
 8778SOL    HW137793   1.835   2.689  17.376 -2.4920  0.1009 -1.3528
 8778SOL    HW237794   1.721   2.608  17.424 -0.0880 -0.7297 -0.4319
 8779SOL     OW37795   3.624   0.957   2.027  0.4646 -0.1135 -0.4289
 8779SOL    HW137796   3.635   0.987   2.117  0.7066 -0.0678 -0.4739
 8779SOL    HW237797   3.532   0.972   2.003  0.8760  0.2014 -1.8707
 8780SOL     OW37798   0.102   0.761  14.399 -0.4801  0.3613  0.5444
 8780SOL    HW137799   0.118   0.855  14.389 -1.6980  0.4944 -0.1894
 8780SOL    HW237800   0.122   0.718  14.316  0.1940 -2.4008  2.1209
 8781SOL     OW37801   3.015   1.362  15.254 -0.2231  0.0863 -0.1365
 8781SOL    HW137802   3.081   1.298  15.278  1.1942  0.8120 -2.1018
 8781SOL    HW237803   3.056   1.445  15.278  0.3656 -1.0818  2.8542
 8782SOL     OW37804   3.577   1.985   5.844 -0.2788  0.1394 -0.0790
 8782SOL    HW137805   3.628   1.928   5.787 -1.0570  1.2733 -1.9029
 8782SOL    HW237806   3.487   1.958   5.828 -0.3660 -0.3394  1.1856
 8783SOL     OW37807   2.657   3.824   2.428  0.5641  0.3262  0.4400
 8783SOL    HW137808   2.735   3.826   2.373 -0.3802  0.1449 -0.8930
 8783SOL    HW237809   2.692   3.815   2.517  1.0157 -1.6340  0.0435
 8784SOL     OW37810   1.397   3.378   4.881 -0.0392 -0.1234 -0.2952
 8784SOL    HW137811   1.403   3.288   4.849  1.1078 -0.2690  0.3474
 8784SOL    HW237812   1.373   3.412   4.794  0.5106  1.6204  0.2284
 8785SOL     OW37813   3.302   0.237   3.582  0.2791  0.7972  0.0805
 8785SOL    HW137814   3.397   0.225   3.587  0.1383 -0.9692 -1.4003
 8785SOL    HW237815   3.294   0.331   3.570  1.0805  1.0547  1.5989
 8786SOL     OW37816   3.661   3.446   6.949 -0.9737 -0.3280 -0.7571
 8786SOL    HW137817   3.731   3.433   6.885 -0.9114  0.9435 -0.9522
 8786SOL    HW237818   3.592   3.484   6.895 -1.8705 -0.2751  0.4102
 8787SOL     OW37819   0.052   1.294   7.163  0.2844  0.0239 -0.4823
 8787SOL    HW137820   0.109   1.219   7.149  0.2172 -0.0487 -0.3638
 8787SOL    HW237821   0.055   1.308   7.258 -0.1349 -2.5137 -0.1025
 8788SOL     OW37822   2.381   2.330   8.674 -0.6377 -0.6037 -0.1998
 8788SOL    HW137823   2.361   2.408   8.725  1.0956  0.4182 -1.0972
 8788SOL    HW237824   2.317   2.338   8.604 -1.5497 -1.5161  0.5245
 8789SOL     OW37825   0.335   2.922  11.469  0.1937  0.4711  0.1295
 8789SOL    HW137826   0.281   2.885  11.538 -1.1371 -1.6474 -2.0295
 8789SOL    HW237827   0.273   2.985  11.433 -0.4790 -1.1884 -1.6725
 8790SOL     OW37828   3.940   2.234   3.494 -0.2339  0.2689 -0.1275
 8790SOL    HW137829   4.030   2.233   3.526 -0.8888  2.2888  1.8187
 8790SOL    HW237830   3.942   2.173   3.421 -3.6950 -0.4600  0.4004
 8791SOL     OW37831   1.104   3.564  12.559  0.3530  0.0134  0.5014
 8791SOL    HW137832   1.098   3.634  12.623  0.6473  1.2492 -0.8137
 8791SOL    HW237833   1.031   3.580  12.499  1.2356  2.6322  0.1453
 8792SOL     OW37834   2.090   3.804   7.425 -0.0528 -0.8098  0.3048
 8792SOL    HW137835   2.049   3.728   7.464  0.0322 -0.8817  0.2553
 8792SOL    HW237836   2.146   3.774   7.353  1.3759  1.5980  0.3757
 8793SOL     OW37837   2.064   4.658   7.056  0.4681  0.1549 -0.2311
 8793SOL    HW137838   2.149   4.655   7.099  0.9171  3.3561 -0.8758
 8793SOL    HW237839   2.064   0.032   7.047 -0.5961  0.3176  1.4677
 8794SOL     OW37840   3.879   4.633   2.938 -0.5517 -0.0062 -0.3057
 8794SOL    HW137841   3.974   4.635   2.947 -0.6128 -0.6195  0.4738
 8794SOL    HW237842   3.858   4.546   2.972  1.1433 -0.1551  0.3647
 8795SOL     OW37843   3.706   0.097  15.634 -0.7479 -0.8319  0.3308
 8795SOL    HW137844   3.613   0.119  15.626 -0.0110  2.3106  0.5277
 8795SOL    HW237845   3.746   0.184  15.638 -0.8797 -0.6840 -1.4371
 8796SOL     OW37846   1.414   1.354   2.092  0.0834 -0.3960 -0.1022
 8796SOL    HW137847   1.502   1.382   2.066 -0.2978  2.0800  1.2216
 8796SOL    HW237848   1.422   1.358   2.187  0.1436 -1.6661 -0.0617
 8797SOL     OW37849   2.376   2.182   9.253 -0.0128  0.1081  0.6153
 8797SOL    HW137850   2.449   2.237   9.280  0.4741 -1.2911  2.0973
 8797SOL    HW237851   2.298   2.233   9.272  0.9714  2.3501 -1.4142
 8798SOL     OW37852   1.204   0.777   4.263 -0.4315 -0.1962  0.2534
 8798SOL    HW137853   1.217   0.855   4.209  1.9793  0.4449  1.7683
 8798SOL    HW237854   1.139   0.811   4.325  0.9998  1.2536  0.9833
 8799SOL     OW37855   2.301   4.194   3.719  0.2791  0.5020 -0.1203
 8799SOL    HW137856   2.389   4.230   3.728  1.4393 -1.9546 -1.6680
 8799SOL    HW237857   2.289   4.206   3.625 -0.6327 -0.9070 -0.1866
 8800SOL     OW37858   1.577   1.248   6.396  0.2645  0.5303  0.1793
 8800SOL    HW137859   1.637   1.264   6.323  0.3369 -1.1270 -0.1403
 8800SOL    HW237860   1.504   1.300   6.364 -0.2922 -0.8322 -0.7864
 8801SOL     OW37861   1.615   2.811   0.169  0.2441  0.0233  0.1461
 8801SOL    HW137862   1.606   2.828   0.263  1.6253 -0.4067  0.3531
 8801SOL    HW237863   1.687   2.748   0.172 -0.1588 -0.5571 -1.9862
 8802SOL     OW37864   1.983   0.774   4.981  0.4983  0.6641 -0.3774
 8802SOL    HW137865   1.902   0.723   4.980  0.1709  1.1392  1.3465
 8802SOL    HW237866   1.953   0.865   4.982  1.4122  0.9721 -2.1032
 8803SOL     OW37867   0.572   3.342   1.174  0.0960  0.0960 -0.0883
 8803SOL    HW137868   0.562   3.256   1.213 -0.9657 -0.4276 -1.5129
 8803SOL    HW237869   0.667   3.343   1.159  0.1560 -0.2453  0.2963
 8804SOL     OW37870   2.186   0.778   5.210 -0.5919  0.4189 -0.5901
 8804SOL    HW137871   2.171   0.871   5.226 -0.5479  0.7626 -2.5785
 8804SOL    HW237872   2.131   0.782   5.131 -3.1163  1.5049  1.2043
 8805SOL     OW37873   1.722   0.294  10.672 -0.6392 -0.0020  0.1567
 8805SOL    HW137874   1.657   0.224  10.659 -1.6562  0.8879  0.4381
 8805SOL    HW237875   1.740   0.300  10.765 -0.9739 -2.6860  0.4012
 8806SOL     OW37876   4.378   1.881   7.635 -0.2057  0.6890  0.1888
 8806SOL    HW137877   4.461   1.848   7.601  0.9063  1.7947  1.8106
 8806SOL    HW237878   4.398   1.969   7.668  1.0014  0.2344  0.6558
 8807SOL     OW37879   1.293   1.012   8.598 -0.1801 -0.0740  0.4400
 8807SOL    HW137880   1.307   1.085   8.538  0.1600 -0.9580 -0.5549
 8807SOL    HW237881   1.332   1.039   8.681  1.1279  0.0376 -0.2154
 8808SOL     OW37882   0.962   2.772  13.091  0.3000 -0.0995 -0.1862
 8808SOL    HW137883   0.938   2.684  13.061  2.6622 -1.0529  0.7765
 8808SOL    HW237884   1.056   2.767  13.104  0.3268 -1.2118 -0.7499
 8809SOL     OW37885   0.592   1.602   6.790 -0.1554  0.1297  0.5039
 8809SOL    HW137886   0.567   1.600   6.882  1.5080  1.7534  0.9974
 8809SOL    HW237887   0.510   1.577   6.750 -0.3256  1.5349 -0.0322
 8810SOL     OW37888   1.181   1.077   7.033  0.0237  0.6194 -0.6759
 8810SOL    HW137889   1.236   1.071   7.111  1.2342  0.9692 -1.5055
 8810SOL    HW237890   1.206   0.995   6.990 -2.6688 -1.1981  1.1427
 8811SOL     OW37891   1.866   3.085  15.095  0.1546  0.3526  0.3272
 8811SOL    HW137892   1.911   3.033  15.162 -0.2691  0.2917  0.5665
 8811SOL    HW237893   1.775   3.072  15.122  0.2602  0.3403  0.6746
 8812SOL     OW37894   0.623   2.363   0.380 -0.3231 -0.0167  0.2769
 8812SOL    HW137895   0.592   2.369   0.290  1.6353  2.7053 -0.2110
 8812SOL    HW237896   0.561   2.300   0.419  1.0819 -0.6071  1.5523
 8813SOL     OW37897   0.703   3.584   6.458  0.0160  0.8286  0.5058
 8813SOL    HW137898   0.648   3.515   6.495 -0.1459  0.8606  0.3229
 8813SOL    HW237899   0.644   3.645   6.413  0.7730  0.6859 -0.6907
 8814SOL     OW37900   2.633   2.713   0.626 -0.5354  0.5336 -0.3320
 8814SOL    HW137901   2.633   2.794   0.678 -1.8655 -0.6553  1.4991
 8814SOL    HW237902   2.594   2.743   0.544 -1.6555  0.7535  0.2916
 8815SOL     OW37903   0.218   2.731   4.103 -0.5104 -0.0743  0.0017
 8815SOL    HW137904   0.173   2.790   4.043 -2.3719  1.6345  3.0941
 8815SOL    HW237905   0.152   2.713   4.170 -0.9514  0.4410 -0.2928
 8816SOL     OW37906   1.642   4.640   5.321 -0.2698 -0.1488  0.3743
 8816SOL    HW137907   1.654   4.554   5.282  1.6863 -0.4354  1.6762
 8816SOL    HW237908   1.570   4.621   5.382 -2.3636  2.6149 -1.1987
 8817SOL     OW37909   2.631   1.985   7.577 -0.8137 -0.2094 -0.1152
 8817SOL    HW137910   2.567   1.919   7.550 -0.6700 -0.4891  0.2401
 8817SOL    HW237911   2.638   1.993   7.672  0.1223  1.9043 -0.3618
 8818SOL     OW37912   1.408   1.509  11.112 -0.2677 -0.0214 -0.6003
 8818SOL    HW137913   1.361   1.588  11.087 -1.5429 -0.8355 -0.7361
 8818SOL    HW237914   1.456   1.483  11.034  1.8644 -0.1425  0.7430
 8819SOL     OW37915   3.926   2.645   0.249  0.4056  0.1668 -0.0660
 8819SOL    HW137916   3.899   2.553   0.245  0.7256  0.0766 -0.1021
 8819SOL    HW237917   3.999   2.629   0.189  1.3718  2.0126  0.6284
 8820SOL     OW37918   3.700   2.977  10.601  0.1723 -0.0129 -0.8121
 8820SOL    HW137919   3.771   3.025  10.558 -0.3577  2.2354  0.8011
 8820SOL    HW237920   3.739   2.890  10.601  1.3990  0.5265 -2.7534
 8821SOL     OW37921   4.660   1.763   0.165  0.0026  0.4105 -0.7204
 8821SOL    HW137922   0.018   1.738   0.118  0.4246  1.3701 -0.5145
 8821SOL    HW237923   4.694   1.832   0.221  1.6436 -0.0803 -1.1229
 8822SOL     OW37924   3.631   4.051   2.049  0.0508  0.3285 -0.2233
 8822SOL    HW137925   3.647   4.011   2.134 -0.3737 -0.7336 -0.6453
 8822SOL    HW237926   3.602   3.981   1.990 -0.2171 -1.3792  1.9293
 8823SOL     OW37927   2.792   0.199   3.650  0.8032 -0.6998  0.2374
 8823SOL    HW137928   2.782   0.166   3.560  1.4275  0.1677 -0.1389
 8823SOL    HW237929   2.858   0.266   3.640  0.6693 -0.3057  1.9268
 8824SOL     OW37930   0.841   3.355   1.265 -0.4231 -0.2072  0.4986
 8824SOL    HW137931   0.814   3.369   1.356  0.9087 -0.7929  0.9838
 8824SOL    HW237932   0.892   3.435   1.253  0.5841 -0.5128  2.6727
 8825SOL     OW37933   2.439   0.993   3.144  0.0229  0.3913  0.2521
 8825SOL    HW137934   2.500   0.967   3.213  3.3653  1.7395 -2.1915
 8825SOL    HW237935   2.369   0.937   3.178 -0.7645  1.2404  0.0171
 8826SOL     OW37936   1.786   4.664   2.805  0.1075  0.6016  0.1071
 8826SOL    HW137937   1.859   4.611   2.772 -0.4837 -0.9138  1.2280
 8826SOL    HW237938   1.823   0.025   2.838  1.4800  0.3832 -0.8728
 8827SOL     OW37939   0.481   2.967  12.349 -0.1583 -0.5184  0.0790
 8827SOL    HW137940   0.566   2.984  12.308  0.5034 -3.6671  0.1344
 8827SOL    HW237941   0.473   3.047  12.400 -1.0998 -0.8914  0.5157
 8828SOL     OW37942   3.017   3.501   7.269 -0.1290  0.3776  0.2881
 8828SOL    HW137943   2.942   3.547   7.306 -0.1195  2.1294 -1.8836
 8828SOL    HW237944   2.966   3.457   7.200 -0.4010 -0.9911  1.3595
 8829SOL     OW37945   0.344   2.268   6.701  0.2277  0.1020 -0.4099
 8829SOL    HW137946   0.437   2.286   6.688  0.4465 -0.7274 -0.0195
 8829SOL    HW237947   0.313   2.337   6.642  1.3279  1.5281  0.6617
 8830SOL     OW37948   1.967   2.010   4.995 -0.6030  0.3025 -0.1480
 8830SOL    HW137949   2.024   2.086   4.980 -0.2573 -0.1017 -0.8583
 8830SOL    HW237950   2.008   1.947   4.935  1.7178  0.0623  1.6958
 8831SOL     OW37951   3.698   2.391   8.500 -0.0351 -0.0161  0.0325
 8831SOL    HW137952   3.622   2.441   8.531  1.2067  2.1531 -0.4942
 8831SOL    HW237953   3.720   2.335   8.575  0.8416 -1.0431 -1.0030
 8832SOL     OW37954   2.256   2.149   7.749  0.0049 -0.3144 -0.6989
 8832SOL    HW137955   2.242   2.243   7.734  0.1327  0.0507  1.4010
 8832SOL    HW237956   2.219   2.102   7.675 -0.3468  0.3294 -0.9349
 8833SOL     OW37957   1.867   1.491  11.662 -0.6675 -0.5781 -0.1547
 8833SOL    HW137958   1.777   1.515  11.639 -0.4897  1.5551  1.3671
 8833SOL    HW237959   1.864   1.397  11.680 -1.9647 -0.3420  0.8859
 8834SOL     OW37960   3.744   3.886   3.898 -0.4776  0.2511  0.9282
 8834SOL    HW137961   3.669   3.945   3.907 -1.3045 -0.6260 -0.0365
 8834SOL    HW237962   3.732   3.856   3.807  1.1140 -2.2069  1.5145
 8835SOL     OW37963   3.204   2.409  11.159 -0.2577 -0.2538  0.4745
 8835SOL    HW137964   3.166   2.474  11.100  2.2744 -0.1235 -0.9723
 8835SOL    HW237965   3.165   2.440  11.241 -0.5505 -1.2360  0.7054
 8836SOL     OW37966   0.569   4.021   5.043 -0.0247 -0.1843  0.4460
 8836SOL    HW137967   0.610   4.067   5.117  0.1184  2.1512 -1.0593
 8836SOL    HW237968   0.477   4.032   5.066 -0.2917 -0.5029 -0.4604
 8837SOL     OW37969   0.420   2.854   8.214 -0.4666  0.5621  0.1692
 8837SOL    HW137970   0.370   2.781   8.251  0.7041 -0.2444  0.1514
 8837SOL    HW237971   0.482   2.798   8.167 -0.2920  0.2614  0.7678
 8838SOL     OW37972   3.183   2.281  13.527  0.4379 -0.0183 -0.2211
 8838SOL    HW137973   3.186   2.239  13.613 -2.3337 -0.4261 -0.3314
 8838SOL    HW237974   3.231   2.363  13.539 -1.0577  0.5996  1.4958
 8839SOL     OW37975   4.186   0.411   4.511  0.1187  0.3272  0.2391
 8839SOL    HW137976   4.257   0.392   4.451 -1.6241 -0.3917 -1.5937
 8839SOL    HW237977   4.234   0.476   4.563  1.3321  0.1480 -0.6699
 8840SOL     OW37978   0.188   4.492   3.985  0.1901  0.2159 -0.2808
 8840SOL    HW137979   0.122   4.453   3.928  0.3497 -0.7019  0.1561
 8840SOL    HW237980   0.212   4.412   4.033  0.3275 -0.7151 -1.9005
 8841SOL     OW37981   4.012   1.274   2.307 -0.1923  0.3919 -0.1222
 8841SOL    HW137982   4.016   1.179   2.298  1.0523  0.5569 -1.4767
 8841SOL    HW237983   4.103   1.303   2.318  0.0412 -0.9587  1.4975
 8842SOL     OW37984   4.155   1.292   5.699  0.3758  0.1015  0.2792
 8842SOL    HW137985   4.113   1.254   5.622 -1.7454 -2.9835  2.9442
 8842SOL    HW237986   4.244   1.277   5.669  0.9726  1.6845  1.2107
 8843SOL     OW37987   2.351   4.677  13.366 -0.7101 -0.0240 -0.1004
 8843SOL    HW137988   2.307   0.027  13.412 -0.7479 -0.3722  0.4060
 8843SOL    HW237989   2.355   4.716  13.279  1.4133 -0.7662 -0.3450
 8844SOL     OW37990   1.281   0.640   3.064  0.6311 -0.7939  0.0846
 8844SOL    HW137991   1.219   0.711   3.046  0.2379 -0.2621  3.4982
 8844SOL    HW237992   1.232   0.575   3.114 -0.0606 -0.5488 -0.2790
 8845SOL     OW37993   2.361   1.910   5.727  0.2799 -0.1848 -0.3037
 8845SOL    HW137994   2.451   1.942   5.722  0.7313 -1.3208  0.5745
 8845SOL    HW237995   2.324   1.988   5.686 -0.3495 -0.2366  0.1615
 8846SOL     OW37996   0.524   2.768   0.037  0.1535  0.1719 -0.7551
 8846SOL    HW137997   0.532   2.856   0.000  3.9904 -0.1340 -0.6396
 8846SOL    HW237998   0.488   2.791   0.122  0.4901 -0.5116 -0.4260
 8847SOL     OW37999   0.734   0.121   4.843 -0.2550 -0.6846  0.3673
 8847SOL    HW138000   0.660   0.075   4.805 -0.8066 -0.0362  0.6495
 8847SOL    HW238001   0.763   0.060   4.911  0.3230 -0.2780  0.4838
 8848SOL     OW38002   1.264   1.485  10.045 -0.2827 -0.4463 -0.2279
 8848SOL    HW138003   1.258   1.391  10.064 -0.4526 -0.3340  0.2861
 8848SOL    HW238004   1.358   1.498  10.037 -0.5419  2.1071  0.8790
 8849SOL     OW38005   4.552   2.342   4.910 -0.1227  0.4556 -0.2730
 8849SOL    HW138006   4.499   2.264   4.923  2.0908 -0.9999 -0.0051
 8849SOL    HW238007   4.625   2.334   4.972 -0.1531  2.1464  0.0017
 8850SOL     OW38008   1.536   2.723  10.945  0.4122  0.0977  0.0288
 8850SOL    HW138009   1.482   2.801  10.958 -0.1712 -0.4093  0.5899
 8850SOL    HW238010   1.522   2.674  11.026  1.7335  0.7846  0.6827
 8851SOL     OW38011   1.795   1.478   2.359  0.6533  0.4790  0.4349
 8851SOL    HW138012   1.781   1.387   2.385  1.3267  0.1270 -0.4428
 8851SOL    HW238013   1.888   1.480   2.382  1.4412  0.1811 -2.7440
 8852SOL     OW38014   1.825   0.979  16.120  0.1485  0.4025 -0.5378
 8852SOL    HW138015   1.739   0.967  16.080 -0.3994 -0.5590  0.9259
 8852SOL    HW238016   1.812   1.051  16.182  1.6780  1.2925 -1.2477
 8853SOL     OW38017   1.383   4.208   2.571  0.1193 -1.0609  0.0270
 8853SOL    HW138018   1.410   4.280   2.514  1.7939 -2.7185 -1.3002
 8853SOL    HW238019   1.328   4.157   2.511 -1.0336  1.4608 -1.0491
 8854SOL     OW38020   2.890   3.474   1.134  0.0468 -0.2719  0.0265
 8854SOL    HW138021   2.878   3.536   1.062  1.2204  0.8947  0.8303
 8854SOL    HW238022   2.971   3.434   1.102  0.4119  0.9179 -0.5488
 8855SOL     OW38023   3.905   0.266   2.534  0.2607 -0.1490  0.1279
 8855SOL    HW138024   3.832   0.328   2.541 -0.9232 -1.4992 -0.2538
 8855SOL    HW238025   3.956   0.271   2.615  0.3101 -1.3011  0.1702
 8856SOL     OW38026   0.613   2.215   1.255  0.7558  0.0112 -0.1946
 8856SOL    HW138027   0.679   2.155   1.218 -2.0842 -1.5584 -2.7653
 8856SOL    HW238028   0.544   2.152   1.277  1.3298 -1.9243 -3.9516
 8857SOL     OW38029   1.700   3.154   6.338 -0.5169  0.1637  0.4432
 8857SOL    HW138030   1.619   3.108   6.316  0.1378 -1.7781  2.0661
 8857SOL    HW238031   1.756   3.081   6.364 -0.2900  0.1730 -0.0154
 8858SOL     OW38032   3.432   2.743  15.510 -0.1658 -0.7051  0.2487
 8858SOL    HW138033   3.528   2.736  15.509 -0.1331 -0.1515 -0.1716
 8858SOL    HW238034   3.415   2.717  15.601 -1.5295 -0.2737  0.1134
 8859SOL     OW38035   4.658   0.551   6.197  0.0107  0.5243  0.1873
 8859SOL    HW138036   4.563   0.557   6.202  0.0800  1.1495  0.8340
 8859SOL    HW238037   4.672   0.496   6.120 -1.9428 -0.0000  0.2033
 8860SOL     OW38038   2.919   1.728  13.282 -0.4911 -0.4402 -0.3493
 8860SOL    HW138039   2.873   1.681  13.213  0.4508 -0.5666 -0.8891
 8860SOL    HW238040   2.993   1.758  13.229  0.7956  0.4940  1.9742
 8861SOL     OW38041   4.059   0.400   3.871 -0.0418 -0.9106  0.2776
 8861SOL    HW138042   3.988   0.454   3.834 -0.1508 -0.3447  1.2984
 8861SOL    HW238043   4.104   0.356   3.799 -1.2260 -0.9044 -0.4692
 8862SOL     OW38044   0.580   0.333   3.791  0.4172  0.2347 -0.2457
 8862SOL    HW138045   0.529   0.325   3.871  1.8843 -1.1895  0.5590
 8862SOL    HW238046   0.576   0.428   3.779 -0.1479  0.0386 -1.7103
 8863SOL     OW38047   1.574   1.254   3.544  0.2126 -0.2039 -0.0605
 8863SOL    HW138048   1.511   1.298   3.603  0.9350 -0.2730  0.7677
 8863SOL    HW238049   1.645   1.314   3.520 -0.3020  0.3569 -0.1977
 8864SOL     OW38050   0.827   2.021   8.953 -0.4166  0.2697  0.4610
 8864SOL    HW138051   0.796   1.963   9.023 -0.9876  3.4455  2.8176
 8864SOL    HW238052   0.813   2.102   9.001  2.7484  1.3816 -0.4764
 8865SOL     OW38053   2.124   3.534   1.000  0.2424  0.3544 -0.0555
 8865SOL    HW138054   2.119   3.567   0.911 -2.9906  0.5506  0.2154
 8865SOL    HW238055   2.044   3.571   1.035  0.8451  0.8919  0.7517
 8866SOL     OW38056   3.551   3.524   8.524 -0.1076 -0.3428 -0.5245
 8866SOL    HW138057   3.499   3.598   8.492  0.7807  1.1909  1.5508
 8866SOL    HW238058   3.539   3.536   8.619  3.0789 -1.6006  0.0280
 8867SOL     OW38059   3.426   3.067   6.131 -0.0563  0.0558  0.0067
 8867SOL    HW138060   3.331   3.062   6.141  0.0786 -1.9973  0.2451
 8867SOL    HW238061   3.452   3.117   6.209 -0.2491 -0.3620  0.3371
 8868SOL     OW38062   3.559   3.371   2.331 -0.7971  0.3797  0.3198
 8868SOL    HW138063   3.486   3.422   2.368 -0.4550  0.4392  0.9157
 8868SOL    HW238064   3.522   3.283   2.340  0.0030  0.0421  0.3043
 8869SOL     OW38065   3.216   3.153  11.748 -0.0890  0.1565  0.6177
 8869SOL    HW138066   3.290   3.192  11.794  2.0397 -3.5367  0.3533
 8869SOL    HW238067   3.156   3.152  11.822  0.1185  0.5869  0.7868
 8870SOL     OW38068   3.676   2.256   5.046  0.0164  0.0036 -0.0712
 8870SOL    HW138069   3.733   2.267   5.122  1.0793 -0.8533 -0.7395
 8870SOL    HW238070   3.611   2.196   5.083 -0.5758  1.3462  1.0878
 8871SOL     OW38071   2.153   3.664   2.041 -0.0086  0.5712  0.2426
 8871SOL    HW138072   2.193   3.675   1.955  1.6150  1.4718  1.1296
 8871SOL    HW238073   2.167   3.570   2.055  0.1997  0.1024 -3.0141
 8872SOL     OW38074   0.825   0.005   8.838 -0.2427  0.3535 -0.1755
 8872SOL    HW138075   0.732   4.703   8.833 -0.0827 -0.1585 -0.7321
 8872SOL    HW238076   0.821   0.084   8.785  1.7547  1.6364  1.5913
 8873SOL     OW38077   2.222   2.547   7.463 -0.7355  0.3022  0.4704
 8873SOL    HW138078   2.287   2.518   7.526  1.6544  1.5592 -1.3946
 8873SOL    HW238079   2.187   2.620   7.513 -0.2748  1.2744 -0.6061
 8874SOL     OW38080   3.543   0.543   5.212 -0.3516  0.1521 -0.3549
 8874SOL    HW138081   3.515   0.476   5.150 -2.3160  1.7335 -1.1622
 8874SOL    HW238082   3.555   0.622   5.160 -0.6725 -0.0817 -0.7807
 8875SOL     OW38083   0.895   1.547   2.039 -0.1857 -0.1362  0.0576
 8875SOL    HW138084   0.810   1.586   2.061  0.3772  1.3665 -0.4084
 8875SOL    HW238085   0.956   1.596   2.094  0.3990 -2.1800  1.2026
 8876SOL     OW38086   4.171   1.075   6.715 -0.0316  0.3316 -0.1553
 8876SOL    HW138087   4.265   1.075   6.735  0.2132  0.3886 -1.2977
 8876SOL    HW238088   4.179   1.087   6.620 -2.1727  0.1157 -0.3625
 8877SOL     OW38089   0.425   4.594  14.645 -0.8906 -0.4690  0.0869
 8877SOL    HW138090   0.515   4.563  14.642 -0.3750  0.9104  1.5088
 8877SOL    HW238091   0.390   4.539  14.715 -3.3061  1.6806  0.6052
 8878SOL     OW38092   0.788   0.717   8.672 -0.4162 -0.5880 -0.5223
 8878SOL    HW138093   0.764   0.810   8.676  0.0126 -0.5616  1.3643
 8878SOL    HW238094   0.713   0.671   8.710  1.0528  0.7757  3.9911
 8879SOL     OW38095   2.952   2.356  11.265  0.1709 -0.2714 -0.3466
 8879SOL    HW138096   2.925   2.264  11.269  0.4555 -0.3875 -1.0550
 8879SOL    HW238097   2.955   2.379  11.357  0.7305 -1.3389 -0.0910
 8880SOL     OW38098   0.264   4.074  10.065 -0.4661  0.1337  0.2854
 8880SOL    HW138099   0.174   4.052  10.042 -0.0340 -1.0640 -0.2775
 8880SOL    HW238100   0.266   4.169  10.053  1.0506  0.0541 -0.0621
 8881SOL     OW38101   2.149   4.690   4.157 -0.6372 -0.1374  0.3614
 8881SOL    HW138102   2.085   4.704   4.226  0.2622  0.5424  1.0563
 8881SOL    HW238103   2.195   4.623   4.208  0.9122 -1.1970 -2.3995
 8882SOL     OW38104   2.281   0.751  11.311 -0.2027  0.2495  0.2982
 8882SOL    HW138105   2.361   0.719  11.351  0.4833  0.7234 -0.6980
 8882SOL    HW238106   2.279   0.834  11.358 -2.4893  0.2450  0.2254
 8883SOL     OW38107   1.769   2.567  10.917 -0.5416  0.5516 -0.0446
 8883SOL    HW138108   1.756   2.641  10.857  0.1351  0.5555 -0.1883
 8883SOL    HW238109   1.687   2.543  10.959  1.2777 -0.3564  3.0081
 8884SOL     OW38110   4.395   1.134   8.381  0.2195  0.2088 -0.4902
 8884SOL    HW138111   4.490   1.144   8.372  0.4274 -0.9491  0.4226
 8884SOL    HW238112   4.366   1.204   8.322 -0.9065 -0.9611 -1.3130
 8885SOL     OW38113   3.350   1.891   5.383  0.4701  0.2150  0.5352
 8885SOL    HW138114   3.413   1.825   5.412 -0.0060 -0.1554  0.7232
 8885SOL    HW238115   3.289   1.829   5.344 -2.0668  0.7419  3.7720
 8886SOL     OW38116   1.015   0.820   1.846  0.3673 -0.6453  1.1262
 8886SOL    HW138117   0.944   0.783   1.795  1.1382 -0.1158 -0.3176
 8886SOL    HW238118   0.980   0.882   1.911  2.9606  1.3040  0.6883
 8887SOL     OW38119   0.860   2.646  17.480  0.1214 -0.1157  0.2771
 8887SOL    HW138120   0.892   2.573  17.533  0.4440 -2.0391 -2.5200
 8887SOL    HW238121   0.932   2.652  17.417 -1.9783 -0.7032 -2.2168
 8888SOL     OW38122   2.541   0.783   0.673  0.1971  0.2610 -0.6731
 8888SOL    HW138123   2.499   0.866   0.652 -0.9921 -0.3267 -0.5958
 8888SOL    HW238124   2.628   0.813   0.702  1.2375 -0.7997 -2.6903
 8889SOL     OW38125   3.043   3.859   8.058 -0.0393  0.1168  0.4482
 8889SOL    HW138126   3.119   3.821   8.015 -1.4432  0.3519 -2.2199
 8889SOL    HW238127   2.991   3.900   7.988 -0.3756 -0.1448  0.5419
 8890SOL     OW38128   4.105   2.297   9.359  0.0360  0.3437 -0.8794
 8890SOL    HW138129   4.026   2.265   9.401  2.4678 -1.1423  2.5299
 8890SOL    HW238130   4.135   2.213   9.323  1.1162 -0.1378  1.1577
 8891SOL     OW38131   4.075   2.953   4.518  0.4359  0.5157 -0.1637
 8891SOL    HW138132   4.026   3.032   4.541  0.8181  0.9520 -0.8383
 8891SOL    HW238133   4.162   2.988   4.503  1.2010 -1.4334 -0.2315
 8892SOL     OW38134   0.552   3.732  12.620 -0.1113 -0.3998  0.1884
 8892SOL    HW138135   0.528   3.654  12.670  0.2393 -0.7536 -0.1929
 8892SOL    HW238136   0.645   3.733  12.643  0.5057 -1.9380 -2.2608
 8893SOL     OW38137   3.385   4.466  10.208 -0.1122  0.1057  0.1047
 8893SOL    HW138138   3.461   4.441  10.262 -1.6847 -3.7246  0.5605
 8893SOL    HW238139   3.414   4.426  10.126 -1.0327 -0.4423  0.0532
 8894SOL     OW38140   4.651   4.588   6.375 -0.4369  0.7596 -0.4325
 8894SOL    HW138141   4.633   4.590   6.469 -1.8012 -1.1390 -0.6511
 8894SOL    HW238142   4.633   4.678   6.350 -2.2079  1.3952  3.2388
 8895SOL     OW38143   4.411   3.377   8.845 -0.4682  0.0269 -0.0309
 8895SOL    HW138144   4.457   3.415   8.770  0.1373  0.2980  0.4797
 8895SOL    HW238145   4.376   3.456   8.885  1.6534  0.1611  1.5159
 8896SOL     OW38146   1.946   3.438   8.280  0.5671  0.1662  0.4413
 8896SOL    HW138147   2.029   3.437   8.232 -0.0048 -0.7803 -0.5208
 8896SOL    HW238148   1.894   3.365   8.247  0.1068  1.1505 -1.0238
 8897SOL     OW38149   0.361   1.260   3.318  0.3479  0.1336  0.2328
 8897SOL    HW138150   0.347   1.351   3.290 -3.2751 -0.1954  1.0853
 8897SOL    HW238151   0.361   1.271   3.413  1.8570  3.3966 -0.1257
 8898SOL     OW38152   3.306   0.880   2.226 -0.2706  0.2909  0.3380
 8898SOL    HW138153   3.389   0.870   2.273 -0.5572 -0.7518  0.6208
 8898SOL    HW238154   3.295   0.787   2.207  0.5814  0.6418 -1.8867
 8899SOL     OW38155   0.218   4.342   8.552  0.2440 -0.0699  0.1192
 8899SOL    HW138156   0.223   4.413   8.615  1.1255 -1.4791  1.6436
 8899SOL    HW238157   0.126   4.329   8.530 -0.0824  2.1940  0.2372
 8900SOL     OW38158   1.740   0.049  15.372  0.4755  0.3944  0.8545
 8900SOL    HW138159   1.754   0.140  15.398  2.1561  0.6886 -1.0187
 8900SOL    HW238160   1.661   0.056  15.318  0.4215  3.5792  1.3689
 8901SOL     OW38161   0.177   3.006   4.405 -0.3787  0.2170 -0.7917
 8901SOL    HW138162   0.222   3.014   4.321  1.0224 -0.3599 -0.0896
 8901SOL    HW238163   0.248   3.043   4.457 -1.3442 -0.8689  1.3045
 8902SOL     OW38164   3.422   0.869   5.152  0.5175  0.5219  0.0631
 8902SOL    HW138165   3.371   0.937   5.107 -0.3682 -0.0392  0.2271
 8902SOL    HW238166   3.409   0.797   5.090  1.2519 -1.4494  2.1906
 8903SOL     OW38167   3.339   3.154   5.216  0.4489  0.1489  0.0279
 8903SOL    HW138168   3.361   3.146   5.309  1.6380  1.6854 -0.1231
 8903SOL    HW238169   3.418   3.191   5.176  0.5567  0.0177  0.1181
 8904SOL     OW38170   0.814   2.561   6.146 -0.2733 -0.6106 -0.3646
 8904SOL    HW138171   0.774   2.490   6.196 -2.7391  0.9667 -0.1128
 8904SOL    HW238172   0.892   2.516   6.113  0.4762 -0.1796  0.8142
 8905SOL     OW38173   0.931   2.868  12.798  0.2128  0.1263 -0.0944
 8905SOL    HW138174   0.977   2.841  12.878  2.0525  0.7337 -0.9278
 8905SOL    HW238175   0.931   2.786  12.750  2.1306 -1.0952  1.9749
 8906SOL     OW38176   4.666   3.001   4.009 -0.2987 -0.0952  0.8607
 8906SOL    HW138177   4.639   3.018   4.100 -1.7148 -1.2059  0.6499
 8906SOL    HW238178   4.645   3.076   3.954  2.4872 -1.1040 -1.5727
 8907SOL     OW38179   3.903   1.982   7.547  0.7514  0.0147 -0.6345
 8907SOL    HW138180   3.968   1.967   7.478  1.0717  0.9991 -0.5488
 8907SOL    HW238181   3.966   1.994   7.619 -1.5498 -0.3497  1.4178
 8908SOL     OW38182   2.424   1.787  12.591 -0.0954 -0.1727  0.3112
 8908SOL    HW138183   2.499   1.742  12.551  0.2810  1.3520 -0.7213
 8908SOL    HW238184   2.455   1.832  12.669 -0.6660  0.4496  0.1738
 8909SOL     OW38185   4.482   1.131   2.778 -0.7232  0.4179  0.6898
 8909SOL    HW138186   4.567   1.118   2.735  0.2398  1.4921  2.2569
 8909SOL    HW238187   4.497   1.192   2.851  1.5741 -1.5048  1.8086
 8910SOL     OW38188   2.514   1.780   5.278  0.3227 -0.9617  0.1752
 8910SOL    HW138189   2.495   1.747   5.365  0.4488 -1.1863  0.1169
 8910SOL    HW238190   2.478   1.711   5.223 -1.3499 -0.8928  1.2059
 8911SOL     OW38191   2.759   2.121   4.514 -0.0407  0.5184  0.9255
 8911SOL    HW138192   2.846   2.113   4.474 -1.1107 -2.4345 -0.7558
 8911SOL    HW238193   2.772   2.187   4.582 -1.0213  0.5856  1.0519
 8912SOL     OW38194   3.424   3.426   4.201  0.4494 -0.0151  0.0579
 8912SOL    HW138195   3.382   3.444   4.117 -1.4294  0.5337  1.0929
 8912SOL    HW238196   3.354   3.455   4.259 -1.3292 -1.6517 -1.2406
 8913SOL     OW38197   3.980   3.050  15.764 -0.0490 -0.3939 -0.4634
 8913SOL    HW138198   3.904   3.007  15.802  0.9214 -2.0120 -0.3632
 8913SOL    HW238199   3.984   3.135  15.807  1.4261  0.5131 -2.3680
 8914SOL     OW38200   2.709   1.682   0.042  0.3943  0.1066  0.6408
 8914SOL    HW138201   2.712   1.711  17.640  1.7943 -1.5979  0.1228
 8914SOL    HW238202   2.634   1.622   0.041  0.4986 -0.0090  0.0712
 8915SOL     OW38203   3.542   4.426   0.138  0.6948 -0.0589 -0.2032
 8915SOL    HW138204   3.589   4.501   0.175 -0.2641  0.3427  0.2116
 8915SOL    HW238205   3.454   4.464   0.149 -0.1800 -1.8678 -0.9006
 8916SOL     OW38206   3.105   0.710   4.348 -0.4164 -0.4687  0.0181
 8916SOL    HW138207   3.193   0.672   4.340 -0.4416 -0.5669  0.2051
 8916SOL    HW238208   3.062   0.625   4.339  0.9709 -1.4050  2.1753
 8917SOL     OW38209   0.097   0.785   2.005  0.1046 -0.0705 -0.3027
 8917SOL    HW138210   0.016   0.747   1.971  0.7098 -1.5607 -0.0775
 8917SOL    HW238211   0.157   0.756   1.936  1.4926  0.7399  0.5569
 8918SOL     OW38212   1.990   0.909  13.996 -0.0341 -1.2035 -0.0323
 8918SOL    HW138213   1.991   0.888  13.903  0.6400  0.3959 -0.3888
 8918SOL    HW238214   2.035   0.827  14.020  1.5199 -0.8412 -1.6907
 8919SOL     OW38215   4.007   3.172   2.208  0.4502 -0.2089 -0.1195
 8919SOL    HW138216   4.044   3.160   2.295  1.7647 -1.4150 -0.8486
 8919SOL    HW238217   3.931   3.113   2.212  0.7176 -0.6127 -0.9863
 8920SOL     OW38218   3.502   3.944   6.095 -0.1465  0.0686  0.5071
 8920SOL    HW138219   3.417   3.928   6.137  0.2611  0.8124  1.6260
 8920SOL    HW238220   3.484   3.919   6.005  1.3171  0.0152  0.2234
 8921SOL     OW38221   3.558   1.744   5.482 -0.0791  0.6069 -0.1317
 8921SOL    HW138222   3.603   1.786   5.556  0.1263 -2.0271  1.2149
 8921SOL    HW238223   3.536   1.659   5.519 -0.1554  0.8955  0.4978
 8922SOL     OW38224   1.228   1.747  15.472 -0.0186  0.3855  0.0870
 8922SOL    HW138225   1.195   1.816  15.530 -0.0647  0.8271 -0.4709
 8922SOL    HW238226   1.238   1.676  15.536 -0.3522  0.0684 -0.2193
 8923SOL     OW38227   0.572   3.346   2.224  0.6884 -0.2410 -0.4879
 8923SOL    HW138228   0.610   3.394   2.298 -0.7504 -0.8495  0.6287
 8923SOL    HW238229   0.525   3.275   2.267 -0.2578 -0.0940 -1.2781
 8924SOL     OW38230   3.125   1.340   2.514  0.3116 -0.3790 -0.4378
 8924SOL    HW138231   3.034   1.334   2.486 -0.0167  2.3705  0.0288
 8924SOL    HW238232   3.157   1.259   2.474 -0.3949 -0.1434 -1.4684
 8925SOL     OW38233   4.295   1.752  13.076  0.1194  0.0056  0.6454
 8925SOL    HW138234   4.279   1.785  12.988  1.2567 -1.8409 -0.2721
 8925SOL    HW238235   4.226   1.791  13.129 -2.7002  0.7826 -3.6261
 8926SOL     OW38236   4.169   3.068  16.560  0.4638  0.5227  0.0457
 8926SOL    HW138237   4.189   3.048  16.468 -0.6649  1.9502 -0.4983
 8926SOL    HW238238   4.159   3.163  16.554 -1.0099  0.3627 -0.0454
 8927SOL     OW38239   0.446   4.566   2.832 -0.0442  0.1116 -0.0646
 8927SOL    HW138240   0.491   4.545   2.913 -1.2046 -1.6996  0.1187
 8927SOL    HW238241   0.524   4.584   2.780  0.3426  0.3461  0.5986
 8928SOL     OW38242   1.511   2.965   5.973  1.0160 -0.1496  0.7147
 8928SOL    HW138243   1.505   2.966   5.877  0.0735 -0.3979  0.7782
 8928SOL    HW238244   1.432   2.920   6.002  0.6727 -0.1193 -0.1722
 8929SOL     OW38245   1.512   2.585   9.011  0.1145 -0.0675  0.3414
 8929SOL    HW138246   1.516   2.637   8.930 -3.1859  2.1699  1.6128
 8929SOL    HW238247   1.592   2.533   9.011 -0.0109 -0.2710 -0.7834
 8930SOL     OW38248   4.090   3.386   7.404  0.4699  0.0997  0.0660
 8930SOL    HW138249   4.169   3.438   7.422  0.9616 -1.0544  1.1669
 8930SOL    HW238250   4.136   3.308   7.375  1.0227  0.6432 -0.5434
 8931SOL     OW38251   2.911   2.038  14.584 -0.1403  0.3612  0.1207
 8931SOL    HW138252   2.857   2.107  14.621  1.0469  0.1629  2.2080
 8931SOL    HW238253   2.861   2.014  14.505 -1.7210 -1.0000  1.5367
 8932SOL     OW38254   2.605   1.946  16.592 -0.3865  0.4484  0.1075
 8932SOL    HW138255   2.559   2.002  16.655 -0.3991  1.5920 -0.9355
 8932SOL    HW238256   2.693   1.930  16.625 -0.5061 -0.8574 -0.1847
 8933SOL     OW38257   2.324   3.554   5.689  0.3396  0.0627  0.4066
 8933SOL    HW138258   2.348   3.482   5.631 -3.7212 -0.5795 -0.4879
 8933SOL    HW238259   2.405   3.598   5.713  0.7801 -0.9001  0.6897
 8934SOL     OW38260   1.937   4.056   3.783  0.3502  0.2251  0.1588
 8934SOL    HW138261   1.874   4.045   3.712 -0.6224 -0.4596  1.1187
 8934SOL    HW238262   1.998   3.990   3.750  1.7950  1.2134  0.8461
 8935SOL     OW38263   0.382   4.255   7.467 -0.0450  0.1778 -0.3142
 8935SOL    HW138264   0.375   4.187   7.399 -0.2688 -0.9738  0.8576
 8935SOL    HW238265   0.353   4.205   7.543  1.1026  0.5312  0.3565
 8936SOL     OW38266   2.221   2.203   5.307 -0.0682 -0.2791 -0.4157
 8936SOL    HW138267   2.307   2.228   5.341 -0.3250  0.9393 -0.6639
 8936SOL    HW238268   2.244   2.130   5.249  1.6580  1.9242 -2.5031
 8937SOL     OW38269   4.401   0.688   3.700 -0.1943 -0.3584 -0.0424
 8937SOL    HW138270   4.423   0.662   3.789  0.4398  1.4134  0.3248
 8937SOL    HW238271   4.348   0.766   3.715 -1.9486 -1.4612 -0.5188
 8938SOL     OW38272   1.759   3.070   2.826 -0.1309  0.5104 -0.7440
 8938SOL    HW138273   1.772   3.106   2.738 -0.3980 -0.0428 -1.0071
 8938SOL    HW238274   1.665   3.059   2.833 -0.3801  1.1928 -3.0757
 8939SOL     OW38275   0.922   3.728   8.523  0.3820  0.0926 -0.2955
 8939SOL    HW138276   1.016   3.728   8.503  0.8142 -1.2471  1.7517
 8939SOL    HW238277   0.912   3.811   8.570  1.3518  0.4055 -0.6244
 8940SOL     OW38278   2.915   0.992  13.495 -0.0474  0.1574 -0.6628
 8940SOL    HW138279   2.855   1.041  13.438 -1.1127 -2.0526 -1.4329
 8940SOL    HW238280   2.900   0.900  13.473  0.7902 -0.0919 -0.2154
 8941SOL     OW38281   3.327   3.189   3.362  0.3673  0.2551  0.4897
 8941SOL    HW138282   3.269   3.185   3.438 -2.4505  0.9694 -1.6152
 8941SOL    HW238283   3.307   3.277   3.332 -2.6053 -0.3896  0.5512
 8942SOL     OW38284   4.504   1.220   7.216  0.2187 -0.7466  0.3546
 8942SOL    HW138285   4.459   1.264   7.288  0.4282  0.3219 -0.1672
 8942SOL    HW238286   4.591   1.261   7.212 -0.6400  0.7957 -2.8060
 8943SOL     OW38287   2.410   3.848   5.348 -0.4043  0.0863  0.1979
 8943SOL    HW138288   2.469   3.874   5.277 -0.2502  0.4034  0.4419
 8943SOL    HW238289   2.450   3.894   5.422 -2.0044  3.0758 -0.7825
 8944SOL     OW38290   1.236   1.651   7.689  0.7316  0.4239  0.3572
 8944SOL    HW138291   1.199   1.628   7.604  1.2464  3.0834 -0.5929
 8944SOL    HW238292   1.329   1.631   7.681  0.4295 -0.1358 -1.8280
 8945SOL     OW38293   3.616   2.727   6.272 -0.2197  0.0939  0.2991
 8945SOL    HW138294   3.537   2.698   6.227 -1.4917  1.7398  1.4606
 8945SOL    HW238295   3.672   2.736   6.195 -1.0281  1.5687 -0.1034
 8946SOL     OW38296   2.149   1.009   6.796  0.1433  0.2040  0.0122
 8946SOL    HW138297   2.064   1.043   6.823 -0.9096 -1.8484 -0.7574
 8946SOL    HW238298   2.150   0.931   6.851 -1.4060  2.2194  2.9261
 8947SOL     OW38299   0.551   0.244   7.316 -0.0300  0.1111  0.1274
 8947SOL    HW138300   0.600   0.229   7.397  1.6516  0.6780 -0.7806
 8947SOL    HW238301   0.481   0.180   7.328 -0.3183 -0.0697 -2.4036
 8948SOL     OW38302   2.633   3.199   7.477 -0.1624 -0.0263 -0.4592
 8948SOL    HW138303   2.630   3.204   7.573  0.8961 -0.9024 -0.3730
 8948SOL    HW238304   2.606   3.107   7.470  0.4932 -0.1629 -1.1918
 8949SOL     OW38305   1.060   1.134   3.318 -0.3830 -0.0718  0.0997
 8949SOL    HW138306   1.097   1.209   3.363 -0.7314 -0.9493  1.8648
 8949SOL    HW238307   1.046   1.165   3.229  0.6493 -0.3445 -0.1600
 8950SOL     OW38308   3.240   3.623   7.200  0.0242  0.1793 -0.1874
 8950SOL    HW138309   3.308   3.556   7.207  1.3568  1.6291  0.7421
 8950SOL    HW238310   3.167   3.571   7.233  1.2548 -1.1883  0.3898
 8951SOL     OW38311   1.883   3.603  13.487 -0.1833 -0.0475 -0.3859
 8951SOL    HW138312   1.827   3.529  13.511  1.7237 -1.6853 -1.0436
 8951SOL    HW238313   1.822   3.676  13.501 -2.3858 -1.6714 -1.5199
 8952SOL     OW38314   0.032   0.976   5.549  0.0705  0.0353  0.2105
 8952SOL    HW138315   0.109   0.922   5.567  2.3637  3.0588 -0.5156
 8952SOL    HW238316   4.693   0.937   5.612 -2.4047  0.8443 -1.6523
 8953SOL     OW38317   2.975   4.389   0.200  0.3318  0.3861 -0.6490
 8953SOL    HW138318   3.034   4.418   0.269  0.6272 -0.4059 -0.5750
 8953SOL    HW238319   2.923   4.316   0.231  0.6768  0.1794 -0.5602
 8954SOL     OW38320   1.717   3.790   6.596  0.1696 -0.1192  0.0088
 8954SOL    HW138321   1.673   3.730   6.536  0.3253  0.8284 -1.0517
 8954SOL    HW238322   1.710   3.756   6.686 -2.7433 -1.7310 -0.8190
 8955SOL     OW38323   2.675   3.917  10.476  0.4471 -0.2255  1.0209
 8955SOL    HW138324   2.649   3.855  10.545  1.3551 -0.8667  0.7968
 8955SOL    HW238325   2.752   3.861  10.463  1.4362  0.7966  2.4219
 8956SOL     OW38326   1.098   1.436  10.400 -0.2894  0.5912 -0.4993
 8956SOL    HW138327   1.088   1.376  10.325  0.7400 -0.1394 -0.0538
 8956SOL    HW238328   1.102   1.372  10.471 -0.6119  0.5457 -0.5232
 8957SOL     OW38329   0.113   1.076  11.742  0.3484  0.1975 -0.2369
 8957SOL    HW138330   0.175   1.011  11.774  1.7164  0.8668 -1.5382
 8957SOL    HW238331   0.032   1.027  11.753 -0.4068  1.4263 -0.2981
 8958SOL     OW38332   2.669   2.982   4.934  0.0353 -0.1673 -0.0490
 8958SOL    HW138333   2.662   3.059   4.990 -3.5792 -0.5029 -0.0435
 8958SOL    HW238334   2.704   3.023   4.855 -2.1648 -1.2561 -1.5932
 8959SOL     OW38335   1.264   2.560   7.434  0.3567 -0.0404  0.4327
 8959SOL    HW138336   1.218   2.643   7.421  1.2200  0.5180  0.9434
 8959SOL    HW238337   1.349   2.571   7.392 -0.6574  1.9704 -1.1053
 8960SOL     OW38338   2.950   2.267  13.375 -0.3399 -0.2073 -0.2027
 8960SOL    HW138339   2.888   2.200  13.405  0.2386 -1.5427 -1.9800
 8960SOL    HW238340   3.007   2.268  13.451 -0.6180  1.8954 -0.0227
 8961SOL     OW38341   1.104   1.793  11.119  0.1686 -0.1279  0.5805
 8961SOL    HW138342   1.169   1.758  11.059  0.9568 -1.5094  2.2442
 8961SOL    HW238343   1.029   1.741  11.090  1.0786 -0.1305 -1.7513
 8962SOL     OW38344   0.482   2.435   3.520 -0.7911 -0.1789 -0.4306
 8962SOL    HW138345   0.499   2.353   3.566 -1.2196  0.7013  1.2934
 8962SOL    HW238346   0.398   2.414   3.479 -1.8829  2.1494  0.5661
 8963SOL     OW38347   1.911   3.394   7.271  0.2335 -0.0769 -0.0102
 8963SOL    HW138348   1.864   3.476   7.258  0.3298 -0.1970 -1.0778
 8963SOL    HW238349   1.864   3.336   7.212 -2.3518  2.6990 -0.6758
 8964SOL     OW38350   2.162   1.172  11.620  0.1160 -0.7207  0.3753
 8964SOL    HW138351   2.149   1.179  11.715 -1.9571  3.6032 -0.2374
 8964SOL    HW238352   2.241   1.225  11.610  0.3835 -1.4962 -1.5162
 8965SOL     OW38353   2.735   1.749   5.651 -0.3422 -0.0544 -0.6605
 8965SOL    HW138354   2.740   1.839   5.620  0.5273  0.5180  1.1317
 8965SOL    HW238355   2.699   1.767   5.738 -0.6753 -0.7594 -0.6550
 8966SOL     OW38356   1.282   1.469   5.853 -0.2300  0.2241 -0.0961
 8966SOL    HW138357   1.291   1.561   5.828  0.9685  0.0717 -0.2140
 8966SOL    HW238358   1.307   1.478   5.945  0.5501 -0.2244 -0.2656
 8967SOL     OW38359   2.392   0.400   4.360 -0.0855 -0.1145 -0.1681
 8967SOL    HW138360   2.391   0.322   4.304 -0.1495 -0.3359  0.1466
 8967SOL    HW238361   2.322   0.386   4.423  0.1050  2.2563  0.5621
 8968SOL     OW38362   3.271   0.640   2.889  0.1950  0.1478  0.2717
 8968SOL    HW138363   3.333   0.703   2.927  0.2350  0.3291 -0.0876
 8968SOL    HW238364   3.277   0.566   2.948  3.1275  0.7411  0.7076
 8969SOL     OW38365   3.029   1.791   4.818 -0.4071  0.1655 -0.4664
 8969SOL    HW138366   3.051   1.766   4.729 -0.9467  2.0431 -1.1225
 8969SOL    HW238367   2.934   1.787   4.802 -0.8555  0.8893  1.9499
 8970SOL     OW38368   4.124   0.225  14.735 -0.2794 -0.3008  0.4019
 8970SOL    HW138369   4.206   0.178  14.726  0.0917  0.1129  1.6151
 8970SOL    HW238370   4.118   0.214  14.830  0.1700 -0.4935  0.4063
 8971SOL     OW38371   0.750   1.508   2.762 -0.8433  0.4717 -0.3086
 8971SOL    HW138372   0.674   1.470   2.805  0.5347 -0.6225  1.1846
 8971SOL    HW238373   0.712   1.568   2.698 -3.3499 -1.2685 -0.4342
 8972SOL     OW38374   4.238   3.935  13.763  0.5749  0.0864  0.0202
 8972SOL    HW138375   4.221   3.997  13.833  2.5462 -0.4074  0.9258
 8972SOL    HW238376   4.334   3.936  13.759  0.5862 -2.3031 -0.2325
 8973SOL     OW38377   0.229   1.547   4.190 -0.2958 -0.0700 -0.4551
 8973SOL    HW138378   0.259   1.603   4.262  0.6529  0.1798 -1.0392
 8973SOL    HW238379   0.138   1.563   4.168 -0.6796 -0.0577  1.1413
 8974SOL     OW38380   2.442   1.636   6.665  0.6314  0.4235  0.6061
 8974SOL    HW138381   2.530   1.635   6.626 -0.7787 -0.7862 -2.5217
 8974SOL    HW238382   2.391   1.576   6.610  2.9314 -2.0924  1.2379
 8975SOL     OW38383   2.728   2.859   3.139 -0.1267  0.3943 -0.5371
 8975SOL    HW138384   2.760   2.819   3.058 -1.5118  0.4346 -1.0932
 8975SOL    HW238385   2.808   2.894   3.180  0.6474 -1.0934 -0.7959
 8976SOL     OW38386   2.583   3.197   8.192 -0.2739  0.2440 -0.8276
 8976SOL    HW138387   2.501   3.170   8.150 -1.3900 -0.5947  1.8994
 8976SOL    HW238388   2.553   3.234   8.275  0.1858  1.6948 -1.2960
 8977SOL     OW38389   2.953   2.967  14.829 -0.1506  0.0437  0.7842
 8977SOL    HW138390   2.894   3.043  14.827 -1.1128 -0.6858  1.1245
 8977SOL    HW238391   2.894   2.897  14.799 -1.9763  2.2583 -0.8674
 8978SOL     OW38392   3.368   2.659   8.337  0.0479  0.3072 -0.3515
 8978SOL    HW138393   3.394   2.574   8.301  1.1375  0.9705 -1.1130
 8978SOL    HW238394   3.338   2.715   8.265  1.0332  1.5938  0.2372
 8979SOL     OW38395   1.211   1.463   0.226  0.1432 -0.4500 -0.0958
 8979SOL    HW138396   1.272   1.406   0.179 -0.8473 -0.0156 -1.8907
 8979SOL    HW238397   1.259   1.545   0.226  1.1236 -1.0180 -1.1550
 8980SOL     OW38398   0.529   2.035   4.954  0.0333 -0.3824 -0.5183
 8980SOL    HW138399   0.537   2.128   4.934  1.6659 -0.2070  0.9414
 8980SOL    HW238400   0.455   2.018   4.896  0.6483  2.3402 -2.0745
 8981SOL     OW38401   1.606   3.063   4.107 -0.3060 -0.3568  0.0124
 8981SOL    HW138402   1.593   3.142   4.158 -0.7323  0.5627 -1.5213
 8981SOL    HW238403   1.607   3.097   4.017  0.3251 -0.2407  0.0618
 8982SOL     OW38404   3.550   3.580   1.780 -0.0418  0.7296  0.2455
 8982SOL    HW138405   3.598   3.630   1.714 -0.4495 -0.2721 -0.8014
 8982SOL    HW238406   3.477   3.640   1.793  0.8597  1.9377 -0.2640
 8983SOL     OW38407   3.065   3.252   1.510  0.7054  0.4497 -0.1158
 8983SOL    HW138408   2.988   3.245   1.454  0.3665  1.0205  0.2784
 8983SOL    HW238409   3.091   3.160   1.505  0.5037  0.4106 -0.4494
 8984SOL     OW38410   1.761   2.244  16.907 -0.2404  0.0247  0.2691
 8984SOL    HW138411   1.854   2.255  16.887 -0.7696  0.2209 -2.0491
 8984SOL    HW238412   1.738   2.230  16.815  0.1859 -0.4757  0.2316
 8985SOL     OW38413   0.120   1.182  10.755 -0.5879 -0.3715 -0.5571
 8985SOL    HW138414   0.106   1.273  10.783  1.1443  0.1982 -1.5258
 8985SOL    HW238415   0.152   1.145  10.837 -2.7376 -0.8273  0.0787
 8986SOL     OW38416   2.958   1.714   6.549  0.0212 -0.4171  0.0150
 8986SOL    HW138417   2.923   1.779   6.488  0.6227 -1.1763 -1.1423
 8986SOL    HW238418   2.925   1.757   6.628 -0.5747 -0.4581 -0.2157
 8987SOL     OW38419   2.235   3.937   1.710  0.2540 -0.0673 -0.3487
 8987SOL    HW138420   2.284   3.969   1.635  0.3734 -2.3571 -1.2333
 8987SOL    HW238421   2.253   4.002   1.778 -0.5660  0.2834 -0.4667
 8988SOL     OW38422   2.919   2.668  12.641  0.3364  0.7447  0.2035
 8988SOL    HW138423   2.859   2.627  12.704 -0.5478  0.3067 -0.9227
 8988SOL    HW238424   2.897   2.615  12.564 -2.1054  1.9930  0.0294
 8989SOL     OW38425   1.988   4.320   3.530  0.0483  0.0298 -0.0352
 8989SOL    HW138426   1.899   4.285   3.532  0.5968 -1.3466  0.4170
 8989SOL    HW238427   1.994   4.364   3.615 -0.1062  2.3485 -1.2109
 8990SOL     OW38428   4.387   4.484  11.686 -0.1154 -0.4433 -0.2991
 8990SOL    HW138429   4.382   4.410  11.746  0.6201 -0.7311 -0.5922
 8990SOL    HW238430   4.431   4.435  11.617  1.4203  0.6659 -0.1098
 8991SOL     OW38431   2.570   4.508   3.433 -0.0372  0.2073 -0.2060
 8991SOL    HW138432   2.510   4.569   3.476  0.1701  1.0095 -1.0716
 8991SOL    HW238433   2.622   4.485   3.510  0.6750  1.6179 -0.2684
 8992SOL     OW38434   4.184   2.534   7.822  0.3050 -0.5897 -0.1072
 8992SOL    HW138435   4.132   2.614   7.826 -0.9693 -1.5390  2.3973
 8992SOL    HW238436   4.261   2.563   7.871 -0.2944 -2.0889  1.7185
 8993SOL     OW38437   0.727   2.604   9.493  0.6076  0.3374  0.2203
 8993SOL    HW138438   0.742   2.639   9.405  0.0211  0.0972  0.0228
 8993SOL    HW238439   0.694   2.675   9.546  0.2657  0.4136 -0.0944
 8994SOL     OW38440   4.180   4.006   8.383  0.6336  0.1024 -0.1632
 8994SOL    HW138441   4.174   4.014   8.288 -3.5335  1.0979  0.1692
 8994SOL    HW238442   4.122   4.080   8.403 -0.0644 -0.8390  1.2998
 8995SOL     OW38443   2.965   1.942   6.093 -0.3392  0.1954 -0.1181
 8995SOL    HW138444   3.034   1.977   6.037  0.1096 -2.1383 -1.0034
 8995SOL    HW238445   2.895   2.007   6.096 -1.5061 -1.1767  1.9364
 8996SOL     OW38446   2.729   0.518  13.133  0.2805  0.3176 -0.2299
 8996SOL    HW138447   2.784   0.444  13.106 -0.5323  0.0533 -1.1723
 8996SOL    HW238448   2.786   0.594  13.122  0.6178  0.2750  1.2446
 8997SOL     OW38449   2.110   0.962   5.904 -0.5943  0.0237 -0.1446
 8997SOL    HW138450   2.141   0.879   5.939  1.1969  0.5557 -0.4567
 8997SOL    HW238451   2.037   0.983   5.961 -0.4233 -0.0359  0.0952
 8998SOL     OW38452   0.030   2.830   6.892  0.0852  0.3743  0.3669
 8998SOL    HW138453   4.709   2.759   6.844 -1.0083  1.4308 -0.2298
 8998SOL    HW238454   0.104   2.793   6.941 -0.8690 -1.0768  0.6877
 8999SOL     OW38455   2.961   2.026   8.196 -0.3217  0.3607  0.0420
 8999SOL    HW138456   2.902   2.047   8.269  1.0720  1.2273  0.9163
 8999SOL    HW238457   3.025   1.961   8.224 -0.1039  0.4575 -0.2332
 9000SOL     OW38458   1.859   4.386   5.140 -0.3151  0.9545  0.3629
 9000SOL    HW138459   1.826   4.464   5.096 -0.2692  0.1212 -1.1399
 9000SOL    HW238460   1.952   4.408   5.130 -0.2796  1.8687  2.7080
 9001SOL     OW38461   0.306   1.755  15.662 -0.1630  0.5788 -0.6020
 9001SOL    HW138462   0.328   1.845  15.637 -2.1446  0.9398 -1.0950
 9001SOL    HW238463   0.367   1.742  15.734 -1.3149 -0.2225  0.2316
 9002SOL     OW38464   4.671   3.269   2.594 -1.0348  0.2555  0.3608
 9002SOL    HW138465   4.585   3.252   2.557 -0.9579  0.5815  0.0364
 9002SOL    HW238466   0.001   3.275   2.513  1.5332 -2.8458  1.7483
 9003SOL     OW38467   4.144   1.465   0.504 -0.0790  0.2027 -0.1551
 9003SOL    HW138468   4.102   1.548   0.479 -3.0952 -1.1356  0.4876
 9003SOL    HW238469   4.219   1.502   0.549  0.7564 -0.0386 -1.3465
 9004SOL     OW38470   3.790   3.230   3.743  0.0964  0.0281  0.2282
 9004SOL    HW138471   3.751   3.259   3.660 -0.9420  0.1356  0.7507
 9004SOL    HW238472   3.773   3.308   3.796  0.4669  0.0426  0.3266
 9005SOL     OW38473   2.997   4.349   3.560 -0.9319 -0.1522  0.0793
 9005SOL    HW138474   2.956   4.386   3.482 -0.0620  0.0798 -0.2701
 9005SOL    HW238475   2.985   4.422   3.621  0.5391  0.6265 -0.5454
 9006SOL     OW38476   0.361   2.538  17.677 -0.4860  0.0320 -0.2849
 9006SOL    HW138477   0.315   2.532  17.593 -0.2206 -0.5116 -0.3904
 9006SOL    HW238478   0.403   2.624  17.666 -2.6415  1.2408  1.0273
 9007SOL     OW38479   3.335   2.830   2.614 -0.0803 -0.7150  0.1211
 9007SOL    HW138480   3.419   2.797   2.582  0.1329 -0.0692  0.0245
 9007SOL    HW238481   3.326   2.793   2.701 -0.6039  0.2091  0.4555
 9008SOL     OW38482   2.363   0.240   5.611 -0.1841 -0.1689 -0.1655
 9008SOL    HW138483   2.392   0.280   5.693 -1.1026 -2.8688  1.4781
 9008SOL    HW238484   2.345   0.313   5.552  2.0621  1.0733  0.7069
 9009SOL     OW38485   2.204   2.472   5.664 -0.5832 -0.6370  0.2391
 9009SOL    HW138486   2.189   2.460   5.758  2.3631  1.8679  1.0312
 9009SOL    HW238487   2.181   2.389   5.623  2.0043 -2.0371  1.6013
 9010SOL     OW38488   3.985   1.230   1.229  0.2123  0.2960  0.0846
 9010SOL    HW138489   3.977   1.257   1.320 -1.1728  0.4090 -0.0791
 9010SOL    HW238490   3.966   1.308   1.178  1.8298 -0.8669 -2.2925
 9011SOL     OW38491   3.769   3.180   5.755  0.1861  0.1238 -0.2326
 9011SOL    HW138492   3.772   3.092   5.793 -0.8000 -0.3533 -1.2554
 9011SOL    HW238493   3.678   3.192   5.728  0.5154  2.1799 -0.4652
 9012SOL     OW38494   4.364   4.387   5.908 -0.0355 -0.2272 -0.3561
 9012SOL    HW138495   4.342   4.366   5.817 -0.2228  0.7382 -0.5296
 9012SOL    HW238496   4.294   4.450   5.926  0.9274  0.7078  0.0664
 9013SOL     OW38497   1.178   3.967   2.009 -0.0819  0.2010 -0.6636
 9013SOL    HW138498   1.132   3.884   2.021  1.1826 -0.1556  1.7474
 9013SOL    HW238499   1.141   3.975   1.921  1.5112  2.9708 -1.0731
 9014SOL     OW38500   0.699   4.134   5.253 -0.1107  0.5067 -0.1676
 9014SOL    HW138501   0.698   4.107   5.345  1.9248 -0.7853 -0.5386
 9014SOL    HW238502   0.791   4.139   5.227  0.2109  0.7801  1.0324
 9015SOL     OW38503   1.750   1.222   5.024 -0.3423  0.5546  0.0882
 9015SOL    HW138504   1.784   1.311   5.022 -0.1285  0.4487 -0.7930
 9015SOL    HW238505   1.658   1.247   5.030 -0.6017 -0.6046  1.1319
 9016SOL     OW38506   4.517   2.595   9.482 -0.1785 -0.0992  0.1576
 9016SOL    HW138507   4.557   2.538   9.416  2.5868  1.0465  0.8438
 9016SOL    HW238508   4.469   2.528   9.531 -3.0803  1.4561 -0.5228
 9017SOL     OW38509   1.092   2.854   4.060 -0.4014 -0.0830  0.2384
 9017SOL    HW138510   1.037   2.909   4.004 -0.4710 -2.0026 -1.6012
 9017SOL    HW238511   1.131   2.913   4.124 -0.7796  1.0765 -0.6071
 9018SOL     OW38512   0.736   3.439   0.450 -0.1948  0.1950  0.1988
 9018SOL    HW138513   0.703   3.497   0.519 -1.3614 -3.6046  2.8088
 9018SOL    HW238514   0.727   3.360   0.503 -0.4395 -0.5862 -1.0195
 9019SOL     OW38515   3.080   3.877   4.866  0.2421 -0.2790 -0.1504
 9019SOL    HW138516   3.000   3.843   4.906  0.5293 -0.6335  0.1322
 9019SOL    HW238517   3.125   3.797   4.839  0.9774 -0.0656  0.4504
 9020SOL     OW38518   1.718   3.162   1.375 -0.3082  0.1929 -0.7366
 9020SOL    HW138519   1.791   3.194   1.322  2.0836  0.0835  2.5273
 9020SOL    HW238520   1.722   3.072   1.342 -1.2470  0.1868 -0.8316
 9021SOL     OW38521   4.148   3.997  11.846  0.6572  0.7477 -0.3682
 9021SOL    HW138522   4.210   3.944  11.895  1.0817  1.6871  0.1131
 9021SOL    HW238523   4.097   4.054  11.904  1.2546 -0.1757  1.0417
 9022SOL     OW38524   3.069   4.551   7.780  0.4594 -0.9714 -0.2193
 9022SOL    HW138525   3.150   4.543   7.829 -0.8753 -0.5145  2.0790
 9022SOL    HW238526   3.097   4.518   7.695 -0.9073 -0.7702 -0.7583
 9023SOL     OW38527   1.278   2.174   4.714 -0.3347  1.2032  0.0542
 9023SOL    HW138528   1.279   2.078   4.712  0.8553  1.1773  2.1098
 9023SOL    HW238529   1.190   2.190   4.747 -0.0809 -0.3244  1.4867
 9024SOL     OW38530   0.133   1.734  14.673 -0.1348 -0.0626 -0.0769
 9024SOL    HW138531   0.131   1.640  14.690 -2.1750 -0.2728 -1.4873
 9024SOL    HW238532   0.151   1.766  14.762 -1.0220 -4.1839  1.5988
 9025SOL     OW38533   1.632   3.892   9.077  0.3333 -0.3241  0.4339
 9025SOL    HW138534   1.721   3.875   9.049  0.2290 -0.4646  0.1927
 9025SOL    HW238535   1.613   3.811   9.124  1.2218 -0.9352 -0.2716
 9026SOL     OW38536   1.303   4.373   6.063  0.6838  0.3943  0.6476
 9026SOL    HW138537   1.324   4.330   6.146 -3.1154 -0.9854  0.8823
 9026SOL    HW238538   1.349   4.317   6.001 -0.5080  1.0901 -0.8746
 9027SOL     OW38539   0.068   3.077   6.422 -0.0333 -0.3103  0.0343
 9027SOL    HW138540   0.080   2.995   6.375 -0.2688 -0.6009  0.4832
 9027SOL    HW238541   0.161   3.101   6.424  0.1615 -1.1099  0.3907
 9028SOL     OW38542   1.904   2.604  12.817 -0.0256  0.0742  0.7511
 9028SOL    HW138543   1.943   2.691  12.823  0.3946 -0.1602  1.3284
 9028SOL    HW238544   1.840   2.595  12.888  0.2781  0.5845  1.0893
 9029SOL     OW38545   4.143   1.753   5.376 -0.3264 -0.3618 -0.1165
 9029SOL    HW138546   4.138   1.759   5.472 -1.2904  2.7214 -0.3680
 9029SOL    HW238547   4.218   1.808   5.353  0.8511 -1.1949  1.6976
 9030SOL     OW38548   1.785   2.937  10.276  0.4782  0.7914 -0.2237
 9030SOL    HW138549   1.861   2.890  10.241 -0.6238 -0.6218 -0.6608
 9030SOL    HW238550   1.784   3.005  10.208 -0.6007  0.3821 -0.5997
 9031SOL     OW38551   3.227   0.098   8.161 -0.0590 -0.0957  0.4993
 9031SOL    HW138552   3.142   0.136   8.182  0.0819  0.7107 -0.3948
 9031SOL    HW238553   3.255   0.062   8.246  1.9608  0.2135 -0.0368
 9032SOL     OW38554   2.829   1.528  15.700 -0.3474  0.4557  0.2092
 9032SOL    HW138555   2.912   1.570  15.722  0.4047  0.1610 -2.0873
 9032SOL    HW238556   2.784   1.528  15.784  0.1369 -3.4056  0.4828
 9033SOL     OW38557   2.042   1.497  17.242 -0.1559 -0.0148 -0.3555
 9033SOL    HW138558   2.020   1.535  17.157  1.3042  2.3397  0.3049
 9033SOL    HW238559   1.957   1.461  17.265 -0.0934  0.7786  1.1415
 9034SOL     OW38560   0.012   0.236  16.523 -0.8367  0.5863  0.2900
 9034SOL    HW138561   4.644   0.206  16.513 -0.0666 -1.8761  0.8642
 9034SOL    HW238562   0.036   0.287  16.446  0.4954 -0.9405 -0.3057
 9035SOL     OW38563   1.250   0.847   6.307 -0.0142  0.3303 -0.1002
 9035SOL    HW138564   1.275   0.939   6.295  0.8181  0.4135  2.1388
 9035SOL    HW238565   1.308   0.807   6.243 -0.2723 -1.2612  0.6775
 9036SOL     OW38566   2.993   2.333   5.067 -0.2158 -0.3165  0.0067
 9036SOL    HW138567   2.944   2.390   5.008  1.0973  2.0340  1.1684
 9036SOL    HW238568   3.002   2.256   5.011 -0.8387  0.8146 -1.6266
 9037SOL     OW38569   0.119   0.959   1.519 -0.1934  1.0492  0.0664
 9037SOL    HW138570   0.147   0.870   1.541  0.2383  1.8852  2.8980
 9037SOL    HW238571   0.031   0.948   1.483  1.0540  0.5634 -2.8427
 9038SOL     OW38572   1.781   2.740  14.487  0.2634 -0.0036  0.4815
 9038SOL    HW138573   1.725   2.732  14.410 -0.5675 -0.4369  1.1436
 9038SOL    HW238574   1.846   2.806  14.460  0.1807  1.5797  4.0856
 9039SOL     OW38575   1.785   0.658   7.194  0.5400 -0.2524  0.5483
 9039SOL    HW138576   1.854   0.668   7.260 -0.3814  1.8942  1.1963
 9039SOL    HW238577   1.801   0.571   7.157  2.7562 -0.1187  1.1877
 9040SOL     OW38578   3.524   4.576   7.601  0.1031  0.0440  0.4146
 9040SOL    HW138579   3.488   4.489   7.584 -0.8518  0.4759  0.1998
 9040SOL    HW238580   3.484   4.608   7.682 -0.6324  2.2627 -0.8217
 9041SOL     OW38581   4.503   3.357   8.533 -0.7061  0.4898 -0.1070
 9041SOL    HW138582   4.417   3.315   8.527 -0.3414  0.0347 -1.9405
 9041SOL    HW238583   4.541   3.291   8.591 -1.3356 -1.7726 -2.2572
 9042SOL     OW38584   1.461   2.363   5.353  0.3106 -0.2355  0.1594
 9042SOL    HW138585   1.497   2.370   5.265 -0.6145 -0.7452 -0.2538
 9042SOL    HW238586   1.457   2.457   5.370  0.6297 -0.3156  0.6973
 9043SOL     OW38587   0.372   0.311  11.299  0.0993  0.0142 -0.1630
 9043SOL    HW138588   0.387   0.400  11.269  2.8597 -0.4546 -0.2040
 9043SOL    HW238589   0.304   0.318  11.367 -0.3179  0.9922 -0.6872
 9044SOL     OW38590   1.954   4.641   3.266  0.1892  0.7321  0.3815
 9044SOL    HW138591   1.953   4.720   3.321 -0.2107  1.1791 -0.2560
 9044SOL    HW238592   2.013   4.585   3.316  1.3936  0.9413 -0.8177
 9045SOL     OW38593   4.575   0.720   7.788 -0.5027 -0.7884  0.1621
 9045SOL    HW138594   4.638   0.652   7.767  0.8827  0.2745  0.8694
 9045SOL    HW238595   4.607   0.766   7.865 -0.9838  1.0209 -0.7157
 9046SOL     OW38596   1.472   3.417  15.198  0.3238 -0.2483  0.2955
 9046SOL    HW138597   1.470   3.409  15.294 -0.6264  1.8520  0.4482
 9046SOL    HW238598   1.554   3.459  15.172  1.9408 -2.8133  1.1833
 9047SOL     OW38599   4.307   2.201   4.761  0.7601 -0.0243 -0.2203
 9047SOL    HW138600   4.254   2.163   4.691  0.2086 -1.7145  1.1253
 9047SOL    HW238601   4.311   2.295   4.740 -1.2076  0.3291  0.9390
 9048SOL     OW38602   3.185   3.556   6.859 -0.0681 -0.1008 -0.2485
 9048SOL    HW138603   3.155   3.466   6.868 -1.5448  0.5269  0.9731
 9048SOL    HW238604   3.179   3.584   6.950 -0.9636  1.1270 -0.7015
 9049SOL     OW38605   2.270   3.270   1.692  0.7919 -0.3377  0.8190
 9049SOL    HW138606   2.206   3.340   1.675 -0.5525 -1.9251 -0.5772
 9049SOL    HW238607   2.250   3.213   1.619 -0.2641  2.0994 -0.7979
 9050SOL     OW38608   4.670   4.296  10.692 -0.4560 -0.2861 -0.7166
 9050SOL    HW138609   4.578   4.269  10.699 -0.7314  0.2114 -2.3872
 9050SOL    HW238610   4.684   4.260  10.604 -1.8197  0.4375 -1.2333
 9051SOL     OW38611   2.103   3.558   4.545  0.9323 -0.0864 -0.6119
 9051SOL    HW138612   2.024   3.577   4.494  0.6723 -2.7711 -1.2061
 9051SOL    HW238613   2.069   3.558   4.634  2.0694 -2.1811 -0.1811
 9052SOL     OW38614   1.383   0.512   4.820 -0.2282 -0.0090  0.0846
 9052SOL    HW138615   1.396   0.428   4.777  0.9581  0.4233 -0.4060
 9052SOL    HW238616   1.392   0.498   4.914  2.3647  0.4758 -0.0983
 9053SOL     OW38617   2.490   4.247  10.395  0.0349 -0.1117 -0.2479
 9053SOL    HW138618   2.491   4.241  10.299  0.7510 -0.0505 -0.2412
 9053SOL    HW238619   2.505   4.154  10.409 -0.8001 -0.5058 -1.9365
 9054SOL     OW38620   1.692   1.054   8.161 -0.5131 -0.5617 -0.0037
 9054SOL    HW138621   1.759   1.068   8.094  0.9474  2.0668  2.0142
 9054SOL    HW238622   1.750   1.043   8.236 -1.7813 -1.9849  0.7731
 9055SOL     OW38623   0.715   2.434   8.180  0.2938  0.2616 -0.1678
 9055SOL    HW138624   0.702   2.371   8.251 -2.1334  1.0165  0.0447
 9055SOL    HW238625   0.732   2.513   8.232  0.0203  0.6124 -0.6182
 9056SOL     OW38626   1.941   2.060   2.656 -0.2729  0.0908 -0.0423
 9056SOL    HW138627   2.010   1.994   2.659 -2.1678 -1.9964 -2.2168
 9056SOL    HW238628   1.925   2.086   2.747 -1.1356 -0.5239 -0.0150
 9057SOL     OW38629   0.990   1.879   1.942  0.1856 -0.0552 -0.1191
 9057SOL    HW138630   0.939   1.869   2.023  0.3284  1.0402  0.1080
 9057SOL    HW238631   1.020   1.969   1.950  3.4608 -1.0362 -1.6249
 9058SOL     OW38632   1.137   3.604  14.459 -0.0632  0.3572  0.0646
 9058SOL    HW138633   1.080   3.676  14.483 -0.9160  0.5350 -2.5113
 9058SOL    HW238634   1.164   3.568  14.544 -0.2478 -1.9761 -0.8492
 9059SOL     OW38635   1.242   1.671   6.066 -0.4593 -0.1333 -0.4606
 9059SOL    HW138636   1.271   1.692   5.977 -0.4511 -1.6416 -0.8063
 9059SOL    HW238637   1.271   1.748   6.115 -0.3706  0.5254 -1.5464
 9060SOL     OW38638   2.992   4.241  14.093  0.0545  0.3712 -0.4358
 9060SOL    HW138639   3.056   4.222  14.162 -0.3798 -0.6407 -0.3036
 9060SOL    HW238640   2.988   4.155  14.052 -2.3331  2.0700 -3.7548
 9061SOL     OW38641   4.656   0.820   4.362  0.1242 -0.4707  0.1313
 9061SOL    HW138642   4.589   0.846   4.299 -1.3214 -2.7654  0.7064
 9061SOL    HW238643   4.705   0.761   4.304  1.1677 -0.5691  1.1204
 9062SOL     OW38644   2.507   1.889   6.575 -0.6601  0.6490 -0.0110
 9062SOL    HW138645   2.536   1.964   6.629  0.3089  0.7828 -0.7087
 9062SOL    HW238646   2.472   1.823   6.635  2.7786  0.2231  1.5782
 9063SOL     OW38647   3.989   3.472  14.072 -0.4564  0.1354 -0.6326
 9063SOL    HW138648   4.051   3.515  14.131 -0.9915 -1.6095  1.1924
 9063SOL    HW238649   3.928   3.545  14.066 -1.0324 -0.2584  0.4362
 9064SOL     OW38650   1.345   1.699   0.550  0.0739 -0.1474  0.3064
 9064SOL    HW138651   1.301   1.675   0.631  0.4478 -2.5807 -0.1925
 9064SOL    HW238652   1.424   1.645   0.559 -1.6132 -2.6089  0.3030
 9065SOL     OW38653   0.831   4.049   4.427 -0.2856 -0.2739 -0.3266
 9065SOL    HW138654   0.785   3.966   4.419 -0.1904 -0.2865 -0.7736
 9065SOL    HW238655   0.807   4.080   4.339 -1.1217 -2.5866 -0.9159
 9066SOL     OW38656   0.475   2.108   5.776  0.0048  0.3564  0.4694
 9066SOL    HW138657   0.489   2.114   5.871  0.2703  0.7574  0.4033
 9066SOL    HW238658   0.384   2.135   5.765 -0.1781  0.1340  1.3892
 9067SOL     OW38659   1.281   1.557   6.600 -0.3049  0.8954 -0.0918
 9067SOL    HW138660   1.207   1.603   6.561 -1.5198 -0.2367  0.8864
 9067SOL    HW238661   1.290   1.602   6.684  1.3866  2.0074 -0.8669
 9068SOL     OW38662   2.696   3.532   1.948  0.2922 -0.1421 -0.3152
 9068SOL    HW138663   2.679   3.616   1.907  2.5792  1.7923  2.6523
 9068SOL    HW238664   2.621   3.481   1.917  0.5414  0.3587 -1.7227
 9069SOL     OW38665   3.160   0.013   2.339  0.1256 -0.3578 -0.3748
 9069SOL    HW138666   3.213   4.693   2.407  1.7442 -0.8076 -1.9358
 9069SOL    HW238667   3.179   0.103   2.367  1.6790 -0.9126  0.2981
 9070SOL     OW38668   0.235   3.463   9.889 -0.7816  0.0650 -0.3927
 9070SOL    HW138669   0.322   3.476   9.925 -0.4847 -1.5145 -0.5195
 9070SOL    HW238670   0.234   3.517   9.810 -2.2722  0.1257 -0.3471
 9071SOL     OW38671   1.869   1.271  15.848 -0.5466  0.4987  0.0533
 9071SOL    HW138672   1.896   1.179  15.850 -0.7439  0.4515  0.5424
 9071SOL    HW238673   1.774   1.273  15.838 -0.8713 -0.1393  2.8462
 9072SOL     OW38674   3.478   2.549   6.600  0.3538  0.1428 -0.6343
 9072SOL    HW138675   3.460   2.552   6.694 -0.9325  0.9901 -0.9108
 9072SOL    HW238676   3.492   2.641   6.578  0.0666  0.4464  0.4726
 9073SOL     OW38677   2.107   2.409  10.939 -0.0003 -0.2199  0.3712
 9073SOL    HW138678   2.093   2.337  11.001 -0.8837  0.3524  0.8443
 9073SOL    HW238679   2.197   2.431  10.960  0.4692 -1.9627  0.1909
 9074SOL     OW38680   3.922   0.620   7.926 -0.2845  0.5636 -0.4023
 9074SOL    HW138681   3.916   0.699   7.978 -0.4261  0.2893 -0.0062
 9074SOL    HW238682   3.910   0.557   7.997  1.0176  0.2892 -0.4294
 9075SOL     OW38683   2.251   2.037   7.459 -0.3082 -0.1504  1.0039
 9075SOL    HW138684   2.285   1.953   7.491 -1.2980 -1.0156 -0.2322
 9075SOL    HW238685   2.207   2.021   7.375 -1.8455  2.0827  1.3925
 9076SOL     OW38686   4.538   0.782  14.283  0.6560  0.2314 -0.1753
 9076SOL    HW138687   4.609   0.784  14.347 -0.0764  0.8436  0.6196
 9076SOL    HW238688   4.482   0.722  14.332 -1.0098 -0.6883 -3.2094
 9077SOL     OW38689   1.154   1.798   0.961 -0.2656  0.1575  0.0662
 9077SOL    HW138690   1.171   1.885   0.998 -3.8499  1.0852 -0.4227
 9077SOL    HW238691   1.076   1.793   0.906  0.3722  0.9316 -0.9077
 9078SOL     OW38692   2.071   4.680  14.816  0.1304 -0.3074  0.4105
 9078SOL    HW138693   2.062   0.034  14.874  1.0009 -0.5188  0.8088
 9078SOL    HW238694   2.164   4.660  14.820  0.3926  0.6270 -0.9262
 9079SOL     OW38695   4.238   0.976   8.544  0.1665  0.0162  0.1334
 9079SOL    HW138696   4.187   1.045   8.586 -0.1489  1.0849 -1.9973
 9079SOL    HW238697   4.302   1.029   8.495 -1.7519  2.1204 -0.0494
 9080SOL     OW38698   0.436   1.524   1.724 -0.3606  0.1492  0.3748
 9080SOL    HW138699   0.434   1.429   1.735 -0.3115 -0.0702 -1.5001
 9080SOL    HW238700   0.346   1.546   1.747 -0.1396  1.2306  0.1947
 9081SOL     OW38701   4.248   2.496   9.449  0.0652 -0.3035  0.1401
 9081SOL    HW138702   4.204   2.435   9.390  0.9024  0.2513 -1.0441
 9081SOL    HW238703   4.202   2.469   9.529  1.5233  1.5409  1.5849
 9082SOL     OW38704   2.624   1.746   2.304  0.1582 -0.0002  0.4252
 9082SOL    HW138705   2.653   1.692   2.377  0.7259  0.1612  0.3160
 9082SOL    HW238706   2.637   1.830   2.347 -0.1606  0.7472 -0.9205
 9083SOL     OW38707   0.743   1.823   7.723 -0.4424 -0.1481 -0.1795
 9083SOL    HW138708   0.729   1.818   7.818 -0.2421  1.7715 -0.0309
 9083SOL    HW238709   0.651   1.832   7.697 -0.3589  0.6973 -0.1828
 9084SOL     OW38710   2.268   3.048   5.724  0.0718  0.4768 -0.3717
 9084SOL    HW138711   2.215   3.080   5.651 -0.1964  0.7914 -0.0348
 9084SOL    HW238712   2.249   3.120   5.785  1.9512 -0.1802  1.0107
 9085SOL     OW38713   2.950   0.927  10.633 -0.0839 -0.1579 -0.2164
 9085SOL    HW138714   2.999   1.006  10.612 -0.8144  0.5595  0.7731
 9085SOL    HW238715   2.979   0.916  10.724  1.9963  0.0268 -0.8720
 9086SOL     OW38716   3.955   2.077   2.532 -0.4746 -1.2257 -0.3876
 9086SOL    HW138717   3.938   2.021   2.607  2.3532  0.1918  1.3009
 9086SOL    HW238718   4.044   2.045   2.517 -0.1529 -0.0190 -1.1226
 9087SOL     OW38719   2.213   1.376   3.385  0.2463  0.3651  0.0909
 9087SOL    HW138720   2.249   1.306   3.331 -0.4178 -1.1040  1.5803
 9087SOL    HW238721   2.298   1.413   3.409 -0.0509  0.5971  0.7853
 9088SOL     OW38722   3.706   0.398   3.063 -0.1669  0.2042  0.2204
 9088SOL    HW138723   3.775   0.346   3.022 -0.3009  0.7168 -0.6586
 9088SOL    HW238724   3.732   0.490   3.064  0.6746 -0.0487  0.8542
 9089SOL     OW38725   0.215   4.027   8.899 -0.1994  0.3599  0.4037
 9089SOL    HW138726   0.216   3.973   8.979 -0.2602  2.0656  1.5444
 9089SOL    HW238727   0.164   4.107   8.910 -0.1476  0.2814  1.2731
 9090SOL     OW38728   1.928   4.173  14.894  0.0704 -0.4480  0.2658
 9090SOL    HW138729   1.846   4.134  14.867 -1.1837  0.5105  2.6453
 9090SOL    HW238730   1.897   4.261  14.916  0.5286 -1.1222  3.6008
 9091SOL     OW38731   0.635   1.330   6.904 -0.7896  0.5595 -0.2160
 9091SOL    HW138732   0.607   1.278   6.829 -0.5933  0.5547 -0.2859
 9091SOL    HW238733   0.637   1.419   6.869 -0.5842  0.5707 -0.1754
 9092SOL     OW38734   1.675   2.028   2.547 -0.2268 -0.4420 -0.3235
 9092SOL    HW138735   1.652   2.121   2.540 -0.9792 -0.6285 -0.4190
 9092SOL    HW238736   1.765   2.032   2.578  1.3583 -1.7500 -4.6783
 9093SOL     OW38737   2.696   0.160   6.449  0.4238 -0.3993 -0.6424
 9093SOL    HW138738   2.706   0.077   6.497  0.9371  0.2001  0.2947
 9093SOL    HW238739   2.712   0.131   6.359 -0.6152  1.8265 -1.5335
 9094SOL     OW38740   4.347   0.622   4.574 -0.0406 -0.0016  0.0230
 9094SOL    HW138741   4.417   0.682   4.600 -0.9331  0.9770  0.1861
 9094SOL    HW238742   4.274   0.684   4.572 -1.0798 -1.2995 -2.8499
 9095SOL     OW38743   4.294   3.726   1.186  0.1160 -0.3235  0.4204
 9095SOL    HW138744   4.357   3.774   1.134  1.3389 -0.1959  2.0044
 9095SOL    HW238745   4.331   3.745   1.272  3.0434  0.4452 -1.0199
 9096SOL     OW38746   0.014   1.073  17.043 -0.4692 -0.2297 -0.3311
 9096SOL    HW138747   4.689   0.990  17.034 -0.9333  0.1911 -1.9501
 9096SOL    HW238748   0.039   1.057  17.134 -1.5487 -0.4409 -0.0740
 9097SOL     OW38749   4.208   3.216  14.934 -0.1071 -0.6944  0.2695
 9097SOL    HW138750   4.237   3.151  14.869 -0.2852  0.0684 -0.5669
 9097SOL    HW238751   4.295   3.252  14.955  0.2047 -0.9289 -0.6208
 9098SOL     OW38752   1.438   2.856   4.197 -0.3583  0.1533 -0.3599
 9098SOL    HW138753   1.509   2.841   4.259 -0.1806  0.5577 -0.4635
 9098SOL    HW238754   1.462   2.943   4.166  2.8120 -1.0438 -1.1802
 9099SOL     OW38755   2.615   3.203   6.580 -0.1761  0.1522 -0.3501
 9099SOL    HW138756   2.615   3.135   6.647  1.8644  1.1470  0.6763
 9099SOL    HW238757   2.569   3.274   6.625  0.9622  0.7657 -0.1529
 9100SOL     OW38758   2.698   3.277  14.552 -0.0438  0.0476 -0.0700
 9100SOL    HW138759   2.636   3.338  14.592 -1.4387 -1.3498 -0.1164
 9100SOL    HW238760   2.654   3.193  14.543 -0.9765  0.2352  2.7293
 9101SOL     OW38761   3.724   1.740   9.441 -0.1518  0.6421  0.4777
 9101SOL    HW138762   3.800   1.683   9.427 -0.2139  0.6977 -0.0768
 9101SOL    HW238763   3.707   1.745   9.347  0.0982  2.1129  0.5133
 9102SOL     OW38764   0.598   3.335   0.778 -0.1324  0.4023  0.5884
 9102SOL    HW138765   0.661   3.264   0.792 -0.1964  0.6976  2.3749
 9102SOL    HW238766   0.542   3.294   0.713 -0.0676  3.1701 -1.1932
 9103SOL     OW38767   3.164   0.494  12.853  0.2583 -0.2995  0.1718
 9103SOL    HW138768   3.244   0.545  12.846  0.4042 -0.6382 -0.6005
 9103SOL    HW238769   3.186   0.407  12.819  2.2278  0.6692 -1.0028
 9104SOL     OW38770   2.391   1.746  14.134 -0.2222 -0.1076  0.6403
 9104SOL    HW138771   2.435   1.681  14.189 -1.2819  0.6179  2.3127
 9104SOL    HW238772   2.454   1.817  14.140  2.4888 -2.5118  0.7322
 9105SOL     OW38773   4.546   3.672   6.160 -0.5359 -0.6150  0.2288
 9105SOL    HW138774   4.547   3.694   6.253 -0.4208  1.1163 -0.1710
 9105SOL    HW238775   4.622   3.618   6.138  0.5005  0.5356  0.9649
 9106SOL     OW38776   4.023   3.853   6.200  0.1841  0.2293 -0.4281
 9106SOL    HW138777   4.097   3.830   6.144 -1.1313 -2.3290 -1.1146
 9106SOL    HW238778   4.071   3.912   6.258 -1.2606  1.2559 -0.2805
 9107SOL     OW38779   1.146   3.064   1.317  0.7919 -0.5061 -0.0951
 9107SOL    HW138780   1.160   2.983   1.268 -3.3707 -1.7357  0.7831
 9107SOL    HW238781   1.158   3.132   1.250 -0.9155  0.3539  0.4641
 9108SOL     OW38782   3.280   0.733   6.910  0.7909  0.4299 -0.1937
 9108SOL    HW138783   3.277   0.642   6.937 -0.3077  1.4794  3.2059
 9108SOL    HW238784   3.232   0.764   6.987  1.0315  2.2223 -0.7450
 9109SOL     OW38785   4.007   0.592   4.817 -0.7725  0.7674 -0.2439
 9109SOL    HW138786   3.944   0.635   4.874 -0.4609 -0.3253  0.9238
 9109SOL    HW238787   3.965   0.508   4.796 -0.2826 -0.1040  2.2086
 9110SOL     OW38788   2.270   1.957  12.454 -0.2744 -0.4371 -0.0047
 9110SOL    HW138789   2.212   1.989  12.523 -1.0356  0.8806 -1.2373
 9110SOL    HW238790   2.328   1.896  12.499 -0.1854  0.0901  0.6027
 9111SOL     OW38791   3.365   0.801   3.679  0.5009  0.9886 -0.3240
 9111SOL    HW138792   3.437   0.795   3.616  0.1706  0.6621 -0.6782
 9111SOL    HW238793   3.335   0.888   3.654  0.6191  0.5084 -2.1547
 9112SOL     OW38794   3.841   3.016  13.951  0.1419  0.1157  0.9527
 9112SOL    HW138795   3.799   3.005  14.037 -2.9847 -0.3510 -0.6393
 9112SOL    HW238796   3.807   2.942  13.901  2.4162 -0.4931  0.3467
 9113SOL     OW38797   4.274   3.570   7.392 -0.1451 -0.0336 -1.1508
 9113SOL    HW138798   4.197   3.623   7.370 -0.6267 -0.6426 -0.9471
 9113SOL    HW238799   4.340   3.609   7.335 -0.8536  1.2021 -1.1234
 9114SOL     OW38800   4.205   4.052  11.432 -0.0724 -0.1086 -0.2265
 9114SOL    HW138801   4.279   3.992  11.438  0.2141  0.3910  1.3588
 9114SOL    HW238802   4.247   4.137  11.443 -1.2565  0.1338  2.3843
 9115SOL     OW38803   4.149   3.731   1.582  0.2098  0.3660  0.1835
 9115SOL    HW138804   4.070   3.715   1.633 -0.6324  0.1265 -1.2120
 9115SOL    HW238805   4.177   3.643   1.558 -0.3825  0.0517  0.6427
 9116SOL     OW38806   2.955   1.789   3.426 -0.6850  0.0463 -0.2596
 9116SOL    HW138807   2.986   1.787   3.517 -0.5512 -1.0395 -0.3355
 9116SOL    HW238808   3.018   1.733   3.381  0.8297  1.4442  0.1004
 9117SOL     OW38809   1.724   3.022  15.440 -0.4207 -0.2220  0.3597
 9117SOL    HW138810   1.773   2.991  15.516  0.8278  0.5731 -0.1364
 9117SOL    HW238811   1.765   2.977  15.366  0.1475  0.5323  0.2191
 9118SOL     OW38812   1.078   3.526  13.697  0.5444  0.1358  0.0671
 9118SOL    HW138813   1.006   3.503  13.755  1.0695  0.1365  0.7211
 9118SOL    HW238814   1.061   3.454  13.635  2.1812  0.1072 -0.3515
 9119SOL     OW38815   4.710   1.276   4.038 -0.3385  0.1538 -0.1928
 9119SOL    HW138816   0.067   1.223   4.053 -0.5236  0.1717  0.8352
 9119SOL    HW238817   4.670   1.226   3.966  0.6957  0.1256 -0.7626
 9120SOL     OW38818   1.054   3.571   1.317 -0.7965  0.4058 -0.3212
 9120SOL    HW138819   1.146   3.592   1.305 -1.2896  0.5483 -4.1987
 9120SOL    HW238820   1.034   3.624   1.394 -1.3739 -0.9877  0.4874
 9121SOL     OW38821   0.809   2.095   4.947  0.0952 -0.2701 -0.1788
 9121SOL    HW138822   0.839   2.036   4.878 -1.8694 -0.6940 -0.6925
 9121SOL    HW238823   0.722   2.054   4.955 -0.6914  1.4128 -0.1687
 9122SOL     OW38824   3.419   2.070   6.535 -0.2671 -0.0332  0.6624
 9122SOL    HW138825   3.388   2.159   6.551 -0.4131  0.1134 -0.4517
 9122SOL    HW238826   3.499   2.064   6.588  0.6922  1.6652 -0.5755
 9123SOL     OW38827   3.009   2.158   1.870  0.5550  0.5850  0.0637
 9123SOL    HW138828   3.004   2.073   1.825 -1.4869  1.0380 -0.5872
 9123SOL    HW238829   3.092   2.191   1.838 -1.1427  1.5845 -3.2429
 9124SOL     OW38830   2.553   3.680   4.265  0.0211  0.0790  0.0012
 9124SOL    HW138831   2.510   3.735   4.199 -0.5021  0.1437  0.4035
 9124SOL    HW238832   2.595   3.742   4.325 -1.5449 -0.5288  1.6968
 9125SOL     OW38833   4.350   3.912  12.151  0.6469 -0.3142 -0.0464
 9125SOL    HW138834   4.262   3.891  12.121  0.2548  1.8609 -0.4651
 9125SOL    HW238835   4.343   3.984  12.214  1.2768 -2.3230  2.3114
 9126SOL     OW38836   1.353   3.379  14.926  0.0110  0.0112  0.1335
 9126SOL    HW138837   1.438   3.365  14.884 -0.1251  1.5717 -0.6361
 9126SOL    HW238838   1.372   3.379  15.020 -2.7756  1.7219  0.6988
 9127SOL     OW38839   1.429   2.072  12.161  0.0917 -0.4984 -0.3705
 9127SOL    HW138840   1.479   2.136  12.212 -0.7757 -0.9623  1.0782
 9127SOL    HW238841   1.445   2.103  12.072  1.3310  0.9213  0.3473
 9128SOL     OW38842   3.224   0.654   8.095 -0.0015 -0.1942 -0.1677
 9128SOL    HW138843   3.255   0.661   8.185  4.3345 -1.0632 -1.5674
 9128SOL    HW238844   3.293   0.697   8.044  0.7407 -0.3790  0.6880
 9129SOL     OW38845   4.564   0.309   2.405 -0.4948  0.3074  0.5358
 9129SOL    HW138846   4.611   0.344   2.480  1.1039 -0.4456 -0.1094
 9129SOL    HW238847   4.496   0.376   2.393 -0.0878  0.1116 -3.0340
 9130SOL     OW38848   1.216   2.734   3.356 -0.8317 -0.3559  0.1070
 9130SOL    HW138849   1.286   2.671   3.373  0.0208  1.1167  2.0037
 9130SOL    HW238850   1.180   2.704   3.273 -0.3189  0.4920 -0.4259
 9131SOL     OW38851   3.549   1.102   4.558 -0.2166  0.5491  0.6756
 9131SOL    HW138852   3.516   1.066   4.640  1.0920  0.0537  0.9996
 9131SOL    HW238853   3.586   1.188   4.580 -2.9891  1.2861  2.2933
 9132SOL     OW38854   1.599   2.170   6.163  0.2292 -0.0124  0.3142
 9132SOL    HW138855   1.602   2.076   6.148  1.6109 -0.1952  1.8010
 9132SOL    HW238856   1.551   2.176   6.246 -0.0782 -2.3212  0.2921
 9133SOL     OW38857   3.913   0.220   5.607 -0.7603  0.1345  0.3437
 9133SOL    HW138858   3.919   0.133   5.567  1.1064  0.1533  0.5664
 9133SOL    HW238859   3.825   0.241   5.577 -0.5108  0.8297  0.0988
 9134SOL     OW38860   3.565   1.172   7.441 -0.3093  0.3747 -0.1332
 9134SOL    HW138861   3.638   1.213   7.487  0.7118  1.1015 -2.4121
 9134SOL    HW238862   3.519   1.254   7.420 -0.7378 -1.0942 -5.0721
 9135SOL     OW38863   3.332   4.176   5.315 -0.1828 -0.3804 -0.5530
 9135SOL    HW138864   3.382   4.130   5.382  1.2159  0.6559 -0.8958
 9135SOL    HW238865   3.358   4.267   5.330 -0.7707 -0.1069 -1.1694
 9136SOL     OW38866   2.891   3.971   5.854  0.1651  0.2654  1.0427
 9136SOL    HW138867   2.844   3.971   5.937 -0.8743  1.1837  0.4583
 9136SOL    HW238868   2.819   3.956   5.792  1.2151  1.2690 -0.4352
 9137SOL     OW38869   2.911   2.103  13.149 -0.4390  0.2975  0.5975
 9137SOL    HW138870   2.823   2.140  13.140 -1.5839 -2.8526 -1.0834
 9137SOL    HW238871   2.959   2.155  13.213 -0.1088  0.5096  0.1770
 9138SOL     OW38872   0.003   0.450   5.547  0.0122 -0.1690 -0.6695
 9138SOL    HW138873   0.082   0.430   5.597  0.8341  0.9921 -1.4942
 9138SOL    HW238874   0.019   0.390   5.474 -1.0968 -1.3497  0.0730
 9139SOL     OW38875   4.112   0.061   8.910 -0.4417  0.5242  0.0742
 9139SOL    HW138876   4.093   4.696   8.873 -4.3785  0.2321  2.7591
 9139SOL    HW238877   4.023   0.081   8.939 -0.1579 -1.8206  2.6434
 9140SOL     OW38878   2.722   1.857   4.013  0.0935  0.2996 -0.1501
 9140SOL    HW138879   2.777   1.935   4.016  0.1152  0.2478  0.7491
 9140SOL    HW238880   2.650   1.885   3.957 -0.5813  2.4137  1.7883
 9141SOL     OW38881   2.908   2.872   6.161 -0.0119 -0.0344  0.1145
 9141SOL    HW138882   2.976   2.818   6.200 -2.1251 -2.8624 -0.0677
 9141SOL    HW238883   2.951   2.885   6.077 -0.0150 -1.3715 -0.0945
 9142SOL     OW38884   3.818   2.954   2.078  0.2409 -0.9637 -0.5841
 9142SOL    HW138885   3.872   2.948   2.000 -0.7466 -1.7573 -1.1942
 9142SOL    HW238886   3.756   2.886   2.052  0.1768 -0.3220 -2.0862
 9143SOL     OW38887   4.104   1.219   8.666 -0.6702  0.4084  0.1026
 9143SOL    HW138888   4.056   1.258   8.593 -1.2904 -0.7458 -0.1123
 9143SOL    HW238889   4.091   1.288   8.731 -1.2366  2.4209 -2.1548
 9144SOL     OW38890   1.616   2.556  13.172  0.2361  0.7733 -0.0125
 9144SOL    HW138891   1.650   2.578  13.258  2.2484 -2.5561  0.0761
 9144SOL    HW238892   1.527   2.554  13.207 -0.4674 -0.9285 -1.8488
 9145SOL     OW38893   0.794   3.694   0.298  0.4512 -1.2695  0.2513
 9145SOL    HW138894   0.708   3.727   0.324  0.9022 -0.0831  0.2479
 9145SOL    HW238895   0.794   3.599   0.313  1.6361 -1.4843 -1.1506
 9146SOL     OW38896   2.301   1.353   4.878 -0.1843  0.0434  0.9493
 9146SOL    HW138897   2.352   1.272   4.878  1.1852  0.9258 -0.2694
 9146SOL    HW238898   2.215   1.314   4.893 -0.4890  0.5550  0.5203
 9147SOL     OW38899   1.313   4.113   5.681  0.0630  0.4806  0.3334
 9147SOL    HW138900   1.266   4.034   5.657  0.3345 -0.0009  1.4120
 9147SOL    HW238901   1.385   4.089   5.739 -1.0679  1.4566  2.1571
 9148SOL     OW38902   4.351   2.698   3.406 -0.1440 -0.0137  0.7705
 9148SOL    HW138903   4.306   2.749   3.474 -1.5323 -0.6537  0.3433
 9148SOL    HW238904   4.435   2.683   3.450  1.4807 -0.6265 -2.5945
 9149SOL     OW38905   2.051   2.695   3.644  0.1014 -0.3797  0.1973
 9149SOL    HW138906   1.966   2.693   3.688  0.3005  1.6526  0.7145
 9149SOL    HW238907   2.019   2.661   3.561 -0.6446  1.6045 -0.3387
 9150SOL     OW38908   2.484   4.531   6.403  0.0125  0.2168  0.5083
 9150SOL    HW138909   2.400   4.515   6.360 -0.6409  3.1182  0.7090
 9150SOL    HW238910   2.535   4.497   6.330  0.4694 -0.7833  1.2881
 9151SOL     OW38911   1.518   2.297  10.268 -0.0423 -0.1220 -1.0494
 9151SOL    HW138912   1.433   2.304  10.312  0.9390  1.5977  0.5867
 9151SOL    HW238913   1.512   2.376  10.216  0.6001  0.0768 -0.8266
 9152SOL     OW38914   3.568   0.273   4.809 -0.0217  0.3690 -0.3582
 9152SOL    HW138915   3.544   0.345   4.751  0.1382 -0.2663 -1.2099
 9152SOL    HW238916   3.573   0.197   4.751 -1.0746 -1.1629  1.5484
 9153SOL     OW38917   1.823   1.490  14.338  0.9969  0.1541  0.1239
 9153SOL    HW138918   1.839   1.396  14.331  0.9052  0.0399  1.5605
 9153SOL    HW238919   1.833   1.537  14.255 -2.3762  2.2375  0.8916
 9154SOL     OW38920   3.638   4.178   6.085  0.3864  0.3393  0.1314
 9154SOL    HW138921   3.727   4.144   6.077  0.3428 -0.2970  2.3778
 9154SOL    HW238922   3.588   4.097   6.096  0.5315  0.2146 -0.1160
 9155SOL     OW38923   1.296   2.146  16.070 -0.1651  0.3122 -0.4266
 9155SOL    HW138924   1.349   2.225  16.084 -0.8458  0.3771  1.8818
 9155SOL    HW238925   1.321   2.103  16.152 -0.2740 -0.3225 -0.7315
 9156SOL     OW38926   4.366   3.858   9.396  0.0856  0.1131  0.5886
 9156SOL    HW138927   4.439   3.797   9.405 -1.6030 -1.6907  2.0249
 9156SOL    HW238928   4.326   3.829   9.314  1.5866 -0.1759 -0.0451
 9157SOL     OW38929   1.966   3.941   2.113 -0.3056 -0.1286 -0.3007
 9157SOL    HW138930   1.876   3.937   2.146 -0.7467 -0.9892 -1.5998
 9157SOL    HW238931   2.006   3.866   2.158 -0.9382 -0.5097 -0.3666
 9158SOL     OW38932   0.384   4.014   8.680 -0.1334 -0.2375  0.2048
 9158SOL    HW138933   0.434   4.088   8.714  1.5180 -0.6505 -1.3856
 9158SOL    HW238934   0.306   4.013   8.737 -2.2637 -1.0677 -2.7331
 9159SOL     OW38935   1.534   0.510   8.537 -0.4770 -0.4446  1.3707
 9159SOL    HW138936   1.512   0.508   8.444 -2.0158  0.4923  1.7074
 9159SOL    HW238937   1.459   0.562   8.567  0.9084  2.3418  0.0119
 9160SOL     OW38938   0.501   0.512   7.025 -0.5363 -0.0776 -0.1163
 9160SOL    HW138939   0.538   0.599   7.035 -0.9068  0.1518 -0.8026
 9160SOL    HW238940   0.464   0.497   7.112 -1.4691 -0.5835 -0.6004
 9161SOL     OW38941   3.822   1.726   7.059 -0.0724 -0.3421 -0.5145
 9161SOL    HW138942   3.807   1.675   7.138 -1.1441 -2.2897 -1.9863
 9161SOL    HW238943   3.815   1.818   7.087 -0.4396  0.2284 -2.4219
 9162SOL     OW38944   2.186   1.476   5.492 -0.4466  0.3263  0.0713
 9162SOL    HW138945   2.165   1.542   5.427  0.4367  0.9752  0.4383
 9162SOL    HW238946   2.112   1.481   5.553 -1.8900 -1.7758 -1.5177
 9163SOL     OW38947   3.738   2.799   0.570 -1.0690 -0.2188 -0.7657
 9163SOL    HW138948   3.816   2.851   0.591 -1.7965  0.5482  0.0783
 9163SOL    HW238949   3.725   2.836   0.482  0.6332 -1.6010 -1.5923
 9164SOL     OW38950   3.645   0.809   8.212 -0.0957 -0.2526 -0.3465
 9164SOL    HW138951   3.665   0.897   8.180  1.6243 -0.2433  0.7237
 9164SOL    HW238952   3.715   0.798   8.276 -1.0728 -0.6072  0.6734
 9165SOL     OW38953   3.013   1.274   8.964  0.2552  0.4346 -0.1971
 9165SOL    HW138954   2.928   1.278   9.009 -0.8439  1.2967 -2.3795
 9165SOL    HW238955   3.024   1.180   8.949  0.6522  0.3557  0.5869
 9166SOL     OW38956   3.852   1.451  10.698 -0.4767  0.0452  0.1062
 9166SOL    HW138957   3.862   1.453  10.603 -1.1043  0.5137  0.0508
 9166SOL    HW238958   3.902   1.529  10.721  1.5211 -1.4855  0.8826
 9167SOL     OW38959   0.732   4.147  16.403 -0.0018 -0.2650  0.0479
 9167SOL    HW138960   0.732   4.075  16.340 -0.4392 -0.0663 -0.1803
 9167SOL    HW238961   0.643   4.140  16.439  0.3868  0.2651  1.1102
 9168SOL     OW38962   1.120   2.296   9.591  0.3799  0.3193 -0.0083
 9168SOL    HW138963   1.127   2.281   9.686  2.1441 -1.1304 -0.3658
 9168SOL    HW238964   1.052   2.362   9.576 -1.0960 -0.7906  1.6900
 9169SOL     OW38965   2.336   1.140  10.313  0.7010  0.2999  0.1873
 9169SOL    HW138966   2.252   1.141  10.267  0.4206  0.2079  0.6983
 9169SOL    HW238967   2.300   1.111  10.397  0.4554  2.2023  0.7348
 9170SOL     OW38968   0.067   3.491  14.686  0.4413 -0.1184  0.5214
 9170SOL    HW138969   4.717   3.498  14.750  0.6032  1.6407  0.4957
 9170SOL    HW238970   0.092   3.583  14.686  4.7536 -1.3094 -1.9748
 9171SOL     OW38971   3.245   1.161   8.875 -0.0377 -0.2343  0.0318
 9171SOL    HW138972   3.288   1.201   8.800 -1.1456 -1.1527 -1.0855
 9171SOL    HW238973   3.198   1.095   8.825  2.9087 -2.2257 -0.0839
 9172SOL     OW38974   3.768   4.021  14.563 -0.1620 -0.2032 -0.3894
 9172SOL    HW138975   3.689   4.074  14.554 -0.3754 -0.6211 -1.0082
 9172SOL    HW238976   3.783   4.025  14.657 -1.8854  0.7034 -0.1482
 9173SOL     OW38977   1.686   0.088   7.027  0.6049  0.2331  0.0850
 9173SOL    HW138978   1.774   0.126   7.032  1.0338 -0.6363 -0.6636
 9173SOL    HW238979   1.654   0.139   7.101 -1.3128 -0.2585 -0.4161
 9174SOL     OW38980   3.880   4.183   2.936  0.4470  0.2034 -0.2889
 9174SOL    HW138981   3.830   4.103   2.953  0.4421  0.0767 -0.8804
 9174SOL    HW238982   3.970   4.155   2.951  0.0266  0.7729  3.4083
 9175SOL     OW38983   3.320   0.425   3.291  0.0407 -0.2014 -0.2217
 9175SOL    HW138984   3.327   0.416   3.196 -2.1267 -1.9267 -0.2306
 9175SOL    HW238985   3.411   0.397   3.306 -0.1078 -1.5221 -1.7069
 9176SOL     OW38986   1.466   1.173   4.001  0.1235  0.0726  0.2785
 9176SOL    HW138987   1.484   1.182   3.907  0.7852  0.6703  0.4566
 9176SOL    HW238988   1.538   1.223   4.041  0.2018 -1.1252  1.6522
 9177SOL     OW38989   3.937   1.587   4.086  0.3830 -0.3574 -0.0100
 9177SOL    HW138990   4.013   1.562   4.033 -0.9163 -0.2199 -1.9543
 9177SOL    HW238991   3.859   1.582   4.030 -0.2816 -1.0740  0.9739
 9178SOL     OW38992   1.790   0.807   6.958  0.1910 -0.1007  0.0567
 9178SOL    HW138993   1.713   0.754   6.937 -1.8619  2.4829  1.0104
 9178SOL    HW238994   1.782   0.810   7.053  0.2864 -0.4516  0.0768
 9179SOL     OW38995   2.590   0.513   2.801 -0.1333  0.2765  0.5264
 9179SOL    HW138996   2.511   0.487   2.847  1.9352 -1.7170  2.8822
 9179SOL    HW238997   2.657   0.472   2.855 -1.4467 -2.3915  0.0883
 9180SOL     OW38998   0.671   0.455   7.533 -0.2975  0.3616 -0.3241
 9180SOL    HW138999   0.602   0.433   7.595  0.8467  0.5362  1.0086
 9180SOL    HW239000   0.743   0.398   7.562 -1.0647 -0.4360 -0.0084
 9181SOL     OW39001   2.571   2.526   9.600  0.1503 -0.0104 -0.1247
 9181SOL    HW139002   2.600   2.527   9.691 -0.8375  2.7049  0.1552
 9181SOL    HW239003   2.657   2.547   9.563  1.3469 -1.2629  1.9240
 9182SOL     OW39004   0.712   0.491   3.003  0.4991  0.0221 -0.3265
 9182SOL    HW139005   0.680   0.411   3.045  2.8263 -0.7589 -0.0233
 9182SOL    HW239006   0.646   0.555   3.028 -0.0289 -0.2204 -1.1128
 9183SOL     OW39007   4.273   3.711   6.642 -1.1225 -0.3968  0.0969
 9183SOL    HW139008   4.192   3.701   6.591 -1.1071  0.9765 -0.1900
 9183SOL    HW239009   4.264   3.645   6.711 -0.6772  0.1444  0.6643
 9184SOL     OW39010   0.666   3.997  10.376  0.2068  0.3365 -0.4191
 9184SOL    HW139011   0.718   4.075  10.396  0.2503  0.1676  0.1401
 9184SOL    HW239012   0.610   4.018  10.302  1.4125  1.6215 -0.9446
 9185SOL     OW39013   4.140   3.009   5.448 -0.1966 -0.3226  0.2213
 9185SOL    HW139014   4.167   3.060   5.525 -0.1929  0.5212 -0.3354
 9185SOL    HW239015   4.200   3.034   5.378 -3.8842  0.4336 -2.6862
 9186SOL     OW39016   1.607   1.361   1.260  0.8062  0.2574  0.1012
 9186SOL    HW139017   1.699   1.336   1.248  0.3149 -0.7679 -1.6143
 9186SOL    HW239018   1.604   1.394   1.350 -1.4347  0.6313 -0.1231
 9187SOL     OW39019   2.001   2.175  11.811 -1.0046 -0.2642 -0.4426
 9187SOL    HW139020   2.019   2.263  11.846  1.0919 -1.4577  1.4562
 9187SOL    HW239021   2.007   2.199  11.718  3.6341  1.1246  0.1895
 9188SOL     OW39022   1.131   2.815   8.971 -0.9134  0.0200  0.4017
 9188SOL    HW139023   1.090   2.901   8.966 -0.6683  0.0340 -1.3565
 9188SOL    HW239024   1.214   2.857   8.996 -1.8908  0.4105  2.9096
 9189SOL     OW39025   2.182   2.551   7.947  0.0464 -0.2778 -0.2969
 9189SOL    HW139026   2.171   2.595   8.031 -1.3725 -2.3985  0.6276
 9189SOL    HW239027   2.092   2.560   7.914 -0.1066  0.8742  0.4525
 9190SOL     OW39028   2.814   0.507   7.746 -0.2833  0.1562  0.1998
 9190SOL    HW139029   2.719   0.518   7.756 -0.4393 -0.5881 -0.4476
 9190SOL    HW239030   2.820   0.430   7.803  0.5331 -0.6685 -1.0123
 9191SOL     OW39031   2.203   3.567   4.033  0.2683  0.4017 -0.0734
 9191SOL    HW139032   2.255   3.493   4.065  0.0520 -0.5300 -1.8647
 9191SOL    HW239033   2.134   3.564   4.100  1.9480 -0.6336  1.5878
 9192SOL     OW39034   1.655   0.510   8.792  0.0047 -0.2158  0.3991
 9192SOL    HW139035   1.640   0.508   8.698 -0.2025 -3.2004  0.4844
 9192SOL    HW239036   1.750   0.498   8.796  0.2385  0.4754 -3.0832
 9193SOL     OW39037   4.281   4.161   9.853 -0.1437  0.2386  0.1233
 9193SOL    HW139038   4.191   4.158   9.885  0.3271  1.6702  1.5835
 9193SOL    HW239039   4.278   4.169   9.758 -0.0639 -1.4512 -0.0217
 9194SOL     OW39040   2.449   0.792   7.952  0.2895 -0.1012  0.1380
 9194SOL    HW139041   2.396   0.736   8.008 -0.5420 -0.1596 -0.7048
 9194SOL    HW239042   2.535   0.774   7.991 -0.5185 -1.3587  1.3244
 9195SOL     OW39043   2.327   2.275   8.345  0.4021 -0.2909  0.5206
 9195SOL    HW139044   2.338   2.200   8.287 -0.1200 -0.3694  0.5283
 9195SOL    HW239045   2.421   2.289   8.357  0.5517 -0.3959 -0.5136
 9196SOL     OW39046   1.432   3.289   2.627  0.3422 -0.0174  0.6127
 9196SOL    HW139047   1.359   3.346   2.652  0.3121  0.4151 -0.4921
 9196SOL    HW239048   1.503   3.339   2.667  0.4877  0.2455  0.0158
 9197SOL     OW39049   4.303   2.860   8.173  0.8126 -0.6988 -0.7026
 9197SOL    HW139050   4.221   2.829   8.212  0.8741 -1.9199 -1.5336
 9197SOL    HW239051   4.355   2.871   8.253 -0.0120  0.1740 -0.2871
 9198SOL     OW39052   3.525   2.722  16.098  0.1449 -0.0627 -0.1589
 9198SOL    HW139053   3.429   2.726  16.094  0.1767  0.9244  0.2403
 9198SOL    HW239054   3.553   2.630  16.097 -2.1994 -0.8001  0.2278
 9199SOL     OW39055   0.061   1.604  16.504  0.5949  0.1391 -0.3895
 9199SOL    HW139056   0.049   1.645  16.590 -0.5624  0.3154 -0.6437
 9199SOL    HW239057   0.101   1.676  16.455  1.1053  0.9022  1.1292
 9200SOL     OW39058   0.069   0.679   4.161 -0.5442  0.0724 -0.0879
 9200SOL    HW139059   0.054   0.588   4.137  1.1414 -0.6448  1.5583
 9200SOL    HW239060   0.092   0.725   4.081  2.0768 -1.7934 -0.4043
 9201SOL     OW39061   1.164   1.470   2.462 -0.0147  0.4059  0.2846
 9201SOL    HW139062   1.126   1.386   2.436 -2.0914  1.0374  1.2789
 9201SOL    HW239063   1.232   1.434   2.518 -0.7722  1.5945  1.9675
 9202SOL     OW39064   2.509   3.192   4.698  0.4236  0.0504  0.0202
 9202SOL    HW139065   2.491   3.170   4.606 -0.5042  1.9482 -0.2459
 9202SOL    HW239066   2.422   3.166   4.728 -0.1965 -1.0732 -2.7170
 9203SOL     OW39067   3.767   2.716   0.006  0.0464  0.4770 -0.5543
 9203SOL    HW139068   3.804   2.739  17.609  1.7562 -1.6358 -0.3879
 9203SOL    HW239069   3.832   2.657   0.046  0.1668  1.4557  0.6952
 9204SOL     OW39070   1.762   0.542   7.744  0.2366 -0.1333 -0.4510
 9204SOL    HW139071   1.711   0.568   7.668  2.1249 -0.5580 -1.8608
 9204SOL    HW239072   1.823   0.615   7.739 -0.6884  0.5894 -1.0430
 9205SOL     OW39073   2.003   0.582   5.391 -0.0504 -0.2290  0.0260
 9205SOL    HW139074   1.912   0.570   5.365  1.1241 -2.5643 -3.0057
 9205SOL    HW239075   2.034   0.638   5.319  1.7930 -0.0263  0.9701
 9206SOL     OW39076   3.086   2.804   0.941 -0.3725  0.2361 -0.3448
 9206SOL    HW139077   3.159   2.836   0.888 -0.7416 -0.8116 -1.4979
 9206SOL    HW239078   3.026   2.757   0.883  0.6735  0.3540 -1.5252
 9207SOL     OW39079   1.987   2.334   0.710  0.4905 -0.2532 -0.7806
 9207SOL    HW139080   1.970   2.427   0.690  3.5900 -0.0024 -2.3090
 9207SOL    HW239081   2.007   2.321   0.617  0.3948 -0.7345 -0.7293
 9208SOL     OW39082   3.350   2.811  12.463 -0.1199  0.3447 -0.1532
 9208SOL    HW139083   3.274   2.832  12.517 -0.2531 -0.9059  0.1368
 9208SOL    HW239084   3.373   2.898  12.429  3.2551 -2.1018 -4.1788
 9209SOL     OW39085   1.865   3.148   5.971 -0.1714  0.0787  0.2039
 9209SOL    HW139086   1.914   3.068   5.989  1.2630  0.8293 -0.3185
 9209SOL    HW239087   1.904   3.165   5.885 -0.3309 -3.2268 -0.5048
 9210SOL     OW39088   1.678   0.101   2.285  0.3611  0.3261  0.1412
 9210SOL    HW139089   1.771   0.118   2.300  0.4729 -0.8777  0.8479
 9210SOL    HW239090   1.641   0.188   2.271  1.9850  0.9936 -0.0571
 9211SOL     OW39091   0.345   1.991   2.858  0.1151  0.1419 -0.3630
 9211SOL    HW139092   0.392   1.915   2.894  1.3144 -0.0171 -2.2895
 9211SOL    HW239093   0.310   1.961   2.775 -0.0439 -0.2915 -0.1408
 9212SOL     OW39094   1.582   2.269   2.532 -0.1760  0.1373  0.1580
 9212SOL    HW139095   1.566   2.340   2.595  0.0037 -1.3746  1.9116
 9212SOL    HW239096   1.619   2.316   2.457  0.5560  0.9834  1.0506
 9213SOL     OW39097   2.309   1.440   1.283 -0.7793 -0.2336  0.5332
 9213SOL    HW139098   2.332   1.349   1.300  1.3981  0.6193  2.0689
 9213SOL    HW239099   2.370   1.468   1.216 -1.8042  0.2529 -0.1982
 9214SOL     OW39100   0.242   4.505   7.338 -0.1774  0.0429 -0.5073
 9214SOL    HW139101   0.264   4.432   7.397 -1.0845  0.6158  0.5363
 9214SOL    HW239102   0.147   4.495   7.330 -0.2911  2.1902 -1.5940
 9215SOL     OW39103   1.765   0.141  10.275  0.2104  0.4987  0.2765
 9215SOL    HW139104   1.742   0.230  10.303  1.3750  0.7689  0.4135
 9215SOL    HW239105   1.682   0.115  10.235  0.9482  0.9201 -1.5264
 9216SOL     OW39106   4.500   4.057   3.892 -0.3363 -0.1648 -0.0661
 9216SOL    HW139107   4.525   4.081   3.982  1.4689  1.1605 -0.9175
 9216SOL    HW239108   4.504   4.129   3.830 -2.3610 -0.3476 -0.3938
 9217SOL     OW39109   2.997   0.693   7.690 -0.2452 -0.7132 -0.3051
 9217SOL    HW139110   2.935   0.630   7.653 -2.5635  1.9870 -0.9333
 9217SOL    HW239111   2.945   0.751   7.745  0.6420 -1.6109  1.4958
 9218SOL     OW39112   3.734   0.766   0.796 -0.5510 -0.6306 -0.0989
 9218SOL    HW139113   3.690   0.825   0.735 -2.9203 -1.3047  0.9529
 9218SOL    HW239114   3.740   0.687   0.742 -1.4057 -0.4844 -0.4062
 9219SOL     OW39115   0.816   2.184   3.872  0.0681 -0.1229  0.1106
 9219SOL    HW139116   0.757   2.260   3.874 -0.2422 -0.3679  0.2155
 9219SOL    HW239117   0.767   2.116   3.917  0.0989  0.1257  0.5145
 9220SOL     OW39118   3.392   4.213  15.679  0.1956  0.6198  0.2428
 9220SOL    HW139119   3.358   4.299  15.655  2.0743  0.5637 -2.5571
 9220SOL    HW239120   3.326   4.155  15.640  0.8810 -0.3145  0.4689
 9221SOL     OW39121   0.040   4.629   9.717 -0.2860  0.2712 -0.1738
 9221SOL    HW139122   0.007   4.544   9.746  0.3894  1.0491  2.8582
 9221SOL    HW239123   0.075   4.609   9.630  2.2086  0.1309  0.8753
 9222SOL     OW39124   2.547   4.081   6.254  0.2720  0.3001 -0.4644
 9222SOL    HW139125   2.558   4.158   6.310  0.7939 -0.1395  0.0343
 9222SOL    HW239126   2.565   4.010   6.315 -0.0405 -0.8869 -1.7562
 9223SOL     OW39127   3.867   1.482   3.445 -0.5703  0.2103 -0.0352
 9223SOL    HW139128   3.902   1.498   3.533 -0.2415 -0.3124 -0.0720
 9223SOL    HW239129   3.890   1.390   3.430 -0.9750 -0.0879  1.1794
 9224SOL     OW39130   3.992   4.557   8.839  0.2143  0.0559 -0.5143
 9224SOL    HW139131   4.075   4.511   8.831 -1.0402 -2.0495 -1.5138
 9224SOL    HW239132   3.971   4.533   8.929  3.6962 -1.9658 -0.2376
 9225SOL     OW39133   3.672   2.310   6.580  0.3839  0.4838 -0.3482
 9225SOL    HW139134   3.642   2.400   6.594 -1.4246 -0.4221  1.4836
 9225SOL    HW239135   3.689   2.324   6.487  0.9309  1.5663 -0.0839
 9226SOL     OW39136   3.197   0.983   5.019  0.0290 -0.6957  0.0406
 9226SOL    HW139137   3.170   1.037   4.945  1.0792  0.6474  0.6396
 9226SOL    HW239138   3.115   0.946   5.051  0.3404 -0.6531  0.8808
 9227SOL     OW39139   4.415   1.784   6.571  0.1105  0.2844  0.1806
 9227SOL    HW139140   4.448   1.740   6.649 -1.3257 -2.4395 -0.7443
 9227SOL    HW239141   4.342   1.822   6.620 -0.5494  0.5794 -1.0390
 9228SOL     OW39142   3.708   2.919   4.229  0.1917  0.2905 -0.5824
 9228SOL    HW139143   3.764   2.955   4.297 -0.8226  1.1825 -0.2260
 9228SOL    HW239144   3.676   2.996   4.183  0.7512 -0.0304 -1.5198
 9229SOL     OW39145   3.013   0.018   6.084  0.3861  0.2252 -0.5235
 9229SOL    HW139146   2.976   4.653   6.068 -2.3427  0.9379  1.9936
 9229SOL    HW239147   2.950   0.061   6.142  1.1262 -0.7263  0.9708
 9230SOL     OW39148   0.884   1.942   0.724  0.0296 -0.3255 -0.2172
 9230SOL    HW139149   0.896   1.941   0.629  0.2164  2.5747 -0.2427
 9230SOL    HW239150   0.931   1.863   0.750 -0.1382  0.0097  1.0708
 9231SOL     OW39151   0.833   3.675  14.861  0.3307 -0.0898  0.1450
 9231SOL    HW139152   0.845   3.689  14.767 -0.9341 -1.5308 -0.2296
 9231SOL    HW239153   0.742   3.648  14.872  0.7702 -1.9317 -0.7021
 9232SOL     OW39154   3.719   4.514   6.735  0.0148  0.5843 -0.4741
 9232SOL    HW139155   3.741   4.421   6.737 -0.2591  0.5346  0.1858
 9232SOL    HW239156   3.746   4.552   6.819  0.6187  0.2401 -0.5181
 9233SOL     OW39157   2.348   3.168   8.016 -0.1210  0.8460  0.0308
 9233SOL    HW139158   2.359   3.231   7.945 -1.8178 -1.3078 -2.1365
 9233SOL    HW239159   2.297   3.217   8.081  1.1998  1.3634  0.6705
 9234SOL     OW39160   1.467   3.819   5.243 -0.7967 -0.2603  0.0127
 9234SOL    HW139161   1.511   3.784   5.321  1.0954 -2.2430 -1.9237
 9234SOL    HW239162   1.504   3.906   5.232 -0.8439  0.1299  2.8228
 9235SOL     OW39163   3.525   1.339   8.135 -0.4099 -0.3989  0.6314
 9235SOL    HW139164   3.473   1.310   8.061  1.5697 -1.9561 -0.1353
 9235SOL    HW239165   3.570   1.416   8.101  1.1772 -2.2872 -1.5435
 9236SOL     OW39166   3.012   4.618   2.928  0.0225  0.9891  0.3140
 9236SOL    HW139167   2.919   4.633   2.943  0.3190  3.1169  0.0634
 9236SOL    HW239168   3.053   4.691   2.974  0.4200  0.7307  0.3681
 9237SOL     OW39169   0.525   2.636   6.191 -0.1598 -0.4753 -0.3887
 9237SOL    HW139170   0.488   2.557   6.152 -0.9980 -0.0766 -0.3881
 9237SOL    HW239171   0.607   2.647   6.141  0.0609  4.4414  1.0368
 9238SOL     OW39172   2.931   1.345   3.742 -0.6723  0.1904  0.0498
 9238SOL    HW139173   2.960   1.408   3.676  0.0017 -2.2046 -1.9061
 9238SOL    HW239174   2.989   1.271   3.725 -0.1596  0.5755  0.0933
 9239SOL     OW39175   2.397   4.333   6.612  0.2965 -0.1236  0.6203
 9239SOL    HW139176   2.403   4.426   6.587  0.4099 -0.2674  0.1114
 9239SOL    HW239177   2.334   4.337   6.684 -0.4544 -0.5168 -0.0228
 9240SOL     OW39178   1.316   2.906  11.055 -0.0675  0.4708  0.4332
 9240SOL    HW139179   1.245   2.861  11.101  0.4194  0.7271  1.4288
 9240SOL    HW239180   1.267   2.958  10.992  1.1534  0.4778 -0.5131
 9241SOL     OW39181   2.914   1.918  14.827 -0.7598  0.6168 -0.3636
 9241SOL    HW139182   2.836   1.864  14.844 -0.9952  0.8291 -0.7607
 9241SOL    HW239183   2.908   1.944  14.735  0.4023 -1.2103 -0.9535
 9242SOL     OW39184   0.512   2.931   3.542 -0.3195  0.2251  0.1102
 9242SOL    HW139185   0.597   2.935   3.499  0.3846  0.0979  1.4921
 9242SOL    HW239186   0.469   2.862   3.492 -0.1512 -0.6325  1.1390
 9243SOL     OW39187   2.366   4.498   4.852  0.1997 -0.0537 -0.4484
 9243SOL    HW139188   2.450   4.452   4.851  0.7143  0.9101 -0.8557
 9243SOL    HW239189   2.394   4.588   4.839 -3.0660  0.9566 -0.3994
 9244SOL     OW39190   4.246   0.593   0.203 -0.5546 -0.0539  0.0822
 9244SOL    HW139191   4.327   0.645   0.203 -1.2482  1.0280 -0.7415
 9244SOL    HW239192   4.231   0.584   0.110 -0.9116 -3.7205  0.5213
 9245SOL     OW39193   2.629   2.572   0.246  0.0548 -0.1072  0.1480
 9245SOL    HW139194   2.715   2.614   0.245  0.5913 -1.1652  1.9430
 9245SOL    HW239195   2.575   2.627   0.302 -1.1938 -1.6892  0.4988
 9246SOL     OW39196   0.174   1.736   7.420 -0.5638  0.5666  0.2913
 9246SOL    HW139197   0.243   1.692   7.470  0.6203  1.7734 -0.2878
 9246SOL    HW239198   0.100   1.676   7.431 -1.8041  2.1589  0.6003
 9247SOL     OW39199   4.442   4.576   2.957  0.1007  0.2425  0.3575
 9247SOL    HW139200   4.428   4.523   2.879  2.9564 -0.3967  0.2618
 9247SOL    HW239201   4.536   4.567   2.975 -0.2201  1.3675  2.6517
 9248SOL     OW39202   1.441   4.375  15.861  0.1525 -0.2103 -0.4796
 9248SOL    HW139203   1.497   4.346  15.933 -0.5366 -1.8391 -0.5984
 9248SOL    HW239204   1.381   4.302  15.847 -0.1732 -0.5310  2.4696
 9249SOL     OW39205   2.718   0.606   6.690  0.3400 -0.2716  0.0523
 9249SOL    HW139206   2.716   0.536   6.624 -1.8744 -0.7474  0.6426
 9249SOL    HW239207   2.741   0.680   6.633 -0.6958 -0.2473 -0.3407
 9250SOL     OW39208   3.938   3.461   2.208 -0.1534  0.6529  0.2860
 9250SOL    HW139209   3.851   3.441   2.173  0.7456 -1.3994 -0.7245
 9250SOL    HW239210   3.951   3.394   2.274  1.3102  0.4094 -0.2525
 9251SOL     OW39211   1.841   3.338   6.207 -0.7921  0.3589  0.2318
 9251SOL    HW139212   1.820   3.261   6.155  1.1144 -0.3595  0.5201
 9251SOL    HW239213   1.814   3.310   6.295 -1.8865 -0.0398 -0.2396
 9252SOL     OW39214   4.078   2.148   2.238  0.2184 -0.8432  0.7492
 9252SOL    HW139215   4.038   2.235   2.240 -0.0874 -0.9448 -1.6511
 9252SOL    HW239216   4.171   2.168   2.251  0.4752 -1.3182 -0.3920
 9253SOL     OW39217   0.278   1.119   9.655 -0.2818  0.4619  0.2660
 9253SOL    HW139218   0.248   1.029   9.673  2.1790 -0.4473 -0.2483
 9253SOL    HW239219   0.320   1.105   9.570  1.0427  1.4651  0.7679
 9254SOL     OW39220   3.713   3.514   5.722  0.3270 -0.4709  0.2564
 9254SOL    HW139221   3.645   3.452   5.698  0.2104 -1.4443  3.0636
 9254SOL    HW239222   3.739   3.556   5.640 -0.7588  0.4555  0.3917
 9255SOL     OW39223   1.501   4.171   8.778  0.3860  0.1970 -1.0754
 9255SOL    HW139224   1.510   4.263   8.751  1.8848  0.1276 -0.8199
 9255SOL    HW239225   1.551   4.131   8.707 -1.9143 -2.3808 -1.2555
 9256SOL     OW39226   1.026   1.031   2.349  0.5398 -0.1316  0.0554
 9256SOL    HW139227   1.071   1.088   2.411  1.9271  0.4227 -1.4652
 9256SOL    HW239228   1.025   0.955   2.406 -0.4345  0.0340  0.2637
 9257SOL     OW39229   2.763   3.520   6.753  0.4735  0.4984 -0.8311
 9257SOL    HW139230   2.833   3.479   6.702  1.4783  0.8603  0.2728
 9257SOL    HW239231   2.784   3.493   6.843 -0.2078  1.8670 -0.2738
 9258SOL     OW39232   2.092   1.938   1.594  0.8557  0.4922 -0.1224
 9258SOL    HW139233   2.044   1.987   1.660  1.3045 -0.5758  1.0006
 9258SOL    HW239234   2.096   1.998   1.520 -0.9062 -1.9238 -2.2175
 9259SOL     OW39235   0.983   1.740   3.566 -0.3528 -0.3664  0.5589
 9259SOL    HW139236   1.035   1.721   3.488 -1.9641  0.7548 -0.7731
 9259SOL    HW239237   1.056   1.739   3.628 -2.4094  1.2504  2.9847
 9260SOL     OW39238   2.007   2.105   1.800  0.0813 -0.3949  0.3035
 9260SOL    HW139239   2.077   2.132   1.859  1.6374  2.0034 -2.6405
 9260SOL    HW239240   1.949   2.059   1.860  2.3550 -2.6936  0.7232
 9261SOL     OW39241   0.697   1.768   4.553 -0.0883  0.1874  0.0715
 9261SOL    HW139242   0.784   1.727   4.558  0.9825  2.5348  0.2786
 9261SOL    HW239243   0.694   1.789   4.460 -0.1639 -1.6733 -0.3535
 9262SOL     OW39244   2.322   2.253   6.059 -0.4377  0.2081 -0.8047
 9262SOL    HW139245   2.324   2.258   6.155  0.6995 -1.6999 -0.7262
 9262SOL    HW239246   2.229   2.236   6.049 -0.4547  0.1751 -0.5894
 9263SOL     OW39247   2.794   4.441   1.671  0.2373 -0.1047  0.0086
 9263SOL    HW139248   2.773   4.521   1.719  0.8855  1.3433 -2.0788
 9263SOL    HW239249   2.821   4.481   1.588  0.5668 -1.1292 -0.3791
 9264SOL     OW39250   4.407   2.568   2.450 -0.2839 -0.0395  0.3617
 9264SOL    HW139251   4.489   2.521   2.440 -0.2079  0.1963 -0.1514
 9264SOL    HW239252   4.368   2.585   2.364 -2.1212 -1.5639  0.8936
 9265SOL     OW39253   3.797   2.606   8.678  0.3097  0.2880  0.0626
 9265SOL    HW139254   3.876   2.650   8.709 -0.1944  1.1318  0.1436
 9265SOL    HW239255   3.840   2.545   8.617 -0.5959 -0.7328  0.4558
 9266SOL     OW39256   2.123   1.710   1.453  0.0754  0.0019 -0.4681
 9266SOL    HW139257   2.217   1.696   1.461 -0.6155 -3.0752  2.5805
 9266SOL    HW239258   2.108   1.791   1.502  1.1931  0.8948 -1.6225
 9267SOL     OW39259   2.612   4.110   7.748  0.0097  0.2418  0.2122
 9267SOL    HW139260   2.616   4.059   7.829 -0.4169  2.2529  1.5003
 9267SOL    HW239261   2.603   4.201   7.776  2.6116  0.7989 -0.8182
 9268SOL     OW39262   1.782   2.486  11.732  0.2822  0.5992 -0.4451
 9268SOL    HW139263   1.804   2.579  11.738 -0.8960  0.9634 -1.7855
 9268SOL    HW239264   1.853   2.447  11.783  1.4682 -0.0870 -2.5954
 9269SOL     OW39265   3.905   3.976   1.234 -0.2569  0.9319  0.1810
 9269SOL    HW139266   3.848   3.909   1.271  0.3356  0.5072  0.3282
 9269SOL    HW239267   3.915   4.043   1.301  0.6875  1.5509 -0.5749
 9270SOL     OW39268   3.823   4.459   5.496  0.4965  0.1027 -0.4300
 9270SOL    HW139269   3.752   4.516   5.467 -0.2618 -0.9104 -0.5511
 9270SOL    HW239270   3.850   4.417   5.415 -0.1840  0.8403 -1.0413
 9271SOL     OW39271   2.632   2.482   8.509 -0.2118  0.6171  0.4165
 9271SOL    HW139272   2.721   2.449   8.515  0.2809  2.0579  0.9221
 9271SOL    HW239273   2.582   2.428   8.570  0.2324  0.4603  0.6366
 9272SOL     OW39274   1.935   1.302   3.795 -0.1328  0.4629 -0.1637
 9272SOL    HW139275   2.006   1.362   3.818 -0.1504  1.4007 -2.4763
 9272SOL    HW239276   1.971   1.224   3.753  0.3060  1.5930 -1.8860
 9273SOL     OW39277   2.973   0.720   3.927 -1.2804  0.0197 -0.3589
 9273SOL    HW139278   2.917   0.650   3.959 -0.7171 -0.7596 -1.0922
 9273SOL    HW239279   3.059   0.694   3.959 -0.9820 -0.6697 -1.6991
 9274SOL     OW39280   0.242   3.832  13.744  0.4194 -0.1986  0.0580
 9274SOL    HW139281   0.173   3.875  13.795  0.3823  0.1348 -0.2783
 9274SOL    HW239282   0.316   3.892  13.746  0.9262 -0.8104 -0.5449
 9275SOL     OW39283   0.827   0.271   6.285 -0.1410 -0.1576  0.2266
 9275SOL    HW139284   0.780   0.339   6.333  0.9919  0.7100  0.0938
 9275SOL    HW239285   0.753   0.225   6.245 -1.2616  1.9885 -0.1391
 9276SOL     OW39286   3.271   4.330  15.437 -0.7498 -0.0288  0.4520
 9276SOL    HW139287   3.228   4.331  15.351  0.9999  0.2808 -0.4153
 9276SOL    HW239288   3.326   4.408  15.431 -0.1646 -0.4958 -0.3234
 9277SOL     OW39289   1.097   3.671   1.583 -0.2064  0.7524  0.0032
 9277SOL    HW139290   1.031   3.602   1.586  0.6434 -0.1684 -2.6003
 9277SOL    HW239291   1.132   3.680   1.672  1.5249 -1.1393 -0.4816
 9278SOL     OW39292   4.301   4.220   3.155  0.6000  0.2251 -1.0459
 9278SOL    HW139293   4.333   4.144   3.205 -0.5095  1.2443  1.2125
 9278SOL    HW239294   4.376   4.251   3.104  0.1489  0.1470 -1.7600
 9279SOL     OW39295   0.412   3.401   5.916  0.4268 -0.5940  0.2708
 9279SOL    HW139296   0.391   3.352   5.836 -1.7034 -0.6343  0.8551
 9279SOL    HW239297   0.405   3.494   5.896 -0.4704 -0.2588  2.1082
 9280SOL     OW39298   0.490   3.090   2.325 -0.0470  0.1605 -0.1298
 9280SOL    HW139299   0.489   3.098   2.421 -1.4464  0.9287 -0.2181
 9280SOL    HW239300   0.549   3.014   2.318  0.5576  0.6506 -0.3674
 9281SOL     OW39301   2.430   1.492   2.174 -0.3183 -0.0814  0.1566
 9281SOL    HW139302   2.425   1.562   2.109 -0.3758 -0.9853 -0.7995
 9281SOL    HW239303   2.525   1.497   2.188 -0.1978 -0.3383 -0.5913
 9282SOL     OW39304   2.035   3.429   3.852  0.1377 -0.2282 -0.3014
 9282SOL    HW139305   2.122   3.389   3.843  0.2290 -0.0946  0.0068
 9282SOL    HW239306   2.067   3.500   3.907 -0.8561 -0.8113  1.0242
 9283SOL     OW39307   0.264   0.571   9.447 -0.0769 -0.0164 -0.0744
 9283SOL    HW139308   0.242   0.557   9.540 -0.0298  0.3723 -0.0050
 9283SOL    HW239309   0.195   0.524   9.401  0.2155 -0.2813 -0.2347
 9284SOL     OW39310   0.065   2.868   5.731 -0.2013 -0.1044 -0.0528
 9284SOL    HW139311   0.091   2.816   5.655 -1.4102  1.2350 -1.3973
 9284SOL    HW239312   0.144   2.873   5.785  0.4447 -1.7012 -0.8307
 9285SOL     OW39313   1.640   1.761   1.349  0.4686 -0.0355 -0.3208
 9285SOL    HW139314   1.575   1.807   1.402  0.3803  0.0205 -0.4810
 9285SOL    HW239315   1.624   1.675   1.389 -0.9148 -0.1458 -1.1184
 9286SOL     OW39316   2.423   2.295   5.452 -0.6276  0.2672  0.2988
 9286SOL    HW139317   2.480   2.335   5.387 -1.5325  0.4213 -0.3942
 9286SOL    HW239318   2.429   2.353   5.528  2.7025 -1.2674  1.2186
 9287SOL     OW39319   0.958   3.599   3.094 -0.7592 -0.3457  0.1290
 9287SOL    HW139320   0.978   3.634   3.008  0.9001 -1.1440  0.1860
 9287SOL    HW239321   1.019   3.526   3.090 -0.6001 -0.2963  1.4521
 9288SOL     OW39322   0.565   2.322   8.819 -0.0759 -0.2109 -0.1977
 9288SOL    HW139323   0.630   2.259   8.852  2.0148  1.6703 -0.7565
 9288SOL    HW239324   0.598   2.404   8.854 -1.8133  0.9451 -1.2637
 9289SOL     OW39325   0.868   1.681   8.443  0.4337  0.5073 -0.0597
 9289SOL    HW139326   0.962   1.665   8.448  0.0220 -1.7190  0.5981
 9289SOL    HW239327   0.827   1.599   8.469  2.4647 -1.0180 -1.7307
 9290SOL     OW39328   2.447   1.266   7.630 -0.4502 -0.1712 -0.2315
 9290SOL    HW139329   2.455   1.284   7.723  0.1414 -0.1605 -0.2783
 9290SOL    HW239330   2.443   1.170   7.626 -0.8326 -0.1718  0.1740
 9291SOL     OW39331   2.700   1.920  11.436  0.0560  0.4697  1.0950
 9291SOL    HW139332   2.657   1.958  11.360 -1.4678 -0.6863  1.3903
 9291SOL    HW239333   2.634   1.932  11.504 -1.0401 -0.9759  0.2812
 9292SOL     OW39334   0.489   2.094   8.016  0.8244 -0.4505  0.3271
 9292SOL    HW139335   0.423   2.048   7.965  0.0505  0.2852  0.6686
 9292SOL    HW239336   0.457   2.183   8.024  1.5145 -0.2482  0.8168
 9293SOL     OW39337   0.915   1.462   3.403  0.3616 -0.5464 -0.2726
 9293SOL    HW139338   0.923   1.550   3.365  2.8178 -1.3460 -1.6155
 9293SOL    HW239339   0.820   1.449   3.399  0.0271  1.7485  0.3532
 9294SOL     OW39340   2.802   4.236   9.712  0.1797  0.0144  0.5785
 9294SOL    HW139341   2.851   4.267   9.788 -0.5380 -1.8917  1.8332
 9294SOL    HW239342   2.710   4.263   9.711  0.4327  0.8642  0.2407
 9295SOL     OW39343   0.499   4.339   6.923 -0.0430  0.0905 -0.1068
 9295SOL    HW139344   0.463   4.427   6.938 -0.2134 -0.4631  2.8272
 9295SOL    HW239345   0.506   4.343   6.828 -2.1303  0.1260 -0.2631
 9296SOL     OW39346   2.654   2.840   1.151 -0.4055 -0.1671 -0.6079
 9296SOL    HW139347   2.695   2.869   1.232 -1.0518  3.3349 -1.5481
 9296SOL    HW239348   2.596   2.913   1.129 -1.4101 -0.8090 -0.1238
 9297SOL     OW39349   2.526   2.791   0.404  0.3689 -0.0064 -0.1084
 9297SOL    HW139350   2.434   2.795   0.428  0.5410 -0.5827  0.6206
 9297SOL    HW239351   2.525   2.852   0.330 -0.2953  2.2925  1.8304
 9298SOL     OW39352   4.081   0.843  17.637  0.2821 -0.3606  0.2496
 9298SOL    HW139353   4.050   0.923  17.679 -1.2977 -1.2188  0.7215
 9298SOL    HW239354   3.991   0.822  17.611  0.1223 -1.2607  1.5821
 9299SOL     OW39355   4.417   4.507   1.858 -0.5234 -0.0397  0.8044
 9299SOL    HW139356   4.447   4.417   1.871  0.6084  0.0349 -1.2520
 9299SOL    HW239357   4.327   4.488   1.835 -0.3751 -0.8778  0.9147
 9300SOL     OW39358   4.394   4.434   7.633 -0.5785  0.0988  0.5287
 9300SOL    HW139359   4.390   4.495   7.560 -0.3056 -1.0501 -0.4441
 9300SOL    HW239360   4.448   4.359   7.606 -2.8627 -0.9360 -1.1484
 9301SOL     OW39361   2.956   1.688   7.029 -0.0178  0.2782  0.1540
 9301SOL    HW139362   3.035   1.724   6.989 -0.5729  3.0265  1.5645
 9301SOL    HW239363   2.963   1.734   7.112  1.5589  0.8032 -0.2634
 9302SOL     OW39364   0.210   3.612   5.616 -0.0900  0.4654  0.2130
 9302SOL    HW139365   0.137   3.672   5.630 -0.4331  0.5874 -2.0168
 9302SOL    HW239366   0.172   3.532   5.652 -0.0921  0.7431  0.8259
 9303SOL     OW39367   0.736   3.913   5.656  0.2984 -0.0992 -0.7255
 9303SOL    HW139368   0.761   3.999   5.691  1.0686 -1.0681  1.0460
 9303SOL    HW239369   0.649   3.944   5.629  0.5977  0.8982 -0.5608
 9304SOL     OW39370   4.520   4.028   7.393 -0.0877  0.4227  0.0917
 9304SOL    HW139371   4.435   4.040   7.352 -0.1612  0.5312  0.2817
 9304SOL    HW239372   4.572   4.029   7.312  0.3966 -0.2426  0.3891
 9305SOL     OW39373   1.149   3.130   4.860 -0.5994 -0.0371 -0.1799
 9305SOL    HW139374   1.192   3.063   4.807  3.7971  2.4617  0.2357
 9305SOL    HW239375   1.088   3.173   4.800 -2.3546 -2.1019  0.1202
 9306SOL     OW39376   2.106   1.981  12.251  0.1719  0.4545 -0.2274
 9306SOL    HW139377   2.173   1.965  12.317  0.0658  0.3599 -0.1428
 9306SOL    HW239378   2.129   2.069  12.223  2.5832 -0.3028 -0.6203
 9307SOL     OW39379   0.933   2.603   4.150  0.4268  0.2016 -0.2911
 9307SOL    HW139380   0.841   2.602   4.175  0.0271 -0.0803 -1.7765
 9307SOL    HW239381   0.936   2.645   4.064 -2.0700  2.2171  0.5927
 9308SOL     OW39382   2.877   1.474   3.255  0.3444 -0.3625 -0.8633
 9308SOL    HW139383   2.955   1.530   3.251  1.3151 -1.8600 -3.1813
 9308SOL    HW239384   2.907   1.411   3.189  2.2581 -1.4901  1.1004
 9309SOL     OW39385   1.473   2.090   3.617 -0.6834  0.2503 -0.4876
 9309SOL    HW139386   1.559   2.119   3.649 -0.9487 -0.7545  1.1462
 9309SOL    HW239387   1.478   1.998   3.644 -1.5758  0.0311 -1.0700
 9310SOL     OW39388   3.462   2.545   2.292 -0.5678 -0.0931  0.4984
 9310SOL    HW139389   3.376   2.557   2.251 -1.3196 -1.6813  1.5878
 9310SOL    HW239390   3.465   2.450   2.302  0.8469 -0.0689  0.2372
 9311SOL     OW39391   3.635   3.343   4.368  0.5859  0.1927 -0.0409
 9311SOL    HW139392   3.685   3.344   4.286 -1.4861 -0.0239 -1.2914
 9311SOL    HW239393   3.557   3.391   4.343  1.2274  1.5284  0.5245
 9312SOL     OW39394   2.360   1.947   4.535  0.2494 -0.3588 -0.6437
 9312SOL    HW139395   2.351   2.028   4.485  1.8468  0.6214  0.6694
 9312SOL    HW239396   2.275   1.914   4.564  0.2703  0.8793  0.8449
 9313SOL     OW39397   3.564   0.396   4.544 -0.1030  0.1582  0.5642
 9313SOL    HW139398   3.512   0.332   4.495  1.2522 -1.0109  0.6368
 9313SOL    HW239399   3.653   0.365   4.527 -0.5935 -0.9010 -0.1352
 9314SOL     OW39400   3.524   1.901   3.600 -0.6515 -0.8817  0.4706
 9314SOL    HW139401   3.579   1.859   3.534 -0.6647  0.3438 -0.3020
 9314SOL    HW239402   3.575   1.981   3.613 -1.7148 -0.2717  0.8193
 9315SOL     OW39403   4.610   1.774   1.545  0.2831 -0.3467  0.2673
 9315SOL    HW139404   4.519   1.790   1.520  0.5675  0.3007 -0.3648
 9315SOL    HW239405   4.618   1.686   1.509  2.7376 -0.2779  0.6233
 9316SOL     OW39406   3.614   3.906   1.584 -0.4406  0.2915 -0.5990
 9316SOL    HW139407   3.587   3.837   1.524  0.2763  0.8062 -1.5197
 9316SOL    HW239408   3.541   3.966   1.568  1.2233  2.4730 -0.1460
 9317SOL     OW39409   3.492   1.730   8.083  0.3026  0.2242  0.0633
 9317SOL    HW139410   3.489   1.756   7.991 -1.6075 -0.6020 -0.1053
 9317SOL    HW239411   3.409   1.686   8.098 -0.6482  1.5632 -1.2473
 9318SOL     OW39412   4.616   1.258   5.457 -0.3931 -0.4722 -0.7286
 9318SOL    HW139413   4.664   1.276   5.376  1.5880  1.4762  0.8548
 9318SOL    HW239414   4.682   1.221   5.516 -0.1326  1.2328  0.0523
 9319SOL     OW39415   3.276   3.467   7.616  0.3490  0.7841 -0.1818
 9319SOL    HW139416   3.272   3.562   7.632  0.6393  0.6283  0.8428
 9319SOL    HW239417   3.371   3.456   7.627  0.1336 -1.1239 -0.3717
 9320SOL     OW39418   2.320   2.751   5.620 -0.1929 -0.2464  0.0137
 9320SOL    HW139419   2.252   2.693   5.653  0.1450  0.3242  1.6790
 9320SOL    HW239420   2.291   2.839   5.645 -2.4837 -0.9366 -0.2075
 9321SOL     OW39421   0.298   1.413   1.028  0.2445  0.0496 -0.0671
 9321SOL    HW139422   0.371   1.437   1.085  0.8198  1.0613 -1.2130
 9321SOL    HW239423   0.259   1.500   1.021  0.9352  0.3249 -0.5848
 9322SOL     OW39424   2.691   2.792   9.016 -0.6623  0.4302  0.5456
 9322SOL    HW139425   2.699   2.887   9.027 -0.2707  0.1044  3.0821
 9322SOL    HW239426   2.722   2.776   8.927 -0.6512  0.4937  0.5381
 9323SOL     OW39427   3.236   2.192  15.142 -0.2929 -0.3595  0.3278
 9323SOL    HW139428   3.276   2.160  15.061 -0.7929  1.5482 -0.6745
 9323SOL    HW239429   3.268   2.282  15.154  2.0610 -1.0177 -0.9523
 9324SOL     OW39430   3.419   3.168  13.194 -0.1588 -0.3200  0.7666
 9324SOL    HW139431   3.497   3.182  13.247 -2.1404 -1.1096  3.8567
 9324SOL    HW239432   3.349   3.144  13.255  0.3717  1.7442  2.1683
 9325SOL     OW39433   0.077   0.410   1.987 -0.1892  0.2624  0.0881
 9325SOL    HW139434   0.101   0.384   2.076  3.3984  0.2747 -0.9002
 9325SOL    HW239435   0.104   0.337   1.932  2.0558 -0.1657  1.7708
 9326SOL     OW39436   3.796   0.170   8.644 -0.2099 -0.7809  0.4702
 9326SOL    HW139437   3.723   0.224   8.673  0.6258  1.0121 -0.7942
 9326SOL    HW239438   3.772   0.102   8.707  2.4474 -2.1614 -0.0016
 9327SOL     OW39439   0.675   4.715  15.968  0.0538  0.1403 -0.3032
 9327SOL    HW139440   0.641   0.075  16.003 -2.0599 -0.7060 -0.3947
 9327SOL    HW239441   0.710   0.013  15.881  0.0664 -0.6713 -0.4831
 9328SOL     OW39442   4.446   0.996   3.879 -0.1165  0.1579  0.3655
 9328SOL    HW139443   4.501   1.054   3.826 -0.1844 -0.1806 -0.0668
 9328SOL    HW239444   4.504   0.997   3.956  0.1646  0.8628  0.1480
 9329SOL     OW39445   3.706   2.105  12.416  0.0324  0.0182 -0.2120
 9329SOL    HW139446   3.679   2.188  12.456 -1.3819  0.2713 -1.7134
 9329SOL    HW239447   3.799   2.109  12.439  0.3653  1.1005 -1.8189
 9330SOL     OW39448   2.254   1.214  12.764  0.2950 -0.3088 -0.4710
 9330SOL    HW139449   2.267   1.121  12.745 -3.0063 -0.5649 -1.5206
 9330SOL    HW239450   2.247   1.216  12.859 -1.4450  1.3654 -0.6339
 9331SOL     OW39451   4.665   0.978   3.466 -0.2736  0.0424  0.1163
 9331SOL    HW139452   4.688   1.070   3.480 -1.0310 -0.4121  4.3844
 9331SOL    HW239453   4.675   0.978   3.371 -2.1808 -0.4644 -0.0812
 9332SOL     OW39454   1.264   3.013   0.827  0.0074 -0.3840 -0.3358
 9332SOL    HW139455   1.336   3.037   0.886  1.7375 -0.5478 -2.3621
 9332SOL    HW239456   1.213   3.094   0.825 -2.2244 -1.7995  0.4528
 9333SOL     OW39457   0.606   2.954   4.617 -0.2322  0.7620  0.0555
 9333SOL    HW139458   0.684   2.971   4.670 -1.0720 -2.2410  2.2709
 9333SOL    HW239459   0.595   2.860   4.635  3.7503  0.2892  0.0729
 9334SOL     OW39460   2.763   2.268   6.396  0.4545 -0.3077 -0.4379
 9334SOL    HW139461   2.784   2.348   6.444 -0.6487 -0.8586  0.9698
 9334SOL    HW239462   2.797   2.200   6.454  1.0127  0.5401  0.2260
 9335SOL     OW39463   0.831   3.778  14.351  0.0280  0.4258 -0.5350
 9335SOL    HW139464   0.743   3.797  14.316  0.4801  2.1451 -0.7336
 9335SOL    HW239465   0.877   3.816  14.276 -0.1589 -1.3794 -1.5859
 9336SOL     OW39466   0.278   2.216  16.398 -0.1067 -0.2981  0.3965
 9336SOL    HW139467   0.228   2.295  16.416  1.5677  1.3638 -2.1887
 9336SOL    HW239468   0.311   2.193  16.485  0.5654  2.3095  0.8267
 9337SOL     OW39469   3.387   2.117   8.355  0.0992  0.1088  0.0525
 9337SOL    HW139470   3.324   2.189   8.350  0.2758  0.3286  0.9156
 9337SOL    HW239471   3.387   2.077   8.268  0.1879 -1.9702  1.0064
 9338SOL     OW39472   1.212   4.462   3.100  0.3708  0.0512 -0.0840
 9338SOL    HW139473   1.187   4.373   3.126  0.2116 -0.0285 -0.5133
 9338SOL    HW239474   1.290   4.437   3.052 -0.0042  0.8034 -1.0721
 9339SOL     OW39475   4.657   0.404   5.921  0.2783  0.1346 -0.4558
 9339SOL    HW139476   4.604   0.328   5.897  1.5032  0.0968 -3.0404
 9339SOL    HW239477   0.015   0.398   5.869  1.8423  0.1967  1.9319
 9340SOL     OW39478   2.827   2.559   9.426  0.1436 -0.2131 -0.6821
 9340SOL    HW139479   2.788   2.622   9.365 -2.0939  0.0270  1.0253
 9340SOL    HW239480   2.904   2.523   9.381  2.5113  3.3414  0.4391
 9341SOL     OW39481   2.712   3.724  15.483  0.0919  0.0032 -0.1760
 9341SOL    HW139482   2.678   3.793  15.425  0.8086  0.6548  0.1757
 9341SOL    HW239483   2.787   3.699  15.429  0.6459 -0.8748  0.9884
 9342SOL     OW39484   0.712   3.046   3.915  0.2849  0.0127  0.5660
 9342SOL    HW139485   0.639   3.109   3.919 -0.5585 -0.8896 -0.6526
 9342SOL    HW239486   0.673   2.982   3.856  0.4642 -0.6868  1.2193
 9343SOL     OW39487   1.531   1.099  11.824 -0.0514 -0.1711 -0.1739
 9343SOL    HW139488   1.496   1.177  11.868  2.0448  0.0513  1.0885
 9343SOL    HW239489   1.459   1.072  11.767  0.1622 -0.0629 -0.4914
 9344SOL     OW39490   1.396   1.217   3.291  0.5756  0.2085  0.4384
 9344SOL    HW139491   1.429   1.245   3.376  1.5093  0.4378  0.0027
 9344SOL    HW239492   1.362   1.130   3.311 -0.3673  0.8294  1.5587
 9345SOL     OW39493   0.508   3.335   9.301  0.4349  0.0503  0.2957
 9345SOL    HW139494   0.568   3.369   9.367  0.6977  0.7022 -0.2864
 9345SOL    HW239495   0.564   3.292   9.237  0.2410 -1.5245  1.1798
 9346SOL     OW39496   0.346   3.972   6.041  0.6381 -0.1617 -0.4405
 9346SOL    HW139497   0.285   3.980   5.968 -1.7887 -3.2157  1.2519
 9346SOL    HW239498   0.295   3.945   6.118 -0.0932 -0.2363 -0.9459
 9347SOL     OW39499   0.759   0.001  10.410 -0.1574 -0.2631  0.1229
 9347SOL    HW139500   0.695   4.677  10.355  0.0333 -0.1937 -0.1555
 9347SOL    HW239501   0.801   4.646  10.450  1.6183  0.0211 -1.2155
 9348SOL     OW39502   1.588   3.391   6.428 -0.2875  0.0562 -0.0909
 9348SOL    HW139503   1.627   3.315   6.384 -0.6099 -0.4662  0.5325
 9348SOL    HW239504   1.512   3.412   6.374  0.4863  0.3212 -1.0745
 9349SOL     OW39505   1.486   1.197  16.976  0.3482 -0.4032  0.3378
 9349SOL    HW139506   1.523   1.150  16.901 -2.8822 -1.3302 -0.6564
 9349SOL    HW239507   1.454   1.123  17.028 -0.1012 -2.4936 -2.9536
 9350SOL     OW39508   0.476   1.085   3.962 -0.6142 -0.5536  0.0294
 9350SOL    HW139509   0.478   1.075   4.058 -1.7221 -1.6450 -0.0562
 9350SOL    HW239510   0.409   1.154   3.953  0.2778  0.1194 -1.4065
 9351SOL     OW39511   0.331   3.781   7.652  0.4307 -0.7754 -0.2391
 9351SOL    HW139512   0.361   3.836   7.580 -1.6051  1.1951  0.4271
 9351SOL    HW239513   0.284   3.832   7.719  4.2599  3.1718 -0.5862
 9352SOL     OW39514   0.364   0.969   9.252 -0.5479  0.5651  0.4806
 9352SOL    HW139515   0.269   0.955   9.249 -0.4501  0.0336 -0.3013
 9352SOL    HW239516   0.382   0.875   9.243  0.0196  0.6479  0.7976
 9353SOL     OW39517   1.819   3.618   2.085  0.1988 -0.3223 -0.0612
 9353SOL    HW139518   1.876   3.673   2.138 -1.0906  0.5603  0.4301
 9353SOL    HW239519   1.883   3.557   2.048  0.1037 -1.9916  2.5302
 9354SOL     OW39520   4.270   0.668   1.154 -0.1835 -0.0078 -0.1500
 9354SOL    HW139521   4.185   0.710   1.143  0.8854  1.7997 -1.4038
 9354SOL    HW239522   4.243   0.610   1.225 -0.9845  1.3984  0.6820
 9355SOL     OW39523   1.523   2.686  15.639  0.6382 -0.4384  0.1426
 9355SOL    HW139524   1.438   2.655  15.671  0.8889 -1.0274  0.2439
 9355SOL    HW239525   1.570   2.608  15.669 -0.7189 -1.7801 -1.1805
 9356SOL     OW39526   0.417   2.466   0.958  0.3058 -0.0367  0.2079
 9356SOL    HW139527   0.422   2.559   0.938 -0.2010 -0.1065 -0.2557
 9356SOL    HW239528   0.476   2.461   1.034  0.3407  0.3615  0.2062
 9357SOL     OW39529   0.037   3.519   3.638 -0.7734  0.1054 -0.1473
 9357SOL    HW139530   4.706   3.594   3.610 -0.0715  0.4138 -0.6299
 9357SOL    HW239531   4.687   3.455   3.640  0.9419 -1.7905  0.5375
 9358SOL     OW39532   3.031   1.116   3.641 -0.4257 -0.2956 -0.2146
 9358SOL    HW139533   3.107   1.106   3.698 -1.0518  0.0552  0.6969
 9358SOL    HW239534   3.030   1.031   3.596  0.5277  0.1336 -1.0282
 9359SOL     OW39535   1.765   4.525   6.276 -0.3073 -0.0051  0.3382
 9359SOL    HW139536   1.700   4.563   6.336 -0.0256  1.2996 -0.2026
 9359SOL    HW239537   1.830   4.593   6.289 -3.0509  2.5755  0.5598
 9360SOL     OW39538   1.412   2.529  13.925  0.2007  0.0528 -0.7445
 9360SOL    HW139539   1.337   2.544  13.982 -0.9670 -1.2888 -1.9314
 9360SOL    HW239540   1.452   2.614  13.944 -2.1167  0.5070  2.1186
 9361SOL     OW39541   0.637   0.567   4.038 -0.5269  0.8088 -0.2207
 9361SOL    HW139542   0.561   0.626   4.032 -1.0409  0.0060 -1.7279
 9361SOL    HW239543   0.635   0.527   4.124 -2.0352 -1.4605 -1.2978
 9362SOL     OW39544   3.204   3.192   0.851  1.1286  0.5796 -0.4888
 9362SOL    HW139545   3.224   3.276   0.891 -2.6208  1.6551 -0.9253
 9362SOL    HW239546   3.191   3.214   0.759  2.3630  1.2554 -0.4990
 9363SOL     OW39547   1.304   4.638   7.284  0.5669  0.0352  0.1740
 9363SOL    HW139548   1.279   4.557   7.329  0.5613  0.1341  0.3511
 9363SOL    HW239549   1.388   4.658   7.327 -0.2349 -0.6587  2.0946
 9364SOL     OW39550   4.351   0.085   7.852 -0.0067 -0.0041 -0.2244
 9364SOL    HW139551   4.303   0.017   7.804 -1.0994 -0.7453  1.9151
 9364SOL    HW239552   4.445   0.068   7.843 -0.3986 -1.0196 -2.3569
 9365SOL     OW39553   3.703   1.096   0.284 -0.2025  0.1085  0.7564
 9365SOL    HW139554   3.765   1.094   0.357  0.5524 -0.8095  0.0739
 9365SOL    HW239555   3.633   1.039   0.317 -0.6899  0.9234  1.1555
 9366SOL     OW39556   0.998   2.995   0.604 -0.6504 -0.0584 -0.0175
 9366SOL    HW139557   0.980   3.047   0.525  1.6054 -0.4883 -0.8214
 9366SOL    HW239558   1.091   2.973   0.594 -0.9013  0.0292 -2.7304
 9367SOL     OW39559   4.040   4.342   4.753  0.0414  0.0288  0.0708
 9367SOL    HW139560   4.016   4.259   4.712 -2.2501 -0.0052  1.4357
 9367SOL    HW239561   4.082   4.384   4.678  1.0827 -0.9487  0.1196
 9368SOL     OW39562   2.901   2.642   8.126 -0.4939 -0.1015  0.4844
 9368SOL    HW139563   2.918   2.703   8.054 -1.0250  0.9908  1.2721
 9368SOL    HW239564   2.863   2.705   8.187 -2.6954 -1.4685  0.4945
 9369SOL     OW39565   1.529   3.113   0.602  0.6658 -0.1451 -0.1053
 9369SOL    HW139566   1.504   3.030   0.642  2.0784 -1.2831 -1.5998
 9369SOL    HW239567   1.444   3.154   0.586  0.8565 -0.3914 -1.7302
 9370SOL     OW39568   3.744   3.159   4.009  0.1907  0.5321  0.2691
 9370SOL    HW139569   3.652   3.173   3.985 -0.1182 -0.3421  0.9743
 9370SOL    HW239570   3.792   3.186   3.931 -1.0738 -0.4861 -0.8477
 9371SOL     OW39571   3.901   0.739   9.037  0.2995  0.2232  0.1306
 9371SOL    HW139572   3.834   0.764   9.100  0.0876  0.7131 -0.2943
 9371SOL    HW239573   3.916   0.646   9.057 -0.9481 -0.9432 -4.2001
 9372SOL     OW39574   1.248   0.957   3.203 -0.2657 -0.1698  0.6655
 9372SOL    HW139575   1.196   1.000   3.271 -1.6237  1.4909 -1.4481
 9372SOL    HW239576   1.187   0.907   3.149 -1.3880  1.6774  0.2387
 9373SOL     OW39577   0.845   2.851   6.294  0.5931 -0.2726 -0.1339
 9373SOL    HW139578   0.845   2.854   6.390 -1.3429  0.0281 -0.1520
 9373SOL    HW239579   0.829   2.758   6.279 -0.6675 -0.7264  3.9069
 9374SOL     OW39580   1.751   3.254  17.575 -0.4897  0.4478  0.0144
 9374SOL    HW139581   1.739   3.348  17.590 -1.9300  0.2901 -0.1768
 9374SOL    HW239582   1.715   3.211  17.653 -0.9202  1.8631  0.5918
 9375SOL     OW39583   0.215   0.112  14.695 -0.4896  0.0233 -0.2520
 9375SOL    HW139584   0.261   0.077  14.618  0.6721  0.9651  0.0107
 9375SOL    HW239585   0.295   0.144  14.737  0.2761 -0.9805 -0.9389
 9376SOL     OW39586   1.372   4.524   4.895  0.1578  0.0535 -0.3190
 9376SOL    HW139587   1.406   4.447   4.940 -0.9284 -1.7681 -2.5911
 9376SOL    HW239588   1.304   4.485   4.841 -1.1577 -0.4633  1.7146
 9377SOL     OW39589   1.548   0.611   9.965  0.7691 -0.0262 -0.8434
 9377SOL    HW139590   1.493   0.552  10.016  0.6098  0.2519 -0.6882
 9377SOL    HW239591   1.623   0.556   9.945  0.7977  0.8815 -3.2257
 9378SOL     OW39592   0.225   3.228  12.239  0.6784  0.5430 -0.0707
 9378SOL    HW139593   0.137   3.252  12.267 -0.1585 -2.1892 -0.2728
 9378SOL    HW239594   0.255   3.314  12.211 -2.3232  1.8055  0.6712
 9379SOL     OW39595   1.856   0.135  12.178 -0.1517 -0.5104 -0.6884
 9379SOL    HW139596   1.764   0.132  12.205 -0.0516  0.5866 -0.2369
 9379SOL    HW239597   1.873   0.042  12.192  1.0596  0.0087  1.2667
 9380SOL     OW39598   1.607   4.192   6.186  0.0914 -0.5884  0.4903
 9380SOL    HW139599   1.604   4.102   6.219  2.0166 -1.1513 -0.8908
 9380SOL    HW239600   1.519   4.224   6.206  0.0500  0.2428 -1.0238
 9381SOL     OW39601   0.824   0.814  15.731 -0.4470 -0.4830 -0.3228
 9381SOL    HW139602   0.824   0.908  15.749 -4.4294 -0.4418 -0.5851
 9381SOL    HW239603   0.733   0.786  15.724 -0.7573 -0.1389  2.2528
 9382SOL     OW39604   4.339   0.102   0.019  0.1828  0.1567 -0.3191
 9382SOL    HW139605   4.285   0.036  17.664  0.2869  0.7701 -1.3751
 9382SOL    HW239606   4.312   0.180  17.659 -0.8375 -1.0824 -1.7570
 9383SOL     OW39607   3.450   2.814   1.946 -0.5700 -0.2330 -0.0228
 9383SOL    HW139608   3.535   2.794   1.907 -0.9368 -1.8163 -0.0044
 9383SOL    HW239609   3.395   2.859   1.882  2.0426  1.7916 -0.8411
 9384SOL     OW39610   0.947   1.553   6.664  0.1204 -0.2352  0.2230
 9384SOL    HW139611   0.938   1.473   6.612 -3.4650  0.7005 -0.6413
 9384SOL    HW239612   0.988   1.524   6.746 -0.4755  2.8788  1.6057
 9385SOL     OW39613   1.542   0.538  16.277 -0.2171 -0.3896  0.7738
 9385SOL    HW139614   1.573   0.625  16.302  1.4890 -0.9205  0.5043
 9385SOL    HW239615   1.447   0.535  16.285 -0.2048  1.7083  1.5876
 9386SOL     OW39616   0.540   1.367   2.845 -0.9460  0.1654  0.6635
 9386SOL    HW139617   0.510   1.331   2.762 -1.3430 -0.0619  0.9085
 9386SOL    HW239618   0.494   1.311   2.907 -3.0197 -0.4128 -1.4053
 9387SOL     OW39619   0.558   0.219   6.481 -0.0041  0.3656 -0.7103
 9387SOL    HW139620   0.474   0.225   6.436  0.5027 -0.1847 -1.7408
 9387SOL    HW239621   0.583   0.311   6.470 -1.2831  0.8135  0.0832
 9388SOL     OW39622   2.808   1.094   7.849  0.2184 -0.0104  0.4688
 9388SOL    HW139623   2.800   1.134   7.763 -2.2797  0.0996  0.7376
 9388SOL    HW239624   2.798   1.002   7.825 -1.2311  0.2891 -0.0454
 9389SOL     OW39625   2.760   1.628   6.195  0.0090  0.5733 -0.4151
 9389SOL    HW139626   2.746   1.623   6.101  0.8597 -2.9844 -0.3673
 9389SOL    HW239627   2.710   1.706   6.217 -0.3628  0.3284 -0.3797
 9390SOL     OW39628   3.784   0.439   3.755 -0.0179 -0.1314 -0.6197
 9390SOL    HW139629   3.780   0.343   3.757  0.2720 -0.1120  0.8294
 9390SOL    HW239630   3.808   0.453   3.663  2.2314 -1.1623 -0.1883
 9391SOL     OW39631   1.553   3.260  15.428 -0.2355 -0.1159 -0.0829
 9391SOL    HW139632   1.639   3.225  15.451 -0.3522  0.2769  0.9299
 9391SOL    HW239633   1.497   3.250  15.506 -0.2693  1.8339  0.1225
 9392SOL     OW39634   2.081   3.938  15.544 -0.5445 -0.1921  0.0128
 9392SOL    HW139635   2.126   4.022  15.548  2.8115 -1.8974 -1.9641
 9392SOL    HW239636   2.142   3.877  15.586 -1.3774 -0.0450  1.4311
 9393SOL     OW39637   4.195   4.407   2.608  0.2288  0.8482  0.0925
 9393SOL    HW139638   4.201   4.432   2.516  0.6873 -0.4362 -0.2306
 9393SOL    HW239639   4.106   4.437   2.623 -0.1888 -0.1236 -0.3927
 9394SOL     OW39640   2.426   1.776   8.267  0.1126  0.3599  0.0328
 9394SOL    HW139641   2.362   1.731   8.211  0.5306 -0.2602  0.0441
 9394SOL    HW239642   2.401   1.868   8.265  1.7061  0.7713 -1.3366
 9395SOL     OW39643   4.368   0.839   7.675  0.8845 -0.6880  0.5096
 9395SOL    HW139644   4.332   0.755   7.648 -3.0563  1.1817 -0.0783
 9395SOL    HW239645   4.442   0.824   7.733  0.9614  2.1590  1.1721
 9396SOL     OW39646   3.075   1.904  12.189 -0.5925  0.4942 -0.9547
 9396SOL    HW139647   3.054   1.934  12.100  2.5481  1.2058 -1.4440
 9396SOL    HW239648   3.085   1.813  12.160  2.7647 -0.0581  2.0569
 9397SOL     OW39649   2.435   0.837   1.630 -0.2275  0.2057 -0.7142
 9397SOL    HW139650   2.400   0.781   1.562  1.5552 -1.7990  0.0123
 9397SOL    HW239651   2.528   0.825   1.609 -0.3970 -0.5739 -1.0020
 9398SOL     OW39652   2.556   2.205   6.831 -0.2669 -0.2391  0.4030
 9398SOL    HW139653   2.647   2.185   6.809 -0.3836 -0.6249  0.2844
 9398SOL    HW239654   2.567   2.300   6.820  2.4114 -0.8012 -1.8039
 9399SOL     OW39655   2.369   2.398   9.808 -0.4387  0.0962 -0.3284
 9399SOL    HW139656   2.392   2.475   9.860  0.5949 -0.3289 -0.1607
 9399SOL    HW239657   2.308   2.344   9.857 -0.1984  0.8397  0.7905
 9400SOL     OW39658   4.005   4.665   1.815  0.4199 -0.3931  0.2483
 9400SOL    HW139659   4.035   4.632   1.900  0.4685  0.3291  0.5196
 9400SOL    HW239660   4.065   4.612   1.763 -0.0117  0.7532 -1.4244
 9401SOL     OW39661   0.427   0.184   1.668 -0.5804  0.4643  0.1822
 9401SOL    HW139662   0.406   0.152   1.756 -2.2172 -0.3986 -0.5226
 9401SOL    HW239663   0.458   0.105   1.623 -0.9694  1.2279 -1.4168
 9402SOL     OW39664   1.691   1.467   7.591  0.4381  0.0481  0.4749
 9402SOL    HW139665   1.621   1.499   7.647 -1.5670 -0.0669 -1.9792
 9402SOL    HW239666   1.666   1.492   7.502  0.2008  0.6677  0.7206
 9403SOL     OW39667   3.173   1.725   5.265 -0.0817  0.6229 -0.0474
 9403SOL    HW139668   3.195   1.752   5.175  0.9960 -1.0085 -0.2727
 9403SOL    HW239669   3.099   1.783   5.286 -0.5041  0.9703 -2.4473
 9404SOL     OW39670   4.027   1.589   5.163  0.4406  0.0617  0.5847
 9404SOL    HW139671   4.082   1.639   5.224  1.9696  2.5009 -2.8355
 9404SOL    HW239672   3.970   1.544   5.227 -1.8812 -0.9011 -2.1642
 9405SOL     OW39673   1.336   2.811   2.532  0.2567 -0.1266  0.3152
 9405SOL    HW139674   1.404   2.779   2.591 -0.2379 -0.6582  0.6009
 9405SOL    HW239675   1.376   2.782   2.451 -0.3782  1.4534 -0.5810
 9406SOL     OW39676   0.995   2.714   7.206 -0.4179  0.5253 -0.4567
 9406SOL    HW139677   0.932   2.643   7.189 -1.1065  1.1292 -0.4599
 9406SOL    HW239678   1.068   2.668   7.166  0.4527  1.2203  0.3323
 9407SOL     OW39679   1.394   0.366   5.748 -0.7410 -0.3370 -0.1681
 9407SOL    HW139680   1.436   0.432   5.694 -0.5907  1.1134  1.7172
 9407SOL    HW239681   1.319   0.412   5.787 -2.6777 -2.2742 -1.6470
 9408SOL     OW39682   0.899   1.568   9.649  0.0969  0.5557 -0.2952
 9408SOL    HW139683   0.958   1.586   9.576  0.1013 -1.0205 -0.6869
 9408SOL    HW239684   0.959   1.597   9.717 -0.2861 -0.3629  0.4277
 9409SOL     OW39685   4.006   3.785   4.679  0.0545 -0.1879  0.0750
 9409SOL    HW139686   3.957   3.802   4.760  0.4046 -0.5110  0.3610
 9409SOL    HW239687   4.094   3.820   4.696 -0.6676  0.5212  2.4000
 9410SOL     OW39688   2.887   1.282   6.009  0.0192  0.1141 -0.4541
 9410SOL    HW139689   2.980   1.284   6.033 -0.2257  1.2323  0.4018
 9410SOL    HW239690   2.870   1.363   5.961  1.0467  0.8902  0.4917
 9411SOL     OW39691   4.493   0.004   8.356  0.2381 -0.1713  0.0291
 9411SOL    HW139692   4.414   0.056   8.343  0.5756  0.9962  2.6628
 9411SOL    HW239693   4.497   4.686   8.269 -0.8457  0.8746 -0.4783
 9412SOL     OW39694   3.576   4.310   2.009  0.1148 -0.2024  0.0561
 9412SOL    HW139695   3.596   4.219   2.028  0.4928 -0.8476 -3.4279
 9412SOL    HW239696   3.489   4.300   1.971 -0.5291  1.7904  1.0022
 9413SOL     OW39697   2.827   0.786  13.124  0.0623 -0.5731 -0.2245
 9413SOL    HW139698   2.841   0.875  13.093 -0.9884  0.0722  1.1498
 9413SOL    HW239699   2.904   0.745  13.085 -0.9536 -2.2849 -0.4382
 9414SOL     OW39700   2.236   1.377   0.902  0.4973  0.1069  0.1487
 9414SOL    HW139701   2.284   1.381   0.985  0.0191 -0.6405  0.4581
 9414SOL    HW239702   2.279   1.440   0.844  0.8346 -0.3804 -0.1261
 9415SOL     OW39703   0.033   2.813  10.845 -0.2620  0.8276 -0.2698
 9415SOL    HW139704   0.022   2.809  10.940  0.8847  1.5350 -0.1014
 9415SOL    HW239705   4.695   2.743  10.821  1.3958 -0.6545 -0.1120
 9416SOL     OW39706   2.459   2.931   5.914 -0.5315 -0.1964  0.1547
 9416SOL    HW139707   2.530   2.887   5.868  0.9845  1.7493  0.6379
 9416SOL    HW239708   2.407   2.964   5.841  1.5911  0.2517 -1.1418
 9417SOL     OW39709   0.904   0.133   2.723 -0.0689  0.4462 -0.0541
 9417SOL    HW139710   0.848   0.089   2.787 -0.3289  1.3617  0.3463
 9417SOL    HW239711   0.874   0.091   2.642 -2.2977  2.2712 -0.1766
 9418SOL     OW39712   4.454   3.947   9.883  0.5980 -0.2016 -1.1429
 9418SOL    HW139713   4.428   4.037   9.901 -0.4913 -0.9677  1.1937
 9418SOL    HW239714   4.394   3.939   9.809  0.8344  0.8452 -1.4388
 9419SOL     OW39715   3.612   2.524   3.834  0.8720  0.3135 -0.6248
 9419SOL    HW139716   3.553   2.568   3.895  0.7930 -1.3647  0.5065
 9419SOL    HW239717   3.599   2.561   3.747 -1.9876  1.6517  0.3614
 9420SOL     OW39718   3.234   3.738   1.420  0.1145  0.1649 -0.1816
 9420SOL    HW139719   3.174   3.810   1.400  2.2715  1.5399 -1.6727
 9420SOL    HW239720   3.291   3.770   1.489  0.0326 -1.3243  0.5836
 9421SOL     OW39721   4.476   0.870   5.876 -0.1973 -0.6236 -0.1318
 9421SOL    HW139722   4.467   0.942   5.813  2.6565 -0.2048 -0.0297
 9421SOL    HW239723   4.567   0.843   5.871  0.3958  1.1423  1.2062
 9422SOL     OW39724   2.309   2.389  10.725  1.0106  0.1943  0.3721
 9422SOL    HW139725   2.291   2.479  10.753  0.2671  0.4505 -0.9180
 9422SOL    HW239726   2.242   2.360  10.663  1.3027  0.2631  0.0212
 9423SOL     OW39727   0.609   4.356   0.948 -0.1800 -0.3433 -0.7655
 9423SOL    HW139728   0.588   4.377   1.039  1.1804 -1.2890 -0.2364
 9423SOL    HW239729   0.573   4.432   0.901  0.7461  0.3992 -0.2775
 9424SOL     OW39730   2.506   0.155  16.238 -0.0023  0.4674 -0.6164
 9424SOL    HW139731   2.567   0.095  16.196  1.6418 -0.0339  2.4911
 9424SOL    HW239732   2.422   0.109  16.233  1.1400 -1.5437 -1.4188
 9425SOL     OW39733   2.781   1.217   6.269 -0.7428 -0.0733 -0.1942
 9425SOL    HW139734   2.802   1.124   6.280  2.2741  0.6869  0.4154
 9425SOL    HW239735   2.800   1.228   6.175 -0.3536 -1.3390 -0.2699
 9426SOL     OW39736   4.562   3.745   3.119  0.1873  0.6516 -0.4882
 9426SOL    HW139737   4.536   3.833   3.095 -1.4956  1.1781  3.2278
 9426SOL    HW239738   4.474   3.716   3.144  0.2811  0.9410  0.1758
 9427SOL     OW39739   2.431   4.384   2.013 -0.2098  0.2833 -0.0034
 9427SOL    HW139740   2.468   4.473   2.016  0.9456 -0.2324  1.1213
 9427SOL    HW239741   2.350   4.399   2.061  0.6732  0.0099  1.5742
 9428SOL     OW39742   3.935   1.427   8.361  0.6148  0.0202 -0.2044
 9428SOL    HW139743   3.872   1.472   8.415  1.7156  0.3554  0.7983
 9428SOL    HW239744   3.930   1.487   8.286 -0.4603  0.6390  0.3680
 9429SOL     OW39745   3.533   1.046  13.619 -0.3710 -0.2043  0.2415
 9429SOL    HW139746   3.455   1.022  13.569 -0.8226  1.1984  0.2689
 9429SOL    HW239747   3.509   1.070  13.708  4.2157  2.3790  0.7572
 9430SOL     OW39748   2.831   0.760  10.402 -0.4747 -0.4195  0.0265
 9430SOL    HW139749   2.852   0.829  10.465  0.8753 -0.1702 -0.7172
 9430SOL    HW239750   2.759   0.715  10.448 -0.9997  0.1881 -0.2012
 9431SOL     OW39751   1.970   4.587   8.494 -0.0930 -0.0857 -0.6914
 9431SOL    HW139752   1.975   4.492   8.505  0.1673  0.2236  1.8848
 9431SOL    HW239753   1.912   4.616   8.564 -0.0480  1.4704 -1.2912
 9432SOL     OW39754   1.403   1.875  14.507  0.4944  0.0566  0.6019
 9432SOL    HW139755   1.498   1.864  14.518  0.9419  0.1169 -3.2622
 9432SOL    HW239756   1.382   1.804  14.446  2.6349 -0.0239 -0.0576
 9433SOL     OW39757   2.571   0.077  17.295  0.4141 -0.1739 -0.1834
 9433SOL    HW139758   2.588   0.106  17.385 -2.3972 -1.1721  0.6720
 9433SOL    HW239759   2.493   0.025  17.315 -0.9068  1.8866  0.0802
 9434SOL     OW39760   0.720   3.103  17.133 -0.0919  0.1198 -0.2335
 9434SOL    HW139761   0.787   3.145  17.187  0.7063 -0.2211 -0.9485
 9434SOL    HW239762   0.640   3.131  17.178 -1.1173 -1.8851 -0.8071
 9435SOL     OW39763   0.552   2.868  10.759 -0.0597  0.7714 -0.1311
 9435SOL    HW139764   0.542   2.809  10.834 -0.3832  2.4973  1.2077
 9435SOL    HW239765   0.469   2.915  10.761  0.8955  2.4555  0.0640
 9436SOL     OW39766   1.490   3.076  11.170 -0.1226 -0.1148 -0.2237
 9436SOL    HW139767   1.437   3.006  11.131 -0.0112 -1.0423  1.3101
 9436SOL    HW239768   1.443   3.103  11.249  0.1897 -0.0111 -0.0741
 9437SOL     OW39769   3.833   2.484   3.512  0.7782  0.2859  0.1672
 9437SOL    HW139770   3.821   2.523   3.425  0.5087  1.4168  0.7049
 9437SOL    HW239771   3.819   2.392   3.489  0.3706  0.0609  1.3352
 9438SOL     OW39772   0.310   1.684   4.450  0.4436 -0.1144  0.1645
 9438SOL    HW139773   0.403   1.705   4.459  0.1888  0.1551  2.2545
 9438SOL    HW239774   0.289   1.673   4.543  1.4882  0.7702  0.5091
 9439SOL     OW39775   3.350   1.201   9.625  0.5272 -0.8553  0.2243
 9439SOL    HW139776   3.284   1.211   9.693 -2.7622 -2.3190 -2.7532
 9439SOL    HW239777   3.384   1.291   9.617  0.2315 -0.7303  0.3877
 9440SOL     OW39778   2.065   0.333   7.726 -0.4967  0.0733  0.0477
 9440SOL    HW139779   2.061   0.241   7.751  0.3404 -0.2278 -0.9364
 9440SOL    HW239780   2.003   0.372   7.788 -0.4995  0.8465 -0.4415
 9441SOL     OW39781   3.088   2.703   6.726 -0.2072  0.4167 -0.1054
 9441SOL    HW139782   3.184   2.710   6.723 -0.5008  3.9755 -1.0981
 9441SOL    HW239783   3.081   2.632   6.790 -0.9348  0.2518 -0.3737
 9442SOL     OW39784   2.681   0.530   5.476 -0.2745  0.2576 -0.7276
 9442SOL    HW139785   2.599   0.577   5.463 -0.3326 -0.2743 -2.2000
 9442SOL    HW239786   2.660   0.478   5.553 -1.0369  0.5582 -0.7347
 9443SOL     OW39787   3.754   1.239   8.539  0.2613 -0.0230 -0.2253
 9443SOL    HW139788   3.798   1.292   8.473 -0.9161  0.9027 -0.2531
 9443SOL    HW239789   3.812   1.168   8.568 -1.1596 -1.4570 -0.9180
 9444SOL     OW39790   3.552   3.248   5.067 -0.2254 -0.0790  0.1754
 9444SOL    HW139791   3.548   3.343   5.076 -0.7321 -0.0186 -0.7713
 9444SOL    HW239792   3.643   3.230   5.091  0.3645 -0.7690 -2.5643
 9445SOL     OW39793   2.479   0.458   9.548  0.6216 -0.1559 -0.4354
 9445SOL    HW139794   2.555   0.516   9.545  3.0014 -3.0839  3.0722
 9445SOL    HW239795   2.407   0.514   9.578  1.7028  1.5556 -1.0841
 9446SOL     OW39796   4.437   0.028  11.292 -0.4530  0.6229  0.0389
 9446SOL    HW139797   4.362   0.015  11.350 -1.2976  2.8617 -0.5619
 9446SOL    HW239798   4.502   4.687  11.323  0.5782  1.9835  0.6328
 9447SOL     OW39799   3.006   1.578   7.925 -0.2259 -0.6391 -0.2222
 9447SOL    HW139800   2.968   1.649   7.873 -0.1491 -0.8615 -0.5797
 9447SOL    HW239801   2.992   1.501   7.870 -0.8576 -0.9356  0.3417
 9448SOL     OW39802   4.254   4.400   0.094  0.3954  0.3691  0.2430
 9448SOL    HW139803   4.349   4.400   0.097  0.4639 -1.4314 -1.6597
 9448SOL    HW239804   4.234   4.316   0.135  1.6457  1.3546  2.8495
 9449SOL     OW39805   1.670   0.459   3.861  0.1536  0.1360 -0.2020
 9449SOL    HW139806   1.581   0.496   3.860 -0.4137 -1.2297 -0.3499
 9449SOL    HW239807   1.652   0.375   3.902 -1.1989 -0.5431 -2.1814
 9450SOL     OW39808   0.649   4.069   0.958 -0.1748 -0.0091  0.6394
 9450SOL    HW139809   0.605   4.147   0.992  0.1604  1.5220 -2.4394
 9450SOL    HW239810   0.731   4.112   0.935  0.1743 -0.3577  1.2204
 9451SOL     OW39811   0.520   4.016   6.776  0.5751 -0.0663  0.1897
 9451SOL    HW139812   0.610   4.040   6.755 -0.6258  1.6853 -2.9885
 9451SOL    HW239813   0.484   4.104   6.777 -0.4163 -0.5078  2.8595
 9452SOL     OW39814   2.503   3.161   3.825  0.1833  0.2668 -0.1283
 9452SOL    HW139815   2.509   3.161   3.730 -0.7440 -0.0118 -0.1894
 9452SOL    HW239816   2.512   3.067   3.838 -0.6729  0.2477  0.3511
 9453SOL     OW39817   1.805   3.114  11.946 -0.1146 -0.0297 -0.9110
 9453SOL    HW139818   1.773   3.025  11.955  0.8737 -0.5288 -2.2979
 9453SOL    HW239819   1.726   3.164  11.924 -1.3354 -1.2701  0.6684
 9454SOL     OW39820   4.089   0.193   6.962 -0.2527  0.0469 -0.2502
 9454SOL    HW139821   4.127   0.270   7.003 -0.0701 -0.2283  0.0967
 9454SOL    HW239822   4.048   0.151   7.038 -1.4943 -0.9575 -1.4731
 9455SOL     OW39823   2.024   3.199  14.878  0.3582 -0.1979 -0.5093
 9455SOL    HW139824   2.012   3.175  14.786  1.3292  0.3493 -0.7750
 9455SOL    HW239825   1.951   3.154  14.921  0.4536 -1.8472 -2.0905
 9456SOL     OW39826   1.413   3.068   6.800 -0.4857  0.0832 -0.5451
 9456SOL    HW139827   1.395   2.978   6.773 -2.1810  1.2491 -3.3277
 9456SOL    HW239828   1.350   3.104   6.738  0.4073  0.4642 -1.2226
 9457SOL     OW39829   0.448   3.825   9.981 -0.3508 -0.3097 -0.1117
 9457SOL    HW139830   0.460   3.769  10.058 -2.8333  3.7815  3.2273
 9457SOL    HW239831   0.374   3.883  10.000  1.1963  1.4084  0.5817
 9458SOL     OW39832   4.551   1.365  10.212  0.5505  0.5677 -0.3548
 9458SOL    HW139833   4.574   1.283  10.167 -0.0221  1.1040 -1.6147
 9458SOL    HW239834   4.504   1.330  10.289 -0.4512  2.9668  0.1168
 9459SOL     OW39835   2.676   0.929   3.463  0.6476 -0.1250 -0.0949
 9459SOL    HW139836   2.681   0.874   3.384 -0.2223  0.4800 -0.5688
 9459SOL    HW239837   2.644   0.867   3.529  0.4079  2.7058  2.4570
 9460SOL     OW39838   3.716   2.446   1.416  0.4423  0.8343 -0.9504
 9460SOL    HW139839   3.632   2.405   1.400  1.3626 -0.8227 -1.5305
 9460SOL    HW239840   3.734   2.494   1.335 -2.5075  0.0951 -2.0185
 9461SOL     OW39841   0.749   1.782   1.310  0.0591  0.0181 -0.1900
 9461SOL    HW139842   0.736   1.746   1.397  1.1099  0.7912  0.2933
 9461SOL    HW239843   0.843   1.763   1.301 -0.0165  0.2719 -1.6037
 9462SOL     OW39844   4.708   1.990   0.298  0.1018 -0.2477 -0.1663
 9462SOL    HW139845   4.679   2.054   0.363 -0.0787 -0.9350  0.4320
 9462SOL    HW239846   0.063   2.034   0.263  0.8254 -1.2626  0.1456
 9463SOL     OW39847   4.274   3.775   6.072  0.2308  0.2992  0.2200
 9463SOL    HW139848   4.356   3.727   6.080  0.3191  0.7528  2.0354
 9463SOL    HW239849   4.215   3.706   6.102 -0.2046  0.2426 -0.7585
 9464SOL     OW39850   2.361   0.876   2.395  0.7868  0.4850 -0.1688
 9464SOL    HW139851   2.427   0.815   2.362  0.1001  0.5801 -1.7450
 9464SOL    HW239852   2.404   0.959   2.374 -1.8634  1.6687 -0.9315
 9465SOL     OW39853   0.123   2.945   3.421  0.1197  0.5516  0.0611
 9465SOL    HW139854   0.194   2.889   3.390  0.1816  1.0783 -0.7755
 9465SOL    HW239855   0.077   2.884   3.478  1.5612  1.8710  2.6544
 9466SOL     OW39856   1.761   3.854  10.895 -0.7713  0.1221  0.1994
 9466SOL    HW139857   1.817   3.798  10.948 -2.0357 -0.7240  0.6282
 9466SOL    HW239858   1.808   3.937  10.908 -0.7615  0.2240 -0.4845
 9467SOL     OW39859   3.639   3.813   6.312 -0.7201  0.0113 -0.0726
 9467SOL    HW139860   3.577   3.837   6.382  1.2639 -1.1572  2.0824
 9467SOL    HW239861   3.600   3.867   6.243  1.3293  0.9431 -0.5025
 9468SOL     OW39862   4.471   3.036   3.460 -0.2973  0.4138  0.0599
 9468SOL    HW139863   4.376   3.036   3.470 -0.5421  0.7901 -2.1848
 9468SOL    HW239864   4.488   2.942   3.465 -1.8494  0.1771  0.7589
 9469SOL     OW39865   1.071   0.687  15.730 -0.0109  0.1048  0.3562
 9469SOL    HW139866   0.996   0.744  15.718  0.3501  0.3079 -0.8900
 9469SOL    HW239867   1.047   0.652  15.816  1.2681  0.3542  0.8159
 9470SOL     OW39868   4.311   3.511   5.574 -0.1928 -0.1106  0.0583
 9470SOL    HW139869   4.228   3.470   5.552  0.7761 -1.4879 -1.0160
 9470SOL    HW239870   4.345   3.464   5.650  3.4557 -1.2996 -2.2928
 9471SOL     OW39871   0.641   1.973   7.310 -0.5872 -0.1142  0.3658
 9471SOL    HW139872   0.555   1.968   7.351 -0.3431  1.0978  1.0225
 9471SOL    HW239873   0.682   2.049   7.350  1.4091 -0.8068 -0.3781
 9472SOL     OW39874   2.300   3.307   3.904 -0.2047  0.0381 -0.4232
 9472SOL    HW139875   2.306   3.263   3.989 -1.1037  0.1641 -0.2955
 9472SOL    HW239876   2.368   3.260   3.856  1.0075 -1.0352  2.3571
 9473SOL     OW39877   1.650   0.613   4.198 -0.2251 -0.3072  0.2057
 9473SOL    HW139878   1.565   0.571   4.182  0.5482 -0.9373 -2.2325
 9473SOL    HW239879   1.623   0.705   4.199  2.8980  0.5723  2.9089
 9474SOL     OW39880   1.007   3.343   0.621 -0.5386 -0.3904  0.2743
 9474SOL    HW139881   1.027   3.397   0.544 -0.0303 -2.7824 -1.2823
 9474SOL    HW239882   0.995   3.258   0.579 -0.0231  0.1696 -1.0205
 9475SOL     OW39883   3.411   2.527   2.567 -0.3181  0.4177  0.2555
 9475SOL    HW139884   3.440   2.543   2.477 -2.6198  1.4945 -0.2799
 9475SOL    HW239885   3.351   2.452   2.569 -1.2443  1.1569  0.0456
 9476SOL     OW39886   4.089   4.650   8.148 -0.1743 -0.0194  0.4457
 9476SOL    HW139887   4.183   4.668   8.145  0.1300 -1.6324  0.5247
 9476SOL    HW239888   4.094   4.555   8.146  1.4289  0.0483  1.1664
 9477SOL     OW39889   3.977   1.646   4.363  0.1853 -0.0131 -0.6537
 9477SOL    HW139890   3.887   1.669   4.387  0.1550 -0.1054 -0.6782
 9477SOL    HW239891   3.960   1.607   4.278 -1.9203  1.3827 -0.8758
 9478SOL     OW39892   1.732   0.572   3.460  0.0863  0.0444 -0.0674
 9478SOL    HW139893   1.769   0.505   3.518  0.7217 -0.9385 -1.6118
 9478SOL    HW239894   1.702   0.533   3.378 -1.5538  1.0845  0.0298
 9479SOL     OW39895   4.249   0.435   8.781 -0.1835  0.1872 -0.3008
 9479SOL    HW139896   4.250   0.531   8.783 -0.3904  0.1904 -0.2870
 9479SOL    HW239897   4.163   0.420   8.820 -0.6568 -0.2814 -1.5306
 9480SOL     OW39898   1.392   2.092   6.543 -0.3965  0.4535  0.5150
 9480SOL    HW139899   1.476   2.082   6.498 -1.4495  1.5533 -1.6552
 9480SOL    HW239900   1.412   2.065   6.633 -2.3325  0.5370  0.9599
 9481SOL     OW39901   1.126   3.232  17.645  0.8299  0.0837  0.1092
 9481SOL    HW139902   1.205   3.202  17.600  1.3665  0.6999  0.6392
 9481SOL    HW239903   1.141   3.326  17.654  0.3849  0.2850 -1.3348
 9482SOL     OW39904   1.904   0.633   5.933 -0.3522  0.3851  0.0451
 9482SOL    HW139905   1.875   0.683   5.856  0.3040 -0.8273 -0.9778
 9482SOL    HW239906   1.951   0.559   5.895 -1.1722  1.2411 -2.7141
 9483SOL     OW39907   4.129   0.580  13.221 -0.4488 -0.1653 -0.2271
 9483SOL    HW139908   4.139   0.524  13.298 -1.3473 -0.4536 -0.3263
 9483SOL    HW239909   4.157   0.660  13.266  2.0294 -1.4198  0.4635
 9484SOL     OW39910   3.405   0.712  16.433  0.0744  0.0042 -0.1988
 9484SOL    HW139911   3.493   0.746  16.444 -0.3036  0.2751  1.9577
 9484SOL    HW239912   3.368   0.791  16.392  0.1404 -0.0067 -0.2803
 9485SOL     OW39913   1.390   3.263   2.996  0.0955  0.3535 -1.0549
 9485SOL    HW139914   1.359   3.209   2.923  0.3922  1.9436 -2.3430
 9485SOL    HW239915   1.484   3.254   2.977  0.4965 -2.7774  2.3497
 9486SOL     OW39916   4.223   1.704  12.512  0.6212  0.2805 -0.1958
 9486SOL    HW139917   4.269   1.704  12.429  1.8275  2.4623  0.4621
 9486SOL    HW239918   4.144   1.756  12.495  0.0735 -0.4773  0.0415
 9487SOL     OW39919   2.247   1.714   7.431  0.1131  0.4907  0.5387
 9487SOL    HW139920   2.248   1.636   7.487 -0.1735 -0.1904 -0.4171
 9487SOL    HW239921   2.198   1.682   7.355 -0.7005  1.1321  0.7948
 9488SOL     OW39922   1.650   3.274   3.032  0.0372 -0.5174 -0.0411
 9488SOL    HW139923   1.706   3.352   3.034 -1.7514  0.7645 -0.8354
 9488SOL    HW239924   1.719   3.210   3.012  0.5508 -0.0681  0.2757
 9489SOL     OW39925   2.753   2.048   7.321 -0.2612  0.1449 -0.0121
 9489SOL    HW139926   2.739   2.009   7.407 -3.6057 -0.3505 -0.7745
 9489SOL    HW239927   2.818   2.108   7.356  0.2340 -1.0036  1.0383
 9490SOL     OW39928   4.316   0.912  13.557 -0.1719 -0.2976 -0.2417
 9490SOL    HW139929   4.268   0.995  13.552  0.5236  0.1055 -0.2375
 9490SOL    HW239930   4.372   0.931  13.632 -0.1167 -0.3499 -0.2697
 9491SOL     OW39931   2.319   0.186   4.227 -0.4460 -0.5721 -0.8645
 9491SOL    HW139932   2.309   0.108   4.281  0.4603  0.4786  0.8272
 9491SOL    HW239933   2.250   0.160   4.167  1.9849 -1.4862 -3.2324
 9492SOL     OW39934   1.749   2.117   4.575 -0.3107 -0.2856  0.0651
 9492SOL    HW139935   1.758   2.046   4.638 -2.3474 -0.0642  0.6064
 9492SOL    HW239936   1.659   2.107   4.545 -0.3878 -0.3313  0.3102
 9493SOL     OW39937   2.224   2.151   4.718 -0.1562  0.4514  0.0427
 9493SOL    HW139938   2.298   2.091   4.708 -1.1812 -0.9897  1.1042
 9493SOL    HW239939   2.165   2.125   4.647 -1.5881 -1.3249  1.8680
 9494SOL     OW39940   3.503   3.857   1.149 -0.5651 -0.0323 -0.4691
 9494SOL    HW139941   3.573   3.910   1.110 -1.0742 -0.6158 -2.1641
 9494SOL    HW239942   3.491   3.780   1.094  2.5769  0.4179 -1.8044
 9495SOL     OW39943   4.353   1.316   8.177  0.2094  0.1857  0.4514
 9495SOL    HW139944   4.443   1.292   8.151  0.5172  3.0602 -1.0946
 9495SOL    HW239945   4.298   1.312   8.099 -0.7944 -0.2472  1.1870
 9496SOL     OW39946   0.670   1.096   2.662  0.1582 -0.4476  0.3345
 9496SOL    HW139947   0.748   1.143   2.631 -0.4076 -0.3735 -0.9566
 9496SOL    HW239948   0.620   1.092   2.581 -1.3569 -1.1807  1.3049
 9497SOL     OW39949   2.773   3.606   8.450 -0.4569 -0.3016  0.1974
 9497SOL    HW139950   2.807   3.516   8.456 -1.2400 -0.5234  1.3254
 9497SOL    HW239951   2.851   3.653   8.421 -0.1411 -0.1390  1.3169
 9498SOL     OW39952   4.044   0.929   8.877 -0.1195 -0.2269 -0.0499
 9498SOL    HW139953   4.129   0.895   8.903 -0.3405 -1.9297 -1.4877
 9498SOL    HW239954   3.984   0.855   8.890 -0.4289  0.2405  1.1889
 9499SOL     OW39955   2.282   1.403   4.130 -0.2808  0.3679 -0.5566
 9499SOL    HW139956   2.319   1.359   4.206 -0.0345 -0.3953 -1.1173
 9499SOL    HW239957   2.276   1.493   4.162 -0.6408  0.7079 -1.5891
 9500SOL     OW39958   0.582   1.527   4.808 -0.2847 -0.3174  0.0629
 9500SOL    HW139959   0.512   1.475   4.849 -1.4140  0.4053 -0.9631
 9500SOL    HW239960   0.658   1.494   4.856 -1.1024 -1.0248  0.8814
 9501SOL     OW39961   0.885   2.348   9.403 -0.0382  0.4276  0.0926
 9501SOL    HW139962   0.860   2.279   9.342 -0.2788  0.0002  0.6771
 9501SOL    HW239963   0.958   2.379   9.350 -0.0852 -0.1798 -0.3261
 9502SOL     OW39964   1.961   1.736   1.771  0.5567 -0.3795 -0.0258
 9502SOL    HW139965   2.025   1.704   1.835  2.1510 -2.0030 -2.3951
 9502SOL    HW239966   2.011   1.768   1.696 -0.9849 -1.2561 -1.4124
 9503SOL     OW39967   3.890   3.639  17.324 -0.7105  0.3093  0.2712
 9503SOL    HW139968   3.847   3.712  17.279  0.7920  1.2836  0.4052
 9503SOL    HW239969   3.929   3.688  17.397  0.8854 -2.9580  1.6208
 9504SOL     OW39970   4.216   0.799   6.437 -0.1694  0.0442  0.1093
 9504SOL    HW139971   4.147   0.742   6.470 -1.9804  0.9052 -2.2140
 9504SOL    HW239972   4.167   0.869   6.394  0.4229  0.1003 -0.4807
 9505SOL     OW39973   2.626   4.408   8.245 -0.0523  0.1296 -0.6960
 9505SOL    HW139974   2.539   4.400   8.206  0.5634  0.1593 -2.0627
 9505SOL    HW239975   2.605   4.487   8.294 -1.5069 -0.2408 -0.7417
 9506SOL     OW39976   4.256   4.163   9.555  0.1914  0.9252  0.3340
 9506SOL    HW139977   4.182   4.199   9.506 -0.4311  1.2346  1.4849
 9506SOL    HW239978   4.257   4.076   9.514 -1.9258  0.8171  0.5242
 9507SOL     OW39979   4.529   3.261   7.997 -0.0230 -0.2512 -0.0454
 9507SOL    HW139980   4.469   3.188   7.982  1.7556 -1.5794 -0.7866
 9507SOL    HW239981   4.508   3.288   8.086  1.3361 -2.0788  0.8294
 9508SOL     OW39982   4.148   0.647   2.781 -0.1465  0.2781  0.7239
 9508SOL    HW139983   4.130   0.556   2.760 -0.4203  0.3628  0.5924
 9508SOL    HW239984   4.243   0.645   2.773 -0.3035 -0.1118 -0.9275
 9509SOL     OW39985   1.150   1.977   6.549 -0.3132  0.0326  0.2037
 9509SOL    HW139986   1.073   2.027   6.520  0.2474  0.4304 -0.5967
 9509SOL    HW239987   1.230   2.027   6.536 -0.2387 -0.0678  0.2781
 9510SOL     OW39988   1.646   4.421   3.993  0.1003 -0.4015 -0.2719
 9510SOL    HW139989   1.602   4.390   4.072 -0.5471  1.4433  0.1067
 9510SOL    HW239990   1.652   4.344   3.937  0.7788 -0.1789 -0.5042
 9511SOL     OW39991   4.634   1.176   4.475 -0.0381 -0.4420  0.2777
 9511SOL    HW139992   4.571   1.202   4.542 -3.0563  0.4815 -2.8611
 9511SOL    HW239993   4.574   1.159   4.402 -1.4597  1.2791  1.0551
 9512SOL     OW39994   3.436   2.351   1.253  0.2346  0.3537 -0.2979
 9512SOL    HW139995   3.354   2.400   1.257 -0.5912 -0.8994 -2.0312
 9512SOL    HW239996   3.492   2.425   1.230  0.4257 -0.2231 -1.6617
 9513SOL     OW39997   3.169   1.962  14.945 -0.0100  0.1402 -0.0844
 9513SOL    HW139998   3.080   1.939  14.917 -0.4186  2.1263 -0.4747
 9513SOL    HW239999   3.181   2.025  14.874 -0.8057  1.8013  1.2532
 9514SOL     OW40000   3.412   4.556   5.142 -0.5148  0.1000 -0.3238
 9514SOL    HW140001   3.412   4.531   5.235  1.2450  1.0142 -0.0815
 9514SOL    HW240002   3.322   4.542   5.115  0.4260 -1.0547 -2.8525
 9515SOL     OW40003   2.752   0.194   8.299  0.3205  0.4336  0.0525
 9515SOL    HW140004   2.825   0.225   8.246  0.7654 -0.6098  0.0582
 9515SOL    HW240005   2.754   0.243   8.382 -2.5500 -2.4022  1.8022
 9516SOL     OW40006   2.994   1.923   0.096 -0.0216  0.5513 -0.0687
 9516SOL    HW140007   2.952   2.005   0.124 -1.0821  0.4724 -1.4449
 9516SOL    HW240008   3.068   1.946   0.040 -1.3146  2.1672 -1.1055
 9517SOL     OW40009   0.855   4.517  15.493  0.2897 -0.1706 -0.0055
 9517SOL    HW140010   0.787   4.490  15.554 -1.4960 -0.8109 -2.2690
 9517SOL    HW240011   0.936   4.493  15.538  0.3766 -0.6425 -0.4161
 9518SOL     OW40012   3.089   0.430  12.025 -0.1479 -0.0913 -0.2990
 9518SOL    HW140013   3.090   0.513  11.978  1.2784 -0.7841 -1.4875
 9518SOL    HW240014   3.183   0.413  12.029  0.0106  0.9565  0.4750
 9519SOL     OW40015   2.671   2.849   1.886 -0.1039  0.0746 -0.3375
 9519SOL    HW140016   2.611   2.923   1.888  1.9210  1.7082  0.2198
 9519SOL    HW240017   2.736   2.879   1.821 -0.6884  1.3529 -0.3213
 9520SOL     OW40018   0.135   3.999   4.332 -0.2773 -0.0124 -0.4041
 9520SOL    HW140019   0.065   4.043   4.381  0.6991  0.2209  0.7882
 9520SOL    HW240020   0.209   4.009   4.392  0.1557 -1.1841 -0.7419
 9521SOL     OW40021   0.734   1.800   9.081 -0.3667 -0.9000 -0.1975
 9521SOL    HW140022   0.639   1.796   9.068 -0.3969  2.3613 -1.1223
 9521SOL    HW240023   0.742   1.828   9.172  3.6249  1.6479 -1.3484
 9522SOL     OW40024   1.141   0.630   2.724  0.2525 -0.2115 -0.2833
 9522SOL    HW140025   1.056   0.601   2.758  2.0534 -4.5102  0.6305
 9522SOL    HW240026   1.206   0.560   2.734  1.2465  0.7411 -0.0583
 9523SOL     OW40027   1.359   1.958   0.547  0.3755 -0.1908  0.1552
 9523SOL    HW140028   1.337   1.868   0.525  0.1767 -0.5516  1.8376
 9523SOL    HW240029   1.405   1.926   0.625  3.6154 -0.8400 -2.0439
 9524SOL     OW40030   0.084   2.340   3.756  0.1845 -0.0518 -0.0094
 9524SOL    HW140031   0.178   2.321   3.759 -0.3882 -2.6422  1.3383
 9524SOL    HW240032   0.063   2.301   3.671 -1.3107  1.6225 -0.4157
 9525SOL     OW40033   1.914   1.085  11.927  0.4129 -0.6411 -0.5256
 9525SOL    HW140034   1.924   1.055  12.018 -0.1866  0.9946  0.0832
 9525SOL    HW240035   1.985   1.149  11.930  0.4989 -0.8502  2.3127
 9526SOL     OW40036   0.767   1.156   2.306  0.5367 -0.0575 -0.0742
 9526SOL    HW140037   0.855   1.121   2.322 -1.4261 -4.3655  1.1029
 9526SOL    HW240038   0.777   1.198   2.221 -1.9122  0.9720  0.1394
 9527SOL     OW40039   3.281   0.987  13.507 -0.0166  0.8092  0.0953
 9527SOL    HW140040   3.277   0.996  13.412 -0.3228  0.4739  0.0768
 9527SOL    HW240041   3.283   0.893  13.525 -1.3276  0.6912 -0.3600
 9528SOL     OW40042   4.004   0.243   8.486 -0.2986  0.3023 -0.2760
 9528SOL    HW140043   3.960   0.326   8.467  2.6441  1.4300 -2.2346
 9528SOL    HW240044   3.935   0.217   8.547  0.5138 -0.1857  0.4383
 9529SOL     OW40045   0.578   2.791   4.939  0.2413  0.3247  0.4872
 9529SOL    HW140046   0.528   2.873   4.938 -1.2323 -0.6069 -2.1914
 9529SOL    HW240047   0.668   2.822   4.930 -0.0767  0.9077 -0.7690
 9530SOL     OW40048   0.973   3.003   3.876  0.3827 -0.0822  0.1566
 9530SOL    HW140049   0.879   3.014   3.893  0.1147 -0.5263 -1.0556
 9530SOL    HW240050   0.990   3.062   3.803  1.5165  3.2043  3.0637
 9531SOL     OW40051   3.019   0.383   2.530 -0.7445 -0.1784  0.2927
 9531SOL    HW140052   3.029   0.452   2.595  1.8854 -1.5795  1.3679
 9531SOL    HW240053   2.935   0.350   2.560 -0.6015  0.3330  1.2577
 9532SOL     OW40054   2.880   2.062   5.758  0.0211  0.2368 -0.5541
 9532SOL    HW140055   2.966   2.044   5.797 -0.2661 -0.8993 -0.4437
 9532SOL    HW240056   2.832   2.072   5.840 -0.1696 -2.1901 -0.3661
 9533SOL     OW40057   3.110   3.870   7.348  0.8747 -0.4569 -0.3822
 9533SOL    HW140058   3.037   3.824   7.390 -1.0194  2.0384 -0.9486
 9533SOL    HW240059   3.191   3.829   7.378  0.4144  0.2826  1.8435
 9534SOL     OW40060   0.428   1.894   1.879  0.0192  0.4501 -0.6802
 9534SOL    HW140061   0.472   1.834   1.818 -0.4443  1.3605 -1.9260
 9534SOL    HW240062   0.468   1.976   1.849 -0.5098  1.1074  0.4481
 9535SOL     OW40063   3.981   0.949   7.204  0.2675  0.7510 -0.2466
 9535SOL    HW140064   3.895   0.990   7.204  0.3119  0.8379  0.7406
 9535SOL    HW240065   3.963   0.863   7.242  0.9544  0.1968 -1.1633
 9536SOL     OW40066   0.664   4.475   9.789 -0.0641 -0.0463 -0.1709
 9536SOL    HW140067   0.644   4.487   9.882 -0.2033  1.9094 -0.4391
 9536SOL    HW240068   0.585   4.499   9.740 -0.4445 -0.0234  0.4568
 9537SOL     OW40069   4.195   3.446   3.982 -0.1178  0.1845 -0.5282
 9537SOL    HW140070   4.266   3.384   3.997  0.5059  1.1722  0.6783
 9537SOL    HW240071   4.145   3.396   3.918  1.0058 -0.4380 -0.9160
 9538SOL     OW40072   4.016   4.674   6.166  0.1566  0.4819 -0.0372
 9538SOL    HW140073   3.928   4.707   6.149 -1.0068 -2.1296  0.8218
 9538SOL    HW240074   4.063   0.035   6.161 -2.6965  2.1441  0.7091
 9539SOL     OW40075   1.465   2.349   4.838  0.4246  0.3277 -0.2609
 9539SOL    HW140076   1.521   2.284   4.795 -0.6022  0.8854 -2.4566
 9539SOL    HW240077   1.384   2.302   4.821  0.2635 -0.0122  1.5029
 9540SOL     OW40078   0.324   1.391   9.241 -0.0205  0.1818 -0.4036
 9540SOL    HW140079   0.383   1.445   9.188 -2.3242  0.7650 -2.3802
 9540SOL    HW240080   0.359   1.407   9.329 -1.3547 -0.9640  0.3477
 9541SOL     OW40081   0.428   3.338   8.701  0.3310 -0.2018  0.0036
 9541SOL    HW140082   0.383   3.418   8.673  1.7744  0.5302 -0.2701
 9541SOL    HW240083   0.369   3.305   8.769 -0.7981  1.5736 -0.1218
 9542SOL     OW40084   0.308   0.475   7.987  0.1854 -0.2657  0.0478
 9542SOL    HW140085   0.288   0.482   7.894 -1.5162 -2.3234  0.2522
 9542SOL    HW240086   0.270   0.558   8.018 -1.2240 -1.1335  0.6619
 9543SOL     OW40087   1.380   2.863  10.578 -0.3561  0.1028 -0.1266
 9543SOL    HW140088   1.297   2.816  10.574 -1.1784  1.5100  0.2358
 9543SOL    HW240089   1.428   2.795  10.625  0.4186 -0.4128 -1.6606
 9544SOL     OW40090   1.959   3.317   9.914 -0.4491 -0.2236  0.6755
 9544SOL    HW140091   1.956   3.405   9.876  0.7545 -0.8796 -0.9433
 9544SOL    HW240092   1.967   3.349  10.004 -0.8658  1.7284  0.0283
 9545SOL     OW40093   1.101   1.554   7.451 -0.5787 -0.4058 -0.0363
 9545SOL    HW140094   1.024   1.512   7.488 -0.7342 -0.5730 -0.5525
 9545SOL    HW240095   1.127   1.484   7.391 -0.4960 -0.0641 -0.3907
 9546SOL     OW40096   4.620   3.473  15.448  0.3622  0.1799 -0.1110
 9546SOL    HW140097   4.675   3.521  15.511 -0.6503 -0.6526  1.4114
 9546SOL    HW240098   4.580   3.548  15.405 -0.3805 -0.5581 -0.7030
 9547SOL     OW40099   2.382   0.524   2.235 -0.5389  0.1136 -0.8836
 9547SOL    HW140100   2.412   0.436   2.257  0.0063  0.0280 -1.9950
 9547SOL    HW240101   2.287   0.511   2.233 -0.4563 -0.3837 -1.6190
 9548SOL     OW40102   4.102   0.814   0.326 -0.0828 -0.0787  0.2459
 9548SOL    HW140103   4.145   0.749   0.270 -0.2820 -1.7450  2.0025
 9548SOL    HW240104   4.065   0.869   0.256  2.4728 -0.4704 -1.4057
 9549SOL     OW40105   3.486   3.902   5.261 -0.0400  0.5822  0.2639
 9549SOL    HW140106   3.414   3.921   5.200  0.8057  0.0199 -0.9121
 9549SOL    HW240107   3.558   3.945   5.214  2.3056 -1.3395  2.1138
 9550SOL     OW40108   0.666   4.674  15.055 -0.2529  0.0283 -0.6835
 9550SOL    HW140109   0.723   4.597  15.056  0.0203  0.2125 -1.9048
 9550SOL    HW240110   0.611   4.653  15.131 -0.8390 -1.0668 -1.4113
 9551SOL     OW40111   0.480   1.768   5.266 -0.1303  0.1425  0.3926
 9551SOL    HW140112   0.549   1.780   5.200  0.0517 -1.5166  0.2901
 9551SOL    HW240113   0.426   1.710   5.212 -1.2519  0.0122  1.6519
 9552SOL     OW40114   2.465   3.940   2.692  0.2142  0.2643  0.2017
 9552SOL    HW140115   2.437   4.005   2.756 -0.7519 -0.1639  0.2144
 9552SOL    HW240116   2.391   3.955   2.634 -1.3457 -3.7868  1.1863
 9553SOL     OW40117   1.073   2.864   7.495 -0.1070  0.0696 -0.0490
 9553SOL    HW140118   1.117   2.872   7.580  1.1794 -1.7890 -0.5626
 9553SOL    HW240119   1.152   2.865   7.441 -0.0873 -0.3226 -0.0271
 9554SOL     OW40120   4.410   0.480   6.439  0.3651 -1.3315  0.5453
 9554SOL    HW140121   4.484   0.421   6.423  0.2659 -0.8458 -1.6803
 9554SOL    HW240122   4.387   0.500   6.349 -0.3058 -0.4481  0.9166
 9555SOL     OW40123   2.230   0.689   3.928  0.1277 -0.3767  0.2571
 9555SOL    HW140124   2.170   0.681   3.853 -1.6815  1.0685  1.5516
 9555SOL    HW240125   2.218   0.609   3.978 -0.2118  0.0812  0.9037
 9556SOL     OW40126   2.335   4.659  14.832 -0.1212  0.2634 -0.5719
 9556SOL    HW140127   2.364   0.024  14.860  0.8887  0.0402 -0.9274
 9556SOL    HW240128   2.382   4.606  14.896 -1.0934 -0.1407 -0.2067
 9557SOL     OW40129   2.717   2.306  12.274 -0.0855 -0.4206 -0.2983
 9557SOL    HW140130   2.726   2.218  12.238 -1.8709 -1.0895  0.9341
 9557SOL    HW240131   2.646   2.304  12.338  0.8257  0.7251  0.7605
 9558SOL     OW40132   3.239   4.057   1.802  0.1607 -0.2669 -0.2998
 9558SOL    HW140133   3.279   4.141   1.826 -0.1818 -0.1960  0.0283
 9558SOL    HW240134   3.171   4.089   1.744 -1.3919 -0.9722  1.1334
 9559SOL     OW40135   1.149   0.615  10.998 -0.4030 -0.3943  0.5046
 9559SOL    HW140136   1.088   0.689  11.000 -1.0679 -1.0676  3.9350
 9559SOL    HW240137   1.097   0.560  10.938  2.0866 -0.9644 -1.1286
 9560SOL     OW40138   3.364   1.908   3.897 -0.6466  0.4532 -0.3801
 9560SOL    HW140139   3.287   1.940   3.850  0.1129  0.3424 -1.6723
 9560SOL    HW240140   3.341   1.818   3.919 -1.0348  0.2642 -1.5436
 9561SOL     OW40141   3.839   2.686   0.923  0.5915  0.2169 -0.0814
 9561SOL    HW140142   3.882   2.729   0.996 -1.6643  0.8938  0.8321
 9561SOL    HW240143   3.833   2.765   0.869  0.5656  0.1522 -0.1729
 9562SOL     OW40144   0.518   4.552   3.563 -0.5439  0.4787 -0.6913
 9562SOL    HW140145   0.481   4.484   3.507  0.8061  1.8385 -3.2305
 9562SOL    HW240146   0.523   4.628   3.505 -0.8294  1.3563  0.4496
 9563SOL     OW40147   4.073   0.426   5.924 -0.1818 -0.0637  0.2283
 9563SOL    HW140148   4.147   0.411   5.864  0.4294  1.0587  0.6887
 9563SOL    HW240149   4.092   0.516   5.950  0.3871 -0.3933  0.9383
 9564SOL     OW40150   0.316   3.817   7.299  0.3382 -0.1625 -0.1058
 9564SOL    HW140151   0.346   3.750   7.237  2.1465  1.4363 -0.9673
 9564SOL    HW240152   0.360   3.892   7.258 -0.2164  0.6135  0.7317
 9565SOL     OW40153   3.475   2.320   5.673  0.1660  0.3407 -0.4231
 9565SOL    HW140154   3.525   2.288   5.598  1.8554  0.4770  0.6228
 9565SOL    HW240155   3.549   2.367   5.711  1.2746  2.0722 -4.7747
   4.72155   4.72155  17.68846
