Membrane in water
40155
    1TCq1    O1    1   0.599   2.465  11.063 -0.1146 -0.0086 -0.1346
    1TCq1    C1    2   0.587   2.351  10.986  0.0013 -0.2755  0.9080
    1TCq1    O2    3   0.590   2.356  10.864 -0.3653  0.3889 -0.2638
    1TCq1    C2    4   0.642   2.240  11.059 -0.0594 -0.6327 -0.0342
    1TCq1    C3    5   0.729   2.162  10.990 -0.3394  0.0210 -0.0074
    1TCq1    C4    6   0.819   2.087  11.061  0.2230  0.6500  0.7529
    1TCq1    C5    7   0.814   2.091  11.197  0.3770 -0.3795 -0.5218
    1TCq1    C6    8   0.720   2.173  11.261 -0.1421 -0.0564 -0.0717
    1TCq1    C7    9   0.631   2.253  11.194  0.1243 -0.3711  0.6396
    1TCq1    C8   10   0.701   2.150  11.407 -0.3212  0.6438 -0.4025
    1TCq1    O4   11   0.605   2.190  11.468 -0.5749 -0.4718  0.7382
    1TCq1    C9   12   0.940   2.032  11.005  0.8893  0.0403 -0.2067
    1TCq1    O5   13   0.941   2.028  10.884  0.9211 -0.6240 -0.2251
    1TCq1    O6   14   1.044   2.046  11.078 -0.3095 -0.0836  0.2083
    1TCq1    H1   15   0.612   2.450  11.159  0.3334  2.4234  0.2077
    1TCq1    H2   16   0.740   2.168  10.882 -0.5295 -1.1744 -0.0941
    1TCq1    H3   17   0.900   2.043  11.243  0.6168  0.4904 -0.0501
    1TCq1    H4   18   0.553   2.309  11.244  1.2226  0.2946  1.5923
    2MPD2     C   19   0.844   1.864  11.826 -0.2700  0.5595  0.5424
    2MPD2    C1   20   0.734   1.949  11.807  0.1728 -0.8051 -0.3918
    2MPD2    C2   21   0.713   2.012  11.682  0.2069 -0.4723  0.3618
    2MPD2    C3   22   0.798   1.987  11.573 -0.6440 -0.0376  0.0513
    2MPD2    C4   23   0.895   1.893  11.593 -0.9128  0.5340  0.3988
    2MPD2    C5   24   0.917   1.835  11.717 -0.1582 -0.6931 -0.4948
    2MPD2     H   25   0.627   2.077  11.672  0.6440 -0.0016 -0.3014
    2MPD2    H1   26   0.953   1.855  11.510  1.1316  2.0841  1.1084
    2MPD2    H2   27   0.854   1.802  11.914 -1.0204 -1.4341 -0.7792
    2MPD2    H3   28   0.992   1.758  11.729 -1.6246 -2.0798 -0.3143
    2MPD2     N   29   0.796   2.059  11.448  0.0097 -0.2879  0.1945
    2MPD2    H5   30   0.876   2.040  11.390 -0.1620 -0.5894  0.0577
    2MPD2    N1   31   0.654   1.983  11.920 -0.2598 -0.1180  0.2928
    2MPD2    H7   32   0.585   2.054  11.897  0.0725 -0.1718 -0.9123
    3TCq1    O1   33   0.226   2.546  10.860  0.5011  0.5301 -0.3582
    3TCq1    C1   34   0.146   2.586  10.963 -0.1864 -0.2522  0.6044
    3TCq1    O2   35   0.153   2.556  11.080  0.2651 -0.5494  0.0722
    3TCq1    C2   36   0.059   2.693  10.910 -0.7042 -0.7790 -0.1136
    3TCq1    C3   37   0.079   2.764  10.792  0.1665 -0.3980  0.3494
    3TCq1    C4   38   0.013   2.875  10.762 -0.3959  0.3444  0.1996
    3TCq1    C5   39   4.634   2.923  10.845  0.7802 -0.5302  0.4285
    3TCq1    C6   40   4.609   2.850  10.960 -0.6492 -0.1102  0.4844
    3TCq1    C7   41   4.677   2.734  10.992 -0.0327  0.3297 -0.4848
    3TCq1    C8   42   4.527   2.911  11.062  0.0524  0.0354 -0.3271
    3TCq1    O4   43   4.517   2.845  11.166 -0.3248 -0.1357 -0.3528
    3TCq1    C9   44   0.045   2.940  10.636 -0.6247 -0.1783 -0.5536
    3TCq1    O5   45   0.152   2.905  10.574 -0.1630 -0.3258  0.6132
    3TCq1    O6   46   4.681   3.027  10.594  0.0348  0.5816  0.1721
    3TCq1    H1   47   0.198   2.562  10.767  0.1003  0.1470 -0.3034
    3TCq1    H2   48   0.149   2.728  10.719 -0.5689 -0.4649 -0.3195
    3TCq1    H3   49   4.581   3.010  10.809  0.5292 -1.1626 -0.7512
    3TCq1    H4   50   4.671   2.682  11.087 -0.4838  0.6353 -0.3509
    4MPD2     C   51   4.246   3.272  11.290  0.1610 -0.9881  0.0827
    4MPD2    C1   52   4.252   3.300  11.155 -0.2109 -0.2308 -0.9179
    4MPD2    C2   53   4.325   3.219  11.065 -0.5520 -0.1300 -0.5144
    4MPD2    C3   54   4.387   3.102  11.116 -0.7940  0.7106  0.1035
    4MPD2    C4   55   4.386   3.079  11.252  0.2804  0.3553 -0.7801
    4MPD2    C5   56   4.309   3.162  11.336  0.4662 -0.1086 -0.0501
    4MPD2     H   57   4.340   3.250  10.962  1.5818 -1.8094 -0.7030
    4MPD2    H1   58   4.441   2.994  11.292 -0.6253  0.4650  0.7150
    4MPD2    H2   59   4.203   3.331  11.371 -0.7115 -2.3189  0.5974
    4MPD2    H3   60   4.304   3.146  11.443 -0.6498  0.4061 -0.0268
    4MPD2     N   61   4.462   3.026  11.031 -0.0778 -1.1374  0.2751
    4MPD2    H5   62   4.470   3.057  10.935 -0.6044 -1.4293  0.1382
    4MPD2    N1   63   4.194   3.417  11.102 -0.2356 -0.3148  0.1481
    4MPD2    H7   64   4.211   3.431  11.003  0.0284  0.8408  0.3551
    5TCq1    O1   65   4.355   0.273  11.143 -0.0506  0.5070 -0.0555
    5TCq1    C1   66   4.408   0.252  11.265  0.2390 -0.3208  0.5262
    5TCq1    O2   67   4.350   0.253  11.371 -0.1880 -0.6137  0.6640
    5TCq1    C2   68   4.546   0.207  11.254 -0.1796  1.1264 -0.4344
    5TCq1    C3   69   4.579   0.091  11.322 -0.0856  0.5295 -0.2127
    5TCq1    C4   70   4.704   0.038  11.308  0.0382  0.2689 -0.7080
    5TCq1    C5   71   0.079   0.098  11.232 -0.2321  0.3293  0.2799
    5TCq1    C6   72   0.042   0.212  11.167 -0.1860 -0.0061  0.3965
    5TCq1    C7   73   4.638   0.265  11.172  0.1715 -0.4580  0.7916
    5TCq1    C8   74   0.135   0.265  11.070 -1.3442 -0.5206 -0.1487
    5TCq1    O4   75   0.233   0.195  11.049 -0.2026  0.6130 -0.0128
    5TCq1    C9   76   0.002   4.635  11.372 -0.6704 -0.0136 -0.2077
    5TCq1    O5   77   0.117   4.593  11.385  0.2656  0.3080  0.1215
    5TCq1    O6   78   4.621   4.565  11.403  0.1623  0.6555  0.2663
    5TCq1    H1   79   4.409   0.236  11.069 -1.0462 -1.4971  0.2134
    5TCq1    H2   80   4.504   0.043  11.384 -1.8761  1.0368 -1.9487
    5TCq1    H3   81   0.182   0.065  11.237  0.1631  1.6109  0.4442
    5TCq1    H4   82   4.617   0.360  11.124  0.9349  0.3543  2.0498
    6MPD2     C   83   0.069   0.541  10.837 -0.1934  0.3949 -0.4597
    6MPD2    C1   84   0.145   0.436  10.889 -0.4610  0.6967  0.5200
    6MPD2    C2   85   0.249   0.388  10.820 -0.2621 -0.2471 -0.1432
    6MPD2    C3   86   0.284   0.439  10.693  0.0008 -0.3491 -0.2987
    6MPD2    C4   87   0.215   0.545  10.644 -0.1339 -0.3713 -0.4319
    6MPD2    C5   88   0.114   0.601  10.717 -0.4156 -0.4872 -0.4853
    6MPD2     H   89   0.295   0.294  10.850  2.0819  1.1907  0.7405
    6MPD2    H1   90   0.245   0.604  10.559  0.2689 -0.7723 -0.5668
    6MPD2    H2   91   4.702   0.578  10.889  0.1534  0.1936  0.2666
    6MPD2    H3   92   0.057   0.687  10.683 -0.0454  0.1273  0.4312
    6MPD2     N   93   0.397   0.375  10.636  0.3731  0.0589  0.1139
    6MPD2    H5   94   0.440   0.296  10.683 -1.2171 -0.5687  0.5177
    6MPD2    N1   95   0.097   0.375  11.010 -0.3867 -0.0288 -0.0662
    6MPD2    H7   96   0.023   0.421  11.063  1.8491  3.3822  0.0633
    7TCq1    O1   97   2.666   1.049  13.369  0.2472 -0.4970 -0.0695
    7TCq1    C1   98   2.536   1.038  13.330  0.7067  0.1253  0.7197
    7TCq1    O2   99   2.474   1.129  13.281 -0.1631 -0.0368 -0.4152
    7TCq1    C2  100   2.513   0.895  13.293  0.0433 -0.1955 -0.7815
    7TCq1    C3  101   2.408   0.869  13.202 -0.2449  0.3491 -0.2210
    7TCq1    C4  102   2.357   0.738  13.195  0.8220 -0.5658 -0.4881
    7TCq1    C5  103   2.410   0.640  13.276  0.1220  0.2732  0.0886
    7TCq1    C6  104   2.509   0.664  13.363 -1.0834 -0.0073  0.5057
    7TCq1    C7  105   2.553   0.794  13.380  1.0706  0.6833 -0.5643
    7TCq1    C8  106   2.576   0.556  13.429  0.3433 -0.0195  0.0088
    7TCq1    O4  107   2.515   0.449  13.415  0.0296 -0.3431 -0.5701
    7TCq1    C9  108   2.238   0.707  13.114  0.0293  0.3954 -0.1224
    7TCq1    O5  109   2.194   0.592  13.130 -0.7537  0.3426  0.0437
    7TCq1    O6  110   2.191   0.795  13.039  0.4577 -0.0437 -0.5981
    7TCq1    H1  111   2.720   0.968  13.373  1.0629  0.0581  0.0954
    7TCq1    H2  112   2.373   0.945  13.133 -0.2870  0.1682 -0.3991
    7TCq1    H3  113   2.379   0.538  13.258 -0.7519  0.6298 -0.4478
    7TCq1    H4  114   2.596   0.821  13.476  0.3289  0.2231 -0.1019
    8MPD2     C  115   2.989   0.319  13.601  0.2905  0.4440 -0.9069
    8MPD2    C1  116   2.863   0.270  13.588 -0.6802  0.0895 -0.1218
    8MPD2    C2  117   2.766   0.359  13.547  0.0162 -0.4189  0.2700
    8MPD2    C3  118   2.787   0.496  13.549  0.2173 -0.0095 -0.1928
    8MPD2    C4  119   2.914   0.543  13.579  0.1376  0.1056 -0.0465
    8MPD2    C5  120   3.014   0.454  13.606  0.2358  0.4998  0.1171
    8MPD2     H  121   2.668   0.320  13.521 -0.5601  0.3152  1.3713
    8MPD2    H1  122   2.940   0.648  13.583  2.6737 -0.4820 -1.1312
    8MPD2    H2  123   3.071   0.258  13.638 -1.0896 -0.6093  0.4197
    8MPD2    H3  124   3.114   0.491  13.625  1.2223 -1.4111 -1.3157
    8MPD2     N  125   2.691   0.592  13.497 -0.3980  0.3391  0.1199
    8MPD2    H5  126   2.718   0.690  13.492  0.3861  0.1114 -0.0750
    8MPD2    N1  127   2.844   0.135  13.614  0.6206  0.0051  0.5969
    8MPD2    H7  128   2.923   0.079  13.643  0.9852  0.1978 -0.0324
    9TCq1    O1  129   0.740   3.148  10.748 -0.1751  0.0645  0.0069
    9TCq1    C1  130   0.696   3.258  10.807 -0.4080  0.2055  0.0806
    9TCq1    O2  131   0.767   3.332  10.872  0.2436 -0.2296  0.2209
    9TCq1    C2  132   0.554   3.278  10.811 -0.1078  0.0191  0.0847
    9TCq1    C3  133   0.476   3.254  10.707 -0.5504  0.1758 -0.1333
    9TCq1    C4  134   0.343   3.286  10.710  0.4667  0.6295 -0.0374
    9TCq1    C5  135   0.286   3.350  10.817  0.0954  0.3171  0.1347
    9TCq1    C6  136   0.372   3.372  10.921  1.0227 -0.3160 -0.3834
    9TCq1    C7  137   0.504   3.336  10.920 -0.8615 -1.2331 -0.7039
    9TCq1    C8  138   0.317   3.442  11.038 -0.2022  0.4457 -0.5916
    9TCq1    O4  139   0.219   3.512  11.030 -0.9667 -0.0390  0.2145
    9TCq1    C9  140   0.255   3.258  10.598 -1.0526 -0.3449 -1.0443
    9TCq1    O5  141   0.133   3.302  10.606  0.3032  0.0989 -0.2299
    9TCq1    O6  142   0.314   3.222  10.496 -0.0387  0.1130  0.1274
    9TCq1    H1  143   0.671   3.088  10.713  0.1666 -0.4902  0.2801
    9TCq1    H2  144   0.517   3.194  10.627 -0.0760  2.2440 -1.4244
    9TCq1    H3  145   0.187   3.393  10.824  0.4019  0.8364  1.4234
    9TCq1    H4  146   0.572   3.356  11.002  1.1771 -0.4482 -2.5936
   10MPD2     C  147   0.291   3.573  11.305 -0.4135 -0.4766 -0.0429
   10MPD2    C1  148   0.356   3.451  11.284  0.3967 -0.6064 -0.5759
   10MPD2    C2  149   0.381   3.377  11.392  0.1375 -0.2971  0.4799
   10MPD2    C3  150   0.357   3.418  11.520 -0.2415  0.2303  0.6819
   10MPD2    C4  151   0.313   3.546  11.541  0.0723  0.3607  0.2537
   10MPD2    C5  152   0.264   3.609  11.433 -0.1698  0.1502 -0.5997
   10MPD2     H  153   0.422   3.278  11.378 -0.5621 -0.5424  0.1484
   10MPD2    H1  154   0.300   3.583  11.642  0.0548  0.5278  0.1896
   10MPD2    H2  155   0.251   3.634  11.225 -1.0349 -3.1566 -1.7545
   10MPD2    H3  156   0.215   3.705  11.444  0.8527  0.4747  0.9879
   10MPD2     N  157   0.385   3.329  11.628  0.0068 -0.0473  0.6949
   10MPD2    H5  158   0.394   3.230  11.611  1.1995 -0.0142  1.1617
   10MPD2    N1  159   0.383   3.401  11.154 -0.1257 -0.3489  0.3934
   10MPD2    H7  160   0.451   3.326  11.145  0.2225  0.1861 -1.5273
   11TCq1    O1  161   1.490   3.269  13.784  0.4668  0.3480  0.3840
   11TCq1    C1  162   1.430   3.302  13.903  0.4605  0.6291  0.7337
   11TCq1    O2  163   1.451   3.237  14.005  0.3886  0.4115  0.5656
   11TCq1    C2  164   1.405   3.446  13.906 -0.5845  0.5573 -0.4138
   11TCq1    C3  165   1.467   3.516  14.006  0.5126 -0.0550  0.3890
   11TCq1    C4  166   1.407   3.634  14.040 -0.0404 -0.6835 -0.3335
   11TCq1    C5  167   1.287   3.675  13.986 -0.2558  0.0058  0.5524
   11TCq1    C6  168   1.230   3.593  13.891 -0.1135  0.2777 -0.0148
   11TCq1    C7  169   1.288   3.479  13.852  0.2924 -0.1081  0.4709
   11TCq1    C8  170   1.083   3.609  13.869 -0.1711 -0.5425 -0.1735
   11TCq1    O4  171   1.033   3.711  13.912  0.4236  0.1300 -0.4780
   11TCq1    C9  172   1.456   3.715  14.137  0.2756 -0.3939 -0.1861
   11TCq1    O5  173   1.543   3.657  14.206  0.2472  0.3924  0.5728
   11TCq1    O6  174   1.453   3.840  14.115  0.3935 -0.0996  0.1392
   11TCq1    H1  175   1.479   3.330  13.709 -2.4283  1.7765  1.9520
   11TCq1    H2  176   1.554   3.477  14.058  1.4034 -0.3923 -1.3218
   11TCq1    H3  177   1.228   3.758  14.023 -1.4988 -0.2629 -0.8483
   11TCq1    H4  178   1.241   3.411  13.781  0.9218  1.0557 -1.0647
   12MPD2     C  179   0.782   3.535  13.854 -0.0626 -0.4540 -0.2315
   12MPD2    C1  180   0.884   3.451  13.837 -0.4302 -0.5308 -0.2900
   12MPD2    C2  181   0.853   3.318  13.799 -0.1215 -0.6193 -0.0688
   12MPD2    C3  182   0.726   3.267  13.789 -0.4770  0.0918  0.6826
   12MPD2    C4  183   0.629   3.363  13.807 -0.2610  0.1668 -0.7924
   12MPD2    C5  184   0.654   3.490  13.830 -0.1486  0.2239 -0.0500
   12MPD2     H  185   0.931   3.260  13.751 -0.9367 -0.0961 -2.0385
   12MPD2    H1  186   0.523   3.345  13.795 -0.3008  0.5914 -1.0904
   12MPD2    H2  187   0.794   3.642  13.867  2.0857 -1.0834  2.9150
   12MPD2    H3  188   0.573   3.561  13.842  0.2356  0.4241  1.3358
   12MPD2     N  189   0.689   3.147  13.739  0.2934  0.2989  0.2536
   12MPD2    H5  190   0.589   3.133  13.732  0.3395 -0.2235  0.6562
   12MPD2    N1  191   1.026   3.486  13.840 -0.6058  0.0083 -0.4957
   12MPD2    H7  192   1.084   3.405  13.823  1.5302  1.6974 -1.2144
   13TCq1    O1  193   0.885   2.871  11.773  0.4511  0.2127 -0.1823
   13TCq1    C1  194   0.751   2.909  11.776 -0.0391  0.0129 -0.0924
   13TCq1    O2  195   0.697   2.958  11.875 -0.4891 -0.4509  0.7749
   13TCq1    C2  196   0.681   2.846  11.661 -0.2514  0.2299 -0.4927
   13TCq1    C3  197   0.725   2.735  11.597  0.1491 -0.8324 -0.4231
   13TCq1    C4  198   0.644   2.683  11.496  0.2909  0.1058 -0.4428
   13TCq1    C5  199   0.519   2.739  11.474 -0.5663 -0.5666  0.0803
   13TCq1    C6  200   0.481   2.849  11.537  0.0117  0.4042  0.0115
   13TCq1    C7  201   0.566   2.909  11.628  0.6035 -0.0594  0.3091
   13TCq1    C8  202   0.371   2.929  11.478  0.4684  0.0397 -0.1436
   13TCq1    O4  203   0.324   3.021  11.543  0.5876 -0.4170  0.0711
   13TCq1    C9  204   0.691   2.565  11.429  0.6508  0.0259  0.9619
   13TCq1    O5  205   0.646   2.540  11.316 -0.4975  0.3750 -0.1661
   13TCq1    O6  206   0.788   2.504  11.485  0.5216 -0.0379 -0.6158
   13TCq1    H1  207   0.923   2.844  11.687 -1.0193  3.2864 -1.7913
   13TCq1    H2  208   0.819   2.684  11.617  0.0803 -1.0246 -0.5837
   13TCq1    H3  209   0.444   2.685  11.418  0.0826  0.7529 -2.0388
   13TCq1    H4  210   0.537   2.993  11.690  3.0904  0.9738  0.0648
   14MPD2     C  211   0.261   2.917  11.126 -0.7469 -0.1466  0.4051
   14MPD2    C1  212   0.258   2.964  11.253 -0.5829  0.3979 -1.4120
   14MPD2    C2  213   0.187   3.075  11.282  1.0291  0.5748  0.2893
   14MPD2    C3  214   0.115   3.138  11.178  0.4384 -1.1392  0.3606
   14MPD2    C4  215   0.129   3.094  11.050 -0.1976  0.4581 -0.0230
   14MPD2    C5  216   0.204   2.984  11.025  0.0433  0.4974 -0.0835
   14MPD2     H  217   0.179   3.099  11.387  0.2868 -0.0430  0.3731
   14MPD2    H1  218   0.099   3.145  10.960 -0.4009 -0.5077 -0.5089
   14MPD2    H2  219   0.326   2.835  11.096 -0.4382  0.3676 -0.3416
   14MPD2    H3  220   0.224   2.957  10.922  1.2432  0.3553  0.1788
   14MPD2     N  221   0.044   3.254  11.212 -0.1372 -0.5711  0.1096
   14MPD2    H5  222   0.044   3.283  11.309  2.9662  0.0249 -0.0881
   14MPD2    N1  223   0.344   2.893  11.347 -0.7298 -0.0822 -0.0666
   14MPD2    H7  224   0.391   2.813  11.306  1.5681  1.4263 -0.3225
   15TCq1    O1  225   1.472   2.945   1.287  0.2209 -0.8504 -0.4003
   15TCq1    C1  226   1.510   3.012   1.396  0.6865  0.4676  0.2329
   15TCq1    O2  227   1.511   3.134   1.414  0.6617  0.2286  0.0525
   15TCq1    C2  228   1.568   2.913   1.491 -0.8141  0.0255 -0.7319
   15TCq1    C3  229   1.565   2.956   1.619  0.1692  0.5304 -0.1031
   15TCq1    C4  230   1.664   2.917   1.711 -0.1148  0.2088 -0.0531
   15TCq1    C5  231   1.765   2.839   1.671  0.3525  0.0038 -0.3665
   15TCq1    C6  232   1.765   2.788   1.544  0.2024 -0.3485 -0.3387
   15TCq1    C7  233   1.671   2.829   1.449  0.0484  0.0661  0.1266
   15TCq1    C8  234   1.877   2.705   1.500  0.0917 -0.0735 -0.7499
   15TCq1    O4  235   1.972   2.704   1.578  0.2917  0.0454  0.3558
   15TCq1    C9  236   1.660   2.951   1.854 -0.6532 -0.3774 -0.5279
   15TCq1    O5  237   1.562   3.010   1.907 -0.6787 -0.2415 -0.9557
   15TCq1    O6  238   1.769   2.940   1.916 -0.8321  0.1969  0.1036
   15TCq1    H1  239   1.444   2.854   1.313 -1.8763  0.0724  0.5889
   15TCq1    H2  240   1.497   3.032   1.657  0.8538  0.4682  1.2527
   15TCq1    H3  241   1.841   2.801   1.738  0.5379 -1.7001 -1.5354
   15TCq1    H4  242   1.687   2.803   1.345  0.9413  1.0388  0.0189
   16MPD2     C  243   1.928   2.476   1.218 -0.4430  0.5105 -0.2420
   16MPD2    C1  244   1.962   2.554   1.323 -0.6611  0.3136 -0.1489
   16MPD2    C2  245   2.090   2.543   1.371  0.3979 -0.2144 -0.4568
   16MPD2    C3  246   2.188   2.472   1.309 -0.1029 -0.0354 -0.0836
   16MPD2    C4  247   2.166   2.398   1.196  0.0644  0.6177  0.4352
   16MPD2    C5  248   2.029   2.398   1.158 -0.1621  0.3098 -0.0425
   16MPD2     H  249   2.113   2.605   1.457  0.1437 -1.1637  0.2984
   16MPD2    H1  250   2.239   2.341   1.141  1.0032  1.0834  1.2066
   16MPD2    H2  251   1.829   2.471   1.174  0.0561 -1.2001 -1.1524
   16MPD2    H3  252   2.003   2.332   1.075  1.2537 -0.1091 -0.1429
   16MPD2     N  253   2.317   2.480   1.373  0.1991  0.0375  0.2449
   16MPD2    H5  254   2.322   2.545   1.451 -1.6688 -0.4049  0.7273
   16MPD2    N1  255   1.860   2.625   1.388  0.0908 -0.0567  0.7419
   16MPD2    H7  256   1.772   2.639   1.340 -0.1428 -2.7874  0.3829
   17TCq1    O1  257   0.113   2.596  10.164 -0.3983  0.5050  0.3256
   17TCq1    C1  258   0.171   2.552  10.048  0.2003  0.0032 -0.8927
   17TCq1    O2  259   0.155   2.594   9.932  0.5887 -0.4148  0.4501
   17TCq1    C2  260   0.273   2.451  10.069 -0.1969 -0.2030  0.6346
   17TCq1    C3  261   0.380   2.450   9.982  0.0925  0.9153 -0.3661
   17TCq1    C4  262   0.467   2.348  10.000 -0.0481  0.0842 -0.2538
   17TCq1    C5  263   0.448   2.256  10.101  0.6029 -0.1400 -0.5736
   17TCq1    C6  264   0.342   2.274  10.191  0.4770 -0.2562  0.5380
   17TCq1    C7  265   0.250   2.367  10.179 -0.6481  1.0771 -0.0229
   17TCq1    C8  266   0.344   2.211  10.321  0.2827 -0.2878  0.5233
   17TCq1    O4  267   0.256   2.223  10.407  0.0646  0.1195 -0.3550
   17TCq1    C9  268   0.567   2.327   9.895 -0.2882  0.2234  0.2001
   17TCq1    O5  269   0.659   2.251   9.931 -0.0675  0.1311 -0.0208
   17TCq1    O6  270   0.583   2.418   9.812 -0.1848  0.2245 -0.2934
   17TCq1    H1  271   0.128   2.552  10.250 -0.9583  0.9894  0.6707
   17TCq1    H2  272   0.374   2.516   9.897 -1.4557  1.1182 -0.0993
   17TCq1    H3  273   0.505   2.164  10.106  2.7727  1.1959 -0.7226
   17TCq1    H4  274   0.165   2.379  10.244 -0.9463 -0.6255 -0.1057
   18MPD2     C  275   0.456   2.057  10.547  0.1004  0.0435  0.5139
   18MPD2    C1  276   0.531   2.126  10.464 -0.2509 -0.0448 -0.0124
   18MPD2    C2  277   0.663   2.144  10.485 -0.3693 -0.1013  0.6779
   18MPD2    C3  278   0.716   2.099  10.601 -0.4522 -0.1535  0.8967
   18MPD2    C4  279   0.644   2.031  10.690  0.2752  0.5617 -0.7795
   18MPD2    C5  280   0.512   2.006  10.663  0.4233  0.0162  0.6587
   18MPD2     H  281   0.722   2.203  10.416  1.7178 -3.2669 -0.2005
   18MPD2    H1  282   0.678   1.999  10.788  0.9042 -1.2817 -1.5950
   18MPD2    H2  283   0.349   2.047  10.532 -0.0304  1.3386  0.6345
   18MPD2    H3  284   0.456   1.944  10.731 -1.0008 -0.1241 -0.6398
   18MPD2     N  285   0.851   2.122  10.644 -0.3778  0.3483  0.3304
   18MPD2    H5  286   0.888   2.090  10.733 -0.0998 -1.3844 -0.3885
   18MPD2    N1  287   0.472   2.173  10.343 -0.5386 -0.2653  0.6524
   18MPD2    H7  288   0.545   2.197  10.277  1.3081 -0.4174  2.6437
   19TMC2    C1  289   1.804   3.338  13.771  0.5902  0.0146 -0.1122
   19TMC2    C2  290   1.778   3.465  13.820  0.5088  0.2215 -0.3750
   19TMC2    C3  291   1.749   3.561  13.728 -0.2688 -0.7251  0.4908
   19TMC2    C4  292   1.792   3.305  13.636  0.3864 -0.9342  0.3067
   19TMC2    C5  293   1.746   3.400  13.549  0.2702  0.2343 -0.1970
   19TMC2    C6  294   1.714   3.524  13.596  0.2822 -0.0724  0.3370
   19TMC2     C  295   1.853   3.238  13.852 -0.1843  0.2195  0.1521
   19TMC2     O  296   1.899   3.137  13.794  0.0608 -0.0051  0.1402
   19TMC2     H  297   1.783   3.493  13.925  1.1936  1.4455 -0.7413
   19TMC2    H1  298   1.843   3.219  13.593  1.8671  0.8315 -1.4807
   19TMC2    H2  299   1.689   3.608  13.532  0.6110  0.3249  0.7210
   19TMC2    C7  300   1.709   3.378  13.410 -0.0956 -0.2126 -0.1106
   19TMC2    C8  301   1.682   3.682  13.765 -0.3125  0.2568 -0.2498
   19TMC2    O1  302   1.674   3.471  13.340  0.2459 -0.8130  0.0502
   19TMC2    O2  303   1.583   3.734  13.719 -0.5514 -0.0967 -0.3758
   19TMC2    O5  304   1.742   3.734  13.877 -0.0226  0.4197 -0.0061
   19TMC2    H5  305   1.823   3.694  13.917 -0.9432 -1.1319  0.2963
   20MPD2     C  306   1.944   3.068  14.082  0.3981 -0.0709  0.0894
   20MPD2    C1  307   1.931   3.202  14.085  0.0909  0.0937  0.0054
   20MPD2    C2  308   1.971   3.278  14.193 -0.9440  0.5789 -0.3899
   20MPD2    C3  309   2.030   3.211  14.297 -0.2097  0.3083 -0.3952
   20MPD2    C4  310   2.042   3.073  14.299  0.4692  0.5238  0.1445
   20MPD2    C5  311   1.999   2.999  14.186  0.2866  0.7768 -0.1245
   20MPD2     H  312   1.973   3.387  14.190 -1.0045  0.5321 -2.5739
   20MPD2    H1  313   2.084   3.023  14.385  0.1223 -0.1492 -0.0754
   20MPD2    H2  314   1.911   3.006  14.000  0.1389 -1.3282  1.1536
   20MPD2    H3  315   2.008   2.891  14.189  1.5987  0.8647 -0.7898
   20MPD2     N  316   2.062   3.277  14.413  0.2845 -0.1393 -0.0410
   20MPD2    H5  317   2.105   3.222  14.487  0.5256  0.5354  0.3243
   20MPD2    N1  318   1.869   3.277  13.981 -0.0481  0.3522  0.1260
   20MPD2    H7  319   1.852   3.375  14.001 -0.4007 -0.2428  2.7875
   21MPD2     C  320   3.922   3.488  14.270  0.4397  0.5335  0.1043
   21MPD2    C1  321   4.030   3.439  14.339  0.3467  0.1088 -0.1944
   21MPD2    C2  322   4.025   3.466  14.476 -0.1785 -0.0451 -0.0253
   21MPD2    C3  323   3.917   3.530  14.536  0.2048  0.2039 -0.0920
   21MPD2    C4  324   3.822   3.594  14.465 -0.8635 -0.0044  0.4604
   21MPD2    C5  325   3.829   3.569  14.329 -0.8278 -0.4178 -0.4644
   21MPD2     H  326   4.101   3.412  14.531 -1.0633 -2.0014 -0.7125
   21MPD2    H1  327   3.738   3.649  14.506 -0.9231  1.0501 -1.0697
   21MPD2    H2  328   3.913   3.464  14.165 -0.7833 -0.0318  0.3444
   21MPD2    H3  329   3.746   3.612  14.275 -0.1811 -0.0613 -1.1746
   21MPD2     N  330   3.895   3.540  14.677 -0.2628 -0.2157  0.1852
   21MPD2    H5  331   3.813   3.590  14.712 -0.3827  0.4865 -1.0928
   21MPD2    N1  332   4.121   3.343  14.284  0.4045  0.2882 -0.2880
   21MPD2    H7  333   4.174   3.291  14.354  1.2223 -0.7388 -1.6775
   22TCq2    C1  334   3.970   3.473  14.773  0.3831  0.7284 -0.4563
   22TCq2    O2  335   4.045   3.373  14.755 -0.1133 -0.3724  0.0544
   22TCq2    C2  336   3.929   3.498  14.911 -0.4606 -0.0498 -0.7833
   22TCq2    C3  337   3.982   3.425  15.009 -0.0518 -0.0776 -0.0996
   22TCq2    C4  338   3.972   3.465  15.140 -0.4017  0.0323  0.1927
   22TCq2    C5  339   3.916   3.583  15.168  0.4136 -0.4920  0.6504
   22TCq2    C6  340   3.873   3.667  15.068 -0.9957 -0.3526 -0.0282
   22TCq2    C7  341   3.880   3.626  14.937 -0.3544  0.0385 -0.1359
   22TCq2    C8  342   3.814   3.794  15.098 -0.1985  0.0094 -0.0623
   22TCq2    O4  343   3.864   3.840  15.203 -0.2126  0.1498  0.1309
   22TCq2    C9  344   4.044   3.394  15.241 -0.2576  0.3222 -0.4186
   22TCq2    O5  345   4.025   3.428  15.361 -0.0332  0.2809 -0.4804
   22TCq2    O6  346   4.097   3.283  15.204 -0.2907 -0.6746 -0.4878
   22TCq2    H2  347   4.034   3.334  14.982 -0.4138 -0.0787 -0.7820
   22TCq2    H3  348   3.916   3.622  15.269 -0.7157 -0.2042  0.5335
   22TCq2    H4  349   3.878   3.699  14.856 -0.8104  1.3536  1.0525
   23MPD2     C  350   1.142   0.172  14.813 -0.4562 -0.2046  1.1332
   23MPD2    C1  351   1.049   0.098  14.886  0.2578 -0.2195 -0.6504
   23MPD2    C2  352   0.932   0.053  14.821  0.0378  0.0331  0.8187
   23MPD2    C3  353   0.918   0.073  14.684  0.2800  0.4082 -0.0141
   23MPD2    C4  354   1.007   0.152  14.617 -0.0882  0.5260 -0.7358
   23MPD2    C5  355   1.114   0.204  14.679  0.1827  0.5618  0.1148
   23MPD2     H  356   0.863   0.005  14.888 -0.6598 -1.3927 -0.9118
   23MPD2    H1  357   0.989   0.182  14.514  0.9026  0.0350 -1.0502
   23MPD2    H2  358   1.229   0.214  14.861  0.5190 -1.1574  0.1834
   23MPD2    H3  359   1.174   0.275  14.623  1.9978 -1.5785 -0.6668
   23MPD2     N  360   0.809   0.033  14.601 -0.4612  0.5720 -0.4304
   23MPD2    H5  361   0.814   0.065  14.505  0.7926 -1.2053 -0.9569
   23MPD2    N1  362   1.066   0.056  15.020 -0.2592  0.0063 -0.0039
   23MPD2    H7  363   0.989   0.012  15.069  0.6645 -1.0619  0.4685
   24TCq2    C1  364   0.693   4.679  14.641  1.0521  0.1866  1.1584
   24TCq2    O2  365   0.689   4.606  14.743  0.3929  0.1574 -0.0384
   24TCq2    C2  366   0.578   4.669  14.551 -0.1165 -0.4234  0.3187
   24TCq2    C3  367   0.543   0.057  14.477 -0.0566  0.6137 -0.2409
   24TCq2    C4  368   0.418   0.069  14.431  0.5262 -0.4170 -0.3924
   24TCq2    C5  369   0.322   4.699  14.472  0.2262 -1.0683  0.3529
   24TCq2    C6  370   0.356   4.587  14.547  0.4228 -0.2295 -0.0017
   24TCq2    C7  371   0.485   4.572  14.587  0.2135  0.1217 -0.1404
   24TCq2    C8  372   0.276   4.467  14.536  0.5183  0.3913 -0.4656
   24TCq2    O4  373   0.320   4.353  14.540 -0.3703  0.1955  0.0297
   24TCq2    C9  374   0.383   0.189  14.348  0.1446  0.0853 -0.1650
   24TCq2    O5  375   0.463   0.287  14.332 -0.3813  0.2980  0.6489
   24TCq2    O6  376   0.264   0.193  14.319  0.1438 -0.0910 -0.6753
   24TCq2    H2  377   0.616   0.136  14.470 -1.1125  1.6208  0.1123
   24TCq2    H3  378   0.225   4.709  14.425  0.2561  0.0237  0.5280
   24TCq2    H4  379   0.518   4.485  14.642 -0.3087 -1.0727 -1.7304
   25TMC2    C1  380   0.151   1.748  11.249 -0.5597 -0.5279 -0.3079
   25TMC2    C2  381   0.282   1.778  11.252 -0.6243 -0.0953 -0.1614
   25TMC2    C3  382   0.339   1.814  11.371  0.0442  0.0041  0.3731
   25TMC2    C4  383   0.075   1.765  11.365 -0.1791 -0.4490 -1.0345
   25TMC2    C5  384   0.139   1.814  11.484 -1.0653  0.1499 -0.2761
   25TMC2    C6  385   0.275   1.841  11.485  0.4127 -0.5147 -0.0807
   25TMC2     C  386   0.089   1.742  11.116  0.4144 -0.3183  0.3622
   25TMC2     O  387   0.161   1.745  11.016  0.1765  0.2246  0.3484
   25TMC2     H  388   0.338   1.750  11.163 -0.5468  0.7822 -0.3962
   25TMC2    H1  389   4.693   1.732  11.372 -0.5832  1.3469  1.4618
   25TMC2    H2  390   0.338   1.866  11.570 -0.5473 -0.7002  0.6903
   25TMC2    C7  391   0.053   1.870  11.581  0.4832  0.4332  0.1035
   25TMC2    C8  392   0.481   1.837  11.368 -0.0870  0.0078 -0.6696
   25TMC2    O1  393   4.666   1.820  11.603  0.0873  0.4898  0.2748
   25TMC2    O2  394   0.523   1.887  11.267 -0.2084 -0.1191  0.4709
   25TMC2    O5  395   0.531   1.733  11.432 -0.2017 -0.2395 -0.2309
   25TMC2    H5  396   0.462   1.693  11.491  2.9806 -3.5992  1.1995
   26MPD2     C  397   4.416   1.713  10.789  0.2267  0.7870 -0.7424
   26MPD2    C1  398   4.391   1.628  10.889  0.0708 -0.0509  0.4304
   26MPD2    C2  399   4.475   1.622  11.002  0.0371 -0.2082  0.4849
   26MPD2    C3  400   4.583   1.709  11.019  0.5248 -0.9310  0.5572
   26MPD2    C4  401   4.602   1.795  10.916 -0.2383  0.4906 -0.1132
   26MPD2    C5  402   4.523   1.800  10.804  0.3258 -0.1206  0.3192
   26MPD2     H  403   4.468   1.538  11.071 -0.5380 -0.6797 -0.1447
   26MPD2    H1  404   4.688   1.860  10.932 -0.5484  0.5554  1.2853
   26MPD2    H2  405   4.360   1.721  10.696  0.8044  1.4390 -1.0291
   26MPD2    H3  406   4.536   1.876  10.729  1.2691  0.3287  0.9491
   26MPD2     N  407   4.680   1.700  11.127  0.1407  0.7144 -0.4985
   26MPD2    H5  408   4.654   1.645  11.209  0.4522  1.4427  0.0850
   26MPD2    N1  409   4.297   1.533  10.864  0.6970 -0.1066  0.4033
   26MPD2    H7  410   4.253   1.545  10.773  1.4996 -0.7316 -0.0614
   27TMC2    C1  411   3.442   4.250  12.053  0.5125 -0.3425  0.8289
   27TMC2    C2  412   3.446   4.260  11.915 -0.6815  0.2199  0.0144
   27TMC2    C3  413   3.470   4.383  11.868  0.0117  0.1512 -0.6741
   27TMC2    C4  414   3.456   4.356  12.136  0.0135  0.5188 -0.1963
   27TMC2    C5  415   3.466   4.477  12.083 -0.6025 -0.5200 -0.5515
   27TMC2    C6  416   3.473   4.497  11.942 -0.0511  0.5068  0.0736
   27TMC2     C  417   3.405   4.113  12.097  0.3030 -0.2045  0.1188
   27TMC2     O  418   3.463   4.018  12.046  0.2701  0.0781  0.2362
   27TMC2     H  419   3.430   4.172  11.854  0.1332 -1.2120  1.8676
   27TMC2    H1  420   3.443   4.338  12.242  1.8748  0.2632 -0.0106
   27TMC2    H2  421   3.488   4.596  11.901 -4.7879  0.8193 -0.9471
   27TMC2    C7  422   3.446   4.595  12.156 -0.7023  0.0621 -0.6785
   27TMC2    C8  423   3.497   4.410  11.729 -0.4215 -0.1296  0.5742
   27TMC2    O1  424   3.392   4.689  12.101  0.2247  0.4527 -0.0641
   27TMC2    O2  425   3.478   4.519  11.678  0.2621  0.6322  0.1091
   27TMC2    O5  426   3.544   4.296  11.680 -0.8712 -0.4563 -0.1647
   27TMC2    H5  427   3.545   4.227  11.748 -0.0810  0.8457  1.1455
   28MPD2     C  428   3.119   3.809  12.409  0.0324 -0.4083  0.6402
   28MPD2    C1  429   3.107   3.938  12.450 -0.3586 -0.3709  0.0874
   28MPD2    C2  430   3.179   4.050  12.388 -0.2095 -0.4303 -0.0775
   28MPD2    C3  431   3.261   4.015  12.276  0.6409  0.0733 -0.1679
   28MPD2    C4  432   3.277   3.884  12.246 -0.2523  0.8792 -0.3543
   28MPD2    C5  433   3.212   3.781  12.314  0.5752 -0.1676  0.1390
   28MPD2     H  434   3.183   4.151  12.428  0.0466 -0.3208 -0.3725
   28MPD2    H1  435   3.337   3.851  12.163 -0.6491 -0.7185  0.0070
   28MPD2    H2  436   3.060   3.730  12.456 -1.5693  0.1015 -0.5090
   28MPD2    H3  437   3.213   3.679  12.277  0.0414  0.2412 -1.0121
   28MPD2     N  438   3.325   4.121  12.209  0.4950  0.8719  0.0117
   28MPD2    H5  439   3.294   4.217  12.224 -0.1007  0.8544 -1.1379
   28MPD2    N1  440   3.010   3.964  12.545 -0.0729  0.9899  0.6170
   28MPD2    H7  441   2.956   3.886  12.582 -0.4386  0.7475 -0.4278
   29MPD2     C  442   2.630   1.812  14.341 -0.0445  0.1851 -0.3379
   29MPD2    C1  443   2.760   1.776  14.384  0.0785 -0.3208 -0.7347
   29MPD2    C2  444   2.857   1.875  14.397 -0.2169 -0.5315 -0.2248
   29MPD2    C3  445   2.829   2.010  14.392 -0.3820  0.2892  0.3548
   29MPD2    C4  446   2.704   2.042  14.358  1.1395  0.0268 -0.3591
   29MPD2    C5  447   2.611   1.947  14.321 -0.5492 -0.2919  0.2311
   29MPD2     H  448   2.958   1.845  14.421 -1.0092 -2.5624  0.5975
   29MPD2    H1  449   2.666   2.142  14.342 -3.3284 -1.8817 -1.8017
   29MPD2    H2  450   2.541   1.751  14.331  0.9904 -1.1830 -1.3380
   29MPD2    H3  451   2.512   1.986  14.297  0.1898  3.2083  2.8524
   29MPD2     N  452   2.909   2.118  14.429  0.6675 -0.8617 -0.2123
   29MPD2    H5  453   2.877   2.213  14.413 -2.5514 -1.5071  2.6333
   29MPD2    N1  454   2.795   1.636  14.402 -0.9624 -0.1064  0.5033
   29MPD2    H7  455   2.893   1.614  14.419 -1.4265 -1.3810  1.5654
   30TCq2    C1  456   3.038   2.101  14.471  0.5941 -0.4359  0.4355
   30TCq2    O2  457   3.102   1.997  14.470 -0.8746 -0.1941  0.2180
   30TCq2    C2  458   3.078   2.227  14.535  0.7217 -0.3571 -0.7091
   30TCq2    C3  459   3.005   2.265  14.640  0.6300  0.1796  0.2555
   30TCq2    C4  460   3.055   2.368  14.716  0.6448 -0.3023  0.2694
   30TCq2    C5  461   3.180   2.420  14.697 -0.1251 -0.2067 -0.5441
   30TCq2    C6  462   3.259   2.372  14.594 -0.5867 -0.4857 -0.1772
   30TCq2    C7  463   3.202   2.281  14.503 -0.5560  0.3491  0.6438
   30TCq2    C8  464   3.377   2.448  14.555  0.1818  0.5958  0.4013
   30TCq2    O4  465   3.417   2.431  14.439 -0.6739 -0.2989  0.3944
   30TCq2    C9  466   2.965   2.405  14.825 -0.0749  0.3211  0.4685
   30TCq2    O5  467   2.987   2.516  14.888 -0.4073  0.2260  0.4469
   30TCq2    O6  468   2.860   2.332  14.852  0.1688 -0.1870  0.1517
   30TCq2    H2  469   2.913   2.217  14.672 -0.5181  1.3435 -1.3144
   30TCq2    H3  470   3.193   2.508  14.759  0.4168 -1.5509  1.2446
   30TCq2    H4  471   3.254   2.247  14.414  1.8299  2.2423  1.3117
   31MPD2     C  472   1.107   1.067  14.793  0.8421  0.1660 -0.4395
   31MPD2    C1  473   0.994   1.130  14.752  0.7353 -0.3154 -0.4872
   31MPD2    C2  474   0.873   1.086  14.805  0.2517  0.1954 -0.3510
   31MPD2    C3  475   0.862   0.976  14.885  0.1251 -0.2854 -0.1222
   31MPD2    C4  476   0.980   0.924  14.930 -0.0343 -0.3885 -0.1800
   31MPD2    C5  477   1.098   0.967  14.881 -0.3362 -0.1261  0.0750
   31MPD2     H  478   0.784   1.144  14.781 -0.4215 -0.9078 -0.5404
   31MPD2    H1  479   0.988   0.839  14.997 -1.6889 -1.7405 -1.6864
   31MPD2    H2  480   1.205   1.092  14.753  0.3395  1.1251 -1.0836
   31MPD2    H3  481   1.192   0.920  14.907 -0.8953  0.6234  3.3588
   31MPD2     N  482   0.741   0.932  14.936 -0.1209 -0.2387  0.0744
   31MPD2    H5  483   0.751   0.852  14.998  0.6542 -0.2886 -0.1192
   31MPD2    N1  484   0.993   1.232  14.652 -0.0245  1.0964  0.4895
   31MPD2    H7  485   1.086   1.268  14.630  1.0324 -1.8733  0.0163
   32TCq2    C1  486   0.617   0.976  14.897  0.0990  0.4956  0.2250
   32TCq2    O2  487   0.586   1.012  14.784  0.2876 -0.3695 -0.3002
   32TCq2    C2  488   0.510   0.930  14.993  0.4236  0.1173 -0.1610
   32TCq2    C3  489   0.374   0.926  14.960 -0.1775  0.1464 -0.1790
   32TCq2    C4  490   0.281   0.899  15.063  0.2486  0.0372  0.4267
   32TCq2    C5  491   0.323   0.853  15.186  0.5017 -0.2292 -1.0312
   32TCq2    C6  492   0.455   0.846  15.211 -0.4954  0.4588  0.3069
   32TCq2    C7  493   0.549   0.899  15.123  0.7710 -0.2401 -0.1110
   32TCq2    C8  494   0.504   0.855  15.345  0.1721 -0.4693  0.2469
   32TCq2    O4  495   0.616   0.805  15.362  0.2383  0.2720  0.4262
   32TCq2    C9  496   0.139   0.879  15.024 -0.1357 -0.6854  0.0037
   32TCq2    O5  497   0.056   0.856  15.119 -0.3564 -0.5226  0.4258
   32TCq2    O6  498   0.110   0.912  14.905  0.5865 -0.0329  0.2860
   32TCq2    H2  499   0.337   0.934  14.858 -0.9425  1.5251  0.2045
   32TCq2    H3  500   0.250   0.821  15.258  0.5331 -0.9586 -1.3275
   32TCq2    H4  501   0.649   0.922  15.158  0.2583  1.4621  0.2442
   33MPD2     C  502   1.409   2.779  10.609  0.3680 -0.8409 -0.2817
   33MPD2    C1  503   1.287   2.715  10.624  0.0110 -0.5511  0.3456
   33MPD2    C2  504   1.177   2.787  10.582 -0.2915 -0.2948 -0.1499
   33MPD2    C3  505   1.195   2.918  10.531  0.0836 -0.0100 -0.1454
   33MPD2    C4  506   1.315   2.982  10.526 -0.6959 -0.5543  0.4333
   33MPD2    C5  507   1.426   2.909  10.560  0.5290 -0.3274  0.2924
   33MPD2     H  508   1.080   2.739  10.583 -1.6119  2.4010  0.0615
   33MPD2    H1  509   1.328   3.076  10.474 -3.8892  0.5438  1.5615
   33MPD2    H2  510   1.504   2.732  10.634 -0.4390 -1.5710  1.4391
   33MPD2    H3  511   1.528   2.942  10.548  0.2387  0.9448  1.2871
   33MPD2     N  512   1.082   2.986  10.472 -0.0961  0.1908  0.3282
   33MPD2    H5  513   1.091   3.086  10.460  1.0311  0.2493  1.7100
   33MPD2    N1  514   1.299   2.578  10.645 -0.0866 -0.0125  0.2978
   33MPD2    H7  515   1.392   2.543  10.666  0.7751  0.2205 -3.1510
   34TCq2    C1  516   0.953   2.936  10.438 -0.6675  0.1562  0.3590
   34TCq2    O2  517   0.911   2.826  10.454 -0.2288  0.2204  0.4462
   34TCq2    C2  518   0.874   3.038  10.373 -0.5389 -0.4732 -0.2145
   34TCq2    C3  519   0.740   3.026  10.393 -0.2125  0.1343  0.0150
   34TCq2    C4  520   0.655   3.102  10.314 -0.4646 -0.4546  0.0810
   34TCq2    C5  521   0.711   3.186  10.220 -0.4694 -0.6003 -0.1321
   34TCq2    C6  522   0.842   3.188  10.199  0.3640 -0.3847  0.0187
   34TCq2    C7  523   0.928   3.119  10.279 -0.0935 -0.4705  0.4157
   34TCq2    C8  524   0.899   3.298  10.115 -0.1199 -0.4237  0.2924
   34TCq2    O4  525   1.003   3.348  10.158  0.4865 -0.3915  0.3045
   34TCq2    C9  526   0.510   3.084  10.332  0.3485  0.4540  0.0332
   34TCq2    O5  527   0.476   2.987  10.404 -0.7111 -0.6840  0.1416
   34TCq2    O6  528   0.427   3.138  10.252 -0.3329 -0.3056  0.2091
   34TCq2    H2  529   0.696   2.960  10.466  0.0080  1.3371  1.2480
   34TCq2    H3  530   0.640   3.255  10.177 -0.1017  1.2603  2.2461
   34TCq2    H4  531   1.033   3.122  10.255 -0.3498 -1.4415 -0.7933
   35MPD2     C  532   2.768   4.573  11.935  0.4434 -0.1100  0.3830
   35MPD2    C1  533   2.754   4.455  11.998  0.0469 -0.5229  0.2173
   35MPD2    C2  534   2.661   4.362  11.959  0.0940  0.4100  0.3590
   35MPD2    C3  535   2.577   4.394  11.857  0.0508  0.5593 -0.3533
   35MPD2    C4  536   2.589   4.510  11.789 -0.0860 -0.2235  0.6858
   35MPD2    C5  537   2.683   4.601  11.838 -0.1265 -0.1501 -0.9994
   35MPD2     H  538   2.656   4.261  12.000 -1.4396  0.9090  1.3945
   35MPD2    H1  539   2.538   4.537  11.697  1.1012 -3.7053 -1.0184
   35MPD2    H2  540   2.835   4.646  11.978 -0.0628 -0.1604  1.2622
   35MPD2    H3  541   2.691   4.698  11.790 -0.5832  1.0545  1.3928
   35MPD2     N  542   2.491   4.286  11.818 -0.4266 -0.4266 -0.1869
   35MPD2    H5  543   2.490   4.201  11.873 -2.0174  0.8919  1.7835
   35MPD2    N1  544   2.847   4.435  12.106  0.6876 -0.1229  0.2126
   35MPD2    H7  545   2.926   4.498  12.118  0.6557 -0.6544  3.1762
   36TCq2    C1  546   2.405   4.293  11.709 -0.1360 -0.0010 -0.6970
   36TCq2    O2  547   2.378   4.393  11.647 -0.0897 -0.3168  0.4134
   36TCq2    C2  548   2.312   4.177  11.690 -0.6312  0.7376  0.5020
   36TCq2    C3  549   2.194   4.210  11.631  0.3543  0.7183  0.3751
   36TCq2    C4  550   2.103   4.117  11.603  0.0392 -0.2079 -0.6468
   36TCq2    C5  551   2.136   3.986  11.624 -0.3622 -0.4090  0.1573
   36TCq2    C6  552   2.260   3.957  11.673 -0.6695 -0.2783  0.0433
   36TCq2    C7  553   2.347   4.051  11.712  0.9373 -0.1186  0.9261
   36TCq2    C8  554   2.294   3.818  11.662 -0.3277 -0.2159 -0.7961
   36TCq2    O4  555   2.208   3.732  11.669 -0.0314  0.2306 -0.5138
   36TCq2    C9  556   1.967   4.155  11.557 -0.1161  0.1670  0.6386
   36TCq2    O5  557   1.951   4.266  11.514 -0.4964 -0.2821 -0.2058
   36TCq2    O6  558   1.896   4.051  11.538 -0.1096  0.1040  0.5383
   36TCq2    H2  559   2.164   4.314  11.623  1.6000  0.9928 -0.8260
   36TCq2    H3  560   2.075   3.900  11.598 -0.8639  0.5536 -1.8841
   36TCq2    H4  561   2.438   4.024  11.765  1.6272  0.8297  0.2131
   37TMC2    C1  562   4.435   4.124  11.816  0.0014  0.2468 -0.4105
   37TMC2    C2  563   4.426   4.073  11.694  0.8679  0.4401 -0.2273
   37TMC2    C3  564   4.542   4.039  11.631  0.5488  0.0437 -0.0279
   37TMC2    C4  565   4.555   4.152  11.882  0.1110  0.2346 -0.0304
   37TMC2    C5  566   4.668   4.109  11.819 -0.1786 -0.1970 -0.6447
   37TMC2    C6  567   4.664   4.054  11.688  0.6465  0.1584  0.2122
   37TMC2     C  568   4.308   4.140  11.886 -0.1557 -0.5024 -0.4486
   37TMC2     O  569   4.203   4.140  11.822  0.6839  0.4232 -0.3974
   37TMC2     H  570   4.332   4.053  11.645  0.0348  2.1243  0.6948
   37TMC2    H1  571   4.548   4.204  11.976  0.7742 -0.4317  0.3961
   37TMC2    H2  572   0.037   4.037  11.636  0.0131 -0.2150 -0.7920
   37TMC2    C7  573   0.080   4.139  11.876 -0.5171 -0.1170  0.2889
   37TMC2    C8  574   4.532   3.983  11.500 -0.0038 -0.2290 -0.1504
   37TMC2    O1  575   0.078   4.178  11.995 -0.1978 -0.2140  0.5494
   37TMC2    O2  576   4.621   3.924  11.440 -0.1606 -0.6159 -0.1869
   37TMC2    O5  577   4.434   4.040  11.430  0.0225  0.6011  0.1379
   37TMC2    H5  578   4.387   4.106  11.486  1.8628  1.2938  0.8597
   38MPD2     C  579   4.025   4.137  12.330  0.2182 -0.5289  0.8010
   38MPD2    C1  580   4.153   4.109  12.361  0.6321 -0.2134  0.1023
   38MPD2    C2  581   4.248   4.118  12.261 -0.0507 -0.8488 -0.1900
   38MPD2    C3  582   4.215   4.144  12.129  0.9130 -0.1884 -0.7645
   38MPD2    C4  583   4.084   4.169  12.099 -0.2862  0.8205 -0.6242
   38MPD2    C5  584   3.991   4.162  12.196 -0.1150 -0.1220 -0.8597
   38MPD2     H  585   4.354   4.112  12.282  0.2046  0.8355 -0.9453
   38MPD2    H1  586   4.056   4.208  12.003  1.2770  1.7174 -0.7114
   38MPD2    H2  587   3.947   4.151  12.404  1.0888 -0.2159  1.6659
   38MPD2    H3  588   3.889   4.193  12.176 -0.6132 -0.7032  0.7911
   38MPD2     N  589   4.319   4.138  12.025 -0.0838  0.1993 -0.1101
   38MPD2    H5  590   4.409   4.113  12.065 -0.4632 -0.8296  0.0798
   38MPD2    N1  591   4.207   4.075  12.488  0.4813  0.0410  0.1710
   38MPD2    H7  592   4.299   4.032  12.479 -0.8675 -3.0368  1.1488
   39MPD2     C  593   2.722   2.286   1.864 -0.0070  0.3401 -0.0899
   39MPD2    C1  594   2.618   2.377   1.859 -0.1126 -0.9090  0.8186
   39MPD2    C2  595   2.501   2.344   1.799 -0.2272  0.0190 -0.3003
   39MPD2    C3  596   2.484   2.224   1.735  0.2980 -0.0070 -0.7080
   39MPD2    C4  597   2.585   2.134   1.750  0.0599  0.1457 -0.5484
   39MPD2    C5  598   2.703   2.166   1.806 -0.0276 -0.1147  0.6024
   39MPD2     H  599   2.424   2.421   1.793  2.7392  3.0525  0.6633
   39MPD2    H1  600   2.576   2.038   1.698  0.3701  0.4633 -1.1951
   39MPD2    H2  601   2.825   2.307   1.892  0.5562  0.2938 -2.1218
   39MPD2    H3  602   2.771   2.083   1.820  0.8956  0.8384  1.8289
   39MPD2     N  603   2.381   2.191   1.642 -0.6290  0.1665  0.4079
   39MPD2    H5  604   2.388   2.099   1.599  2.6915  0.6044  0.0280
   39MPD2    N1  605   2.653   2.514   1.904  0.2673  0.0333  0.1069
   39MPD2    H7  606   2.747   2.535   1.939  0.1011 -1.8031  1.6897
   40TCq2    C1  607   2.561   2.622   1.913  1.1064  0.2049 -0.3847
   40TCq2    O2  608   2.450   2.624   1.868 -0.2047 -0.2221 -0.1627
   40TCq2    C2  609   2.617   2.730   1.982 -0.1755  0.2344  0.6201
   40TCq2    C3  610   2.531   2.833   1.979  0.2171 -0.1951 -0.4540
   40TCq2    C4  611   2.578   2.954   2.012 -0.0428  0.6150  0.5728
   40TCq2    C5  612   2.709   2.977   2.051 -0.7031 -0.1770 -0.1615
   40TCq2    C6  613   2.799   2.871   2.032  0.1969 -0.9009  0.2862
   40TCq2    C7  614   2.753   2.747   1.985 -0.5814 -0.6350 -0.6662
   40TCq2    C8  615   2.944   2.910   2.023  1.0336 -0.8761  0.1683
   40TCq2    O4  616   3.016   2.832   1.959 -0.0494  0.2686  0.0329
   40TCq2    C9  617   2.483   3.062   2.011 -0.1920  0.3062 -0.2022
   40TCq2    O5  618   2.363   3.047   1.970 -0.8014 -0.6809  0.2175
   40TCq2    O6  619   2.506   3.174   2.062 -0.1808  0.5218 -0.5295
   40TCq2    H2  620   2.423   2.828   1.971  0.3146  4.0526 -4.6808
   40TCq2    H3  621   2.743   3.076   2.078  1.1659 -0.7618 -0.3459
   40TCq2    H4  622   2.827   2.677   1.947  0.8689 -0.0329  1.0723
   41TMC2    C1  623   1.645   4.379  13.865 -0.8015  0.5131 -0.3430
   41TMC2    C2  624   1.745   4.476  13.876  0.0941  0.2459  0.4720
   41TMC2    C3  625   1.803   4.525  13.757  0.1492 -0.0428 -0.2470
   41TMC2    C4  626   1.607   4.323  13.747  0.3526 -0.5651 -0.6368
   41TMC2    C5  627   1.669   4.361  13.636 -0.1026  0.1353  0.1434
   41TMC2    C6  628   1.759   4.466  13.638 -0.0773 -0.4764  0.7317
   41TMC2     C  629   1.553   4.336  13.977 -0.0792  0.4758  1.0969
   41TMC2     O  630   1.462   4.258  13.954  0.8518 -0.5566  0.2007
   41TMC2     H  631   1.767   4.535  13.964 -0.9037  2.1880 -0.5697
   41TMC2    H1  632   1.549   4.231  13.739 -1.0830  0.4270 -1.8029
   41TMC2    H2  633   1.805   4.506  13.548 -0.0652 -0.2314  0.8487
   41TMC2    C7  634   1.606   4.316  13.512 -0.1082  0.1024 -0.2964
   41TMC2    C8  635   1.913   4.616  13.760  0.3328 -0.5834  0.5312
   41TMC2    O1  636   1.486   4.292  13.515 -0.4849 -0.5472 -0.5239
   41TMC2    O2  637   1.942   4.683  13.660 -0.2550  0.2472  0.2568
   41TMC2    O5  638   1.990   4.582  13.863 -0.4385 -0.1849 -0.2409
   41TMC2    H5  639   1.958   4.511  13.922 -0.0691  2.2079  2.8563
   42MPD2     C  640   1.406   4.284  14.234  0.7036  0.2477 -0.6270
   42MPD2    C1  641   1.540   4.329  14.221 -0.3941 -0.7331 -0.3606
   42MPD2    C2  642   1.607   4.360  14.338 -0.0462 -0.2601 -0.5812
   42MPD2    C3  643   1.550   4.351  14.463 -1.0010 -0.7181 -0.7386
   42MPD2    C4  644   1.419   4.314  14.471 -0.3768  0.2207 -0.3515
   42MPD2    C5  645   1.349   4.282  14.355 -0.1270 -0.4391  0.2605
   42MPD2     H  646   1.712   4.384  14.327  0.2312 -0.9296  0.6620
   42MPD2    H1  647   1.358   4.319  14.560 -0.6155 -0.2467 -0.4945
   42MPD2    H2  648   1.337   4.275  14.151  0.7789  0.1631 -0.6790
   42MPD2    H3  649   1.242   4.264  14.355 -0.0944 -0.6313 -0.0057
   42MPD2     N  650   1.615   4.394  14.584  0.0980 -0.2081  0.1966
   42MPD2    H5  651   1.559   4.416  14.665 -2.9874 -3.8080 -0.9155
   42MPD2    N1  652   1.602   4.368  14.104  0.3076 -0.6647  0.1245
   42MPD2    H7  653   1.686   4.423  14.115  0.4574 -0.5429 -1.6678
   43MPD2     C  654   2.813   3.476   0.745  0.2530 -0.4429 -0.4697
   43MPD2    C1  655   2.911   3.516   0.837 -0.2353  0.0218  0.0245
   43MPD2    C2  656   2.880   3.515   0.974 -0.0187  0.0520  0.2531
   43MPD2    C3  657   2.756   3.466   1.027 -0.3419 -0.0415  0.3880
   43MPD2    C4  658   2.671   3.428   0.926 -0.0585  0.5974  0.0172
   43MPD2    C5  659   2.696   3.428   0.792  0.4386 -0.1860 -0.3852
   43MPD2     H  660   2.959   3.547   1.042  1.8103  1.8760 -2.7139
   43MPD2    H1  661   2.579   3.373   0.943 -1.0631  2.7550  1.6430
   43MPD2    H2  662   2.834   3.485   0.640 -1.0087 -0.7282 -0.7478
   43MPD2    H3  663   2.624   3.386   0.723  0.1893  1.2624 -1.0081
   43MPD2     N  664   2.716   3.459   1.161  0.0763 -0.4654  0.0797
   43MPD2    H5  665   2.634   3.404   1.186 -0.0742 -1.3808 -2.4648
   43MPD2    N1  666   3.047   3.539   0.804  0.2682  0.2053 -0.0701
   43MPD2    H7  667   3.105   3.533   0.887  0.3384 -1.0905 -0.2086
   44TCq2    C1  668   2.713   3.599   1.727  0.0127  0.3656  0.0559
   44TCq2    O2  669   2.809   3.672   1.728 -0.1589  0.2945 -0.1085
   44TCq2    C2  670   2.711   3.497   1.624  0.0030  0.5304  0.5908
   44TCq2    C3  671   2.641   3.381   1.639 -0.0626 -0.4823 -0.6839
   44TCq2    C4  672   2.626   3.307   1.525 -0.1840  0.3905 -0.4894
   44TCq2    C5  673   2.673   3.340   1.403  0.1825 -0.0104 -0.1676
   44TCq2    C6  674   2.748   3.451   1.399  0.0634  0.1482  0.2317
   44TCq2    C7  675   2.773   3.529   1.503  0.9295 -0.1844  0.3553
   44TCq2    C8  676   2.799   3.498   1.271  0.0975 -0.4615 -0.1244
   44TCq2    O4  677   2.904   3.557   1.263 -0.1755 -0.0305 -0.1236
   44TCq2    C9  678   2.552   3.188   1.537  0.0673  0.0187  0.1491
   44TCq2    O5  679   2.492   3.178   1.645  0.1733 -0.0280  0.3420
   44TCq2    O6  680   2.512   3.130   1.432 -0.5664  0.2479  0.8500
   44TCq2    H2  681   2.611   3.342   1.735  2.0374 -1.3386 -0.3838
   44TCq2    H3  682   2.667   3.274   1.318  1.0075  0.4426 -0.5812
   44TCq2    H4  683   2.823   3.624   1.484  0.7148 -0.1601 -0.0715
   45TMC2    C1  684   3.104   0.224   9.045 -0.3322 -0.1845 -0.5329
   45TMC2    C2  685   3.041   0.228   8.923  0.0675  0.7296  0.0929
   45TMC2    C3  686   3.054   0.343   8.858 -0.0928  0.0561  0.0729
   45TMC2    C4  687   3.199   0.311   9.084  0.4355 -0.1631  0.4192
   45TMC2    C5  688   3.221   0.422   9.000  0.0887  0.5652  0.6096
   45TMC2    C6  689   3.144   0.443   8.894 -0.3975  0.0350  0.1994
   45TMC2     C  690   3.090   0.105   9.128 -0.3829  0.2568  0.1679
   45TMC2     O  691   3.179   0.074   9.209 -0.7855 -0.1083 -0.1726
   45TMC2     H  692   2.972   0.149   8.895  0.1149  0.8061 -0.2382
   45TMC2    H1  693   3.266   0.293   9.167 -0.0065  0.3388  0.8828
   45TMC2    H2  694   3.175   0.514   8.818  1.0945 -0.3904  0.4109
   45TMC2    C7  695   3.329   0.522   9.028 -0.5172  0.1786  0.0480
   45TMC2    C8  696   2.986   0.347   8.731 -0.8532  0.4285  0.1180
   45TMC2    O1  697   3.373   0.584   8.932 -0.0355 -0.3140 -0.8475
   45TMC2    O2  698   2.938   0.243   8.679  0.0078 -0.2122  0.3548
   45TMC2    O5  699   2.933   0.463   8.730 -0.7402 -0.3016 -0.2344
   45TMC2    H5  700   2.988   0.532   8.773  0.1202 -0.6656 -0.7403
   46MPD2     C  701   3.012   4.562   9.239 -0.2495 -0.1595 -0.2942
   46MPD2    C1  702   2.929   4.640   9.163  0.4722 -0.4499 -0.1802
   46MPD2    C2  703   2.799   4.601   9.148  0.3479  0.0892  0.1226
   46MPD2    C3  704   2.750   4.480   9.195 -0.2178  0.4815 -0.0547
   46MPD2    C4  705   2.840   4.400   9.266  0.1356  0.7008 -0.1987
   46MPD2    C5  706   2.965   4.440   9.281  0.2531 -0.0156 -0.2714
   46MPD2     H  707   2.734   4.672   9.097  1.5510 -0.9800 -2.9138
   46MPD2    H1  708   2.818   4.298   9.293 -0.6717  0.6511 -1.0574
   46MPD2    H2  709   3.119   4.582   9.243 -0.0844 -1.2662  0.7944
   46MPD2    H3  710   3.029   4.376   9.339  0.6005  1.8459  1.3807
   46MPD2     N  711   2.615   4.445   9.170 -0.4173 -0.1951 -0.3243
   46MPD2    H5  712   2.561   4.516   9.122 -1.1887 -0.5253  0.0482
   46MPD2    N1  713   2.971   0.038   9.102  0.2141 -0.4975  0.0673
   46MPD2    H7  714   2.895   0.080   9.049  2.4527  0.5774 -2.2913
   47TMC2    C1  715   0.670   0.829   9.425  0.5505 -0.0716  0.8291
   47TMC2    C2  716   0.656   0.720   9.508  0.1070  0.1547  0.5428
   47TMC2    C3  717   0.536   0.696   9.570  0.5581  0.2056  0.3300
   47TMC2    C4  718   0.578   0.936   9.436  0.0845 -0.5190 -1.1255
   47TMC2    C5  719   0.467   0.919   9.519  0.1290 -0.1795  0.1816
   47TMC2    C6  720   0.439   0.797   9.583  0.1303  0.1633 -0.2771
   47TMC2     C  721   0.802   0.855   9.364  0.5108  0.2766  0.1261
   47TMC2     O  722   0.803   0.948   9.287 -0.1065 -0.7146  0.3460
   47TMC2     H  723   0.724   0.636   9.502 -1.2896 -0.8460 -1.0446
   47TMC2    H1  724   0.602   1.030   9.387  1.4724  0.3563  1.2164
   47TMC2    H2  725   0.359   0.794   9.657 -0.3639  2.1968 -0.7317
   47TMC2    C7  726   0.387   1.034   9.556 -0.4360  0.1995 -0.5032
   47TMC2    C8  727   0.530   0.589   9.661  0.5848 -0.5850 -0.4017
   47TMC2    O1  728   0.278   1.006   9.598  0.3916  0.2205 -0.6562
   47TMC2    O2  729   0.562   0.470   9.655 -0.6985 -0.1530 -0.4166
   47TMC2    O5  730   0.570   0.655   9.768 -0.1187  0.1777  0.3337
   47TMC2    H5  731   0.579   0.753   9.768 -2.7981  0.4170 -0.4084
   48MPD2     C  732   1.098   0.878   9.296  0.2003  0.3262  0.1440
   48MPD2    C1  733   1.041   0.770   9.359 -0.3260  0.1904 -0.1589
   48MPD2    C2  734   1.124   0.664   9.403 -0.5002  0.0683  0.3654
   48MPD2    C3  735   1.258   0.666   9.383 -0.5517  0.4394  0.0880
   48MPD2    C4  736   1.315   0.767   9.308  0.6223  0.5203 -0.1422
   48MPD2    C5  737   1.234   0.877   9.277 -0.5213  0.6501 -0.1072
   48MPD2     H  738   1.078   0.579   9.452  0.0249 -0.3659  0.1065
   48MPD2    H1  739   1.422   0.772   9.291  1.0068  0.3210  2.2096
   48MPD2    H2  740   1.052   0.971   9.263  0.3202  0.7140  1.0887
   48MPD2    H3  741   1.275   0.959   9.219  1.9119  0.8921  1.9417
   48MPD2     N  742   1.336   0.556   9.428  0.1761  0.0470  0.0559
   48MPD2    H5  743   1.282   0.472   9.446 -0.8502  0.6909  0.0246
   48MPD2    N1  744   0.903   0.761   9.389  0.4073 -0.0026 -0.1412
   48MPD2    H7  745   0.880   0.675   9.438  1.5024 -0.2358 -0.0155
   49MPD2     C  746   4.368   2.650   9.784 -0.3218 -0.4641  0.1970
   49MPD2    C1  747   4.273   2.602   9.874 -0.2705 -0.3441  0.9407
   49MPD2    C2  748   4.304   2.581  10.004 -0.1010 -0.1937  0.4151
   49MPD2    C3  749   4.433   2.614  10.055  0.1115 -0.0516 -0.7112
   49MPD2    C4  750   4.525   2.661   9.963  0.0405 -0.0072 -0.2154
   49MPD2    C5  751   4.489   2.676   9.836 -0.1834 -0.1923 -0.0124
   49MPD2     H  752   4.232   2.537  10.072  0.1850  1.4330  1.7898
   49MPD2    H1  753   4.627   2.682   9.993 -0.5771  0.7425  1.3106
   49MPD2    H2  754   4.351   2.684   9.682 -3.1174 -1.2833  0.4091
   49MPD2    H3  755   4.572   2.724   9.785 -1.4178  1.7731 -0.1639
   49MPD2     N  756   4.471   2.597  10.194 -0.2436 -0.1018 -0.3519
   49MPD2    H5  757   4.570   2.609  10.214  0.0400  3.0485 -3.5271
   49MPD2    N1  758   4.145   2.567   9.839  0.5280  0.2189  0.0316
   49MPD2    H7  759   4.075   2.535   9.905  1.2833 -0.2646  0.5932
   50TCq2    C1  760   4.098   2.568   9.710 -0.0045 -0.1985 -0.3234
   50TCq2    O2  761   4.148   2.603   9.603 -0.0439  0.3450 -0.5396
   50TCq2    C2  762   3.960   2.514   9.693  0.7400 -0.4910 -0.7720
   50TCq2    C3  763   3.906   2.528   9.569  0.2398 -0.3173 -0.1564
   50TCq2    C4  764   3.815   2.437   9.529 -0.4195  0.2010  0.9997
   50TCq2    C5  765   3.765   2.337   9.610  0.6417  0.2469  0.0541
   50TCq2    C6  766   3.822   2.322   9.733  0.1521  0.0158  0.4560
   50TCq2    C7  767   3.922   2.410   9.773  0.1110  0.7716 -0.1807
   50TCq2    C8  768   3.774   2.227   9.829 -0.0569  0.4083  0.5007
   50TCq2    O4  769   3.805   2.234   9.946  0.2435 -0.2316 -0.3458
   50TCq2    C9  770   3.758   2.452   9.394  0.2738 -0.0115  0.5651
   50TCq2    O5  771   3.807   2.535   9.314  0.3840  0.4347 -0.2701
   50TCq2    O6  772   3.643   2.399   9.364 -0.0017  0.2204 -0.1470
   50TCq2    H2  773   3.926   2.619   9.514 -0.6335 -1.1286 -1.8048
   50TCq2    H3  774   3.685   2.274   9.572 -0.4316  1.1238  0.8621
   50TCq2    H4  775   3.986   2.391   9.858 -0.5523 -0.5315  0.0211
   51MPD2     C  776   3.950   1.653   1.586  0.1682  0.7555 -0.2856
   51MPD2    C1  777   3.914   1.707   1.462 -0.3425 -0.4327  0.1525
   51MPD2    C2  778   3.940   1.838   1.437 -0.2170  0.5791 -0.7748
   51MPD2    C3  779   3.991   1.920   1.539  0.1891  0.2046 -0.7361
   51MPD2    C4  780   4.015   1.868   1.666 -0.0198 -0.5268 -0.2984
   51MPD2    C5  781   3.999   1.730   1.689 -0.0786 -0.0990 -0.1493
   51MPD2     H  782   3.907   1.880   1.343  1.6280  2.7397 -0.4708
   51MPD2    H1  783   4.043   1.937   1.745  1.0318  1.3389 -2.3081
   51MPD2    H2  784   3.924   1.556   1.627  1.2580 -0.4316 -2.4159
   51MPD2    H3  785   4.015   1.685   1.786  1.6952  0.6355 -0.0996
   51MPD2     N  786   4.006   2.058   1.530 -0.0014  0.4977  0.0272
   51MPD2    H5  787   4.025   2.114   1.612 -1.1490  3.4480 -1.7322
   51MPD2    N1  788   3.864   1.633   1.359 -0.7067  0.0665 -0.0391
   51MPD2    H7  789   3.829   1.673   1.272 -0.8184 -3.0265 -1.4157
   52TCq2    C1  790   4.017   2.131   1.408  0.3350 -1.0959  0.5855
   52TCq2    O2  791   3.965   2.117   1.301  0.4314 -0.3632  0.1632
   52TCq2    C2  792   4.088   2.255   1.432  0.6339 -0.4072  0.5449
   52TCq2    C3  793   4.032   2.375   1.401 -0.0372 -0.1978 -0.2914
   52TCq2    C4  794   4.090   2.495   1.437 -0.2668 -0.5615  0.3151
   52TCq2    C5  795   4.207   2.497   1.511  0.8258  0.5843  0.2821
   52TCq2    C6  796   4.259   2.370   1.548 -0.2776 -0.3508  0.2335
   52TCq2    C7  797   4.207   2.251   1.509 -0.6563  0.2451 -0.1029
   52TCq2    C8  798   4.402   2.357   1.575 -0.7118  0.8060  0.8259
   52TCq2    O4  799   4.433   2.260   1.642  0.1342 -0.0551 -0.2373
   52TCq2    C9  800   4.022   2.621   1.411  0.0729 -0.5209 -0.2771
   52TCq2    O5  801   4.044   2.712   1.492  0.1677 -0.4121  0.3121
   52TCq2    O6  802   3.938   2.628   1.317  0.3069 -0.2130 -0.0796
   52TCq2    H2  803   3.944   2.374   1.338 -0.0952 -1.0011 -0.2005
   52TCq2    H3  804   4.243   2.596   1.536  2.2340  0.1956 -0.2044
   52TCq2    H4  805   4.250   2.153   1.522 -4.6590 -1.4662  0.0470
   53TMC2    C1  806   0.598   4.256  12.340 -0.5759 -0.1649  0.2263
   53TMC2    C2  807   0.683   4.208  12.439 -0.1632  0.1488 -0.8283
   53TMC2    C3  808   0.633   4.193  12.564  0.6737  0.3668 -0.2316
   53TMC2    C4  809   0.462   4.279  12.368  0.0495 -0.0911  0.0437
   53TMC2    C5  810   0.420   4.266  12.496 -0.1532 -0.3342  0.2121
   53TMC2    C6  811   0.497   4.207  12.594  0.6147  0.0051  0.7118
   53TMC2     C  812   0.629   4.214  12.212 -0.3747 -0.3122  0.3616
   53TMC2     O  813   0.744   4.217  12.174 -0.4775 -0.1820 -0.0214
   53TMC2     H  814   0.785   4.188  12.408  0.1976  0.9410 -0.1509
   53TMC2    H1  815   0.402   4.336  12.298  1.4698  0.3329 -0.8262
   53TMC2    H2  816   0.464   4.201  12.697 -1.8337  0.1866 -0.0604
   53TMC2    C7  817   0.278   4.291  12.523 -0.0165 -0.3011  0.4472
   53TMC2    C8  818   0.736   4.160  12.660  0.1643  0.6010  0.0728
   53TMC2    O1  819   0.204   4.292  12.424 -0.1910 -0.1549 -0.3213
   53TMC2    O2  820   0.855   4.181  12.639 -0.0951 -0.1005  0.0273
   53TMC2    O5  821   0.688   4.088  12.759  0.0411 -0.0747 -0.1624
   53TMC2    H5  822   0.617   4.034  12.717  0.7327  1.0845 -2.8730
   54MPD2     C  823   0.601   4.176  11.909  0.5820  0.6787 -0.2556
   54MPD2    C1  824   0.506   4.146  12.002 -1.4677  0.6027  0.6040
   54MPD2    C2  825   0.370   4.136  11.963 -0.0300  0.9086  0.0074
   54MPD2    C3  826   0.328   4.141  11.833 -0.6464 -0.5966  0.4042
   54MPD2    C4  827   0.428   4.154  11.738 -0.1209 -0.0920 -0.2349
   54MPD2    C5  828   0.563   4.171  11.779  0.2659 -0.5219  0.2110
   54MPD2     H  829   0.289   4.132  12.035  0.8987 -2.0241  0.8944
   54MPD2    H1  830   0.397   4.160  11.635 -2.4725 -1.6783  0.3870
   54MPD2    H2  831   0.700   4.213  11.935  1.4972 -1.9115 -0.0837
   54MPD2    H3  832   0.642   4.179  11.705 -1.3272 -1.6222 -1.6126
   54MPD2     N  833   0.189   4.134  11.792 -0.0360  0.7330 -0.7870
   54MPD2    H5  834   0.176   4.124  11.691  1.4087 -2.3346 -0.6777
   54MPD2    N1  835   0.526   4.169  12.144 -0.2067 -0.4263 -0.2529
   54MPD2    H7  836   0.440   4.148  12.195  0.5946 -1.6672  0.5668
   55MPD2     C  837   0.885   2.842   0.087 -0.4569 -0.0148 -0.2607
   55MPD2    C1  838   0.848   2.752   0.182 -0.7055 -0.0151  0.2799
   55MPD2    C2  839   0.784   2.805   0.287 -0.4139 -0.1039 -0.1365
   55MPD2    C3  840   0.775   2.933   0.317 -0.1548  0.0150 -0.1604
   55MPD2    C4  841   0.824   3.025   0.226 -0.1958 -0.4613  0.4031
   55MPD2    C5  842   0.862   2.975   0.108  0.4704 -0.6720  1.0910
   55MPD2     H  843   0.743   2.744   0.366  1.1693 -0.4787  0.3955
   55MPD2    H1  844   0.797   3.129   0.241 -0.6133 -0.0196 -3.3677
   55MPD2    H2  845   0.933   2.806  17.681  0.1913 -0.7423  0.3571
   55MPD2    H3  846   0.884   3.034   0.019 -0.5068 -0.7469  0.8051
   55MPD2     N  847   0.727   2.961   0.446 -0.6516 -0.5645  0.0105
   55MPD2    H5  848   0.724   2.879   0.507  0.5804  0.1965  1.0930
   55MPD2    N1  849   0.866   2.613   0.156 -0.0052 -0.1139 -0.3279
   55MPD2    H7  850   0.890   2.589   0.060  1.5004  1.6644 -0.3977
   56TCq2    C1  851   0.857   2.511   0.249  1.0195  0.0104 -0.5892
   56TCq2    O2  852   0.820   2.522   0.365 -0.3583 -0.4263 -0.0003
   56TCq2    C2  853   0.888   2.384   0.209  0.4086  0.6045 -0.2258
   56TCq2    C3  854   0.949   2.361   0.084  0.0938 -0.6502  0.1039
   56TCq2    C4  855   0.984   2.235   0.053  0.7139 -0.4796  0.0027
   56TCq2    C5  856   0.967   2.130   0.136  0.4005  0.6186 -0.2049
   56TCq2    C6  857   0.904   2.156   0.256  0.0834  0.0583 -0.5159
   56TCq2    C7  858   0.862   2.279   0.293  0.4399  0.0593 -0.2213
   56TCq2    C8  859   0.846   2.040   0.324  0.1318  0.6096 -0.4648
   56TCq2    O4  860   0.857   1.933   0.267 -0.5310 -0.5425  0.2553
   56TCq2    C9  861   1.070   2.204  17.623  0.0643 -0.8014 -0.3888
   56TCq2    O5  862   1.120   2.301  17.556  0.1989  0.3840 -0.3540
   56TCq2    O6  863   1.071   2.083  17.585 -0.0005  0.0450 -0.2017
   56TCq2    H2  864   0.974   2.442   0.015 -0.3807 -0.0131  0.6755
   56TCq2    H3  865   1.011   2.034   0.109 -1.2328 -0.3622  0.5851
   56TCq2    H4  866   0.793   2.292   0.376 -0.5523  2.7643 -1.4798
   57TMC2    C1  867   4.614   3.306  13.082  0.1882  0.2690  0.3969
   57TMC2    C2  868   0.024   3.327  13.116  0.0634 -0.0726  0.0082
   57TMC2    C3  869   0.116   3.269  13.036  0.2648 -0.7179  0.4875
   57TMC2    C4  870   4.574   3.231  12.974 -0.1189  0.2776  0.4985
   57TMC2    C5  871   4.669   3.167  12.901 -0.0773 -0.8265 -0.8708
   57TMC2    C6  872   0.080   3.197  12.929  0.0389 -0.2462  0.3381
   57TMC2     C  873   4.511   3.344  13.189  0.2781  0.2490 -1.0533
   57TMC2     O  874   4.559   3.382  13.300 -0.4225 -0.1401 -0.2353
   57TMC2     H  875   0.051   3.379  13.207 -1.2429  2.1453 -0.8716
   57TMC2    H1  876   4.468   3.212  12.960 -0.3404 -0.8295  3.6025
   57TMC2    H2  877   0.153   3.150  12.865  0.6354 -0.2902  1.0585
   57TMC2    C7  878   4.628   3.037  12.832  0.0092  0.4986 -0.7080
   57TMC2    C8  879   0.254   3.271  13.068  0.1893  0.2295  0.2490
   57TMC2    O1  880   4.514   3.008  12.846 -0.0845  0.3474  0.3035
   57TMC2    O2  881   0.340   3.296  12.983  0.1324 -0.6157  0.7187
   57TMC2    O5  882   0.253   3.175  13.172 -0.2759  0.0093 -0.1311
   57TMC2    H5  883   0.166   3.152  13.209 -0.6532  1.6840  0.0303
   58MPD2     C  884   4.032   3.373  13.366 -0.2826  0.2398  0.4988
   58MPD2    C1  885   4.152   3.407  13.430  0.8171  0.2170 -0.2319
   58MPD2    C2  886   4.269   3.390  13.358 -0.8372 -0.3587  0.1356
   58MPD2    C3  887   4.271   3.346  13.223  0.4703  0.8314  0.2572
   58MPD2    C4  888   4.152   3.323  13.166 -0.4530 -0.2696  0.2786
   58MPD2    C5  889   4.033   3.333  13.235  0.3498 -0.2821  0.8684
   58MPD2     H  890   4.360   3.415  13.411 -0.9283 -0.7993  0.4987
   58MPD2    H1  891   4.151   3.283  13.066 -1.5025  1.7269 -0.4859
   58MPD2    H2  892   3.932   3.379  13.407  0.2137 -0.6006  1.8081
   58MPD2    H3  893   3.938   3.310  13.188  1.8291  0.3919 -2.4144
   58MPD2     N  894   4.384   3.327  13.145  0.2512  0.5649  0.8509
   58MPD2    H5  895   4.370   3.316  13.045 -0.3225 -0.0273  0.9960
   58MPD2    N1  896   4.149   3.439  13.564  0.3793 -0.1176  0.2739
   58MPD2    H7  897   4.230   3.470  13.618  0.1977  0.9268 -0.0445
   59MPD2     C  898   2.553   3.628  13.340  0.3075  0.4404 -0.1972
   59MPD2    C1  899   2.668   3.582  13.280 -0.0461  0.6775  0.1248
   59MPD2    C2  900   2.794   3.612  13.341  0.2650  0.1094  0.4706
   59MPD2    C3  901   2.797   3.676  13.462  0.7502 -0.1428  0.1016
   59MPD2    C4  902   2.676   3.710  13.519  0.0404  0.2934  0.4371
   59MPD2    C5  903   2.555   3.685  13.463  0.1253 -0.2797  0.6225
   59MPD2     H  904   2.887   3.578  13.297 -0.9230 -1.6020 -0.7167
   59MPD2    H1  905   2.667   3.765  13.612  2.7363  0.5049  0.5719
   59MPD2    H2  906   2.457   3.634  13.290 -0.2011  3.1777  1.1423
   59MPD2    H3  907   2.460   3.715  13.507 -0.7070 -2.1224  0.0546
   59MPD2     N  908   2.919   3.722  13.523  0.2324  0.0603 -0.2699
   59MPD2    H5  909   2.906   3.784  13.602  0.1686 -0.5970  0.2333
   59MPD2    N1  910   2.663   3.516  13.162 -0.1880  0.0692 -0.0019
   59MPD2    H7  911   2.750   3.478  13.125 -0.7567 -0.7176 -0.5362
   60TCq2    C1  912   2.552   3.475  13.089  0.4328 -0.6240 -0.5231
   60TCq2    O2  913   2.432   3.492  13.108 -0.6582 -0.0739 -0.1146
   60TCq2    C2  914   2.578   3.382  12.985  0.0153  0.5258  0.4222
   60TCq2    C3  915   2.479   3.286  12.969 -0.3756  0.1504  0.1971
   60TCq2    C4  916   2.477   3.207  12.858  0.5713 -0.0185 -0.2631
   60TCq2    C5  917   2.564   3.234  12.758  0.7666 -0.2667  1.1164
   60TCq2    C6  918   2.647   3.342  12.766  0.1489 -0.1647  0.2722
   60TCq2    C7  919   2.660   3.418  12.881 -0.5051  0.3861  0.5377
   60TCq2    C8  920   2.714   3.377  12.641 -0.1825 -0.0049  1.2228
   60TCq2    O4  921   2.726   3.285  12.563 -0.1796 -0.5056  0.3961
   60TCq2    C9  922   2.395   3.096  12.857 -0.5687  0.3154  0.3703
   60TCq2    O5  923   2.418   2.999  12.782  0.0810  0.1958 -0.0519
   60TCq2    O6  924   2.297   3.097  12.938 -0.4228 -0.2243  0.0338
   60TCq2    H2  925   2.405   3.259  13.044 -1.9683 -2.3465 -2.2619
   60TCq2    H3  926   2.551   3.166  12.674 -1.0527  2.1923 -0.5765
   60TCq2    H4  927   2.730   3.500  12.895 -0.6470  0.4957  0.6050
   61MPD2     C  928   1.898   0.423  15.674  0.8795  0.5080  0.0638
   61MPD2    C1  929   1.967   0.544  15.700  0.0939  0.2886  0.2862
   61MPD2    C2  930   2.040   0.605  15.598  0.4520 -0.4588  0.2327
   61MPD2    C3  931   2.052   0.539  15.477  0.7072 -0.1809  0.0929
   61MPD2    C4  932   1.992   0.418  15.452 -0.0343 -0.0026 -0.0494
   61MPD2    C5  933   1.921   0.357  15.557  0.2175  0.6226 -0.4768
   61MPD2     H  934   2.100   0.694  15.614  1.3559 -1.2788  1.4767
   61MPD2    H1  935   1.993   0.369  15.355 -0.2673 -0.4208  0.1590
   61MPD2    H2  936   1.830   0.371  15.740  2.7400 -1.3898  0.4767
   61MPD2    H3  937   1.888   0.255  15.542  1.7387 -0.1399  1.3238
   61MPD2     N  938   2.129   0.594  15.368 -0.1589  0.0075  0.2217
   61MPD2    H5  939   2.143   0.533  15.288  2.3456 -0.5068  1.0484
   61MPD2    N1  940   1.962   0.614  15.823 -0.2933  0.5681 -0.7284
   61MPD2    H7  941   2.025   0.693  15.838 -1.1341  1.3755 -1.4046
   62TCq2    C1  942   1.876   0.589  15.926  0.6246 -0.1602  0.7329
   62TCq2    O2  943   1.784   0.506  15.949 -0.0183  0.1039  0.0239
   62TCq2    C2  944   1.876   0.702  16.021 -0.0759  0.3554 -0.4633
   62TCq2    C3  945   1.781   0.712  16.121  0.2078  0.2636 -0.1118
   62TCq2    C4  946   1.774   0.827  16.195  0.2066  0.2516 -0.7373
   62TCq2    C5  947   1.852   0.936  16.170  0.4946 -0.0883 -0.0976
   62TCq2    C6  948   1.926   0.938  16.056  0.1101  0.3450 -0.0994
   62TCq2    C7  949   1.924   0.827  15.968  0.7243  0.7109  0.7088
   62TCq2    C8  950   1.914   1.063  15.981 -0.1587  0.0813 -0.3504
   62TCq2    O4  951   2.018   1.127  15.960 -0.0624 -0.1359 -0.3266
   62TCq2    C9  952   1.680   0.837  16.302 -0.3674  0.0338 -0.5338
   62TCq2    O5  953   1.696   0.941  16.378 -0.2982  0.1301  0.4673
   62TCq2    O6  954   1.588   0.756  16.302 -0.0073  0.4342  1.0995
   62TCq2    H2  955   1.723   0.626  16.153  0.3169  0.1662 -0.1770
   62TCq2    H3  956   1.838   1.029  16.223 -3.3955  0.7767 -2.5927
   62TCq2    H4  957   1.982   0.837  15.878 -0.7035  0.9226 -0.1952
   63TMC2    C1  958   1.715   4.621  11.213  0.4578  0.2999 -0.0453
   63TMC2    C2  959   1.835   4.678  11.261 -0.2455 -1.1724 -1.1318
   63TMC2    C3  960   1.913   0.035  11.182 -0.1161 -0.7732 -0.1193
   63TMC2    C4  961   1.690   4.631  11.082 -0.2583  0.2779 -0.0537
   63TMC2    C5  962   1.764   0.005  11.009 -0.2620 -0.2203 -0.3231
   63TMC2    C6  963   1.872   0.070  11.060 -0.4049 -0.2184 -0.5094
   63TMC2     C  964   1.671   4.497  11.285 -0.1590 -0.1548 -0.5989
   63TMC2     O  965   1.720   4.462  11.395 -0.5956 -0.0011  0.4053
   63TMC2     H  966   1.860   4.672  11.366 -0.5102 -1.9962 -1.1178
   63TMC2    H1  967   1.607   4.589  11.026 -2.4981  1.7954  2.1608
   63TMC2    H2  968   1.921   0.148  11.003 -0.0243  0.9325  1.4149
   63TMC2    C7  969   1.723   0.028  10.871 -1.1984 -0.6222 -0.4260
   63TMC2    C8  970   1.979   0.136  11.265  0.4887  0.2420 -0.1277
   63TMC2    O1  971   1.606   0.011  10.845 -0.3942 -0.0016 -0.7137
   63TMC2    O2  972   1.931   0.167  11.372  0.0353  0.3328  0.0716
   63TMC2    O5  973   2.106   0.100  11.248 -0.3459  0.0280  0.4205
   63TMC2    H5  974   2.123   0.070  11.156 -0.2781  1.5109 -0.0522
   64MPD2     C  975   1.306   4.132  11.275 -0.8375  0.0176  0.0602
   64MPD2    C1  976   1.356   4.169  11.148  0.2780  0.2655 -0.0223
   64MPD2    C2  977   1.437   4.271  11.125  0.5446  0.1235 -0.2620
   64MPD2    C3  978   1.489   4.339  11.233  0.6030 -0.7042  0.8819
   64MPD2    C4  979   1.448   4.303  11.359  0.7458 -0.1039 -0.2334
   64MPD2    C5  980   1.366   4.193  11.377  0.5054 -0.0872 -0.0705
   64MPD2     H  981   1.467   4.302  11.025 -0.9628  1.9479 -0.1533
   64MPD2    H1  982   1.476   4.365  11.444  0.0780 -1.1327  0.7342
   64MPD2    H2  983   1.233   4.053  11.291  0.2291 -1.1713 -0.8994
   64MPD2    H3  984   1.335   4.166  11.477  1.1908 -0.5329  0.0205
   64MPD2     N  985   1.579   4.439  11.204  0.4063 -0.2411 -0.0627
   64MPD2    H5  986   1.567   4.471  11.108 -0.9356  0.2792  0.2839
   64MPD2    N1  987   1.317   4.105  11.032  0.4508 -0.1310  0.1245
   64MPD2    H7  988   1.350   4.139  10.941 -2.8221 -0.9440 -1.3398
   65MPD2     C  989   2.287   0.147  15.808 -0.1318 -0.2211  0.5843
   65MPD2    C1  990   2.244   0.200  15.689  0.5555 -0.0314  0.4046
   65MPD2    C2  991   2.156   0.122  15.621 -0.4058 -0.4156  0.3823
   65MPD2    C3  992   2.111   0.001  15.677 -0.0964  0.5116  0.0650
   65MPD2    C4  993   2.141   4.687  15.802 -0.5520 -0.0495 -0.3207
   65MPD2    C5  994   2.224   0.038  15.868 -0.4436 -0.7682  0.1373
   65MPD2     H  995   2.120   0.163  15.527 -1.5657 -0.4251  0.8127
   65MPD2    H1  996   2.106   4.598  15.852 -0.4346 -0.5702 -1.1722
   65MPD2    H2  997   2.363   0.197  15.867 -1.0861  0.3457  1.3198
   65MPD2    H3  998   2.256   4.717  15.964 -0.6099  1.2571  1.0643
   65MPD2     N  999   2.016   4.639  15.621  0.0810 -0.2143 -0.1993
   65MPD2    H5 1000   2.012   4.546  15.661  1.6404  0.3832  1.3070
   65MPD2    N1 1001   2.294   0.324  15.636  0.0343  0.3212 -0.7076
   65MPD2    H7 1002   2.293   0.345  15.536 -0.8343 -0.5122 -0.8792
   66TCq2    C1 1003   2.362   0.402  15.714 -0.0631 -0.0237  0.3806
   66TCq2    O2 1004   2.341   0.431  15.831  0.1457 -0.3288  0.0473
   66TCq2    C2 1005   2.438   0.487  15.631 -0.1736 -0.1152  0.0155
   66TCq2    C3 1006   2.491   0.443  15.511 -0.1912 -1.0353 -0.0271
   66TCq2    C4 1007   2.566   0.532  15.438 -0.6465 -0.3035  0.6432
   66TCq2    C5 1008   2.577   0.665  15.472  0.3661 -0.3918 -0.6117
   66TCq2    C6 1009   2.515   0.706  15.588 -1.0282 -0.2256 -0.1788
   66TCq2    C7 1010   2.452   0.617  15.669  0.7781  0.5511  0.3449
   66TCq2    C8 1011   2.532   0.848  15.632 -0.2284 -0.4691 -0.5066
   66TCq2    O4 1012   2.580   0.930  15.551  0.4740 -0.2421  0.8226
   66TCq2    C9 1013   2.633   0.488  15.317  0.0186 -0.0134 -0.2711
   66TCq2    O5 1014   2.659   0.369  15.293  0.0238  0.1662 -0.1133
   66TCq2    O6 1015   2.682   0.580  15.244 -1.0598  0.4535  0.2406
   66TCq2    H2 1016   2.480   0.340  15.477  2.9890 -0.8850 -1.5424
   66TCq2    H3 1017   2.630   0.736  15.410  2.2605 -0.7074  0.6428
   66TCq2    H4 1018   2.411   0.643  15.766  2.3986  1.1303  0.8826
   67MPD2     C 1019   2.867   4.017  14.203  1.0509  0.1314 -0.0345
   67MPD2    C1 1020   2.762   3.971  14.278 -0.1997  0.2173  0.1492
   67MPD2    C2 1021   2.646   3.934  14.206 -0.3251 -0.1532 -0.2100
   67MPD2    C3 1022   2.641   3.929  14.071 -0.4039 -0.6325  0.3054
   67MPD2    C4 1023   2.742   3.988  13.998  0.1768  0.2832 -0.3599
   67MPD2    C5 1024   2.855   4.023  14.066  0.2412  0.3522 -0.1202
   67MPD2     H 1025   2.558   3.903  14.261  0.9726  0.1134  1.9917
   67MPD2    H1 1026   2.739   4.013  13.892  3.3805  0.7401 -0.3295
   67MPD2    H2 1027   2.961   4.049  14.248  0.7958 -1.0076  1.2947
   67MPD2    H3 1028   2.925   4.069  13.997 -1.1818 -0.4001 -2.0672
   67MPD2     N 1029   2.523   3.893  14.007  0.3309 -0.1133 -0.0449
   67MPD2    H5 1030   2.448   3.867  14.071  0.0174 -0.0571 -0.3872
   67MPD2    N1 1031   2.752   3.989  14.417 -0.5385  0.0487 -1.1900
   67MPD2    H7 1032   2.658   4.007  14.450 -0.3769  0.0440 -0.7291
   68TCq2    C1 1033   2.861   4.014  14.502  0.2388  0.1823  0.0637
   68TCq2    O2 1034   2.977   3.983  14.487 -0.3439  0.3232  0.2937
   68TCq2    C2 1035   2.822   4.090  14.613 -0.1035  0.4541  0.0822
   68TCq2    C3 1036   2.698   4.153  14.614 -0.1580  0.2731  0.2831
   68TCq2    C4 1037   2.675   4.240  14.717 -0.4809  0.1133  0.7086
   68TCq2    C5 1038   2.761   4.246  14.823 -0.1506  0.0581 -0.3808
   68TCq2    C6 1039   2.873   4.162  14.821 -0.0547  0.0616  0.7015
   68TCq2    C7 1040   2.899   4.083  14.717  0.0328  0.2891 -0.7465
   68TCq2    C8 1041   2.983   4.177  14.915  0.4209 -0.0869 -0.3783
   68TCq2    O4 1042   3.088   4.117  14.896 -0.2120  0.3834  0.0054
   68TCq2    C9 1043   2.567   4.335  14.701 -0.3688 -0.0499 -0.2000
   68TCq2    O5 1044   2.536   4.405  14.796  0.3916  0.1958  0.4741
   68TCq2    O6 1045   2.516   4.354  14.586 -0.4850  0.0873 -0.7228
   68TCq2    H2 1046   2.628   4.155  14.530 -0.8926 -2.5130  0.8093
   68TCq2    H3 1047   2.745   4.320  14.900  1.0207 -2.2894  2.1102
   68TCq2    H4 1048   2.990   4.026  14.705 -0.4612 -0.5719 -0.3577
   69TMC2    C1 1049   4.448   0.142  12.062  1.5453  0.4778  0.0342
   69TMC2    C2 1050   4.321   0.118  12.013  0.1785  0.4195  0.5524
   69TMC2    C3 1051   4.294   0.141  11.882  0.6589  0.0720  0.2725
   69TMC2    C4 1052   4.552   0.182  11.979 -0.4787 -0.0929  0.0624
   69TMC2    C5 1053   4.516   0.197  11.847 -0.7630 -0.3609  0.2363
   69TMC2    C6 1054   4.388   0.181  11.801 -0.3049  0.6152 -1.0645
   69TMC2     C 1055   4.478   0.070  12.188 -0.7958  1.1719 -0.9927
   69TMC2     O 1056   4.383   0.040  12.259  0.5211  0.2898 -0.2979
   69TMC2     H 1057   4.250   0.071  12.079  0.7434 -2.3918 -0.8333
   69TMC2    H1 1058   4.654   0.196  12.012 -0.7214 -0.5607  1.0276
   69TMC2    H2 1059   4.358   0.197  11.698  0.8259  3.3735 -0.9657
   69TMC2    C7 1060   4.624   0.246  11.755 -0.2368 -0.4586  0.1629
   69TMC2    C8 1061   4.156   0.179  11.850  0.2198  0.5141 -0.4379
   69TMC2    O1 1062   0.014   0.231  11.792  0.3313 -0.2402  0.4032
   69TMC2    O2 1063   4.123   0.209  11.736  0.7053 -0.2874  0.2129
   69TMC2    O5 1064   4.089   0.214  11.959 -0.1536  0.1909 -0.3166
   69TMC2    H5 1065   4.137   0.193  12.042 -0.2723 -0.5558 -0.4413
   70MPD2     C 1066   0.077   4.647  12.294 -0.4267 -1.3200  0.1220
   70MPD2    C1 1067   4.671   4.703  12.306 -0.4315 -0.5059  0.2948
   70MPD2    C2 1068   4.626   0.007  12.437 -0.2128 -0.3435  0.2498
   70MPD2    C3 1069   4.703   4.695  12.551 -0.7487  0.7910 -0.3668
   70MPD2    C4 1070   0.103   4.631  12.535  0.0921  0.6187 -0.0678
   70MPD2    C5 1071   0.154   4.611  12.408 -0.0381 -0.4103 -0.2787
   70MPD2     H 1072   4.526   0.048  12.451  0.7180  1.5367  1.3693
   70MPD2    H1 1073   0.154   4.603  12.626  2.8719  1.0621 -1.4934
   70MPD2    H2 1074   0.128   4.648  12.199 -2.0543 -1.4818 -0.7592
   70MPD2    H3 1075   0.242   4.551  12.390 -1.2172 -2.1022 -0.4209
   70MPD2     N 1076   4.655   4.691  12.683  0.0953 -0.1751  0.0402
   70MPD2    H5 1077   0.005   4.658  12.749 -0.1242 -1.6578 -0.4715
   70MPD2    N1 1078   4.608   0.031  12.195 -0.0770  0.7681  0.7951
   70MPD2    H7 1079   4.662   0.038  12.109 -3.6903  0.9870 -1.4736
   71TMC2    C1 1080   2.940   1.047   2.501  0.5216  0.0647 -0.1082
   71TMC2    C2 1081   3.014   0.957   2.577 -0.4604 -0.1832 -1.1620
   71TMC2    C3 1082   2.947   0.849   2.621  1.0018 -0.4980 -0.6696
   71TMC2    C4 1083   2.807   1.022   2.464  0.3455  0.6850 -1.3328
   71TMC2    C5 1084   2.747   0.914   2.512 -0.2803 -0.6086  0.1535
   71TMC2    C6 1085   2.814   0.825   2.592  0.3555 -0.0053  0.1330
   71TMC2     C 1086   3.010   1.126   2.398 -0.4664  0.6034 -0.5572
   71TMC2     O 1087   2.943   1.152   2.302  0.4254 -0.4758  0.2345
   71TMC2     H 1088   3.121   0.971   2.590 -0.9757  2.4454  0.2625
   71TMC2    H1 1089   2.751   1.099   2.412 -1.8616 -0.5130 -0.7624
   71TMC2    H2 1090   2.759   0.744   2.640  0.3562  0.7150  1.3381
   71TMC2    C7 1091   2.660   0.863   2.409  0.8844  0.5380 -0.2782
   71TMC2    C8 1092   3.028   0.745   2.681 -0.0155 -0.0255  0.5257
   71TMC2    O1 1093   2.591   0.769   2.444 -0.3790  0.0951 -0.2181
   71TMC2    O2 1094   3.141   0.757   2.720 -0.4509  0.0962  0.4729
   71TMC2    O5 1095   2.987   0.625   2.629  0.3772  0.2070 -0.0836
   71TMC2    H5 1096   2.905   0.631   2.575  1.0246 -1.7735 -1.2706
   72MPD2     C 1097   3.369   1.452   2.246  0.3245  0.0580 -0.4536
   72MPD2    C1 1098   3.268   1.392   2.170 -0.3552  0.5343 -0.3111
   72MPD2    C2 1099   3.195   1.291   2.231 -0.0213  0.2095 -0.5992
   72MPD2    C3 1100   3.209   1.267   2.369 -0.3638  0.0031 -0.4399
   72MPD2    C4 1101   3.317   1.330   2.431  0.0850  0.1968 -0.3355
   72MPD2    C5 1102   3.400   1.413   2.372  0.1985 -0.0769  0.2263
   72MPD2     H 1103   3.127   1.230   2.172  2.7434 -2.3470 -1.1343
   72MPD2    H1 1104   3.338   1.312   2.536  0.0166  0.6578 -0.2454
   72MPD2    H2 1105   3.435   1.526   2.202 -0.0085  0.5334 -0.1518
   72MPD2    H3 1106   3.483   1.452   2.429  0.9456  1.6612 -2.0527
   72MPD2     N 1107   3.134   1.166   2.440 -0.1684  0.3256 -0.7942
   72MPD2    H5 1108   3.162   1.130   2.531 -0.8896 -1.2906 -1.2122
   72MPD2    N1 1109   3.250   1.419   2.037  0.1775  0.6492 -0.3585
   72MPD2    H7 1110   3.176   1.368   1.990  1.6527 -1.5600 -0.2702
   73TMC2    C1 1111   2.901   3.051  14.367  0.3681 -0.7625  0.3401
   73TMC2    C2 1112   2.847   3.026  14.489 -1.0152 -0.1020 -0.2303
   73TMC2    C3 1113   2.791   3.123  14.555  0.0721  0.2448  0.3122
   73TMC2    C4 1114   2.877   3.171  14.304 -0.4562  0.7458 -0.7131
   73TMC2    C5 1115   2.822   3.266  14.381  0.1521  0.4130 -0.3213
   73TMC2    C6 1116   2.773   3.247  14.508 -0.5848 -0.5438  1.3043
   73TMC2     C 1117   2.959   2.942  14.291 -0.1901  0.0606 -0.3980
   73TMC2     O 1118   3.005   2.842  14.351  0.1195 -0.1127 -0.3252
   73TMC2     H 1119   2.862   2.931  14.541  0.4964 -0.6925 -1.7369
   73TMC2    H1 1120   2.907   3.194  14.202 -1.7281 -0.3487 -1.3351
   73TMC2    H2 1121   2.736   3.330  14.568  0.8338 -0.2101  1.7145
   73TMC2    C7 1122   2.759   3.374  14.310  0.0650 -0.4288 -0.5484
   73TMC2    C8 1123   2.759   3.102  14.696  0.1951 -0.3107  0.4584
   73TMC2    O1 1124   2.759   3.485  14.353  0.1608 -0.5161  0.2676
   73TMC2    O2 1125   2.844   3.052  14.769 -0.4366 -0.4736  0.3206
   73TMC2    O5 1126   2.662   3.187  14.735 -0.1784  0.8591 -0.4693
   73TMC2    H5 1127   2.584   3.185  14.675 -0.9207  1.2338  0.4857
   74MPD2     C 1128   2.872   2.686  13.864 -0.5361  0.4385  0.5517
   74MPD2    C1 1129   2.819   2.812  13.850  0.0935 -0.4292 -0.4553
   74MPD2    C2 1130   2.845   2.902  13.951  0.2116  0.5218 -0.0374
   74MPD2    C3 1131   2.914   2.866  14.063 -0.3243  0.3933  0.5719
   74MPD2    C4 1132   2.966   2.736  14.073  0.5958  0.1736  0.0001
   74MPD2    C5 1133   2.951   2.648  13.971 -0.1799 -0.6143 -0.8943
   74MPD2     H 1134   2.824   3.009  13.950 -0.5114  0.3741 -0.9154
   74MPD2    H1 1135   3.032   2.705  14.153  0.3183 -1.0659 -0.2432
   74MPD2    H2 1136   2.855   2.620  13.780  0.9385  2.1217 -1.0880
   74MPD2    H3 1137   2.996   2.550  13.976  2.2836  0.6027  0.5238
   74MPD2     N 1138   2.930   2.964  14.159 -0.1970 -0.1288 -0.0503
   74MPD2    H5 1139   2.890   3.054  14.133 -1.2516 -0.4406  0.4967
   74MPD2    N1 1140   2.746   2.851  13.736  0.3629  0.1375 -0.1720
   74MPD2    H7 1141   2.754   2.796  13.651 -0.7721 -1.5779  0.8057
   75TCq2    C1 1142   2.492   3.889  13.875 -0.1177 -0.7586  0.1118
   75TCq2    O2 1143   2.565   3.923  13.779  0.1480  0.4597 -0.0226
   75TCq2    C2 1144   2.362   3.829  13.845  0.4965 -0.0149 -0.6569
   75TCq2    C3 1145   2.286   3.763  13.942 -0.2892  0.5195 -0.1124
   75TCq2    C4 1146   2.152   3.734  13.908  0.3550  0.3547  0.0972
   75TCq2    C5 1147   2.094   3.764  13.793 -0.4116 -0.1470 -0.1382
   75TCq2    C6 1148   2.172   3.834  13.708  0.3195 -0.4514 -0.8973
   75TCq2    C7 1149   2.300   3.863  13.724 -0.2813 -0.5255 -0.5353
   75TCq2    C8 1150   2.099   3.878  13.591  0.2105 -0.0283 -0.5302
   75TCq2    O4 1151   2.147   3.877  13.475 -0.3482  0.7925  0.2739
   75TCq2    C9 1152   2.078   3.656  14.006  0.4121  0.2957 -0.4848
   75TCq2    O5 1153   1.953   3.628  13.997 -0.6324  0.2396  0.0472
   75TCq2    O6 1154   2.143   3.637  14.111 -0.3977  0.3011 -0.6527
   75TCq2    H2 1155   2.326   3.734  14.038 -0.6463 -0.7492 -0.3480
   75TCq2    H3 1156   1.989   3.738  13.781 -0.1954 -1.9635  1.8716
   75TCq2    H4 1157   2.349   3.930  13.655 -1.1460  0.6333 -0.0141
   76MPD2     C 1158   1.068   0.172  11.842  0.1635  1.1901 -0.1203
   76MPD2    C1 1159   1.037   0.092  11.735 -0.3835  0.1795 -0.7493
   76MPD2    C2 1160   1.114   4.694  11.721  0.9941 -0.0876 -0.4087
   76MPD2    C3 1161   1.214   4.660  11.810 -0.0187  0.7966 -0.8895
   76MPD2    C4 1162   1.240   0.027  11.922  0.0967  0.2521 -0.3216
   76MPD2    C5 1163   1.161   0.136  11.936  0.2553  0.0743  0.1484
   76MPD2     H 1164   1.088   4.622  11.643 -3.2565  3.3149 -2.1055
   76MPD2    H1 1165   1.312   0.003  11.999 -0.4723 -0.7411 -0.0986
   76MPD2    H2 1166   1.018   0.266  11.866 -0.0037  1.3501 -1.0880
   76MPD2    H3 1167   1.166   0.199  12.024  3.4446 -1.5912  1.1407
   76MPD2     N 1168   1.288   4.548  11.811  0.0427 -0.2068 -0.0027
   76MPD2    H5 1169   1.362   4.525  11.877  2.3075 -0.1092 -2.4695
   76MPD2    N1 1170   0.934   0.122  11.646 -0.0748 -0.1774 -0.7298
   76MPD2    H7 1171   0.920   0.066  11.563  0.2178 -1.1742 -0.0991
   77TCq2    C1 1172   1.245   4.440  11.742 -0.3155 -1.0522  0.1271
   77TCq2    O2 1173   1.131   4.421  11.705  0.0113  0.9390  0.6429
   77TCq2    C2 1174   1.326   4.327  11.784 -0.0676 -0.2535  0.0159
   77TCq2    C3 1175   1.267   4.209  11.804 -0.1035 -0.2063  0.4540
   77TCq2    C4 1176   1.342   4.110  11.856 -0.1653  0.0500  0.3249
   77TCq2    C5 1177   1.476   4.122  11.868 -0.0461 -0.5660 -0.3766
   77TCq2    C6 1178   1.539   4.234  11.825 -0.0684  0.0528 -0.3439
   77TCq2    C7 1179   1.467   4.342  11.788  0.0332  0.4735  0.8914
   77TCq2    C8 1180   1.682   4.246  11.844 -0.1776  0.5041 -0.0281
   77TCq2    O4 1181   1.739   4.311  11.760  0.1456 -0.8591 -0.1884
   77TCq2    C9 1182   1.285   3.981  11.897  0.3266  0.0833 -0.9042
   77TCq2    O5 1183   1.369   3.887  11.906 -0.0737  0.1092  0.3363
   77TCq2    O6 1184   1.161   3.969  11.887 -0.1616 -0.0419 -0.5440
   77TCq2    H2 1185   1.160   4.208  11.824 -0.1976  0.3160  0.0049
   77TCq2    H3 1186   1.545   4.040  11.884 -1.9321 -1.9868  0.5654
   77TCq2    H4 1187   1.516   4.434  11.756  0.9123 -0.2087  0.2872
   78MPD1     C 1188   2.271   4.128   2.961 -0.4012  0.3170  0.3800
   78MPD1    C1 1189   2.179   4.208   2.897  0.5435  0.0586  0.6584
   78MPD1    C2 1190   2.223   4.337   2.864 -0.9383 -0.5781 -0.0827
   78MPD1    C3 1191   2.342   4.391   2.917  0.0971 -0.2501 -0.5556
   78MPD1    C4 1192   2.416   4.309   2.998 -0.3484 -0.0337 -0.0240
   78MPD1    C5 1193   2.378   4.182   3.018  0.0389 -0.2637 -0.1036
   78MPD1     H 1194   2.159   4.401   2.804 -0.8489 -1.4507 -1.1056
   78MPD1    H1 1195   2.510   4.340   3.043  0.9325 -2.7174 -0.8480
   78MPD1    H2 1196   2.258   4.021   2.972 -0.0772  0.2095 -0.2459
   78MPD1    H3 1197   2.442   4.106   3.064 -1.9319 -0.1780  2.7970
   78MPD1     N 1198   2.390   4.520   2.907 -0.5288 -0.5513  0.0496
   78MPD1    H5 1199   2.478   4.539   2.954 -0.1008 -0.0627 -0.9589
   78MPD1    N1 1200   2.072   4.146   2.836  0.0655  0.0447 -0.1875
   78MPD1    H6 1201   2.025   4.069   2.882 -0.1393  1.7583  2.4325
   78MPD1    H7 1202   2.107   4.099   2.752 -1.1522  1.6250 -1.5800
   79TCq2    C1 1203   2.330   4.620   2.839 -0.7516  0.6150 -0.2460
   79TCq2    O2 1204   2.221   4.627   2.779 -0.0506  0.2116  0.2887
   79TCq2    C2 1205   2.417   0.011   2.823 -0.0207 -0.1649  0.4236
   79TCq2    C3 1206   2.525   0.029   2.903 -0.1003  0.0869  0.1529
   79TCq2    C4 1207   2.616   0.117   2.869  0.1005  0.6188 -0.7758
   79TCq2    C5 1208   2.595   0.208   2.773 -0.2306 -0.2844 -0.1373
   79TCq2    C6 1209   2.484   0.189   2.694  0.3127 -0.2905 -0.3267
   79TCq2    C7 1210   2.393   0.090   2.707 -0.3308  0.2363 -0.3444
   79TCq2    C8 1211   2.506   0.258   2.568 -0.1022  0.1911 -0.0494
   79TCq2    O4 1212   2.597   0.339   2.556  0.0535 -0.0159 -0.6303
   79TCq2    C9 1213   2.726   0.137   2.956 -0.4606 -0.1228 -0.2579
   79TCq2    O5 1214   2.723   0.056   3.050  0.2087 -0.5105  0.6525
   79TCq2    O6 1215   2.767   0.257   2.957  0.5984 -0.0947 -0.0046
   79TCq2    H2 1216   2.526   4.706   3.003  1.0020 -0.9093 -0.2829
   79TCq2    H3 1217   2.667   0.286   2.752 -0.8577  0.6426  1.1425
   79TCq2    H4 1218   2.303   0.083   2.647  0.2322 -1.3007 -1.0086
   80MPD2     C 1219   0.366   3.923  12.819  0.4596 -0.4312 -0.0536
   80MPD2    C1 1220   0.302   3.905  12.696 -0.2951 -0.5916  0.0741
   80MPD2    C2 1221   0.168   3.919  12.693  0.7920 -0.6042 -0.4035
   80MPD2    C3 1222   0.097   3.962  12.800  0.0297  0.1240 -0.3935
   80MPD2    C4 1223   0.163   3.979  12.919  0.2154  1.3252 -1.0314
   80MPD2    C5 1224   0.297   3.962  12.928 -0.3769  0.2215 -0.1758
   80MPD2     H 1225   0.128   3.894  12.595  3.1603  0.2355 -1.6025
   80MPD2    H1 1226   0.098   4.000  13.003  1.6245 -1.1433  0.6641
   80MPD2    H2 1227   0.474   3.914  12.825  0.4851  0.8478  1.4152
   80MPD2    H3 1228   0.340   3.968  13.027 -0.0887 -0.6015 -0.2494
   80MPD2     N 1229   4.679   3.971  12.806 -0.1627  0.6813 -0.0297
   80MPD2    H5 1230   4.644   3.981  12.901 -1.4025 -0.0168 -0.4204
   80MPD2    N1 1231   0.365   3.862  12.581 -0.7621 -0.2901  0.4130
   80MPD2    H7 1232   0.306   3.850  12.499 -0.1892  1.4410 -0.2589
   81TCq2    C1 1233   0.500   3.851  12.559  0.2715  0.2792  0.8798
   81TCq2    O2 1234   0.592   3.892  12.630 -0.2216  0.0670  0.0585
   81TCq2    C2 1235   0.528   3.801  12.423 -0.4190  0.2517  0.7268
   81TCq2    C3 1236   0.652   3.832  12.373 -0.0432 -0.0677  0.3621
   81TCq2    C4 1237   0.676   3.816  12.240  0.0181  0.9626 -0.5118
   81TCq2    C5 1238   0.584   3.762  12.158  0.4305 -0.8352  0.4227
   81TCq2    C6 1239   0.469   3.724  12.209  0.7731 -0.6984  0.6806
   81TCq2    C7 1240   0.438   3.748  12.339  0.6009  0.3430 -0.9767
   81TCq2    C8 1241   0.365   3.677  12.124 -0.2442 -0.0130  0.2729
   81TCq2    O4 1242   0.349   3.747  12.027 -0.0621 -0.4792 -0.5975
   81TCq2    C9 1243   0.807   3.856  12.188  0.4809 -0.3664  0.6654
   81TCq2    O5 1244   0.859   3.948  12.247  1.1848  0.1898 -0.8557
   81TCq2    O6 1245   0.830   3.820  12.070 -0.2159 -0.0155  0.0438
   81TCq2    H2 1246   0.744   3.863  12.423 -0.8029  0.8599  1.1877
   81TCq2    H3 1247   0.613   3.753  12.054  1.9412  1.1921  0.6636
   81TCq2    H4 1248   0.339   3.723  12.375  1.0814 -0.9334 -0.5371
   82MPD2     C 1249   3.389   3.928  10.274 -0.4604 -0.2197 -0.2082
   82MPD2    C1 1250   3.347   3.816  10.342 -0.3102  0.1076  0.1134
   82MPD2    C2 1251   3.427   3.749  10.435 -0.3893  0.0788  0.8036
   82MPD2    C3 1252   3.548   3.806  10.468 -0.3076  0.3896  0.0359
   82MPD2    C4 1253   3.589   3.917  10.393 -0.9012 -0.3296  0.3018
   82MPD2    C5 1254   3.514   3.971  10.299 -0.1240  0.5929  0.3476
   82MPD2     H 1255   3.395   3.652  10.473  4.0543 -1.6231  0.1782
   82MPD2    H1 1256   3.688   3.958  10.404 -0.4317 -0.9095 -1.6909
   82MPD2    H2 1257   3.326   3.961  10.192  1.1161 -1.1478 -1.7746
   82MPD2    H3 1258   3.550   4.055  10.242 -0.7422  1.7419  1.6492
   82MPD2     N 1259   3.644   3.737  10.544  0.3091  0.0381  0.3139
   82MPD2    H5 1260   3.740   3.771  10.544  0.8831 -1.5637 -0.8294
   82MPD2    N1 1261   3.215   3.764  10.305 -0.2344 -0.2415 -0.4616
   82MPD2    H7 1262   3.168   3.811  10.228  0.9408 -0.1044 -1.1002
   83TCq2    C1 1263   3.618   3.652  10.641  0.4283 -0.8814 -0.3392
   83TCq2    O2 1264   3.511   3.613  10.691  0.1794 -0.5665 -0.0624
   83TCq2    C2 1265   3.732   3.590  10.699 -0.5895  0.4812 -0.4732
   83TCq2    C3 1266   3.838   3.570  10.615 -0.9980 -0.7674  0.0637
   83TCq2    C4 1267   3.936   3.478  10.651 -0.3625 -0.3400  0.0792
   83TCq2    C5 1268   3.923   3.405  10.767 -0.1925  0.0512 -0.0205
   83TCq2    C6 1269   3.811   3.426  10.849  0.0847  0.0295  0.0903
   83TCq2    C7 1270   3.714   3.512  10.810 -0.5071  0.2231 -1.2638
   83TCq2    C8 1271   3.787   3.349  10.973  0.3820  0.7519 -0.4687
   83TCq2    O4 1272   3.694   3.380  11.045 -0.3421  0.1475  0.2428
   83TCq2    C9 1273   4.037   3.433  10.553  0.2299 -0.4534  0.4247
   83TCq2    O5 1274   4.106   3.332  10.579  0.2170  0.2660  0.6563
   83TCq2    O6 1275   4.074   3.523  10.475 -0.2901 -0.2346  0.3119
   83TCq2    H2 1276   3.847   3.613  10.516  1.8609 -0.7192  0.3403
   83TCq2    H3 1277   3.999   3.333  10.793 -0.0389  0.0265 -0.5341
   83TCq2    H4 1278   3.634   3.534  10.880 -1.1291  1.6035 -2.4073
   84TCq2    C1 1279   4.399   2.540  10.297 -1.3590 -0.6949  0.3711
   84TCq2    O2 1280   4.279   2.503  10.304 -0.1069 -0.2158  0.0239
   84TCq2    C2 1281   4.478   2.533  10.415 -0.1473  0.2696  0.2665
   84TCq2    C3 1282   4.611   2.560  10.410  0.4495 -0.2392 -0.2673
   84TCq2    C4 1283   4.688   2.538  10.517  0.1052  0.1690 -0.2362
   84TCq2    C5 1284   4.636   2.502  10.636  0.5422 -0.4004  0.3251
   84TCq2    C6 1285   4.499   2.476  10.638 -0.0279 -0.3035  0.8718
   84TCq2    C7 1286   4.415   2.493  10.533  0.4472  0.1716 -0.3579
   84TCq2    C8 1287   4.451   2.476  10.781 -0.1313 -0.5181  0.6536
   84TCq2    O4 1288   4.534   2.478  10.869 -0.1130  0.4044  0.4420
   84TCq2    C9 1289   0.113   2.551  10.515  0.1424  0.8023 -0.0424
   84TCq2    O5 1290   0.176   2.518  10.616 -0.5378  0.0750 -0.1742
   84TCq2    O6 1291   0.164   2.574  10.405  0.5732  0.8259 -0.3078
   84TCq2    H2 1292   4.661   2.610  10.328 -0.8961  1.0832 -0.2865
   84TCq2    H3 1293   4.702   2.494  10.722 -0.0537  1.3429  0.9405
   84TCq2    H4 1294   4.307   2.480  10.535  0.3524  1.2059  0.9641
   85MPD2     C 1295   4.331   1.187  16.334 -0.6818 -0.6166 -0.3081
   85MPD2    C1 1296   4.239   1.181  16.230 -0.2606 -0.1196 -0.2056
   85MPD2    C2 1297   4.253   1.261  16.122  0.4832 -0.6597  0.1137
   85MPD2    C3 1298   4.354   1.351  16.116 -0.0631  0.5172  0.4292
   85MPD2    C4 1299   4.444   1.363  16.228  1.0033 -0.0843  0.4159
   85MPD2    C5 1300   4.433   1.274  16.327 -0.0362  0.4486  0.0380
   85MPD2     H 1301   4.195   1.238  16.033 -0.4581  1.8536  0.0983
   85MPD2    H1 1302   4.530   1.429  16.235  1.5669 -1.1244  3.2880
   85MPD2    H2 1303   4.329   1.121  16.420  2.2023  0.5285  0.6358
   85MPD2    H3 1304   4.505   1.274  16.407  2.0877  1.6354 -1.8581
   85MPD2     N 1305   4.384   1.403  15.987 -0.9565 -0.1287  0.0189
   85MPD2    H5 1306   4.327   1.386  15.905  0.5447 -1.0367 -0.8373
   85MPD2    N1 1307   4.132   1.093  16.236  0.6910 -0.1995  0.2312
   85MPD2    H7 1308   4.062   1.103  16.163  0.0145 -1.0466  0.7641
   86TCq2    C1 1309   4.505   1.474  15.963 -0.5955 -0.6236  0.1667
   86TCq2    O2 1310   4.603   1.502  16.033 -0.2111  0.2489 -0.3908
   86TCq2    C2 1311   4.491   1.552  15.835  0.5746 -0.0610 -0.0465
   86TCq2    C3 1312   4.380   1.545  15.754 -0.6299  0.1912  0.1435
   86TCq2    C4 1313   4.383   1.619  15.641  0.1325 -0.0794  0.0904
   86TCq2    C5 1314   4.491   1.685  15.597  0.0598  0.1017 -0.3655
   86TCq2    C6 1315   4.605   1.681  15.675  0.1702 -0.8340 -0.1877
   86TCq2    C7 1316   4.606   1.609  15.796 -0.2898 -0.2502  0.6754
   86TCq2    C8 1317   0.011   1.723  15.617 -0.4636 -0.2831  0.1715
   86TCq2    O4 1318   0.116   1.669  15.656  0.1338 -0.0117 -0.1949
   86TCq2    C9 1319   4.267   1.618  15.558  0.5615 -0.1855 -0.0810
   86TCq2    O5 1320   4.152   1.587  15.601 -0.0925 -0.2434 -0.4361
   86TCq2    O6 1321   4.293   1.618  15.432  0.2537  0.8428  0.2902
   86TCq2    H2 1322   4.286   1.499  15.783 -0.5799 -1.7082 -2.7164
   86TCq2    H3 1323   4.489   1.741  15.504  2.3128  1.3914  0.3774
   86TCq2    H4 1324   4.704   1.600  15.842  1.0046  0.0682 -1.9984
   87MPD2     C 1325   1.469   4.302   1.397 -0.1680  0.5361 -0.3897
   87MPD2    C1 1326   1.506   4.383   1.504  0.6300  0.8017  0.3859
   87MPD2    C2 1327   1.457   4.509   1.505 -0.6709  0.0825  0.1897
   87MPD2    C3 1328   1.386   4.562   1.396 -0.5167 -0.7550 -0.3773
   87MPD2    C4 1329   1.347   4.480   1.294  0.2705 -0.7706 -0.5071
   87MPD2    C5 1330   1.388   4.343   1.299  0.8189  0.3358 -0.5024
   87MPD2     H 1331   1.489   4.572   1.587  0.9035 -1.1384  0.5170
   87MPD2    H1 1332   1.292   4.517   1.208  0.2852 -1.2425 -0.7211
   87MPD2    H2 1333   1.504   4.199   1.393 -0.6020  0.3687  0.0736
   87MPD2    H3 1334   1.353   4.278   1.220 -1.5935  0.8677  0.1470
   87MPD2     N 1335   1.364   4.700   1.377 -0.1941  0.3685  0.4128
   87MPD2    H5 1336   1.311   0.014   1.298 -1.7124 -0.5576  1.0162
   87MPD2    N1 1337   1.607   4.328   1.584  0.0827  0.4261 -0.5702
   87MPD2    H7 1338   1.651   4.243   1.549  2.3716  0.3932  2.4496
   88TCq2    C1 1339   1.656   4.387   1.690 -0.3712 -0.0885  0.1790
   88TCq2    O2 1340   1.599   4.472   1.762 -0.1093 -0.4756  0.3998
   88TCq2    C2 1341   1.792   4.352   1.724 -0.4932  0.2514 -0.2910
   88TCq2    C3 1342   1.847   4.405   1.841  1.0719  0.5396  0.2075
   88TCq2    C4 1343   1.985   4.387   1.861  0.6155 -1.0863  0.4748
   88TCq2    C5 1344   2.065   4.315   1.778 -0.0434  0.3524  0.1714
   88TCq2    C6 1345   2.006   4.276   1.656  0.6844  0.4076  0.2309
   88TCq2    C7 1346   1.873   4.290   1.627  0.3232  0.4198 -0.5311
   88TCq2    C8 1347   2.110   4.224   1.559  0.0720  0.3978 -0.0820
   88TCq2    O4 1348   2.227   4.237   1.590 -0.0672 -0.2524  0.0669
   88TCq2    C9 1349   2.040   4.429   1.980  0.0999 -0.0016  0.1514
   88TCq2    O5 1350   1.981   4.514   2.052  0.2343 -0.1629 -0.2296
   88TCq2    O6 1351   2.149   4.376   2.017  0.4460  0.4088  0.1434
   88TCq2    H2 1352   1.787   4.462   1.911  2.0217  0.5987  0.9765
   88TCq2    H3 1353   2.171   4.302   1.797  0.4841  2.3939 -1.4094
   88TCq2    H4 1354   1.844   4.265   1.526 -0.6255 -1.7472  0.2819
   89MPD2     C 1355   3.195   3.060   2.025  0.4834 -0.6373  0.1649
   89MPD2    C1 1356   3.087   3.087   2.108 -0.3746  0.1041  0.0316
   89MPD2    C2 1357   3.098   3.191   2.199  0.5471 -0.1219 -0.3092
   89MPD2    C3 1358   3.209   3.276   2.204 -0.0700 -0.3763  0.1681
   89MPD2    C4 1359   3.321   3.251   2.123 -0.2319 -0.0014 -0.7652
   89MPD2    C5 1360   3.307   3.140   2.044  0.3471 -0.2198  0.6366
   89MPD2     H 1361   3.016   3.212   2.265 -0.3083  1.1714 -1.7833
   89MPD2    H1 1362   3.416   3.302   2.131  0.2243 -0.8993 -0.4417
   89MPD2    H2 1363   3.196   2.972   1.963  1.3910 -1.4854  1.3926
   89MPD2    H3 1364   3.393   3.112   1.985 -0.1029 -1.9945  0.8085
   89MPD2     N 1365   3.205   3.373   2.304 -0.3083 -0.7514  0.3845
   89MPD2    H5 1366   3.115   3.381   2.349 -0.4638  0.4163 -0.1325
   89MPD2    N1 1367   2.970   3.016   2.106 -0.0541  0.1045 -0.3006
   89MPD2    H7 1368   2.894   3.047   2.167  0.5522 -0.0115  0.5112
   90TCq2    C1 1369   3.304   3.462   2.339  0.3858 -0.2498  0.3183
   90TCq2    O2 1370   3.423   3.466   2.309  0.1657 -0.0754  0.2197
   90TCq2    C2 1371   3.277   3.546   2.451  0.6428 -0.4232  0.2835
   90TCq2    C3 1372   3.147   3.572   2.489  0.3704 -0.0352 -0.3858
   90TCq2    C4 1373   3.134   3.638   2.614  0.2352  0.4583 -0.0108
   90TCq2    C5 1374   3.237   3.695   2.682  0.4299 -0.3925  0.4451
   90TCq2    C6 1375   3.364   3.677   2.633 -0.0127 -0.6405 -0.8355
   90TCq2    C7 1376   3.386   3.612   2.514 -0.0217 -0.2420  0.0139
   90TCq2    C8 1377   3.475   3.685   2.718 -0.7516 -0.0370  0.2136
   90TCq2    O4 1378   3.455   3.647   2.833 -0.0313  0.2207  0.3184
   90TCq2    C9 1379   3.002   3.673   2.666  0.3869  0.1760  0.2680
   90TCq2    O5 1380   2.912   3.604   2.620  0.3283 -0.3475 -0.4559
   90TCq2    O6 1381   2.993   3.774   2.741  0.0934  0.4048  0.0825
   90TCq2    H2 1382   3.049   3.551   2.448 -0.8495  0.1098  2.3879
   90TCq2    H3 1383   3.219   3.745   2.777 -1.2327 -2.7649  1.4087
   90TCq2    H4 1384   3.483   3.567   2.497  0.3047  0.1305  0.8711
   91TMC2    C1 1385   4.596   2.737  16.464 -0.0657  0.5116  0.0641
   91TMC2    C2 1386   4.622   2.856  16.533 -0.0986 -1.5097  0.0337
   91TMC2    C3 1387   4.534   2.874  16.634 -0.6974 -0.4382  0.3249
   91TMC2    C4 1388   4.485   2.661  16.487 -0.2491 -0.3094  0.5495
   91TMC2    C5 1389   4.406   2.677  16.596  0.1085 -0.1382 -0.2685
   91TMC2    C6 1390   4.432   2.787  16.675 -0.2342  0.3461  1.0026
   91TMC2     C 1391   4.694   2.689  16.365 -0.5708  0.3693  0.1974
   91TMC2     O 1392   4.650   2.622  16.273  0.4454 -0.3620 -0.4037
   91TMC2     H 1393   4.703   2.925  16.509 -0.8563 -1.1143 -1.4331
   91TMC2    H1 1394   4.489   2.565  16.438 -0.8135  0.1920 -0.4738
   91TMC2    H2 1395   4.363   2.821  16.751 -0.1203  0.3424  1.1084
   91TMC2    C7 1396   4.332   2.561  16.644  0.0554 -0.2386 -0.0038
   91TMC2    C8 1397   4.591   2.948  16.746  0.8735  0.8138 -0.1113
   91TMC2    O1 1398   4.318   2.553  16.767  0.3717 -0.3595  0.2369
   91TMC2    O2 1399   4.574   2.909  16.855 -0.8462 -0.0071 -0.1124
   91TMC2    O5 1400   4.665   3.049  16.695  0.4532  0.4624  0.0660
   91TMC2    H5 1401   4.673   3.076  16.601 -0.7258 -1.1970 -0.4980
   92MPD2     C 1402   0.202   2.553  16.243  0.0751 -0.1243  0.1650
   92MPD2    C1 1403   0.213   2.631  16.357  0.2428  1.0189  0.3590
   92MPD2    C2 1404   0.333   2.628  16.429  0.5562  0.0053  0.1867
   92MPD2    C3 1405   0.443   2.561  16.379  0.8552  0.5360 -0.3219
   92MPD2    C4 1406   0.428   2.495  16.262 -0.8077 -0.5752  0.0459
   92MPD2    C5 1407   0.309   2.488  16.199  0.1293  0.2262  0.2075
   92MPD2     H 1408   0.347   2.688  16.518 -0.3455  0.5231 -0.0183
   92MPD2    H1 1409   0.499   2.425  16.219 -0.6336 -0.8709  0.8218
   92MPD2    H2 1410   0.117   2.527  16.181 -0.0563  0.4993  0.0849
   92MPD2    H3 1411   0.293   2.427  16.112  1.0497 -0.8142  0.7670
   92MPD2     N 1412   0.557   2.547  16.470  0.1463  0.3241  0.0618
   92MPD2    H5 1413   0.541   2.573  16.567 -0.6823  0.2349 -0.0470
   92MPD2    N1 1414   0.101   2.700  16.408 -0.5783 -0.3609  0.1956
   92MPD2    H7 1415   0.116   2.761  16.488  3.1024  1.4757 -1.8768
   93MPD2     C 1416   2.108   1.794  13.693  0.1183  0.3142  0.6188
   93MPD2    C1 1417   2.066   1.889  13.781 -0.1753 -0.1575  0.0418
   93MPD2    C2 1418   1.931   1.917  13.791  0.6401  0.6513 -0.2782
   93MPD2    C3 1419   1.840   1.830  13.727 -0.3255 -0.0563  0.0642
   93MPD2    C4 1420   1.881   1.722  13.658 -0.3591  0.6426  0.3456
   93MPD2    C5 1421   2.017   1.714  13.635 -0.3527  0.1828 -0.6145
   93MPD2     H 1422   1.905   1.991  13.865  0.5668  1.6224 -1.2857
   93MPD2    H1 1423   1.817   1.648  13.611 -0.4645  1.0409 -0.1446
   93MPD2    H2 1424   2.213   1.772  13.679 -0.3595 -2.4486  1.4593
   93MPD2    H3 1425   2.060   1.625  13.588  1.0299  0.4642  0.1152
   93MPD2     N 1426   1.704   1.842  13.737 -0.1274  0.2961 -0.3860
   93MPD2    H5 1427   1.644   1.765  13.709 -1.4070  0.7061  1.2106
   93MPD2    N1 1428   2.149   1.962  13.871  0.1737  0.4411 -0.0099
   93MPD2    H7 1429   2.112   2.034  13.932  0.8662  0.3469  0.5102
   94TCq2    C1 1430   2.286   1.943  13.886  0.3133  0.3519 -0.7631
   94TCq2    O2 1431   2.368   1.874  13.820 -0.8112  0.4953 -0.2172
   94TCq2    C2 1432   2.352   2.056  13.962 -0.2951  0.9508  0.2985
   94TCq2    C3 1433   2.286   2.178  13.979 -0.0669  0.0642  0.4309
   94TCq2    C4 1434   2.361   2.287  14.015 -0.3566  0.0297  1.3178
   94TCq2    C5 1435   2.496   2.278  14.042 -0.3644 -0.4275 -0.4827
   94TCq2    C6 1436   2.559   2.157  14.012 -0.2524  0.1982  0.0611
   94TCq2    C7 1437   2.488   2.048  13.967 -0.4345  0.1634 -0.0053
   94TCq2    C8 1438   2.700   2.142  14.059 -0.0311  0.5214  0.0147
   94TCq2    O4 1439   2.751   2.037  14.035  0.1929  0.0246  0.4922
   94TCq2    C9 1440   2.296   2.412  14.052  0.5958 -0.0407 -0.0746
   94TCq2    O5 1441   2.361   2.519  14.069  0.4013  0.2896 -0.3110
   94TCq2    O6 1442   2.172   2.409  14.056  0.0647  0.1084 -0.7874
   94TCq2    H2 1443   2.178   2.186  13.979 -0.0947 -0.2628 -1.3584
   94TCq2    H3 1444   2.547   2.369  14.072  1.4105 -0.8552 -2.2448
   94TCq2    H4 1445   2.533   1.951  13.955 -1.4017  0.1319 -3.3652
   95TMC2    C1 1446   1.472   4.025  16.203  0.1601 -0.5350  0.5894
   95TMC2    C2 1447   1.514   3.900  16.243 -1.0006 -0.1780 -0.4972
   95TMC2    C3 1448   1.502   3.863  16.373 -0.0096  0.1236  0.3112
   95TMC2    C4 1449   1.432   4.118  16.294 -0.0527  0.5100 -0.3799
   95TMC2    C5 1450   1.430   4.082  16.424  0.1902  0.4951  0.5431
   95TMC2    C6 1451   1.455   3.951  16.469  0.0613  0.2466  0.2310
   95TMC2     C 1452   1.492   4.071  16.069  0.4231  0.0317 -0.1442
   95TMC2     O 1453   1.512   4.191  16.047  0.0311 -0.5197  0.0754
   95TMC2     H 1454   1.574   3.837  16.177 -0.8147 -1.2802  0.7190
   95TMC2    H1 1455   1.413   4.221  16.265  0.9570  0.9483  0.5279
   95TMC2    H2 1456   1.455   3.937  16.576 -0.2906 -0.4615  0.1356
   95TMC2    C7 1457   1.393   4.193  16.511 -0.5564  0.5494  0.2850
   95TMC2    C8 1458   1.536   3.731  16.397 -0.0176 -0.4413  0.1702
   95TMC2    O1 1459   1.421   4.308  16.481  0.2231 -0.4383 -0.1385
   95TMC2    O2 1460   1.619   3.666  16.331 -0.0665  0.2499 -0.3156
   95TMC2    O5 1461   1.462   3.680  16.497  0.2726  0.3078  0.2875
   95TMC2    H5 1462   1.395   3.741  16.534 -2.5129 -1.6868 -1.5161
   96MPD2     C 1463   1.506   3.962  15.576  0.0433 -0.4643 -0.6978
   96MPD2    C1 1464   1.569   4.062  15.643 -0.1713  0.4687 -0.0586
   96MPD2    C2 1465   1.557   4.074  15.779  0.1865 -0.4275  0.0932
   96MPD2    C3 1466   1.489   3.972  15.845 -0.6249 -0.6524 -0.6431
   96MPD2    C4 1467   1.433   3.873  15.771  0.0119  0.1491  0.2187
   96MPD2    C5 1468   1.442   3.864  15.638 -0.0369 -0.2579  0.2771
   96MPD2     H 1469   1.615   4.147  15.835  2.0253 -1.2867 -0.6949
   96MPD2    H1 1470   1.385   3.789  15.821 -0.3667  0.4685  0.3813
   96MPD2    H2 1471   1.514   3.959  15.468 -1.7962 -0.6447 -0.8302
   96MPD2    H3 1472   1.387   3.785  15.589 -1.4274  1.3398 -0.7180
   96MPD2     N 1473   1.459   3.972  15.984  0.0688  0.3709  0.6761
   96MPD2    H5 1474   1.424   3.889  16.030 -1.4248  1.8542  2.2138
   96MPD2    N1 1475   1.648   4.151  15.568  0.4651  0.1216  0.1727
   96MPD2    H7 1476   1.655   4.131  15.469 -0.3173 -0.1731  0.1767
   97MPD2     C 1477   3.376   1.866   0.829 -0.0139  0.1174 -1.1333
   97MPD2    C1 1478   3.447   1.985   0.865  0.0967  0.0007 -1.0640
   97MPD2    C2 1479   3.489   2.081   0.768  0.0167  0.1043 -0.3928
   97MPD2    C3 1480   3.469   2.039   0.636  0.3056  0.2874  0.1037
   97MPD2    C4 1481   3.387   1.933   0.600 -0.3288 -0.7014 -0.5148
   97MPD2    C5 1482   3.350   1.837   0.694 -0.0344 -0.0583  0.2457
   97MPD2     H 1483   3.555   2.165   0.787  1.9614 -1.8948  1.6786
   97MPD2    H1 1484   3.364   1.916   0.496  1.2329 -1.5875 -0.7178
   97MPD2    H2 1485   3.343   1.808   0.915 -2.4590  0.3495 -1.9075
   97MPD2    H3 1486   3.293   1.754   0.654  1.2180 -0.7578 -0.0983
   97MPD2     N 1487   3.519   2.121   0.536  0.6657  1.2918 -0.3538
   97MPD2    H5 1488   3.498   2.100   0.438  0.9566 -2.3898  0.3599
   97MPD2    N1 1489   3.462   2.015   1.004 -1.0941  0.8276 -0.2354
   97MPD2    H7 1490   3.425   1.935   1.056  0.3684  0.7487  0.6800
   98TCq2    C1 1491   3.615   2.220   0.548  0.2150 -0.9398 -1.0019
   98TCq2    O2 1492   3.697   2.242   0.634  0.4835  0.3335 -0.0488
   98TCq2    C2 1493   3.626   2.321   0.436  0.4620  0.0942  0.6749
   98TCq2    C3 1494   3.512   2.365   0.388 -0.8511 -0.0876 -0.5075
   98TCq2    C4 1495   3.506   2.494   0.326  0.3222 -0.5829 -1.3965
   98TCq2    C5 1496   3.617   2.570   0.324 -0.2890  0.7814  0.6357
   98TCq2    C6 1497   3.736   2.514   0.357  0.1556  0.0198  0.0704
   98TCq2    C7 1498   3.744   2.383   0.404  0.2530 -0.0434  0.0598
   98TCq2    C8 1499   3.845   2.603   0.414 -0.7271  0.0625 -0.4863
   98TCq2    O4 1500   3.952   2.555   0.445 -0.0528 -0.2358  0.2385
   98TCq2    C9 1501   3.371   2.553   0.310  0.0143 -0.3122 -0.4616
   98TCq2    O5 1502   3.368   2.676   0.282  0.3295  0.1669  0.0655
   98TCq2    O6 1503   3.271   2.474   0.311 -0.9849  0.4874  0.1236
   98TCq2    H2 1504   3.420   2.313   0.413 -0.8175 -0.4485 -1.1166
   98TCq2    H3 1505   3.604   2.670   0.285 -0.9821  0.6350  0.4949
   98TCq2    H4 1506   3.841   2.350   0.440  1.6433  1.6473 -2.0921
   99MPD2     C 1507   2.523   3.795   2.153 -0.1960 -0.5359 -0.2308
   99MPD2    C1 1508   2.434   3.705   2.108  0.3070 -0.3317  0.5433
   99MPD2    C2 1509   2.472   3.630   1.998  0.5595 -0.1044  0.2645
   99MPD2    C3 1510   2.585   3.657   1.928  0.5626 -0.7949  0.1562
   99MPD2    C4 1511   2.661   3.763   1.969 -0.3442 -0.2506  0.1822
   99MPD2    C5 1512   2.629   3.831   2.078  0.4439  0.0842  0.2830
   99MPD2     H 1513   2.419   3.542   1.965 -1.0331  0.7448  0.5597
   99MPD2    H1 1514   2.756   3.789   1.923 -1.0012  2.7193  0.5331
   99MPD2    H2 1515   2.496   3.854   2.240  1.6559 -0.7395  0.4840
   99MPD2    H3 1516   2.705   3.898   2.118 -0.5223  1.7458 -0.6792
   99MPD2     N 1517   2.607   3.578   1.815 -0.1662  0.3247 -0.4309
   99MPD2    H5 1518   2.540   3.503   1.801  3.9342 -3.3380 -0.2589
   99MPD2    N1 1519   2.312   3.670   2.179 -0.0718  0.4772  0.0099
   99MPD2    H7 1520   2.254   3.595   2.143 -1.3287  1.0023  0.9438
  100TCq2    C1 1521   2.246   3.753   2.272 -0.0030 -0.9259  0.2243
  100TCq2    O2 1522   2.266   3.872   2.294  0.5032 -0.1076  0.0380
  100TCq2    C2 1523   2.117   3.702   2.308 -1.2096  0.0616  0.4055
  100TCq2    C3 1524   2.085   3.565   2.297  0.4682  0.4509 -0.4033
  100TCq2    C4 1525   1.958   3.524   2.315 -0.3046 -0.5124  0.2180
  100TCq2    C5 1526   1.856   3.615   2.327  0.4231  0.0311 -0.3786
  100TCq2    C6 1527   1.891   3.746   2.352  0.1934  0.5959 -0.0698
  100TCq2    C7 1528   2.017   3.790   2.353 -0.0484  1.0547  1.0240
  100TCq2    C8 1529   1.795   3.854   2.352  0.2077 -0.5579 -0.1270
  100TCq2    O4 1530   1.803   3.951   2.425  0.2514 -0.4182 -0.5135
  100TCq2    C9 1531   1.918   3.393   2.289  0.1492  0.1948 -0.9632
  100TCq2    O5 1532   1.807   3.366   2.326  0.4336  0.3123 -0.2849
  100TCq2    O6 1533   1.988   3.326   2.207 -0.0057  0.0284  0.2450
  100TCq2    H2 1534   2.157   3.486   2.283 -1.1502 -0.7982 -1.7449
  100TCq2    H3 1535   1.750   3.595   2.338  0.1919  2.4994  1.8650
  100TCq2    H4 1536   2.054   3.891   2.369  0.2064  0.6088  3.3500
  101MPD2     C 1537   3.499   4.317  12.971  0.8662 -0.1888  0.0547
  101MPD2    C1 1538   3.427   4.389  13.070 -0.1238  0.0221  0.1357
  101MPD2    C2 1539   3.387   4.319  13.183  0.1092  0.0502 -0.5757
  101MPD2    C3 1540   3.412   4.187  13.199 -0.7724  0.0173  0.0255
  101MPD2    C4 1541   3.481   4.123  13.100 -0.1392  0.4565 -0.2445
  101MPD2    C5 1542   3.532   4.185  12.994 -0.2085  0.0902  0.5132
  101MPD2     H 1543   3.354   4.381  13.265  2.0600  0.5962 -0.1976
  101MPD2    H1 1544   3.497   4.016  13.111 -0.6458  0.4153  0.0596
  101MPD2    H2 1545   3.536   4.361  12.879 -0.2306 -1.2504 -0.8891
  101MPD2    H3 1546   3.588   4.129  12.920  1.7145  1.5654  0.8282
  101MPD2     N 1547   3.367   4.119  13.315 -0.5786  0.5656  0.9022
  101MPD2    H5 1548   3.312   4.172  13.382 -1.6204  0.6455 -0.0083
  101MPD2    N1 1549   3.411   4.526  13.049  0.4341  0.4105 -0.6281
  101MPD2    H7 1550   3.458   4.571  12.972 -0.8084  0.0985 -1.5805
  102TCq2    C1 1551   3.531   0.094  12.762 -0.3197 -0.6492  0.0818
  102TCq2    O2 1552   3.601   4.718  12.792 -0.7328  0.0416 -0.1700
  102TCq2    C2 1553   3.436   0.129  12.861 -0.5479 -0.5030 -0.1888
  102TCq2    C3 1554   3.315   0.190  12.824  0.1671 -0.1920 -0.1218
  102TCq2    C4 1555   3.198   0.166  12.902  0.5512 -0.7864 -0.0595
  102TCq2    C5 1556   3.206   0.077  13.007 -0.0920  1.0818 -0.2387
  102TCq2    C6 1557   3.325   0.018  13.039  0.2569 -0.3229 -0.3677
  102TCq2    C7 1558   3.441   0.049  12.979 -0.0283  0.9020  0.1042
  102TCq2    C8 1559   3.324   4.608  13.114  0.8661 -0.0513 -0.9550
  102TCq2    O4 1560   3.233   4.581  13.192  1.0327  0.0569 -0.4338
  102TCq2    C9 1561   3.078   0.242  12.879  0.2079  0.3761  0.2052
  102TCq2    O5 1562   2.977   0.188  12.928 -0.2587 -0.0487  0.5470
  102TCq2    O6 1563   3.089   0.328  12.791  0.2938  0.0269 -0.1950
  102TCq2    H2 1564   3.312   0.252  12.735 -2.0176  2.4755  1.8274
  102TCq2    H3 1565   3.116   0.040  13.055  0.4065 -0.1166 -0.2311
  102TCq2    H4 1566   3.538   0.012  13.010 -1.0686  0.5828  2.9978
  103TMC2    C1 1567   1.978   4.061  12.539  0.4811  0.3872 -0.4132
  103TMC2    C2 1568   2.095   4.131  12.569 -0.0787 -0.9638 -1.3372
  103TMC2    C3 1569   2.129   4.147  12.697 -0.2082 -0.5621 -0.2481
  103TMC2    C4 1570   1.887   4.024  12.635  0.1969 -0.1217 -0.0526
  103TMC2    C5 1571   1.920   4.045  12.767 -0.3014  0.1584  0.0373
  103TMC2    C6 1572   2.043   4.101  12.799  0.0553  0.7494 -0.6113
  103TMC2     C 1573   1.928   4.043  12.406  0.8412  0.6664  0.0016
  103TMC2     O 1574   1.805   4.035  12.392 -0.0333 -0.3889 -0.2850
  103TMC2     H 1575   2.161   4.157  12.487  3.3990 -1.4337  1.3015
  103TMC2    H1 1576   1.790   3.988  12.602  0.3515 -0.3108 -0.3018
  103TMC2    H2 1577   2.074   4.127  12.900 -0.3841 -2.1346  0.2857
  103TMC2    C7 1578   1.802   4.052  12.856  0.1269  0.8378 -0.3541
  103TMC2    C8 1579   2.264   4.174  12.735  0.2622  0.7912  0.2426
  103TMC2    O1 1580   1.706   3.989  12.812  0.1819  0.1608  0.2293
  103TMC2    O2 1581   2.322   4.137  12.838  0.4880  0.0559 -0.3170
  103TMC2    O5 1582   2.310   4.272  12.654  0.4000  0.2151  0.7885
  103TMC2    H5 1583   2.258   4.294  12.574  0.2813  0.0408  0.8197
  104MPD2     C 1584   2.126   4.120  12.113  0.4978  0.1268  0.0892
  104MPD2    C1 1585   2.007   4.089  12.179 -0.2292  0.3971  0.3314
  104MPD2    C2 1586   1.881   4.112  12.117 -0.9246  0.5347 -0.6602
  104MPD2    C3 1587   1.862   4.183  12.006 -0.2490  0.0875 -0.2774
  104MPD2    C4 1588   1.975   4.235  11.950 -0.1292 -0.2784 -0.2342
  104MPD2    C5 1589   2.099   4.194  12.001 -0.1939 -0.2892 -0.9272
  104MPD2     H 1590   1.793   4.077  12.170 -1.1503  0.7216 -0.9187
  104MPD2    H1 1591   1.964   4.291  11.857  3.4914 -1.5092 -1.3922
  104MPD2    H2 1592   2.228   4.114  12.149 -0.0097  1.5290  1.8014
  104MPD2    H3 1593   2.191   4.236  11.961  0.0310  0.8518  0.7907
  104MPD2     N 1594   1.728   4.191  11.958  0.2873 -0.0853 -0.7369
  104MPD2    H5 1595   1.660   4.136  12.010 -1.2787  2.2271 -0.3326
  104MPD2    N1 1596   2.025   4.050  12.309  0.4223 -0.1397 -0.4524
  104MPD2    H7 1597   2.122   4.042  12.339  0.2556 -2.3708 -0.4420
  105MPD2     C 1598   3.170   4.281   0.437 -0.2250 -0.0351 -0.3681
  105MPD2    C1 1599   3.035   4.262   0.429 -0.1153  0.2257 -0.2637
  105MPD2    C2 1600   2.962   4.242   0.547 -0.3304 -0.4682  0.0217
  105MPD2    C3 1601   3.030   4.253   0.671 -0.9733  0.1060 -0.2105
  105MPD2    C4 1602   3.163   4.264   0.670 -0.2388  0.4348  0.0444
  105MPD2    C5 1603   3.237   4.268   0.557 -0.5540 -0.8166 -0.4284
  105MPD2     H 1604   2.857   4.216   0.552 -0.0273 -1.9087 -1.3356
  105MPD2    H1 1605   3.212   4.270   0.767 -2.6096  1.0821  1.2144
  105MPD2    H2 1606   3.231   4.295   0.348 -0.4353  0.0794 -0.4934
  105MPD2    H3 1607   3.345   4.280   0.563 -0.9701  3.3875 -0.7501
  105MPD2     N 1608   2.944   4.237   0.787  0.1662 -0.4069 -0.0787
  105MPD2    H5 1609   2.848   4.211   0.770 -0.0937  0.4945 -0.0168
  105MPD2    N1 1610   2.961   4.249   0.314 -0.0536  0.0104 -0.4920
  105MPD2    H7 1611   2.862   4.241   0.332 -0.0599  2.8926  0.7266
  106TCq2    C1 1612   2.994   4.241   0.915  0.1989 -0.2034  0.1643
  106TCq2    O2 1613   3.109   4.241   0.960 -0.4230 -0.5124 -0.1858
  106TCq2    C2 1614   2.889   4.244   1.011  0.3180 -0.4384 -0.3188
  106TCq2    C3 1615   2.930   4.257   1.139  0.1974 -0.1967  0.0150
  106TCq2    C4 1616   2.850   4.214   1.240  0.0938  0.3610 -0.1914
  106TCq2    C5 1617   2.728   4.170   1.215 -0.0292  0.5644 -0.8517
  106TCq2    C6 1618   2.685   4.160   1.088 -0.4600 -0.2036  0.3490
  106TCq2    C7 1619   2.763   4.201   0.982 -0.3211 -0.8894  0.0512
  106TCq2    C8 1620   2.550   4.121   1.064 -0.2225 -0.2328  0.2392
  106TCq2    O4 1621   2.512   4.097   0.949 -0.7222 -0.6244 -0.4377
  106TCq2    C9 1622   2.903   4.217   1.378  0.4721  0.2047  0.0330
  106TCq2    O5 1623   3.019   4.261   1.389  0.8545  0.3738 -0.2708
  106TCq2    O6 1624   2.830   4.169   1.469 -0.0646  0.2309 -0.0693
  106TCq2    H2 1625   3.025   4.299   1.168 -0.2440 -0.2168  1.5172
  106TCq2    H3 1626   2.680   4.121   1.299 -1.1691  1.3062 -1.0759
  106TCq2    H4 1627   2.730   4.173   0.883  2.4520  0.6166 -1.2849
  107TMC2    C1 1628   4.366   2.943  11.601  0.8903  0.4007  0.5368
  107TMC2    C2 1629   4.499   2.927  11.592 -0.2059 -0.0943  0.2576
  107TMC2    C3 1630   4.540   2.829  11.508 -0.2080 -0.3837 -1.1801
  107TMC2    C4 1631   4.265   2.879  11.534  0.2750 -0.0337  0.2995
  107TMC2    C5 1632   4.312   2.778  11.452  0.7012 -0.4212  0.0379
  107TMC2    C6 1633   4.446   2.751  11.441 -0.3369 -0.6208 -0.0093
  107TMC2     C 1634   4.326   2.997  11.722 -0.0163  0.7559  0.4847
  107TMC2     O 1635   4.225   2.964  11.781 -0.5296 -0.4899  0.3335
  107TMC2     H 1636   4.573   2.960  11.664  1.2306 -0.4302 -1.0646
  107TMC2    H1 1637   4.160   2.903  11.548  0.5719  1.6082 -0.2687
  107TMC2    H2 1638   4.483   2.667  11.384 -0.1569 -1.5458  1.4885
  107TMC2    C7 1639   4.225   2.720  11.353  0.0229  0.8038 -0.2940
  107TMC2    C8 1640   4.682   2.801  11.497 -0.4281 -0.4995  0.0658
  107TMC2    O1 1641   4.107   2.726  11.390  0.2582  0.2023  0.7682
  107TMC2    O2 1642   0.027   2.788  11.602  0.3380 -0.0082 -0.3360
  107TMC2    O5 1643   4.710   2.766  11.367  0.2447 -0.4691  0.1652
  107TMC2    H5 1644   4.638   2.795  11.306  1.1265 -2.2149 -1.7101
  108MPD2     C 1645   4.438   3.321  11.845 -0.2751  0.0066 -0.3541
  108MPD2    C1 1646   4.372   3.202  11.851 -0.3878 -0.4520  0.1260
  108MPD2    C2 1647   4.293   3.173  11.963  0.1072 -0.3017  0.3172
  108MPD2    C3 1648   4.275   3.267  12.060 -0.3118  0.7586 -0.3876
  108MPD2    C4 1649   4.342   3.388  12.057  0.0398  0.3429 -0.1510
  108MPD2    C5 1650   4.426   3.413  11.954 -1.3744  0.2220  0.1214
  108MPD2     H 1651   4.248   3.076  11.977 -0.0528 -0.3642 -0.6708
  108MPD2    H1 1652   4.324   3.457  12.139  2.0483 -0.4717  0.9916
  108MPD2    H2 1653   4.496   3.346  11.757  1.2872  0.1824  0.7345
  108MPD2    H3 1654   4.475   3.510  11.950  0.2232 -0.5332  1.1670
  108MPD2     N 1655   4.203   3.255  12.179 -0.0671  0.2057  0.2703
  108MPD2    H5 1656   4.200   3.334  12.242  1.1976 -0.3322  1.0028
  108MPD2    N1 1657   4.394   3.110  11.748  0.4434 -0.1896 -0.6132
  108MPD2    H7 1658   4.467   3.137  11.683 -1.2499  2.3870 -1.4886
  109MPD2     C 1659   3.265   0.805   2.337  0.6553 -0.2295 -0.0430
  109MPD2    C1 1660   3.238   0.846   2.208  0.5723 -0.2723 -0.3720
  109MPD2    C2 1661   3.307   0.957   2.152  0.1526 -0.2278 -0.3514
  109MPD2    C3 1662   3.407   1.015   2.226  0.5040  0.1356 -0.7704
  109MPD2    C4 1663   3.430   0.969   2.356 -0.5791  0.2765  0.2297
  109MPD2    C5 1664   3.358   0.871   2.414 -0.0680  0.2640  1.0988
  109MPD2     H 1665   3.300   0.975   2.046 -3.3097  0.7897  0.0398
  109MPD2    H1 1666   3.503   1.017   2.419  1.0313 -1.1206 -0.5805
  109MPD2    H2 1667   3.217   0.717   2.377 -2.4477  2.1095  1.3423
  109MPD2    H3 1668   3.377   0.833   2.514  1.1482 -2.3327 -0.1146
  109MPD2     N 1669   3.484   1.115   2.161 -0.7666 -0.7105  0.4943
  109MPD2    H5 1670   3.440   1.161   2.082  1.0361 -2.0081 -1.2757
  109MPD2    N1 1671   3.129   0.788   2.149  0.4254 -0.0713  1.2218
  109MPD2    H7 1672   3.086   0.720   2.210  1.7562 -1.9474  0.0862
  110TCq2    C1 1673   3.606   1.160   2.218 -0.1495 -0.6115  0.1045
  110TCq2    O2 1674   3.653   1.147   2.329 -0.6958 -0.1778  0.6763
  110TCq2    C2 1675   3.677   1.256   2.133 -0.2785 -0.2771  0.3934
  110TCq2    C3 1676   3.795   1.294   2.191 -0.0778  0.0249  0.5744
  110TCq2    C4 1677   3.868   1.399   2.140  0.4513 -0.1156 -0.4021
  110TCq2    C5 1678   3.819   1.470   2.043  0.1953 -0.1747 -0.3585
  110TCq2    C6 1679   3.705   1.431   1.974  0.0751  0.1430 -0.6233
  110TCq2    C7 1680   3.629   1.326   2.022 -0.1744  0.1898 -0.1261
  110TCq2    C8 1681   3.660   1.515   1.866 -0.3664  0.4277  0.0358
  110TCq2    O4 1682   3.697   1.635   1.864  0.0081 -0.0340  0.3778
  110TCq2    C9 1683   3.984   1.438   2.213  0.1296 -0.6175 -0.3633
  110TCq2    O5 1684   4.038   1.544   2.178  0.4898 -0.0177 -0.0623
  110TCq2    O6 1685   4.054   1.349   2.268  0.2606  0.1159  0.1525
  110TCq2    H2 1686   3.835   1.247   2.279 -2.0432 -0.1194  1.4041
  110TCq2    H3 1687   3.868   1.557   2.003 -0.5181  0.5175  0.2672
  110TCq2    H4 1688   3.531   1.304   1.980 -1.4372  0.4609  2.6830
  111TMC2    C1 1689   4.149   4.682  11.265  0.5554  0.1746 -0.1855
  111TMC2    C2 1690   4.224   4.616  11.174  0.2627 -0.1063 -0.3570
  111TMC2    C3 1691   4.328   4.542  11.217 -0.2481 -0.2012  0.2456
  111TMC2    C4 1692   4.166   4.664  11.400  0.2867  0.3059 -0.4039
  111TMC2    C5 1693   4.268   4.588  11.439  0.1758  0.0724  0.1953
  111TMC2    C6 1694   4.349   4.525  11.349  0.3144 -0.0585 -0.2922
  111TMC2     C 1695   4.027   0.026  11.220 -0.0528 -0.5711 -0.0558
  111TMC2     O 1696   4.031   0.066  11.105  0.2423 -0.5625  0.1663
  111TMC2     H 1697   4.201   4.619  11.068  0.0966  0.5979 -0.3037
  111TMC2    H1 1698   4.116   4.719  11.479 -1.2133 -0.5253 -0.7744
  111TMC2    H2 1699   4.429   4.457  11.378 -0.9807 -1.9306 -1.1453
  111TMC2    C7 1700   4.307   4.590  11.575  0.2722 -0.1186  0.0297
  111TMC2    C8 1701   4.411   4.478  11.118 -0.8113  0.7299  0.6241
  111TMC2    O1 1702   4.217   4.615  11.656 -0.0508 -0.1663 -0.1910
  111TMC2    O2 1703   4.388   4.455  11.002  0.3780  0.2010  0.2061
  111TMC2    O5 1704   4.536   4.482  11.166  0.1657  0.3421 -0.7213
  111TMC2    H5 1705   4.537   4.523  11.255 -2.4019 -1.4365  0.1221
  112MPD2     C 1706   3.517   0.086  11.242 -0.7964  0.7376 -0.0206
  112MPD2    C1 1707   3.604   0.111  11.140  0.5482 -0.3281 -0.1741
  112MPD2    C2 1708   3.740   0.093  11.166  0.2099 -0.3255 -0.5626
  112MPD2    C3 1709   3.783   0.040  11.286  0.8208  0.4104  0.0207
  112MPD2    C4 1710   3.690   0.004  11.385 -0.1819  0.5934 -0.1122
  112MPD2    C5 1711   3.557   0.022  11.359 -0.8096  0.5820  0.8232
  112MPD2     H 1712   3.814   0.127  11.094  0.2724 -0.6343 -0.6449
  112MPD2    H1 1713   3.715   4.680  11.481 -1.7703 -1.5980 -0.7037
  112MPD2    H2 1714   3.414   0.120  11.231 -1.4088 -0.9267  0.4953
  112MPD2    H3 1715   3.487   0.003  11.440  1.7035 -0.0658  2.8533
  112MPD2     N 1716   3.922   0.005  11.307  0.8214  0.0288 -0.6387
  112MPD2    H5 1717   3.944   4.662  11.383 -2.9968 -0.8524 -0.2996
  112MPD2    N1 1718   3.550   0.153  11.021  0.1398  0.5697  0.1617
  112MPD2    H7 1719   3.456   0.190  11.016  0.1919  0.7122  0.2102
  113MPD2     C 1720   1.377   3.601   1.387 -0.5791  1.1494 -0.1676
  113MPD2    C1 1721   1.326   3.718   1.329  0.2026  0.2576  0.0798
  113MPD2    C2 1722   1.289   3.720   1.197  0.2229  0.1806 -0.3336
  113MPD2    C3 1723   1.288   3.605   1.122  0.4563 -0.4337  0.3928
  113MPD2    C4 1724   1.346   3.490   1.175 -0.7206  0.3309  0.0565
  113MPD2    C5 1725   1.384   3.491   1.308 -0.8539 -0.0590 -0.1840
  113MPD2     H 1726   1.273   3.811   1.141  0.1937  0.7120  0.5430
  113MPD2    H1 1727   1.356   3.399   1.118  1.2914  0.5471  0.0714
  113MPD2    H2 1728   1.407   3.587   1.491  0.2189  0.0223 -0.5551
  113MPD2    H3 1729   1.419   3.401   1.358  0.1414  0.7615  0.5759
  113MPD2     N 1730   1.234   3.604   0.990 -1.0336  0.2463  0.0740
  113MPD2    H5 1731   1.238   3.518   0.938  0.6883  0.2441  0.1939
  113MPD2    N1 1732   1.322   3.840   1.409  0.2071 -0.2335 -0.3344
  113MPD2    H7 1733   1.289   3.921   1.357  0.5792  0.9558  1.2807
  114TCq2    C1 1734   1.164   3.708   0.930  0.3187  0.5083  0.9375
  114TCq2    O2 1735   1.119   3.810   0.980 -0.5162  0.0497 -0.0568
  114TCq2    C2 1736   1.141   3.685   0.788 -0.1660 -0.3184 -0.0818
  114TCq2    C3 1737   1.071   3.776   0.715  0.1660 -0.3287 -0.3602
  114TCq2    C4 1738   1.041   3.744   0.585  0.1218 -0.6503  0.1851
  114TCq2    C5 1739   1.064   3.622   0.524  0.4201 -0.2228 -0.3459
  114TCq2    C6 1740   1.130   3.536   0.606  0.4888  0.7359  0.1364
  114TCq2    C7 1741   1.172   3.563   0.732  0.4838 -0.2094  0.0172
  114TCq2    C8 1742   1.142   3.406   0.540 -0.0465  0.5333  0.4220
  114TCq2    O4 1743   1.139   3.404   0.415 -0.1833  0.1252 -0.1862
  114TCq2    C9 1744   0.970   3.843   0.505  0.1045  0.0552 -0.1697
  114TCq2    O5 1745   0.948   3.813   0.383  0.2967  0.2588 -0.4242
  114TCq2    O6 1746   0.955   3.963   0.540  0.0115 -0.6981 -0.5689
  114TCq2    H2 1747   1.053   3.877   0.750 -0.2801 -0.0891 -1.2646
  114TCq2    H3 1748   1.046   3.609   0.418  3.4402 -0.1906 -0.8596
  114TCq2    H4 1749   1.249   3.498   0.772  4.9661  3.4475 -2.7156
  115TMC2    C1 1750   2.641   1.833   0.222  0.8100 -0.4860 -0.4208
  115TMC2    C2 1751   2.776   1.860   0.234 -0.1871 -0.0546  0.3334
  115TMC2    C3 1752   2.818   1.977   0.167 -0.3570  0.6332  0.2130
  115TMC2    C4 1753   2.552   1.909   0.156  0.0285 -0.1889 -0.2594
  115TMC2    C5 1754   2.599   2.021   0.092 -0.5753 -0.0282  0.0790
  115TMC2    C6 1755   2.728   2.068   0.109  0.0930  0.8004  0.3885
  115TMC2     C 1756   2.585   1.701   0.246  0.8970  0.3290  0.4589
  115TMC2     O 1757   2.499   1.668   0.162  0.3082 -0.1687 -0.0564
  115TMC2     H 1758   2.844   1.798   0.292  0.3489 -0.0659 -0.2960
  115TMC2    H1 1759   2.450   1.876   0.140  0.0335  0.4505 -1.5519
  115TMC2    H2 1760   2.761   2.168   0.086 -1.2192  1.0671 -0.3298
  115TMC2    C7 1761   2.498   2.117   0.055 -0.7776 -0.8880 -0.1810
  115TMC2    C8 1762   2.951   2.028   0.192  0.1790  0.0523  0.3748
  115TMC2    O1 1763   2.381   2.085   0.051  0.9775  0.4981  0.0078
  115TMC2    O2 1764   2.980   2.148   0.178 -0.2073  0.2063 -0.0473
  115TMC2    O5 1765   3.031   1.920   0.184  0.2202  0.3101 -0.4455
  115TMC2    H5 1766   2.978   1.839   0.169 -0.9642  0.7225  1.5027
  116MPD2     C 1767   2.517   1.271   0.526  0.1510  0.0613 -0.2270
  116MPD2    C1 1768   2.458   1.316   0.409 -1.0219  0.2506  0.0004
  116MPD2    C2 1769   2.497   1.440   0.354  0.1858  0.1656 -0.5712
  116MPD2    C3 1770   2.592   1.519   0.416  0.3364 -0.5521 -0.3384
  116MPD2    C4 1771   2.651   1.474   0.533 -0.2348 -0.4599  0.4433
  116MPD2    C5 1772   2.618   1.350   0.583  0.4436 -0.6872 -0.4736
  116MPD2     H 1773   2.461   1.464   0.254  1.5794  1.9157 -0.6583
  116MPD2    H1 1774   2.718   1.538   0.589  1.4372 -1.4434 -0.4541
  116MPD2    H2 1775   2.504   1.170   0.563  0.2716  0.8063  1.8676
  116MPD2    H3 1776   2.668   1.309   0.670 -1.7846  2.1733  2.1485
  116MPD2     N 1777   2.631   1.645   0.361  0.2248 -0.3137 -0.2577
  116MPD2    H5 1778   2.691   1.705   0.418 -0.5638 -0.3837  0.6381
  116MPD2    N1 1779   2.376   1.223   0.348  0.1427  0.2787  0.1423
  116MPD2    H7 1780   2.382   1.131   0.391 -1.3370 -0.0864 -0.4338
  117TMC2    C1 1781   1.530   2.423  13.230 -0.4120 -0.6340 -0.1546
  117TMC2    C2 1782   1.632   2.370  13.152 -0.5430  0.4516  0.7688
  117TMC2    C3 1783   1.714   2.450  13.075 -0.6771  0.3375  0.2855
  117TMC2    C4 1784   1.520   2.561  13.224 -0.1649  0.1702  0.3043
  117TMC2    C5 1785   1.600   2.638  13.143 -0.4388  0.5324  0.6440
  117TMC2    C6 1786   1.712   2.589  13.074  0.1922  0.2043  0.1064
  117TMC2     C 1787   1.430   2.342  13.295  0.2627 -0.1392  0.5626
  117TMC2     O 1788   1.425   2.223  13.269 -0.4889 -0.1034  0.1098
  117TMC2     H 1789   1.633   2.262  13.143 -2.7080  0.4795  0.1647
  117TMC2    H1 1790   1.461   2.624  13.290 -0.0043 -1.2654  1.7941
  117TMC2    H2 1791   1.769   2.645  13.000 -0.2404  0.4788 -0.0211
  117TMC2    C7 1792   1.607   2.782  13.175  0.3950  0.0409  0.0653
  117TMC2    C8 1793   1.790   2.380  12.975 -1.2998 -0.0880  0.1372
  117TMC2    O1 1794   1.583   2.810  13.291 -0.3167  0.3120  0.7938
  117TMC2    O2 1795   1.764   2.269  12.938 -0.2468 -0.1609  0.1389
  117TMC2    O5 1796   1.920   2.418  13.007  0.4724 -0.3581  0.5435
  117TMC2    H5 1797   1.935   2.493  13.069  0.6379  0.7042 -0.7871
  118MPD2     C 1798   1.695   3.086  12.982  0.6453 -0.3155  0.2407
  118MPD2    C1 1799   1.674   3.008  13.094  0.0553 -0.4935 -1.0963
  118MPD2    C2 1800   1.685   3.066  13.219  0.1340  0.3183 -0.6947
  118MPD2    C3 1801   1.699   3.203  13.236  0.0549  0.1565  0.0966
  118MPD2    C4 1802   1.700   3.284  13.118 -1.2360  0.0919 -0.3522
  118MPD2    C5 1803   1.706   3.220  12.995  0.2116  0.0264  0.8129
  118MPD2     H 1804   1.673   3.001  13.305 -1.0193  1.9717  0.3980
  118MPD2    H1 1805   1.714   3.392  13.114  0.3244 -0.0074  2.0379
  118MPD2    H2 1806   1.710   3.045  12.883 -0.3961 -1.2032  0.4476
  118MPD2    H3 1807   1.733   3.286  12.913  1.8962 -0.5811  0.8811
  118MPD2     N 1808   1.716   3.248  13.373  0.6614  0.4175 -0.2371
  118MPD2    H5 1809   1.734   3.185  13.451 -2.1196  1.3876  1.1911
  118MPD2    N1 1810   1.654   2.869  13.078  0.4993 -0.1656  0.0744
  118MPD2    H7 1811   1.665   2.838  12.982  0.7232 -1.0542  0.3860
  119MPD2     C 1812   4.515   3.671  13.667 -0.4975  0.1145 -0.0085
  119MPD2    C1 1813   4.401   3.705  13.740  0.0535  0.2280 -0.0074
  119MPD2    C2 1814   4.288   3.749  13.666  0.3898 -0.1608 -0.0398
  119MPD2    C3 1815   4.282   3.737  13.529  0.2438 -0.2567  0.1591
  119MPD2    C4 1816   4.390   3.684  13.460  0.6640 -0.4437  0.0102
  119MPD2    C5 1817   4.504   3.658  13.530  0.9101 -0.1793  0.0314
  119MPD2     H 1818   4.194   3.783  13.709  0.6910  0.8274 -0.1525
  119MPD2    H1 1819   4.393   3.654  13.356  0.8806  0.0589 -0.1260
  119MPD2    H2 1820   4.603   3.636  13.719  1.4478  1.9829 -2.0708
  119MPD2    H3 1821   4.580   3.619  13.463  1.5381  1.4061 -0.1639
  119MPD2     N 1822   4.174   3.765  13.445 -0.3460  0.3640  0.3820
  119MPD2    H5 1823   4.190   3.754  13.345 -1.8173  1.3085  0.0416
  119MPD2    N1 1824   4.403   3.701  13.879  0.2438  0.5504 -0.5143
  119MPD2    H7 1825   4.497   3.704  13.918 -0.6283  1.2349  1.5506
  120TCq2    C1 1826   4.041   3.793  13.497 -0.3128  0.1603  0.3270
  120TCq2    O2 1827   4.000   3.792  13.612  0.3392 -0.0506  0.0093
  120TCq2    C2 1828   3.941   3.782  13.394  0.0261  0.0425 -0.5272
  120TCq2    C3 1829   3.962   3.796  13.262 -0.4060 -0.1604 -0.0384
  120TCq2    C4 1830   3.863   3.761  13.174 -0.1180  0.2292 -0.8714
  120TCq2    C5 1831   3.742   3.723  13.210  0.2737  0.1327 -0.0372
  120TCq2    C6 1832   3.718   3.717  13.349 -0.1902  0.3388 -0.1615
  120TCq2    C7 1833   3.818   3.749  13.440  0.4962  0.3369 -0.0800
  120TCq2    C8 1834   3.616   3.617  13.391 -0.1231 -1.1764  0.3097
  120TCq2    O4 1835   3.596   3.524  13.311  0.2971 -0.3641 -0.2204
  120TCq2    C9 1836   3.889   3.748  13.029  0.7020  0.5537 -0.7181
  120TCq2    O5 1837   4.009   3.757  12.997 -0.4213 -0.1850 -0.2788
  120TCq2    O6 1838   3.794   3.728  12.951 -0.0556 -0.1691 -0.0569
  120TCq2    H2 1839   4.055   3.835  13.222  0.2332  0.7840  2.3795
  120TCq2    H3 1840   3.660   3.704  13.142 -2.1050 -0.8495  3.1060
  120TCq2    H4 1841   3.808   3.721  13.544  0.6871  0.7150  0.0423
  121TMC2    C1 1842   1.264   0.905  14.528  0.0764 -0.1346 -0.0725
  121TMC2    C2 1843   1.332   0.816  14.604  0.1195 -0.0383 -0.4606
  121TMC2    C3 1844   1.263   0.708  14.661 -0.4699  0.0428  1.0014
  121TMC2    C4 1845   1.129   0.884  14.504 -0.4750 -0.4578 -0.5344
  121TMC2    C5 1846   1.066   0.780  14.564 -0.0588 -0.7044 -0.2218
  121TMC2    C6 1847   1.129   0.694  14.649 -0.2131  0.1881 -0.1874
  121TMC2     C 1848   1.329   1.033  14.497  0.6585  0.4852 -0.1772
  121TMC2     O 1849   1.392   1.080  14.589  0.0856  0.4359  0.0045
  121TMC2     H 1850   1.439   0.834  14.606 -0.4888  3.8514 -1.4408
  121TMC2    H1 1851   1.074   0.964  14.457  2.6718  1.1995 -1.4105
  121TMC2    H2 1852   1.080   0.609  14.696  1.8096 -0.8980 -0.0518
  121TMC2    C7 1853   0.923   0.790  14.589  0.2722 -0.1728 -1.1175
  121TMC2    C8 1854   1.325   0.577  14.639 -0.2552 -0.7156 -0.2202
  121TMC2    O1 1855   0.879   0.775  14.701 -0.1154 -0.6475  0.4196
  121TMC2    O2 1856   1.271   0.496  14.569  0.3017 -0.2819  0.3831
  121TMC2    O5 1857   1.413   0.547  14.739  0.1751  0.6634  0.2627
  121TMC2    H5 1858   1.423   0.632  14.785 -1.4687  2.6656 -3.0497
  122MPD2     C 1859   1.526   1.203  14.357  0.0473  0.4612 -0.3407
  122MPD2    C1 1860   1.416   1.147  14.296  0.2670 -0.2706  0.0522
  122MPD2    C2 1861   1.404   1.164  14.162  0.1668  0.1898  0.9815
  122MPD2    C3 1862   1.487   1.244  14.087 -0.1099 -0.5650  0.4401
  122MPD2    C4 1863   1.596   1.300  14.150 -0.4784 -0.0827 -0.7646
  122MPD2    C5 1864   1.616   1.271  14.281 -0.0402  0.0360 -0.3962
  122MPD2     H 1865   1.315   1.125  14.114  0.4399  0.9433 -0.1547
  122MPD2    H1 1866   1.643   1.380  14.094  0.7881  0.2983  0.8383
  122MPD2    H2 1867   1.558   1.195  14.460 -2.5747  1.3204  0.5194
  122MPD2    H3 1868   1.696   1.329  14.326 -0.0981 -1.2216  1.3082
  122MPD2     N 1869   1.474   1.271  13.951  0.4826 -0.3841 -0.0854
  122MPD2    H5 1870   1.540   1.337  13.910 -0.6529  2.0422  1.9997
  122MPD2    N1 1871   1.320   1.067  14.362 -0.4016  0.3803 -0.2027
  122MPD2    H7 1872   1.242   1.024  14.312  0.1452  0.9326 -1.5323
  123MPD2     C 1873   3.263   3.913   9.241  0.0660 -0.0817 -0.3268
  123MPD2    C1 1874   3.311   4.015   9.159  0.3779 -0.5696 -0.3343
  123MPD2    C2 1875   3.446   4.036   9.147  0.8066 -0.0087  1.0056
  123MPD2    C3 1876   3.532   3.943   9.205 -0.0674  0.2058 -0.4076
  123MPD2    C4 1877   3.480   3.833   9.276  0.6560  0.3056  0.0586
  123MPD2    C5 1878   3.344   3.816   9.294 -0.2238 -0.0202  0.0600
  123MPD2     H 1879   3.491   4.126   9.108 -1.5651  0.4267 -0.7280
  123MPD2    H1 1880   3.542   3.750   9.308 -1.7077 -0.6405  2.1847
  123MPD2    H2 1881   3.156   3.897   9.252 -0.1118  1.5001  0.2034
  123MPD2    H3 1882   3.295   3.735   9.347 -1.2914 -0.5974 -1.8099
  123MPD2     N 1883   3.672   3.972   9.189  0.2120 -0.0037  0.1229
  123MPD2    H5 1884   3.707   4.052   9.138  2.7813 -1.1704  0.0566
  123MPD2    N1 1885   3.208   4.098   9.103  0.3734 -0.6141  0.6635
  123MPD2    H7 1886   3.112   4.088   9.135 -0.1844  2.7310  0.0048
  124TCq2    C1 1887   3.764   3.879   9.210  0.5913  0.8187  0.2840
  124TCq2    O2 1888   3.749   3.764   9.249  0.0643 -0.0993 -0.2760
  124TCq2    C2 1889   3.898   3.925   9.180  0.1005 -0.9270  0.5441
  124TCq2    C3 1890   3.920   4.060   9.165  0.5844 -0.1371  0.4104
  124TCq2    C4 1891   4.046   4.094   9.123 -0.5690 -0.4929  0.4958
  124TCq2    C5 1892   4.141   4.000   9.094  0.4496  0.0399 -1.1410
  124TCq2    C6 1893   4.115   3.868   9.124  0.3092 -0.4204  0.9208
  124TCq2    C7 1894   3.988   3.823   9.165  0.0878  0.1971 -0.4495
  124TCq2    C8 1895   4.201   3.773   9.057 -0.7356 -0.3488 -0.1952
  124TCq2    O4 1896   4.280   3.813   8.973  0.6210 -0.4880 -0.4856
  124TCq2    C9 1897   4.071   4.236   9.110  0.4734 -0.3920  0.1265
  124TCq2    O5 1898   3.969   4.307   9.132 -0.2476 -0.5784 -0.3905
  124TCq2    O6 1899   4.179   4.275   9.060 -0.2831  0.0754 -0.0268
  124TCq2    H2 1900   3.848   4.137   9.189 -1.0847 -1.5628 -0.0176
  124TCq2    H3 1901   4.244   4.023   9.069 -0.3710  2.7760 -1.9408
  124TCq2    H4 1902   3.949   3.722   9.173 -1.2205  0.5052 -2.8490
  125TMC2    C1 1903   4.481   1.488   9.785 -0.0052 -0.4688  0.3976
  125TMC2    C2 1904   4.404   1.560   9.868  0.1552 -0.4506  0.6352
  125TMC2    C3 1905   4.480   1.632   9.962 -0.5860  0.2729 -0.1144
  125TMC2    C4 1906   4.617   1.474   9.789  0.0377 -0.3990  0.0188
  125TMC2    C5 1907   4.686   1.535   9.892  0.6226 -0.7994 -0.3809
  125TMC2    C6 1908   4.619   1.623   9.976  0.0775  0.3919 -0.7936
  125TMC2     C 1909   4.412   1.404   9.683 -0.1499 -0.0699 -0.3353
  125TMC2     O 1910   4.481   1.373   9.584  0.2380  0.1326  0.2479
  125TMC2     H 1911   4.297   1.582   9.867  0.1741 -0.4428 -1.2842
  125TMC2    H1 1912   4.661   1.403   9.721 -0.4732  0.6985 -1.4600
  125TMC2    H2 1913   4.672   1.671  10.056  1.5179 -0.6353 -1.1309
  125TMC2    C7 1914   0.108   1.533   9.873  0.4970 -0.3638  0.9251
  125TMC2    C8 1915   4.399   1.716  10.049  0.3072  0.7930  0.3376
  125TMC2    O1 1916   0.160   1.628   9.926 -0.0728  0.4492  0.0361
  125TMC2    O2 1917   4.278   1.700  10.053 -0.3174  0.2876  0.4348
  125TMC2    O5 1918   4.474   1.797  10.121  0.3407  0.1555  0.1836
  125TMC2    H5 1919   4.553   1.828  10.071 -0.2852  0.1179 -0.8150
  126MPD1     C 1920   4.017   1.084   9.578 -0.2748  0.0342  0.5547
  126MPD1    C1 1921   3.968   1.182   9.658 -0.7436 -0.2589  0.4428
  126MPD1    C2 1922   4.055   1.272   9.703  0.0462 -0.2785 -0.0209
  126MPD1    C3 1923   4.183   1.285   9.652 -0.1275  0.3831 -0.0213
  126MPD1    C4 1924   4.230   1.197   9.558  0.0043  0.1170 -0.2902
  126MPD1    C5 1925   4.142   1.097   9.524  0.0844 -0.0921 -1.1253
  126MPD1     H 1926   4.022   1.341   9.780 -1.5291  1.4393 -2.2449
  126MPD1    H1 1927   4.335   1.190   9.533 -0.1027 -0.0171 -0.6945
  126MPD1    H2 1928   3.960   0.996   9.550  0.3845 -0.4878  0.8536
  126MPD1    H3 1929   4.166   1.022   9.448  0.9398 -0.1692 -0.7808
  126MPD1     N 1930   4.278   1.380   9.714 -0.1363 -0.1086  0.0853
  126MPD1    H5 1931   4.237   1.446   9.779 -1.7751  0.2643 -1.3216
  126MPD1    N1 1932   3.841   1.172   9.708 -0.2133  0.2811 -0.2857
  126MPD1    H6 1933   3.781   1.101   9.667 -0.3788 -0.3232  0.9949
  126MPD1    H7 1934   3.792   1.259   9.730 -0.6718 -0.2180  0.6392
  127MPD2     C 1935   1.240   4.333   9.456  0.0121 -0.3290 -0.3588
  127MPD2    C1 1936   1.333   4.343   9.556  0.0297  0.2970 -0.3801
  127MPD2    C2 1937   1.402   4.459   9.576  0.5776  0.0069  0.1387
  127MPD2    C3 1938   1.384   4.568   9.494  0.4281  0.0600  0.0975
  127MPD2    C4 1939   1.291   4.551   9.395 -0.2617  0.5475  0.1330
  127MPD2    C5 1940   1.210   4.440   9.383 -0.6201 -0.0575 -0.3185
  127MPD2     H 1941   1.468   4.466   9.661 -0.2603 -0.0432  0.7866
  127MPD2    H1 1942   1.268   4.640   9.338 -1.5333  1.0317  1.3889
  127MPD2    H2 1943   1.184   4.240   9.451  0.1510 -0.5108  1.3715
  127MPD2    H3 1944   1.124   4.441   9.317 -1.0162 -0.8218  0.1817
  127MPD2     N 1945   1.447   4.692   9.525 -0.5837  0.0043 -0.1701
  127MPD2    H5 1946   1.500   4.687   9.611 -2.4335  0.1643  0.9845
  127MPD2    N1 1947   1.331   4.233   9.639 -0.4371  0.7324  0.4307
  127MPD2    H7 1948   1.262   4.161   9.619 -1.2725  1.5465  0.3534
  128TCq2    C1 1949   1.406   4.208   9.749 -0.8728 -0.2637  0.1501
  128TCq2    O2 1950   1.471   4.285   9.817  0.4157 -0.0214  0.5431
  128TCq2    C2 1951   1.352   4.088   9.819  0.3759  0.3852  0.5556
  128TCq2    C3 1952   1.369   4.080   9.953 -0.0998  0.0212  0.3913
  128TCq2    C4 1953   1.321   3.974  10.026  0.7941 -0.5259 -0.1664
  128TCq2    C5 1954   1.260   3.868   9.970  0.6422  0.1816 -0.1363
  128TCq2    C6 1955   1.224   3.883   9.834 -0.6958 -0.0554 -0.5634
  128TCq2    C7 1956   1.279   3.991   9.756  0.0364  0.7566 -0.2116
  128TCq2    C8 1957   1.157   3.772   9.763  0.1722 -0.7098  0.1870
  128TCq2    O4 1958   1.141   3.791   9.640 -0.1287  0.4250 -0.1724
  128TCq2    C9 1959   1.331   3.977  10.166 -0.5072 -0.2651 -0.0294
  128TCq2    O5 1960   1.326   3.860  10.215 -0.2665 -0.1249  0.0086
  128TCq2    O6 1961   1.369   4.081  10.222  0.0609 -0.2964 -0.0855
  128TCq2    H2 1962   1.412   4.165  10.004  0.2027  0.0841  0.0271
  128TCq2    H3 1963   1.228   3.780  10.024 -0.7619  1.9494  1.9496
  128TCq2    H4 1964   1.267   3.995   9.648 -0.5693 -1.2583 -0.2070
  129MPD2     C 1965   3.288   0.834   1.448 -0.1867 -0.5161 -0.0129
  129MPD2    C1 1966   3.413   0.842   1.502 -0.3434 -0.0193 -0.6333
  129MPD2    C2 1967   3.510   0.920   1.447 -0.2441 -0.1492 -0.4720
  129MPD2    C3 1968   3.483   1.001   1.339 -0.1138  0.8782  0.1501
  129MPD2    C4 1969   3.356   0.995   1.288 -0.4374 -0.0446  1.0136
  129MPD2    C5 1970   3.266   0.908   1.333 -0.0057 -0.6901  0.5207
  129MPD2     H 1971   3.602   0.933   1.504  0.2818 -2.7404 -0.7277
  129MPD2    H1 1972   3.324   1.072   1.218  2.5017 -0.0568 -0.3304
  129MPD2    H2 1973   3.209   0.781   1.500 -0.1711  0.2560  0.7961
  129MPD2    H3 1974   3.175   0.893   1.276  0.4969 -0.5372 -0.3403
  129MPD2     N 1975   3.578   1.089   1.281 -0.3343  0.2542  0.0643
  129MPD2    H5 1976   3.655   1.113   1.342 -0.1060  0.8180 -0.4427
  129MPD2    N1 1977   3.443   0.780   1.621  0.0046 -0.2269 -0.3220
  129MPD2    H7 1978   3.540   0.791   1.646  0.1989 -2.7075  0.0422
  130TCq2    C1 1979   3.370   0.690   1.696 -0.4857  0.1716 -0.7565
  130TCq2    O2 1980   3.255   0.641   1.680  0.1986  0.5977  0.8699
  130TCq2    C2 1981   3.438   0.666   1.824  0.5128  0.3014 -0.1185
  130TCq2    C3 1982   3.550   0.735   1.854  0.9144 -0.0782 -0.2972
  130TCq2    C4 1983   3.589   0.739   1.978  0.3657 -0.4098 -0.1621
  130TCq2    C5 1984   3.533   0.670   2.078 -0.5303 -0.8303 -0.3182
  130TCq2    C6 1985   3.421   0.601   2.045 -0.2900 -0.6244 -0.1632
  130TCq2    C7 1986   3.376   0.593   1.915 -0.3400 -0.3258  0.3649
  130TCq2    C8 1987   3.340   0.532   2.149 -0.3010  0.1200 -0.3940
  130TCq2    O4 1988   3.229   0.484   2.123  0.3151 -1.1432 -0.1054
  130TCq2    C9 1989   3.712   0.807   2.003  0.2761 -0.4307 -0.8290
  130TCq2    O5 1990   3.747   0.902   1.935  0.4241  0.3999 -0.1437
  130TCq2    O6 1991   3.777   0.765   2.103 -0.0962  0.0471  0.0963
  130TCq2    H2 1992   3.612   0.784   1.779  1.9534 -0.3220  0.4074
  130TCq2    H3 1993   3.559   0.694   2.181 -2.2228 -1.1844  0.1895
  130TCq2    H4 1994   3.288   0.535   1.889 -1.4156  1.1593  0.6852
  131MPD2     C 1995   3.431   0.257   8.673 -0.3818 -0.2048 -0.2065
  131MPD2    C1 1996   3.465   0.202   8.797  0.4536 -0.8724  0.6738
  131MPD2    C2 1997   3.378   0.102   8.852  0.3609 -0.0716 -0.0216
  131MPD2    C3 1998   3.267   0.051   8.788  0.3020  0.4953  0.4533
  131MPD2    C4 1999   3.230   0.116   8.672 -0.7692  0.7694 -0.4136
  131MPD2    C5 2000   3.314   0.205   8.614  0.0030  0.2384  0.3162
  131MPD2     H 2001   3.401   0.045   8.942 -0.9631  1.2434  1.1408
  131MPD2    H1 2002   3.157   0.065   8.610  0.9084  1.3579 -2.8820
  131MPD2    H2 2003   3.496   0.330   8.626  0.8497 -0.3270  1.2985
  131MPD2    H3 2004   3.298   0.246   8.515  0.1863 -1.0418 -0.2427
  131MPD2     N 2005   3.190   4.665   8.848  0.4843  0.1241  0.1580
  131MPD2    H5 2006   3.231   4.626   8.931 -0.9336  0.9041  1.2259
  131MPD2    N1 2007   3.571   0.258   8.856  0.0302  0.2464  0.2776
  131MPD2    H7 2008   3.621   0.332   8.808  1.6883 -0.1900  1.3279
  132TCq2    C1 2009   3.863   0.505   9.310  0.2248  0.0744 -0.9752
  132TCq2    O2 2010   3.808   0.444   9.402 -0.0923  0.0946 -0.1979
  132TCq2    C2 2011   3.836   0.470   9.174 -0.2464  1.0755  0.0304
  132TCq2    C3 2012   3.918   0.521   9.078  0.6362 -0.1270  0.0285
  132TCq2    C4 2013   3.884   0.485   8.953 -0.1709  0.1379 -0.4431
  132TCq2    C5 2014   3.783   0.393   8.925  0.4444  0.0454  0.3490
  132TCq2    C6 2015   3.714   0.335   9.026  0.4822  0.0336 -0.4889
  132TCq2    C7 2016   3.746   0.369   9.155 -0.3489 -0.6740 -0.7914
  132TCq2    C8 2017   3.609   0.239   8.992  0.5635  0.1973 -0.1837
  132TCq2    O4 2018   3.543   0.190   9.083  0.3464  0.2922  0.2542
  132TCq2    C9 2019   3.963   0.532   8.844 -0.6910  0.1807 -0.3651
  132TCq2    O5 2020   3.952   0.471   8.737 -0.1413  0.2802  0.4734
  132TCq2    O6 2021   4.049   0.620   8.861 -0.4041  0.2135  0.0698
  132TCq2    H2 2022   3.990   0.601   9.090 -0.7615  1.4909 -2.4748
  132TCq2    H3 2023   3.781   0.352   8.825 -1.4096  1.3441 -0.1533
  132TCq2    H4 2024   3.711   0.304   9.234  1.6861 -3.3583 -2.1069
  133MPD2     C 2025   2.131   0.449   9.028 -0.1236 -0.6571  0.3380
  133MPD2    C1 2026   2.259   0.407   9.001 -0.2796  0.2003  0.1289
  133MPD2    C2 2027   2.294   0.274   9.042 -0.0429  0.2452  0.1259
  133MPD2    C3 2028   2.208   0.197   9.120  0.1737 -0.0980 -0.3431
  133MPD2    C4 2029   2.088   0.250   9.159 -0.2094 -0.1536  0.3817
  133MPD2    C5 2030   2.052   0.369   9.104  0.5105 -0.0860  0.0504
  133MPD2     H 2031   2.393   0.239   9.013 -0.7227 -0.8002 -0.9587
  133MPD2    H1 2032   2.026   0.193   9.226  0.2961 -3.8362 -2.3039
  133MPD2    H2 2033   2.101   0.545   8.990  0.0383  0.0776  2.0726
  133MPD2    H3 2034   1.951   0.397   9.133  0.7191  1.8221 -1.0908
  133MPD2     N 2035   2.232   0.063   9.171  0.5444 -0.0910 -0.0639
  133MPD2    H5 2036   2.163   0.017   9.228 -1.4132  1.8134 -0.8850
  133MPD2    N1 2037   2.354   0.501   8.945 -0.1921 -0.3030 -0.0811
  133MPD2    H7 2038   2.325   0.598   8.948 -1.2392 -0.6682  1.5075
  134TCq2    C1 2039   2.483   0.482   8.916  0.1403  0.2508 -0.5072
  134TCq2    O2 2040   2.543   0.375   8.901  0.5608 -0.0012 -0.4142
  134TCq2    C2 2041   2.553   0.602   8.878 -0.3010 -0.5226  0.3486
  134TCq2    C3 2042   2.475   0.711   8.844  0.5403  0.6044 -0.8147
  134TCq2    C4 2043   2.536   0.833   8.838 -0.5878 -0.8968 -0.1882
  134TCq2    C5 2044   2.668   0.838   8.868 -0.9106 -0.5400 -0.6197
  134TCq2    C6 2045   2.735   0.731   8.920  0.4627 -0.7268 -0.0959
  134TCq2    C7 2046   2.674   0.610   8.933  0.1782 -0.7097 -0.4814
  134TCq2    C8 2047   2.878   0.743   8.949 -0.0148  0.7760 -0.1904
  134TCq2    O4 2048   2.946   0.642   8.964  0.1116  0.4943  0.0785
  134TCq2    C9 2049   2.472   0.939   8.770 -0.2267 -0.0267  0.4931
  134TCq2    O5 2050   2.530   1.047   8.753  0.2368 -0.7651 -0.2771
  134TCq2    O6 2051   2.351   0.918   8.740  0.4560 -0.3072 -0.1736
  134TCq2    H2 2052   2.373   0.698   8.808 -0.2725  1.3729  1.2195
  134TCq2    H3 2053   2.716   0.927   8.830 -1.7706 -0.4605 -1.5219
  134TCq2    H4 2054   2.729   0.523   8.968 -0.6957 -1.5660 -1.2492
  135MPD2     C 2055   1.471   1.191   9.175  0.3049 -0.1202  0.6743
  135MPD2    C1 2056   1.492   1.128   9.294  0.0631 -0.2241 -0.4202
  135MPD2    C2 2057   1.610   1.060   9.316 -0.7540  0.6025 -0.5493
  135MPD2    C3 2058   1.703   1.044   9.220  0.4954 -0.0547  0.5222
  135MPD2    C4 2059   1.682   1.100   9.097  0.2350 -0.8571  0.0671
  135MPD2    C5 2060   1.565   1.169   9.074 -0.1081 -0.4697  1.0341
  135MPD2     H 2061   1.618   1.015   9.414 -0.2920  1.8204 -0.0356
  135MPD2    H1 2062   1.756   1.091   9.019  1.6800 -0.0767  1.3387
  135MPD2    H2 2063   1.377   1.235   9.147  1.6126  1.4931 -1.1745
  135MPD2    H3 2064   1.538   1.203   8.974  2.1967  3.3897  1.6982
  135MPD2     N 2065   1.825   0.978   9.243 -0.3178 -0.2340 -0.0522
  135MPD2    H5 2066   1.893   0.977   9.167  1.1093 -0.6959  1.2245
  135MPD2    N1 2067   1.388   1.123   9.398  0.1140 -0.7878 -0.4206
  135MPD2    H7 2068   1.417   1.079   9.484 -1.4847 -1.7409 -0.3697
  136TCq2    C1 2069   1.264   1.180   9.393  0.4793  0.0298  0.6061
  136TCq2    O2 2070   1.205   1.242   9.304 -0.5843 -0.5090  0.1970
  136TCq2    C2 2071   1.185   1.147   9.515  0.6842 -1.5160 -0.0489
  136TCq2    C3 2072   1.063   1.202   9.520 -0.5331 -0.3961  0.5806
  136TCq2    C4 2073   0.965   1.139   9.592 -0.1004  0.0352 -0.4152
  136TCq2    C5 2074   0.998   1.037   9.673  0.4903 -0.4256  0.2015
  136TCq2    C6 2075   1.126   0.987   9.674 -0.0942  0.4398  0.2537
  136TCq2    C7 2076   1.223   1.041   9.594 -0.3910  0.3422 -0.1757
  136TCq2    C8 2077   1.159   0.847   9.703 -0.2855  0.1870  0.5230
  136TCq2    O4 2078   1.279   0.821   9.713 -0.2753 -0.0038 -0.8414
  136TCq2    C9 2079   0.829   1.176   9.567 -0.2707  0.4144  0.2240
  136TCq2    O5 2080   0.749   1.106   9.643  0.5850  0.1262  0.1198
  136TCq2    O6 2081   0.803   1.272   9.489  0.3050  0.5613 -0.6386
  136TCq2    H2 2082   1.030   1.282   9.454 -1.4928 -0.8552  0.5088
  136TCq2    H3 2083   0.923   0.998   9.742  0.4507  0.8368  0.8709
  136TCq2    H4 2084   1.323   1.000   9.588 -0.9188 -0.9201 -0.2965
  137MPD2     C 2085   1.031   0.242   9.155 -0.1229 -0.5572 -0.0283
  137MPD2    C1 2086   0.903   0.287   9.191  0.0636  0.3986  0.2768
  137MPD2    C2 2087   0.823   0.201   9.268  0.2055  0.3046 -0.6324
  137MPD2    C3 2088   0.871   0.074   9.297 -0.3401 -0.5403 -0.6407
  137MPD2    C4 2089   0.994   0.034   9.263 -0.3623 -0.4823 -0.3185
  137MPD2    C5 2090   1.077   0.117   9.197 -0.3302 -0.0290  0.4268
  137MPD2     H 2091   0.733   0.246   9.309  0.0954 -0.1673 -0.3502
  137MPD2    H1 2092   1.041   4.662   9.292 -0.2122 -0.5949 -0.9137
  137MPD2    H2 2093   1.091   0.302   9.088 -0.6887  1.2015  1.0542
  137MPD2    H3 2094   1.170   0.080   9.155 -0.5020  1.0909 -0.9713
  137MPD2     N 2095   0.791   4.695   9.362  0.3900  0.1918 -0.0373
  137MPD2    H5 2096   0.833   4.606   9.386 -0.0997  0.6628  2.5408
  137MPD2    N1 2097   0.856   0.403   9.129  0.0387  0.3289  0.7682
  137MPD2    H7 2098   0.925   0.446   9.069 -1.3422 -0.9834 -1.7904
  138TCq2    C1 2099   0.734   0.461   9.143  0.6026  0.1789  0.2184
  138TCq2    O2 2100   0.648   0.440   9.228  0.5445  0.2985  0.1164
  138TCq2    C2 2101   0.720   0.566   9.040  0.0131 -0.0433 -0.7162
  138TCq2    C3 2102   0.760   0.536   8.914  0.8420 -0.5163 -0.0340
  138TCq2    C4 2103   0.735   0.619   8.810 -0.0485 -0.0099 -0.0722
  138TCq2    C5 2104   0.670   0.734   8.834 -0.2456 -0.7435  0.1461
  138TCq2    C6 2105   0.624   0.758   8.960 -0.9267 -0.7062 -0.6139
  138TCq2    C7 2106   0.636   0.669   9.065 -0.0677  0.1019  0.6629
  138TCq2    C8 2107   0.590   0.898   8.986 -0.0270  0.7468 -0.0296
  138TCq2    O4 2108   0.644   0.983   8.917  0.3014  0.1884 -0.3687
  138TCq2    C9 2109   0.793   0.604   8.679 -0.0612 -0.2481 -0.1860
  138TCq2    O5 2110   0.874   0.510   8.656 -0.2018 -0.2643  0.2287
  138TCq2    O6 2111   0.745   0.681   8.591  0.1779 -0.5107 -0.1402
  138TCq2    H2 2112   0.820   0.447   8.904  0.7099 -0.6600  0.4708
  138TCq2    H3 2113   0.656   0.815   8.763 -1.4302 -1.2241 -0.1714
  138TCq2    H4 2114   0.580   0.691   9.155 -0.9861  3.3439 -0.6904
  139TMC2    C1 2115   0.807   3.157  13.325  0.3743  0.0817  0.1175
  139TMC2    C2 2116   0.911   3.234  13.366 -0.2040  0.3352  0.2510
  139TMC2    C3 2117   0.890   3.349  13.432 -0.9559 -0.0742 -0.2619
  139TMC2    C4 2118   0.679   3.205  13.338  0.3728  0.3339 -0.8161
  139TMC2    C5 2119   0.663   3.334  13.393 -0.2928  0.1976  0.8208
  139TMC2    C6 2120   0.763   3.401  13.452 -0.0867 -0.0175  0.5798
  139TMC2     C 2121   0.832   3.019  13.303 -0.0718 -0.2922 -0.1831
  139TMC2     O 2122   0.929   2.968  13.363 -0.2652  0.2382  0.2537
  139TMC2     H 2123   1.013   3.200  13.353 -0.8509 -0.9136 -1.4329
  139TMC2    H1 2124   0.594   3.147  13.303  1.6545 -0.4046 -2.6766
  139TMC2    H2 2125   0.755   3.490  13.514 -0.2081 -0.6814  1.5231
  139TMC2    C7 2126   0.528   3.362  13.433 -0.6071  0.6986  0.6573
  139TMC2    C8 2127   1.005   3.421  13.482  0.5956 -0.0035 -0.2847
  139TMC2    O1 2128   0.461   3.263  13.460 -0.1783 -0.4203  0.1042
  139TMC2    O2 2129   1.108   3.370  13.516 -0.0471  0.4057  0.0309
  139TMC2    O5 2130   0.993   3.541  13.425 -0.2379  0.0054  0.2878
  139TMC2    H5 2131   0.921   3.540  13.359  0.9366  1.6057 -1.0244
  140MPD2     C 2132   0.627   2.773  13.146  0.1571 -0.6447 -0.1160
  140MPD2    C1 2133   0.750   2.827  13.180  0.1418  0.1737  0.0330
  140MPD2    C2 2134   0.865   2.743  13.173  0.0271 -0.1589 -0.2068
  140MPD2    C3 2135   0.858   2.611  13.132  0.7491  0.2062  0.2038
  140MPD2    C4 2136   0.734   2.563  13.104  0.4512  0.6952 -0.0725
  140MPD2    C5 2137   0.627   2.641  13.117 -0.3463 -0.3349 -0.7186
  140MPD2     H 2138   0.963   2.780  13.201 -0.6973  1.1324  0.6382
  140MPD2    H1 2139   0.724   2.461  13.070  0.6234  0.1430  1.5259
  140MPD2    H2 2140   0.536   2.831  13.143  0.3632 -0.2776  0.7377
  140MPD2    H3 2141   0.531   2.595  13.098 -0.2794 -1.3782  1.4863
  140MPD2     N 2142   0.975   2.532  13.126 -0.1865 -0.6630 -0.2210
  140MPD2    H5 2143   1.064   2.576  13.147 -1.0741  0.8542  0.4013
  140MPD2    N1 2144   0.744   2.963  13.217  0.1503 -0.1544 -0.0851
  140MPD2    H7 2145   0.654   3.010  13.208  0.2411  0.2396  1.1156
  141TCq2    C1 2146   1.750   4.409  14.590 -0.3251  0.4499  0.1353
  141TCq2    O2 2147   1.839   4.372  14.517 -0.5644 -0.0880 -0.0880
  141TCq2    C2 2148   1.797   4.482  14.709  0.1590 -0.2350 -0.5708
  141TCq2    C3 2149   1.703   4.549  14.788 -0.3481 -0.8513  0.1536
  141TCq2    C4 2150   1.746   4.650  14.863  0.3902  0.1553  0.2056
  141TCq2    C5 2151   1.879   4.692  14.853 -0.2559  0.4937  1.1924
  141TCq2    C6 2152   1.965   4.631  14.769 -0.0875 -0.1320 -0.5245
  141TCq2    C7 2153   1.930   4.519  14.704  0.4710 -0.1213 -0.4982
  141TCq2    C8 2154   2.099   4.673  14.765  0.2897  0.3533  0.2940
  141TCq2    O4 2155   2.178   4.597  14.705  0.0927  0.1018  0.0675
  141TCq2    C9 2156   1.664   4.715  14.957 -0.1470 -0.1921  0.3280
  141TCq2    O5 2157   1.543   4.674  14.974 -0.0448 -0.7758  0.7622
  141TCq2    O6 2158   1.704   0.101  15.007 -0.1329 -0.0731 -0.3577
  141TCq2    H2 2159   1.604   4.515  14.814  0.1172 -2.4476 -0.1633
  141TCq2    H3 2160   1.902   0.062  14.908  1.4885 -0.8946  2.7395
  141TCq2    H4 2161   1.996   4.449  14.654  0.0875  0.8618 -2.3483
  142MPD2     C 2162   4.133   2.822  10.254  0.4438 -0.1975  0.6279
  142MPD2    C1 2163   4.055   2.806  10.141 -0.4347  0.6495  0.1159
  142MPD2    C2 2164   4.099   2.849  10.020 -0.4908 -0.0050 -0.1855
  142MPD2    C3 2165   4.221   2.916  10.011  0.2517  0.2706  0.7016
  142MPD2    C4 2166   4.294   2.932  10.130 -0.3419  0.2592  0.1233
  142MPD2    C5 2167   4.248   2.884  10.249  0.1918 -0.2245  0.8227
  142MPD2     H 2168   4.040   2.837   9.930 -0.7983  0.6357 -0.0715
  142MPD2    H1 2169   4.396   2.969  10.126  0.1101 -0.9677  0.2330
  142MPD2    H2 2170   4.093   2.800  10.353 -1.5868 -0.0762 -0.1582
  142MPD2    H3 2171   4.306   2.906  10.338 -0.1834  0.1909  0.9602
  142MPD2     N 2172   4.278   2.970   9.896 -0.3469  0.1391 -0.4403
  142MPD2    H5 2173   4.365   3.022   9.902 -1.5147  1.9461  0.9885
  142MPD2    N1 2174   3.938   2.732  10.154  0.0335 -0.3420 -0.5081
  142MPD2    H7 2175   3.929   2.683  10.243 -1.6159 -1.3658 -1.2375
  143TCq2    C1 2176   4.217   2.987   9.777  0.5780  0.0852 -0.1000
  143TCq2    O2 2177   4.114   2.930   9.740 -0.1054 -0.1141  0.7930
  143TCq2    C2 2178   4.319   3.028   9.683  0.6897  0.2174 -0.4397
  143TCq2    C3 2179   4.450   3.000   9.708 -0.5829  0.4445  0.9617
  143TCq2    C4 2180   4.540   3.047   9.623  0.2460  0.5712  0.1978
  143TCq2    C5 2181   4.505   3.116   9.512  0.3299  0.0122  0.0026
  143TCq2    C6 2182   4.377   3.134   9.491  0.0903  0.0031  0.0596
  143TCq2    C7 2183   4.275   3.092   9.569  0.4470 -0.3536  0.3521
  143TCq2    C8 2184   4.339   3.238   9.403  0.1650 -0.6149 -0.0434
  143TCq2    O4 2185   4.262   3.320   9.449  0.3114  0.4381  0.3091
  143TCq2    C9 2186   4.683   3.022   9.645 -0.2392 -0.1697  0.0112
  143TCq2    O5 2187   0.045   3.048   9.551  0.2177 -0.0364 -0.1698
  143TCq2    O6 2188   4.720   2.977   9.755  0.0862 -0.4777 -0.0262
  143TCq2    H2 2189   4.490   2.953   9.797  0.3432  1.3599  1.0159
  143TCq2    H3 2190   4.574   3.167   9.445 -0.2387  2.2918  1.1318
  143TCq2    H4 2191   4.174   3.119   9.542 -0.0930 -1.4143  1.3145
  144MPD2     C 2192   1.506   3.216   0.699 -0.5397  0.2773  0.0360
  144MPD2    C1 2193   1.576   3.095   0.705  0.2181  0.2393  0.0474
  144MPD2    C2 2194   1.646   3.067   0.823  0.6038  0.3313  0.0176
  144MPD2    C3 2195   1.651   3.156   0.928 -0.3050 -0.4982 -0.4000
  144MPD2    C4 2196   1.579   3.270   0.919 -0.1979  0.1147 -0.1469
  144MPD2    C5 2197   1.504   3.296   0.810  0.2559 -0.2936  0.0627
  144MPD2     H 2198   1.690   2.969   0.836 -1.2542 -0.1412  2.7171
  144MPD2    H1 2199   1.571   3.353   0.988  0.2051  0.3915 -0.4302
  144MPD2    H2 2200   1.445   3.241   0.613  0.5019 -2.2828 -1.4496
  144MPD2    H3 2201   1.439   3.383   0.801 -2.6095 -2.5718 -1.1692
  144MPD2     N 2202   1.716   3.137   1.050 -0.1940 -0.8300 -0.7357
  144MPD2    H5 2203   1.691   3.212   1.114 -0.8207 -1.8187  0.1807
  144MPD2    N1 2204   1.560   2.986   0.618 -0.1779 -0.4675  0.3860
  144MPD2    H7 2205   1.609   2.901   0.644  0.5673 -0.3227 -0.5361
  145TCq2    C1 2206   1.796   3.030   1.075 -0.6518  0.1469 -0.2093
  145TCq2    O2 2207   1.853   2.956   1.000  0.3140 -0.3949  0.4069
  145TCq2    C2 2208   1.849   3.036   1.210 -0.1891  0.3665  0.1861
  145TCq2    C3 2209   1.955   2.955   1.229 -0.7254  0.1538  1.1699
  145TCq2    C4 2210   2.024   2.964   1.344 -0.6031 -0.5989  0.2616
  145TCq2    C5 2211   1.986   3.048   1.441 -0.3528 -0.1826 -0.1065
  145TCq2    C6 2212   1.892   3.134   1.421  0.3877  0.3918 -0.6783
  145TCq2    C7 2213   1.818   3.134   1.306 -1.2707 -0.1439 -0.1591
  145TCq2    C8 2214   1.865   3.224   1.526 -0.3778 -0.6562 -0.0637
  145TCq2    O4 2215   1.967   3.266   1.581 -0.7445  0.2465  0.3000
  145TCq2    C9 2216   2.144   2.886   1.357  0.4843 -0.2256 -0.4512
  145TCq2    O5 2217   2.199   2.835   1.257 -0.1020  0.1647  0.2975
  145TCq2    O6 2218   2.204   2.900   1.468 -0.1211  0.0142  0.4056
  145TCq2    H2 2219   1.993   2.881   1.160 -0.2472 -0.5989  2.2392
  145TCq2    H3 2220   2.049   3.061   1.528 -1.9780 -1.1095  1.2237
  145TCq2    H4 2221   1.747   3.216   1.292  0.9019  1.5907 -1.0213
  146TMC2    C1 2222   3.888   0.633  12.059 -0.1483  0.2898  0.2756
  146TMC2    C2 2223   3.883   0.713  11.951  0.1294 -0.0649  0.2855
  146TMC2    C3 2224   3.997   0.709  11.874  0.0093 -0.1144  0.1787
  146TMC2    C4 2225   3.990   0.548  12.092 -0.3771  0.0627 -0.1129
  146TMC2    C5 2226   4.095   0.549  12.004  0.0087 -0.2044  0.4123
  146TMC2    C6 2227   4.102   0.633  11.899 -0.0553  0.1374 -0.2356
  146TMC2     C 2228   3.777   0.649  12.156 -1.0066  0.0571  1.1839
  146TMC2     O 2229   3.670   0.689  12.115 -0.6065 -0.6290 -0.5481
  146TMC2     H 2230   3.801   0.783  11.936  0.6323  1.1257  3.0926
  146TMC2    H1 2231   3.983   0.473  12.170 -3.4822 -0.7003 -1.1120
  146TMC2    H2 2232   4.188   0.634  11.834  0.0333  0.5595 -0.1146
  146TMC2    C7 2233   4.224   0.510  12.058  0.7146 -0.2412  1.0390
  146TMC2    C8 2234   3.994   0.778  11.747  0.3642 -0.6492  0.5866
  146TMC2    O1 2235   4.299   0.470  11.970 -0.2557 -0.4245  0.3350
  146TMC2    O2 2236   4.081   0.765  11.662 -0.2355  0.4094 -0.1407
  146TMC2    O5 2237   3.889   0.875  11.743  0.6853 -0.5930 -0.2043
  146TMC2    H5 2238   3.852   0.895  11.831  2.8728 -1.5497  0.9227
  147MPD2     C 2239   4.548   0.352  12.415 -0.5836 -0.6726 -0.0040
  147MPD2    C1 2240   4.422   0.362  12.472 -0.3986  0.4742 -0.1783
  147MPD2    C2 2241   4.324   0.413  12.391  0.4801  0.5190 -0.2401
  147MPD2    C3 2242   4.341   0.445  12.260 -0.4443 -0.6431  0.6800
  147MPD2    C4 2243   4.465   0.430  12.205  0.3206  0.4645 -0.0099
  147MPD2    C5 2244   4.563   0.373  12.283 -0.0903  0.1050  0.7726
  147MPD2     H 2245   4.233   0.460  12.427 -0.1296  0.4797 -1.7071
  147MPD2    H1 2246   4.486   0.463  12.104  2.4162  0.3131  0.3709
  147MPD2    H2 2247   4.630   0.320  12.477 -0.7413  3.9327  2.5578
  147MPD2    H3 2248   4.661   0.377  12.237  0.0748 -0.0185  1.1129
  147MPD2     N 2249   4.228   0.496  12.193  0.6330  0.0632  0.1704
  147MPD2    H5 2250   4.144   0.516  12.247  0.4874 -1.1706  0.4013
  147MPD2    N1 2251   4.419   0.347  12.620 -0.9451 -0.5176 -0.1768
  147MPD2    H7 2252   4.503   0.323  12.671 -0.4600  0.3656 -0.5593
  148MPD2     C 2253   4.512   3.308   9.845 -0.7574 -0.2070  0.5774
  148MPD2    C1 2254   4.440   3.407   9.783 -0.5570  0.4073 -0.0348
  148MPD2    C2 2255   4.311   3.435   9.817 -0.3519 -0.3049 -0.5222
  148MPD2    C3 2256   4.249   3.366   9.925  0.8145  0.0130 -0.0708
  148MPD2    C4 2257   4.329   3.272   9.994  0.3955 -0.2015  0.3477
  148MPD2    C5 2258   4.455   3.241   9.947 -0.0623 -0.4390  1.0452
  148MPD2     H 2259   4.247   3.508   9.768  2.5805 -0.1833 -4.1483
  148MPD2    H1 2260   4.294   3.223  10.084  1.4026 -0.4623  0.6055
  148MPD2    H2 2261   4.610   3.273   9.815 -1.3660 -1.8246  0.4551
  148MPD2    H3 2262   4.519   3.183  10.012  1.6113  0.7659  0.4753
  148MPD2     N 2263   4.118   3.388   9.970 -0.9578  0.7114  0.0983
  148MPD2    H5 2264   4.098   3.342  10.058  2.8217 -0.7892  0.1807
  148MPD2    N1 2265   4.490   3.471   9.669  0.4493 -0.0812 -0.1894
  148MPD2    H7 2266   4.429   3.537   9.623 -1.4965 -0.9168  1.1661
  149TCq2    C1 2267   4.610   3.470   9.612 -0.2139 -0.5636 -0.5964
  149TCq2    O2 2268   4.716   3.422   9.654  0.1266 -0.1111  0.0112
  149TCq2    C2 2269   4.616   3.565   9.504 -0.7751  0.2618 -0.8902
  149TCq2    C3 2270   0.003   3.648   9.530  0.2075  0.1145  0.1844
  149TCq2    C4 2271   4.701   3.784   9.510  0.3613 -0.0457  0.0943
  149TCq2    C5 2272   4.578   3.828   9.472 -1.2122 -0.0426 -0.1326
  149TCq2    C6 2273   4.482   3.737   9.435 -0.1287 -0.2065  0.0410
  149TCq2    C7 2274   4.495   3.607   9.455 -0.2018 -0.0049 -0.0429
  149TCq2    C8 2275   4.343   3.780   9.454 -0.2015 -0.1470  0.7435
  149TCq2    O4 2276   4.266   3.698   9.497  0.3453 -0.0857  0.1997
  149TCq2    C9 2277   0.058   3.876   9.589  0.3730 -0.2222  0.5065
  149TCq2    O5 2278   0.172   3.847   9.615  0.0198  0.4970 -0.4065
  149TCq2    O6 2279   0.011   3.988   9.602  0.2749 -0.4854 -0.2819
  149TCq2    H2 2280   0.094   3.610   9.576 -1.6765 -2.7174  1.5431
  149TCq2    H3 2281   4.563   3.935   9.467  2.1670  0.4331 -0.2892
  149TCq2    H4 2282   4.421   3.543   9.408  0.3018  1.5590 -3.0160
  150MPD2     C 2283   0.934   2.973  12.095 -0.0263 -0.2092 -0.2311
  150MPD2    C1 2284   0.859   3.080  12.144  0.2979 -0.2266  0.6899
  150MPD2    C2 2285   0.928   3.177  12.207  0.7177 -0.5041  0.3415
  150MPD2    C3 2286   1.063   3.178  12.215  0.2904 -0.4267  0.0174
  150MPD2    C4 2287   1.134   3.081  12.164 -0.2835  0.1555 -0.2895
  150MPD2    C5 2288   1.072   2.976  12.099  0.3575 -0.6578 -1.3000
  150MPD2     H 2289   0.882   3.260  12.259 -0.5008 -2.4481  2.3510
  150MPD2    H1 2290   1.242   3.070  12.162 -0.2097  0.2733  3.0062
  150MPD2    H2 2291   0.887   2.886  12.051 -0.9567 -1.5073  3.3426
  150MPD2    H3 2292   1.129   2.895  12.055  3.0319 -0.3321  1.5905
  150MPD2     N 2293   1.122   3.292  12.273  0.4459  0.3406 -0.6769
  150MPD2    H5 2294   1.062   3.374  12.270  0.4194  0.3374 -0.2173
  150MPD2    N1 2295   0.717   3.079  12.115 -0.1116 -0.3764 -0.4419
  150MPD2    H7 2296   0.686   3.012  12.046 -0.1982 -0.9284  0.1267
  151TCq2    C1 2297   1.251   3.311  12.307 -0.0742  0.0077 -0.0473
  151TCq2    O2 2298   1.345   3.232  12.315  0.1179  0.2499  0.4205
  151TCq2    C2 2299   1.272   3.452  12.335 -0.2318  1.2371 -0.5027
  151TCq2    C3 2300   1.206   3.541  12.257  0.2377  0.6181  0.1490
  151TCq2    C4 2301   1.231   3.671  12.273 -0.6192  0.2542  0.8453
  151TCq2    C5 2302   1.311   3.720  12.374 -0.5215 -0.4592 -0.2335
  151TCq2    C6 2303   1.376   3.627  12.449 -0.5029  0.1992 -0.2971
  151TCq2    C7 2304   1.361   3.495  12.426  0.7065  0.1565 -1.0406
  151TCq2    C8 2305   1.517   3.668  12.465  0.1391 -0.5912 -0.2515
  151TCq2    O4 2306   1.545   3.779  12.507  0.0517 -0.1904 -0.8999
  151TCq2    C9 2307   1.163   3.768  12.188  0.4388 -0.0786  0.1924
  151TCq2    O5 2308   1.164   3.891  12.223  0.0466  0.4083 -0.0252
  151TCq2    O6 2309   1.101   3.715  12.093 -1.0334  0.3547  0.4543
  151TCq2    H2 2310   1.138   3.514  12.177  0.2397 -1.2095  0.7778
  151TCq2    H3 2311   1.339   3.824  12.384  1.9083 -1.0404 -1.0103
  151TCq2    H4 2312   1.418   3.422  12.484  0.9247  1.4484  0.3854
  152MPD2     C 2313   0.381   2.569  12.435 -0.1763  0.0396  0.3638
  152MPD2    C1 2314   0.394   2.704  12.416  0.3162 -0.2390  0.0261
  152MPD2    C2 2315   0.278   2.777  12.420  0.0812  0.3630  0.0755
  152MPD2    C3 2316   0.154   2.722  12.437 -0.2702  0.4249 -0.6613
  152MPD2    C4 2317   0.130   2.585  12.456 -0.0021 -0.0401 -0.3979
  152MPD2    C5 2318   0.253   2.513  12.451 -0.3612 -0.0544 -0.2334
  152MPD2     H 2319   0.274   2.882  12.391 -1.7048  0.9387  2.4208
  152MPD2    H1 2320   0.036   2.535  12.476  0.6409 -0.5502  1.3302
  152MPD2    H2 2321   0.463   2.500  12.419  0.3295  0.5736  0.6546
  152MPD2    H3 2322   0.243   2.406  12.465 -1.2812  0.3649  2.4686
  152MPD2     N 2323   0.046   2.809  12.419 -0.2610  0.3668 -0.0759
  152MPD2    H5 2324   0.076   2.904  12.402  1.9104 -0.4626 -0.9001
  152MPD2    N1 2325   0.531   2.755  12.419 -0.8162  0.4405 -0.4171
  152MPD2    H7 2326   0.603   2.685  12.425  0.6637  2.1378  1.5844
  153TCq2    C1 2327   0.562   2.889  12.437 -0.0520  0.2086  0.0383
  153TCq2    O2 2328   0.487   2.983  12.449 -0.3270 -0.8688  0.2869
  153TCq2    C2 2329   0.707   2.915  12.435 -0.4322 -0.6021  0.4088
  153TCq2    C3 2330   0.800   2.822  12.411 -0.0891 -0.3857  0.8127
  153TCq2    C4 2331   0.935   2.847  12.438 -0.1745 -0.3111 -0.4566
  153TCq2    C5 2332   0.969   2.956  12.514  0.0145  0.1751  0.8250
  153TCq2    C6 2333   0.869   3.048  12.534  0.2204  0.1497  0.0508
  153TCq2    C7 2334   0.734   3.026  12.509 -0.2512 -0.9372  0.2144
  153TCq2    C8 2335   0.903   3.171  12.615 -0.3204 -0.2472 -0.3356
  153TCq2    O4 2336   0.807   3.241  12.647  0.3959 -0.1330 -0.0679
  153TCq2    C9 2337   1.035   2.753  12.391  0.0504 -0.1514  0.5717
  153TCq2    O5 2338   1.150   2.773  12.433  0.0095 -0.1594  0.3764
  153TCq2    O6 2339   0.989   2.641  12.348  0.6730  0.5045  0.3095
  153TCq2    H2 2340   0.766   2.740  12.349 -0.1731  0.5797 -0.4238
  153TCq2    H3 2341   1.075   2.973  12.531  0.2431  0.4511 -0.8164
  153TCq2    H4 2342   0.667   3.110  12.522  0.2660 -0.3595 -0.8353
  154MPD2     C 2343   1.522   3.891   0.622 -1.0527 -0.3458  0.5125
  154MPD2    C1 2344   1.472   3.932   0.751 -0.0237 -0.1366  0.5274
  154MPD2    C2 2345   1.355   4.002   0.752 -0.2613  0.1843 -0.3748
  154MPD2    C3 2346   1.293   4.058   0.644  0.3918  0.6868  0.2143
  154MPD2    C4 2347   1.334   4.017   0.515 -0.1050 -0.1036 -0.3543
  154MPD2    C5 2348   1.445   3.929   0.509  0.3520 -0.4039  0.1106
  154MPD2     H 2349   1.309   4.019   0.848  0.7663 -1.1323  0.3600
  154MPD2    H1 2350   1.286   4.064   0.430  0.9696  0.4422 -0.6534
  154MPD2    H2 2351   1.607   3.826   0.603  0.0943  0.3820  3.1351
  154MPD2    H3 2352   1.478   3.896   0.411  0.5568 -1.7491  0.6326
  154MPD2     N 2353   1.173   4.126   0.659 -0.0992 -0.5526  0.5362
  154MPD2    H5 2354   1.118   4.108   0.743  0.2918  0.2239  0.9623
  154MPD2    N1 2355   1.544   3.897   0.866 -0.2136  0.5231 -0.3817
  154MPD2    H7 2356   1.627   3.839   0.853 -1.9200 -2.1627  0.8566
  155TCq2    C1 2357   1.518   3.952   0.990 -0.2133  0.0389 -0.0730
  155TCq2    O2 2358   1.448   4.048   1.020  0.5211 -0.0170  0.3423
  155TCq2    C2 2359   1.597   3.892   1.097 -0.4999 -0.2948  0.0280
  155TCq2    C3 2360   1.613   3.962   1.213 -0.3782  0.0401  0.5601
  155TCq2    C4 2361   1.688   3.903   1.306  0.1906  0.2150  0.5036
  155TCq2    C5 2362   1.760   3.782   1.287 -0.1095 -0.6609 -0.3407
  155TCq2    C6 2363   1.725   3.716   1.173  0.3768 -0.0031  0.1757
  155TCq2    C7 2364   1.640   3.763   1.075 -0.4419 -0.7217  0.2751
  155TCq2    C8 2365   1.782   3.585   1.144  0.9154 -0.3689 -0.8695
  155TCq2    O4 2366   1.738   3.523   1.047  1.0363  0.0455  0.2521
  155TCq2    C9 2367   1.718   3.986   1.425 -0.6350  0.2103 -0.2184
  155TCq2    O5 2368   1.706   4.112   1.413 -0.4667  0.3304  0.0051
  155TCq2    O6 2369   1.777   3.926   1.517 -0.3701  0.0774  0.0887
  155TCq2    H2 2370   1.569   4.059   1.235 -2.4872 -1.0897  1.3490
  155TCq2    H3 2371   1.839   3.755   1.357  1.2861  0.4994 -1.4619
  155TCq2    H4 2372   1.610   3.698   0.994  1.5928 -2.3089  0.7851
  156MPD2     C 2373   0.997   0.371  12.299  0.1876  0.2858  0.7113
  156MPD2    C1 2374   0.978   0.488  12.225 -0.5783  0.1037 -0.9863
  156MPD2    C2 2375   1.031   0.611  12.261 -0.0040 -0.4700 -0.6155
  156MPD2    C3 2376   1.116   0.621  12.367 -0.3889  0.1291 -0.0186
  156MPD2    C4 2377   1.121   0.503  12.445  0.0010 -0.3627  0.0075
  156MPD2    C5 2378   1.074   0.383  12.408  0.4475  1.0162  0.4301
  156MPD2     H 2379   1.010   0.704  12.209  1.9555  0.9757  1.1833
  156MPD2    H1 2380   1.187   0.487  12.530 -1.4327 -2.1865  0.7680
  156MPD2    H2 2381   0.965   0.270  12.273  0.7371 -0.5186  3.1674
  156MPD2    H3 2382   1.099   0.292  12.462 -0.1132  0.7902  0.3125
  156MPD2     N 2383   1.176   0.744  12.398  0.2829 -0.1355 -0.0177
  156MPD2    H5 2384   1.154   0.821  12.337 -0.2646 -0.3308 -0.0719
  156MPD2    N1 2385   0.880   0.477  12.118 -0.6578  0.0224 -0.0712
  156MPD2    H7 2386   0.833   0.389  12.102 -0.0923 -0.1689 -0.6366
  157TCq2    C1 2387   0.839   0.589  12.045  0.7062  0.1635  0.6622
  157TCq2    O2 2388   0.903   0.685  12.013  0.1140  0.0660 -0.4709
  157TCq2    C2 2389   0.713   0.568  11.979  0.8980 -0.6384  0.0844
  157TCq2    C3 2390   0.625   0.475  12.031  0.0569  0.5435  0.2592
  157TCq2    C4 2391   0.512   0.448  11.961 -0.1404  0.2244  0.1809
  157TCq2    C5 2392   0.479   0.525  11.853 -0.3956 -0.1899  0.7829
  157TCq2    C6 2393   0.563   0.623  11.807 -0.2499 -0.1449  0.3462
  157TCq2    C7 2394   0.681   0.649  11.868 -0.4557 -0.2785  0.1761
  157TCq2    C8 2395   0.546   0.691  11.679 -0.3241 -0.0185  0.2171
  157TCq2    O4 2396   0.648   0.731  11.627 -0.0359 -0.5872 -0.0372
  157TCq2    C9 2397   0.434   0.339  12.007 -0.4192 -0.6171 -0.3223
  157TCq2    O5 2398   0.323   0.318  11.950 -0.8277  0.2150 -0.6274
  157TCq2    O6 2399   0.464   0.284  12.117  0.0021 -0.5434  0.8209
  157TCq2    H2 2400   0.653   0.411  12.114 -0.3414  0.8067  0.5968
  157TCq2    H3 2401   0.400   0.491  11.788  0.5120 -0.4901 -0.1719
  157TCq2    H4 2402   0.743   0.731  11.833  2.1096 -1.6002  1.6169
  158TMC2    C1 2403   1.318   4.560  13.355  0.2958 -0.1375  0.4139
  158TMC2    C2 2404   1.410   4.531  13.257 -0.1689  0.0382 -0.4461
  158TMC2    C3 2405   1.368   4.550  13.129  0.2961 -0.3270 -0.5734
  158TMC2    C4 2406   1.195   4.603  13.316  0.0743  0.7493  0.2643
  158TMC2    C5 2407   1.157   4.604  13.185  0.3033  0.0761 -0.3886
  158TMC2    C6 2408   1.240   4.578  13.085  0.0629 -0.0982 -0.8152
  158TMC2     C 2409   1.367   4.593  13.487  0.1774 -0.0080 -0.6037
  158TMC2     O 2410   1.482   4.639  13.498 -0.0728 -0.3091 -0.0822
  158TMC2     H 2411   1.516   4.520  13.276 -0.3617 -1.0618  0.0302
  158TMC2    H1 2412   1.123   4.634  13.390 -0.2976 -0.4794  0.4120
  158TMC2    H2 2413   1.225   4.591  12.979 -0.8684 -0.9062 -0.7736
  158TMC2    C7 2414   1.010   4.621  13.161 -0.1809  0.3250  0.0387
  158TMC2    C8 2415   1.454   4.487  13.033  0.4651 -0.4245  0.0744
  158TMC2    O1 2416   0.979   4.657  13.049 -0.6389 -0.6807 -0.3008
  158TMC2    O2 2417   1.405   4.447  12.926  0.3790 -0.3890 -0.3886
  158TMC2    O5 2418   1.576   4.548  13.048 -0.1113  0.1394 -0.1594
  158TMC2    H5 2419   1.580   4.607  13.126  0.1861 -2.4322  1.7718
  159MPD2     C 2420   1.329   4.584  13.993  0.1829 -0.0313  0.7358
  159MPD2    C1 2421   1.238   4.493  13.948  0.2997  0.0635  0.1381
  159MPD2    C2 2422   1.227   4.473  13.808  0.1163 -0.0995 -0.9574
  159MPD2    C3 2423   1.299   4.554  13.723 -0.0973  0.0159 -0.7563
  159MPD2    C4 2424   1.395   4.646  13.775  0.6322  0.7578  0.9039
  159MPD2    C5 2425   1.406   4.663  13.914 -0.3845 -1.0538  0.8680
  159MPD2     H 2426   1.141   4.420  13.768  0.6136  0.2368 -2.4459
  159MPD2    H1 2427   1.453   4.711  13.711 -0.3881 -1.0862 -1.8968
  159MPD2    H2 2428   1.338   4.600  14.100  0.8108  1.1272  0.5090
  159MPD2    H3 2429   1.482   0.008  13.956  1.3377 -1.0618 -2.2569
  159MPD2     N 2430   1.282   4.548  13.585 -0.1727  0.3848 -0.4106
  159MPD2    H5 2431   1.194   4.509  13.553 -1.2605  1.8758  0.7879
  159MPD2    N1 2432   1.165   4.437  14.051  0.8227  0.7404 -0.0803
  159MPD2    H7 2433   1.172   4.484  14.140  0.6575 -0.3316  0.5034
  160TMC2    C1 2434   0.941   3.369   1.492  0.2305 -0.0922  0.1046
  160TMC2    C2 2435   1.014   3.260   1.527 -0.0008  0.1418  0.0640
  160TMC2    C3 2436   1.088   3.192   1.437 -0.0195 -0.1927 -0.6279
  160TMC2    C4 2437   0.930   3.401   1.360 -0.1605  0.4777  0.1087
  160TMC2    C5 2438   1.008   3.336   1.269 -0.4276 -0.1901 -1.0072
  160TMC2    C6 2439   1.088   3.230   1.305 -0.0446  0.4072 -0.0686
  160TMC2     C 2440   0.851   3.440   1.580  0.0323 -0.0413  0.3656
  160TMC2     O 2441   0.870   3.406   1.694  0.1779 -0.7535  0.0116
  160TMC2     H 2442   1.026   3.246   1.634  1.9641  0.1460 -0.1518
  160TMC2    H1 2443   0.868   3.480   1.321 -1.7001 -1.0827 -0.5769
  160TMC2    H2 2444   1.166   3.183   1.246 -0.9656 -1.6054  0.3154
  160TMC2    C7 2445   0.984   3.347   1.122  0.2763  0.1245 -0.4333
  160TMC2    C8 2446   1.161   3.073   1.477  0.3429 -0.5187  0.8767
  160TMC2    O1 2447   1.004   3.251   1.049  0.5550  0.2570  0.5123
  160TMC2    O2 2448   1.187   2.981   1.401  0.2738 -0.0648  0.8533
  160TMC2    O5 2449   1.204   3.108   1.603  0.3757 -0.7430 -0.3295
  160TMC2    H5 2450   1.206   3.205   1.611 -3.0455 -0.6825 -0.1535
  161MPD2     C 2451   0.649   3.611   1.736 -0.0071 -1.1144 -0.1304
  161MPD2    C1 2452   0.656   3.601   1.596 -0.3316 -0.4036  0.1085
  161MPD2    C2 2453   0.570   3.676   1.510 -0.0278  0.3158 -0.4362
  161MPD2    C3 2454   0.480   3.766   1.566  1.0979 -0.6267 -0.7013
  161MPD2    C4 2455   0.474   3.774   1.701  0.0613  1.0387  1.1334
  161MPD2    C5 2456   0.561   3.703   1.787  0.1179  0.6262  0.0776
  161MPD2     H 2457   0.565   3.654   1.404 -1.5446 -0.9943 -0.0810
  161MPD2    H1 2458   0.398   3.840   1.741 -1.1629  0.3865 -0.1428
  161MPD2    H2 2459   0.721   3.556   1.796  0.5401 -1.9374 -1.5304
  161MPD2    H3 2460   0.564   3.718   1.895  0.2565  0.1037  0.1443
  161MPD2     N 2461   0.389   3.852   1.496 -0.2749  0.9114  0.0453
  161MPD2    H5 2462   0.325   3.908   1.551 -0.4802 -0.6856  1.4457
  161MPD2    N1 2463   0.749   3.517   1.525  0.6584  0.1137  0.1738
  161MPD2    H7 2464   0.755   3.524   1.424  1.9860 -3.4976  0.0029
  162TMC2    C1 2465   3.248   0.203   1.343 -0.5387 -0.2426  0.4871
  162TMC2    C2 2466   3.340   0.239   1.444  0.5133 -0.1588  0.6465
  162TMC2    C3 2467   3.299   0.235   1.573  0.1827  0.0464 -0.4027
  162TMC2    C4 2468   3.120   0.174   1.382  0.4664  0.7728 -0.7092
  162TMC2    C5 2469   3.085   0.176   1.517 -0.3121  0.2192  0.8528
  162TMC2    C6 2470   3.177   0.199   1.617 -0.0288 -0.8736  1.1106
  162TMC2     C 2471   3.273   0.232   1.204  0.3499  0.0890  0.0558
  162TMC2     O 2472   3.385   0.263   1.176 -0.1160  0.2698 -0.4812
  162TMC2     H 2473   3.444   0.255   1.418 -0.1761  2.2698 -0.6154
  162TMC2    H1 2474   3.039   0.152   1.314  0.9614  0.9748 -1.3533
  162TMC2    H2 2475   3.142   0.224   1.716  0.3453  0.3381  0.9419
  162TMC2    C7 2476   2.946   0.156   1.551  0.2788 -0.3981  0.3248
  162TMC2    C8 2477   3.396   0.276   1.674 -0.4409  0.1073  0.5636
  162TMC2    O1 2478   2.872   0.168   1.455 -0.1435 -0.6120  0.2753
  162TMC2    O2 2479   3.465   0.377   1.658 -0.1021  0.1413  0.6244
  162TMC2    O5 2480   3.359   0.205   1.784 -0.2516  0.0451  0.2287
  162TMC2    H5 2481   3.293   0.135   1.763  1.3321 -1.5494  0.6325
  163MPD2     C 2482   3.120   0.304   0.712  0.2475  0.4576 -0.2073
  163MPD2    C1 2483   3.240   0.343   0.781  0.0903 -0.0702 -0.1562
  163MPD2    C2 2484   3.251   0.311   0.917 -0.4096 -0.7043 -0.5546
  163MPD2    C3 2485   3.150   0.242   0.981  0.3075  0.2303  0.1354
  163MPD2    C4 2486   3.037   0.212   0.914  0.6830 -0.3302 -0.5970
  163MPD2    C5 2487   3.020   0.236   0.778  0.3585 -0.2627  0.2664
  163MPD2     H 2488   3.336   0.334   0.981 -0.5997  1.5523 -1.1109
  163MPD2    H1 2489   2.949   0.171   0.961  0.7383  1.2094  0.8475
  163MPD2    H2 2490   3.118   0.318   0.605 -2.1495  0.2784 -0.1830
  163MPD2    H3 2491   2.926   0.208   0.732  0.2211  0.5139  0.0679
  163MPD2     N 2492   3.160   0.216   1.118  0.0145  0.2048  0.3304
  163MPD2    H5 2493   3.072   0.185   1.156 -0.0219 -0.7338 -0.4888
  163MPD2    N1 2494   3.345   0.412   0.707  0.1014 -0.1425 -0.4047
  163MPD2    H7 2495   3.329   0.420   0.607 -0.1955 -3.6240 -0.6512
  164TCq2    C1 2496   4.117   3.509  11.169 -0.0382  0.7699  0.2387
  164TCq2    O2 2497   4.057   3.491  11.276  1.0216  0.1089 -0.1000
  164TCq2    C2 2498   4.075   3.618  11.083 -0.2613  0.8810 -0.0685
  164TCq2    C3 2499   4.144   3.644  10.968  0.3979 -0.0271 -1.2871
  164TCq2    C4 2500   4.082   3.727  10.880 -0.2791  0.5885 -0.1324
  164TCq2    C5 2501   3.962   3.787  10.902 -0.5268 -0.4322  0.2572
  164TCq2    C6 2502   3.895   3.759  11.016 -0.0028  0.6063  0.5805
  164TCq2    C7 2503   3.953   3.684  11.119  0.3629  0.1808 -0.1829
  164TCq2    C8 2504   3.790   3.846  11.051 -0.5787 -0.0545  0.0827
  164TCq2    O4 2505   3.741   3.921  10.972 -0.3637  0.8658 -0.7070
  164TCq2    C9 2506   4.157   3.742  10.756 -0.2064  0.0771  0.2196
  164TCq2    O5 2507   4.251   3.668  10.737 -0.2921  0.0868 -0.5191
  164TCq2    O6 2508   4.097   3.801  10.659 -0.5077  0.3105  0.3213
  164TCq2    H2 2509   4.242   3.606  10.944 -0.4069 -1.9106 -1.5987
  164TCq2    H3 2510   3.912   3.848  10.827  0.2267 -1.1484 -0.8162
  164TCq2    H4 2511   3.905   3.644  11.208 -1.8474 -0.8530 -1.8643
  165MPD2     C 2512   4.668   2.608   1.613 -0.1022  0.2593  0.7408
  165MPD2    C1 2513   4.615   2.485   1.596 -0.1562  0.2552  0.7844
  165MPD2    C2 2514   4.702   2.377   1.602  0.3138 -0.3414 -0.3274
  165MPD2    C3 2515   0.113   2.401   1.635  0.2594  0.4132 -0.0654
  165MPD2    C4 2516   0.162   2.520   1.675 -0.0589 -0.0536 -0.3404
  165MPD2    C5 2517   0.077   2.623   1.650  0.2863 -0.2555 -0.2078
  165MPD2     H 2518   4.676   2.275   1.573  1.5858 -1.1813  1.4685
  165MPD2    H1 2519   0.267   2.545   1.683 -0.1721  0.5489 -0.7235
  165MPD2    H2 2520   4.605   2.693   1.590 -0.6322 -0.3332 -0.0020
  165MPD2    H3 2521   0.115   2.725   1.658  0.3573 -0.5026  2.5661
  165MPD2     N 2522   0.202   2.292   1.628  0.0514 -0.8352 -0.3331
  165MPD2    H5 2523   0.144   2.213   1.601  2.2347 -2.8342  0.8198
  165MPD2    N1 2524   4.479   2.472   1.565  0.1606 -0.0336 -0.0713
  165MPD2    H7 2525   4.437   2.559   1.533 -0.1610  0.1306  0.7779
  166TCq2    C1 2526   0.332   2.276   1.672 -0.0664  0.2909  0.7954
  166TCq2    O2 2527   0.404   2.351   1.735 -0.4663  0.4120  0.1184
  166TCq2    C2 2528   0.386   2.152   1.622 -0.7164  0.2603  0.5749
  166TCq2    C3 2529   0.298   2.051   1.589 -0.9808 -0.6179  0.1387
  166TCq2    C4 2530   0.344   1.953   1.497  0.2062  0.3569 -0.0108
  166TCq2    C5 2531   0.471   1.956   1.451  0.1056  0.2055  0.3253
  166TCq2    C6 2532   0.560   2.054   1.485  0.3308 -0.0783 -0.0766
  166TCq2    C7 2533   0.520   2.147   1.581 -0.3485  0.3222 -0.0737
  166TCq2    C8 2534   0.681   2.073   1.405 -0.4555 -0.5309 -0.0407
  166TCq2    O4 2535   0.777   2.139   1.452  0.5206  0.5495  0.3702
  166TCq2    C9 2536   0.264   1.843   1.463 -0.8733 -0.6394  0.5264
  166TCq2    O5 2537   0.303   1.770   1.368 -0.2434 -0.5486 -0.0898
  166TCq2    O6 2538   0.145   1.845   1.507 -0.0511 -0.1987  0.0513
  166TCq2    H2 2539   0.203   2.038   1.639 -0.6687  1.6929  1.3129
  166TCq2    H3 2540   0.499   1.867   1.396  4.1296  1.0034  1.1149
  166TCq2    H4 2541   0.578   2.237   1.597  1.3290 -0.5830 -1.0557
  167TMC2    C1 2542   3.145   4.361  12.857 -0.4097  0.5078  0.1009
  167TMC2    C2 2543   3.072   4.354  12.968 -0.4214  0.1169  0.1403
  167TMC2    C3 2544   3.078   4.238  13.039 -0.0656  0.5960  0.2062
  167TMC2    C4 2545   3.224   4.254  12.809 -0.4898  0.9116  0.2722
  167TMC2    C5 2546   3.216   4.136  12.875 -0.3190  0.1953 -0.1563
  167TMC2    C6 2547   3.143   4.130  12.990 -0.0951  0.0230 -0.4593
  167TMC2     C 2548   3.161   4.498  12.794  0.0325  0.7432 -0.3869
  167TMC2     O 2549   3.055   4.566  12.793 -0.1900 -0.1175 -0.0293
  167TMC2     H 2550   3.022   4.443  13.004 -2.1045 -0.5582 -0.5309
  167TMC2    H1 2551   3.260   4.254  12.706 -2.0247 -1.8445 -0.2766
  167TMC2    H2 2552   3.152   4.039  13.048  1.5466  1.5578  1.6924
  167TMC2    C7 2553   3.253   4.001  12.818 -0.3082 -0.2004  0.6316
  167TMC2    C8 2554   3.034   4.231  13.177 -0.7235  0.4417 -0.4063
  167TMC2    O1 2555   3.220   3.901  12.884 -0.9012 -0.2694  0.4748
  167TMC2    O2 2556   3.077   4.147  13.258  0.0612  0.0014  0.1167
  167TMC2    O5 2557   2.925   4.307  13.196 -0.4811  0.4397 -0.1498
  167TMC2    H5 2558   2.905   4.350  13.110  1.0043  1.2011 -0.1240
  168MPD2     C 2559   3.197   4.706  12.586 -0.4199 -0.3942  0.1529
  168MPD2    C1 2560   3.286   4.606  12.613 -1.3933  0.7641  0.2126
  168MPD2    C2 2561   3.391   4.581  12.525 -0.5904 -0.0447 -0.2513
  168MPD2    C3 2562   3.381   4.639  12.401 -0.3805 -0.4340 -0.5384
  168MPD2    C4 2563   3.296   0.027  12.373  0.2538  0.1649  0.4146
  168MPD2    C5 2564   3.199   0.051  12.469 -0.2409  0.2975  0.1548
  168MPD2     H 2565   3.457   4.495  12.534 -2.9163 -1.7638  0.4032
  168MPD2    H1 2566   3.287   0.068  12.273 -0.2220 -1.1783 -0.0993
  168MPD2    H2 2567   3.113   0.016  12.648  0.3033 -1.5870  1.7016
  168MPD2    H3 2568   3.125   0.126  12.447  1.5756  2.3537  1.0392
  168MPD2     N 2569   3.447   4.571  12.294  0.2477 -0.6905  0.1681
  168MPD2    H5 2570   3.493   4.486  12.323  0.2599 -0.7771 -0.1097
  168MPD2    N1 2571   3.268   4.509  12.715 -0.2059 -0.7230  0.3550
  168MPD2    H7 2572   3.347   4.447  12.726 -0.3040 -1.0637 -0.8644
  169MPD1     C 2573   0.902   2.938   9.941 -0.0082 -0.1952 -0.0419
  169MPD1    C1 2574   0.837   2.966   9.820  0.8411 -0.5094  0.6204
  169MPD1    C2 2575   0.916   3.015   9.714  0.5184  0.8907  0.1569
  169MPD1    C3 2576   1.038   3.067   9.751  0.4762 -0.1621 -0.5025
  169MPD1    C4 2577   1.089   3.052   9.878  0.0942 -0.4875 -0.6181
  169MPD1    C5 2578   1.028   2.979   9.968 -0.1177  0.6394 -0.1006
  169MPD1     H 2579   0.880   3.016   9.612 -0.9743  0.9608  0.6842
  169MPD1    H1 2580   1.183   3.102   9.900  0.2467 -0.1972 -1.9292
  169MPD1    H2 2581   0.848   2.890  10.022 -1.1272  1.1286  0.0129
  169MPD1    H3 2582   1.069   2.966  10.068 -1.4613 -3.0396 -0.0453
  169MPD1     N 2583   1.099   3.154   9.651  0.3403  0.3927 -0.4569
  169MPD1    H5 2584   1.053   3.152   9.560  1.4691 -0.7763 -0.9921
  169MPD1    N1 2585   0.718   2.900   9.789 -0.2611  0.5247  0.8411
  169MPD1    H6 2586   0.656   2.910   9.869 -2.1081  1.0727 -0.6677
  169MPD1    H7 2587   0.658   2.938   9.716 -0.5010  0.4862  1.0161
  170MPD1     C 2588   0.010   1.228  13.480 -0.0620  0.3442  0.2680
  170MPD1    C1 2589   0.064   1.313  13.570 -0.8842 -0.9129  0.8267
  170MPD1    C2 2590   4.718   1.431  13.598  0.2557 -0.0362  0.0405
  170MPD1    C3 2591   4.600   1.461  13.531  0.2365 -0.0179  0.2623
  170MPD1    C4 2592   4.552   1.371  13.434 -0.0764  0.2138  0.3747
  170MPD1    C5 2593   4.616   1.256  13.411 -0.3539  0.5198  0.1375
  170MPD1     H 2594   0.033   1.495  13.678 -0.6667  1.5776 -0.8535
  170MPD1    H1 2595   4.460   1.395  13.382  0.4667 -2.4540 -1.8124
  170MPD1    H2 2596   0.061   1.139  13.445 -1.8858 -0.9092  0.8382
  170MPD1    H3 2597   4.584   1.191  13.330 -2.0792 -0.8433  1.9363
  170MPD1     N 2598   4.532   1.575  13.574 -0.4713  0.1480  0.0911
  170MPD1    H5 2599   4.580   1.625  13.648 -0.7492 -0.2436  0.5358
  170MPD1    N1 2600   0.180   1.281  13.638  0.1480  0.3157 -0.8443
  170MPD1    H6 2601   0.247   1.357  13.642 -0.5097  0.9412 -1.5520
  170MPD1    H7 2602   0.226   1.207  13.584  1.2211  0.6979 -0.4345
  171MPD1     C 2603   3.111   3.597  15.667  0.2189 -0.8306 -0.4538
  171MPD1    C1 2604   3.021   3.516  15.606  0.1007  0.6252  0.1578
  171MPD1    C2 2605   2.976   3.405  15.680 -0.6063 -0.1195  0.1096
  171MPD1    C3 2606   3.032   3.376  15.803  1.0648 -0.2917 -0.0628
  171MPD1    C4 2607   3.131   3.455  15.857  0.1169  0.1585 -0.8513
  171MPD1    C5 2608   3.179   3.562  15.786 -0.4969  0.4950 -0.0037
  171MPD1     H 2609   2.889   3.352  15.642 -0.7365  0.8224 -0.9120
  171MPD1    H1 2610   3.157   3.444  15.961 -2.4673 -1.0804 -0.3472
  171MPD1    H2 2611   3.149   3.690  15.625  0.7322 -1.3126 -1.0438
  171MPD1    H3 2612   3.249   3.632  15.829 -0.0031 -1.1055  1.7663
  171MPD1     N 2613   2.979   3.275  15.885  0.1682 -0.5292  0.1423
  171MPD1    H5 2614   3.012   3.277  15.981 -1.3571 -2.0526  0.6934
  171MPD1    N1 2615   2.942   3.558  15.493  0.2191  0.7746 -0.1329
  171MPD1    H6 2616   2.871   3.495  15.457 -0.2853  1.3622 -0.1553
  171MPD1    H7 2617   2.982   3.620  15.423 -1.1551  0.0143 -1.5892
  172MPD1     C 2618   2.145   2.828   0.174 -0.1709  0.1335 -0.5986
  172MPD1    C1 2619   2.071   2.940   0.135  0.1568  0.5261  0.1641
  172MPD1    C2 2620   2.003   3.012   0.233  0.3074  0.2337  0.4917
  172MPD1    C3 2621   2.017   2.972   0.373 -0.2956 -0.2772  0.0287
  172MPD1    C4 2622   2.089   2.866   0.410 -0.1960  0.4318  0.4127
  172MPD1    C5 2623   2.152   2.794   0.309 -0.4104  0.7498  0.2361
  172MPD1     H 2624   1.935   3.089   0.197 -0.1894 -0.3273  0.2239
  172MPD1    H1 2625   2.104   2.846   0.515  1.3391 -1.5768 -0.1920
  172MPD1    H2 2626   2.187   2.764   0.097  1.2308 -1.0713  1.1655
  172MPD1    H3 2627   2.212   2.707   0.337 -0.3286  0.4805 -0.7571
  172MPD1     N 2628   1.955   3.038   0.482 -0.1585  0.1788  0.6405
  172MPD1    H5 2629   1.973   3.005   0.576  0.1368  1.8317  1.1641
  172MPD1    N1 2630   2.103   2.994   0.007 -0.3026 -0.2463  0.1862
  172MPD1    H6 2631   2.021   3.043  17.657 -0.5338  0.0238  1.1048
  172MPD1    H7 2632   2.138   2.925  17.626  2.4309 -0.3999  1.7723
  173MPD1     C 2633   4.121   2.335  14.091 -1.2774 -0.1259  0.1568
  173MPD1    C1 2634   4.035   2.390  14.180  0.3620 -0.3340 -0.2639
  173MPD1    C2 2635   3.921   2.326  14.217  0.1663  0.5939 -0.0369
  173MPD1    C3 2636   3.899   2.197  14.177  0.3422  0.2363 -0.3291
  173MPD1    C4 2637   3.992   2.138  14.086 -0.2368 -0.1163 -0.1723
  173MPD1    C5 2638   4.097   2.212  14.045  0.1743 -0.6179 -0.2458
  173MPD1     H 2639   3.850   2.373  14.284  0.9835  0.7987  0.6868
  173MPD1    H1 2640   3.980   2.041  14.040  1.0348 -0.8673  1.0934
  173MPD1    H2 2641   4.214   2.384  14.062  0.0036 -3.0180 -0.6061
  173MPD1    H3 2642   4.166   2.165  13.976  0.7395 -1.2624  0.7617
  173MPD1     N 2643   3.781   2.141  14.224  0.5728 -0.4161 -0.2618
  173MPD1    H5 2644   3.723   2.202  14.282 -1.1356 -1.9714 -0.3248
  173MPD1    N1 2645   4.041   2.525  14.213 -0.0504  0.0424  0.9509
  173MPD1    H6 2646   3.991   2.538  14.301 -2.8007 -0.5947 -0.5150
  173MPD1    H7 2647   4.130   2.575  14.213  0.3345 -0.6330 -1.9488
  174MPD1     C 2648   3.380   1.261  14.056 -0.9358 -0.2803 -0.1995
  174MPD1    C1 2649   3.314   1.299  14.167 -0.8761 -0.2865  0.3078
  174MPD1    C2 2650   3.370   1.401  14.241 -1.4378  0.3659  0.0769
  174MPD1    C3 2651   3.487   1.464  14.210  0.2749  0.2390  0.9113
  174MPD1    C4 2652   3.560   1.419  14.100 -0.2702  0.5360  0.1149
  174MPD1    C5 2653   3.501   1.312  14.031 -0.4342  0.6365 -0.3839
  174MPD1     H 2654   3.309   1.426  14.326 -3.8882  0.7580 -1.8019
  174MPD1    H1 2655   3.662   1.452  14.089  0.2845 -2.0054 -2.2741
  174MPD1    H2 2656   3.350   1.170  14.005  0.2280 -0.7565 -0.0388
  174MPD1    H3 2657   3.558   1.266  13.951  2.2241  1.7935  0.8475
  174MPD1     N 2658   3.527   1.584  14.269 -0.0012 -0.0226  0.0311
  174MPD1    H5 2659   3.613   1.629  14.237  0.4985  0.2981  1.8241
  174MPD1    N1 2660   3.182   1.257  14.183 -0.3896 -0.1001 -0.5785
  174MPD1    H6 2661   3.175   1.165  14.140 -1.2284 -0.2064 -0.1991
  174MPD1    H7 2662   3.169   1.226  14.279 -0.2321 -1.6318 -1.0555
  175MPD1     C 2663   1.762   3.601  15.770  0.6351 -0.2987  0.5027
  175MPD1    C1 2664   1.631   3.557  15.762 -0.1275 -1.0864  0.3741
  175MPD1    C2 2665   1.566   3.506  15.869  0.5173 -0.3542  0.0131
  175MPD1    C3 2666   1.617   3.529  15.992  0.1045  0.4878  0.6410
  175MPD1    C4 2667   1.738   3.594  16.002 -0.5599 -0.3084 -0.0170
  175MPD1    C5 2668   1.819   3.619  15.893  0.6862  0.0476  0.3054
  175MPD1     H 2669   1.471   3.458  15.846  0.5913 -0.4895 -0.0062
  175MPD1    H1 2670   1.776   3.632  16.096  0.5185 -0.7833 -0.2662
  175MPD1    H2 2671   1.816   3.623  15.678 -1.1797  2.0552  0.0162
  175MPD1    H3 2672   1.912   3.676  15.893  1.6170 -1.4768 -0.5343
  175MPD1     N 2673   1.548   3.502  16.117 -0.2714 -0.3263  0.5361
  175MPD1    H5 2674   1.592   3.538  16.201  0.9087 -1.0779  0.2467
  175MPD1    N1 2675   1.579   3.549  15.638  0.2349 -0.4452 -0.1937
  175MPD1    H6 2676   1.479   3.558  15.658  0.3241  0.1955 -0.0288
  175MPD1    H7 2677   1.603   3.621  15.570 -0.5227 -0.6155 -0.6471
  176MPD1     C 2678   3.315   1.030  16.123  0.2277 -0.6895 -0.1317
  176MPD1    C1 2679   3.334   1.135  16.206 -0.1965 -0.5061 -0.3119
  176MPD1    C2 2680   3.300   1.119  16.339  0.1195 -0.0204  0.0481
  176MPD1    C3 2681   3.267   0.998  16.394 -0.4182 -0.7199  0.8994
  176MPD1    C4 2682   3.231   0.901  16.306 -0.1682  0.0473  0.0156
  176MPD1    C5 2683   3.263   0.909  16.172 -0.2134 -0.0180 -0.1841
  176MPD1     H 2684   3.331   1.196  16.409 -0.2533 -0.1621  0.3683
  176MPD1    H1 2685   3.187   0.807  16.339  1.2881 -1.1790 -1.5040
  176MPD1    H2 2686   3.333   1.043  16.017 -2.1765  0.0483 -0.4624
  176MPD1    H3 2687   3.239   0.827  16.105 -1.3042 -0.9496  1.3509
  176MPD1     N 2688   3.269   0.991  16.535  0.2609  0.3995 -0.2386
  176MPD1    H5 2689   3.322   1.062  16.584  1.0668  0.2498 -0.9018
  176MPD1    N1 2690   3.395   1.249  16.159 -0.0506  0.1916 -0.3311
  176MPD1    H6 2691   3.377   1.334  16.212 -0.9238 -0.1082 -0.1498
  176MPD1    H7 2692   3.374   1.271  16.062  1.4008  4.1110  0.2478
  177MPD1     C 2693   2.015   0.164  10.141 -0.1314  0.3242  0.1998
  177MPD1    C1 2694   2.009   0.057  10.052 -0.1513 -0.1681 -0.3689
  177MPD1    C2 2695   1.942   0.081   9.932 -0.5404 -0.3923 -0.1800
  177MPD1    C3 2696   1.873   0.199   9.909  0.3033  0.4137 -0.5801
  177MPD1    C4 2697   1.877   0.296  10.007 -0.4230  0.9104  0.3828
  177MPD1    C5 2698   1.961   0.281  10.116 -0.1901 -0.0717  0.4086
  177MPD1     H 2699   1.945   0.001   9.860 -1.2094  0.3620 -1.0359
  177MPD1    H1 2700   1.842   0.397   9.990 -0.6065  0.2250 -3.2196
  177MPD1    H2 2701   2.078   0.159  10.229  0.8940  1.3877 -0.4864
  177MPD1    H3 2702   1.987   0.365  10.179 -0.1985 -0.3195  0.7398
  177MPD1     N 2703   1.802   0.209   9.791  0.1351 -0.2779 -0.0460
  177MPD1    H5 2704   1.822   0.134   9.726  0.3619 -0.3256  0.0832
  177MPD1    N1 2705   2.091   4.667  10.073  0.2201  0.2010 -0.2119
  177MPD1    H6 2706   2.126   4.649  10.166  1.3244 -3.9696 -1.4468
  177MPD1    H7 2707   2.076   4.581  10.020 -0.0619  0.4342 -0.5151
  178MPD1     C 2708   3.796   1.839   0.448 -0.7841  0.0051  0.8459
  178MPD1    C1 2709   3.728   1.734   0.382 -0.0005 -0.0704  0.2228
  178MPD1    C2 2710   3.788   1.678   0.273 -0.8205  0.6848  0.4055
  178MPD1    C3 2711   3.921   1.692   0.242  0.5214  0.1183  0.0614
  178MPD1    C4 2712   3.988   1.783   0.317 -0.3284  0.4354 -0.5825
  178MPD1    C5 2713   3.929   1.860   0.412  1.0332  0.2587  0.1918
  178MPD1     H 2714   3.725   1.614   0.212  0.1677  0.1582 -0.0654
  178MPD1    H1 2715   4.095   1.797   0.307 -0.3847  0.8938 -0.5054
  178MPD1    H2 2716   3.753   1.898   0.528 -3.6679 -0.4241 -0.3724
  178MPD1    H3 2717   3.985   1.938   0.463  1.1644 -0.7227  1.5424
  178MPD1     N 2718   3.990   1.635   0.133  0.1312  0.3078  0.4240
  178MPD1    H5 2719   4.087   1.663   0.122 -0.2304  1.8042  1.0279
  178MPD1    N1 2720   3.588   1.717   0.406  0.3302  0.0809 -0.4993
  178MPD1    H6 2721   3.561   1.628   0.365  1.3299  0.6160 -2.2668
  178MPD1    H7 2722   3.564   1.716   0.506 -1.8831  3.2759 -1.0039
  179MPD1     C 2723   3.980   4.703  16.036 -0.1844  0.1388  0.4163
  179MPD1    C1 2724   3.846   4.690  16.033  0.3554 -0.5359  0.4597
  179MPD1    C2 2725   3.781   4.568  16.055  0.3573  0.4890 -0.1077
  179MPD1    C3 2726   3.858   4.454  16.081  0.5664 -0.3239  0.2723
  179MPD1    C4 2727   3.993   4.466  16.063 -0.4968  0.2915 -0.1247
  179MPD1    C5 2728   4.054   4.588  16.036 -0.6636  0.2241  0.1698
  179MPD1     H 2729   3.673   4.559  16.050  0.3918 -0.1890  0.3361
  179MPD1    H1 2730   4.059   4.382  16.078  0.5464  0.6708 -2.5455
  179MPD1    H2 2731   4.017   0.084  16.040  0.1116  0.1169 -1.5919
  179MPD1    H3 2732   4.162   4.587  16.025 -0.5229 -0.9618  1.7687
  179MPD1     N 2733   3.806   4.327  16.118  0.4131 -0.1122 -0.3161
  179MPD1    H5 2734   3.873   4.251  16.126  0.8908  0.1823 -1.4621
  179MPD1    N1 2735   3.763   0.084  16.040 -0.0818  0.3759 -0.0440
  179MPD1    H6 2736   3.777   0.134  15.953 -0.9406  1.0307  0.1918
  179MPD1    H7 2737   3.664   0.064  16.046  0.6564 -3.2302  0.2786
  180MPD1     C 2738   2.997   1.166  15.031 -0.5769  0.3758 -0.4122
  180MPD1    C1 2739   3.135   1.170  15.009  0.6150  0.1119  0.0016
  180MPD1    C2 2740   3.190   1.078  14.923  0.2285  0.1824  0.4608
  180MPD1    C3 2741   3.115   0.998  14.842 -0.3744  0.0539  0.3173
  180MPD1    C4 2742   2.978   1.008  14.859  1.0431 -0.3152 -0.1246
  180MPD1    C5 2743   2.921   1.089  14.955  0.5264  0.0056 -0.2091
  180MPD1     H 2744   3.298   1.069  14.918  0.1777  0.0252 -0.3581
  180MPD1    H1 2745   2.906   0.942  14.811 -0.4587  1.1460  0.1281
  180MPD1    H2 2746   2.952   1.218  15.114  0.5857  0.9254 -0.1236
  180MPD1    H3 2747   2.816   1.085  14.981  0.4839  0.7919 -0.2855
  180MPD1     N 2748   3.176   0.910  14.748 -0.2163 -0.1205 -0.6842
  180MPD1    H5 2749   3.274   0.918  14.725 -0.7358 -1.0424 -3.3148
  180MPD1    N1 2750   3.221   1.248  15.094 -0.3008  0.7022  0.3879
  180MPD1    H6 2751   3.303   1.281  15.042  1.6943 -1.9235  1.8748
  180MPD1    H7 2752   3.180   1.333  15.134 -0.5425  0.4410  0.6896
  181MPD1     C 2753   0.565   2.073   9.114  0.5114  0.1989  0.4441
  181MPD1    C1 2754   0.633   2.005   9.209  0.1978 -0.1845  0.4106
  181MPD1    C2 2755   0.770   2.025   9.193 -0.0965 -0.0603  1.0620
  181MPD1    C3 2756   0.825   2.072   9.075 -0.0181  0.2829 -0.3787
  181MPD1    C4 2757   0.746   2.134   8.986  0.2034  0.1717 -0.5626
  181MPD1    C5 2758   0.611   2.132   9.005  0.4701  0.6037 -0.4345
  181MPD1     H 2759   0.835   1.982   9.268  0.3304  0.3650  0.9370
  181MPD1    H1 2760   0.776   2.169   8.887 -0.1556  0.3338 -0.6145
  181MPD1    H2 2761   0.457   2.080   9.126  0.4639 -1.2749  0.8020
  181MPD1    H3 2762   0.543   2.188   8.943 -0.8562 -1.4400 -0.8203
  181MPD1     N 2763   0.965   2.083   9.046  0.1955 -0.5267  0.1154
  181MPD1    H5 2764   0.995   2.141   8.969 -1.0439 -0.2750 -0.1761
  181MPD1    N1 2765   0.567   1.966   9.322 -0.3126  0.1675  0.6021
  181MPD1    H6 2766   0.469   1.947   9.302  0.5052 -0.9416 -2.3650
  181MPD1    H7 2767   0.609   1.888   9.371  0.4478 -0.6651 -1.3612
  182MPD1     C 2768   2.958   1.461   0.876 -0.2787 -0.1972  0.1246
  182MPD1    C1 2769   2.920   1.569   0.954  0.5351 -0.9520  0.1437
  182MPD1    C2 2770   2.804   1.569   1.028  0.1307 -0.5431  1.1149
  182MPD1    C3 2771   2.705   1.467   1.012 -0.2972  0.1069 -0.4166
  182MPD1    C4 2772   2.739   1.376   0.920  0.3148  0.1051 -1.0800
  182MPD1    C5 2773   2.865   1.363   0.862 -0.6582 -0.3081 -0.3738
  182MPD1     H 2774   2.785   1.649   1.099  0.4070  1.0379 -0.6212
  182MPD1    H1 2775   2.666   1.297   0.910  1.3800 -0.5365 -3.6388
  182MPD1    H2 2776   3.051   1.464   0.821 -0.7496  4.3462 -0.3499
  182MPD1    H3 2777   2.894   1.285   0.792 -0.0578 -0.7679  0.3835
  182MPD1     N 2778   2.578   1.470   1.071  0.1211 -0.4844 -0.4489
  182MPD1    H5 2779   2.516   1.393   1.047 -0.7683  0.6795 -1.8529
  182MPD1    N1 2780   3.021   1.670   0.979 -0.4286  0.1184 -0.1428
  182MPD1    H6 2781   2.979   1.760   0.999  2.5884  1.4467  0.1716
  182MPD1    H7 2782   3.099   1.677   0.914 -0.2376 -0.2630  0.0445
  183MPD1     C 2783   1.918   2.030   9.167  0.4930  0.6535 -0.7261
  183MPD1    C1 2784   1.953   2.163   9.178  0.0211 -0.1247  0.3193
  183MPD1    C2 2785   2.064   2.206   9.251  0.0049 -0.7939  0.5159
  183MPD1    C3 2786   2.141   2.109   9.312 -0.1211 -0.9710  0.5719
  183MPD1    C4 2787   2.101   1.975   9.310 -0.3172 -0.7759  0.2428
  183MPD1    C5 2788   1.990   1.938   9.235 -0.2996  0.0321 -0.7712
  183MPD1     H 2789   2.095   2.310   9.254  0.0735 -0.7946 -0.0833
  183MPD1    H1 2790   2.145   1.902   9.377  1.9739  0.2602 -0.1539
  183MPD1    H2 2791   1.834   1.999   9.105 -0.0082 -0.8814  0.7301
  183MPD1    H3 2792   1.957   1.836   9.253 -0.2866  0.2076  0.2601
  183MPD1     N 2793   2.262   2.153   9.380 -0.7822 -0.2070  0.1164
  183MPD1    H5 2794   2.286   2.251   9.373 -0.4169 -0.3289 -0.4006
  183MPD1    N1 2795   1.851   2.254   9.134  0.8519 -0.3477  0.5210
  183MPD1    H6 2796   1.818   2.218   9.044 -2.3768 -0.2633  1.6735
  183MPD1    H7 2797   1.884   2.348   9.112  0.9701 -0.6177 -0.4610
  184MPD1     C 2798   0.768   3.702  10.105  0.0738  0.5496  0.7196
  184MPD1    C1 2799   0.829   3.800  10.166  0.9089  0.3969  0.0615
  184MPD1    C2 2800   0.880   3.904  10.089  0.1713  0.1706 -0.4778
  184MPD1    C3 2801   0.854   3.912   9.953 -0.3791  0.2592 -0.0984
  184MPD1    C4 2802   0.777   3.817   9.890  0.1040 -0.0664  0.5472
  184MPD1    C5 2803   0.748   3.706   9.971  0.1053 -0.0171  0.8925
  184MPD1     H 2804   0.938   3.981  10.138  2.3815 -1.4783 -0.5015
  184MPD1    H1 2805   0.753   3.821   9.785 -0.3931 -0.3008  0.6513
  184MPD1    H2 2806   0.717   3.620  10.154  1.0830 -1.5796 -1.7893
  184MPD1    H3 2807   0.713   3.617   9.919 -0.8634  1.5088 -1.0789
  184MPD1     N 2808   0.889   4.024   9.879  0.3719 -0.4037  0.2702
  184MPD1    H5 2809   0.830   4.038   9.797 -1.5886  1.6624  2.0131
  184MPD1    N1 2810   0.887   3.784  10.289  0.5661 -0.2745  0.3686
  184MPD1    H6 2811   0.909   3.874  10.331 -0.8232  0.2670 -0.0578
  184MPD1    H7 2812   0.828   3.730  10.352  0.3041 -2.1401 -1.4775
  185MPD1     C 2813   0.556   4.253   9.092 -0.1760  0.3425 -0.2335
  185MPD1    C1 2814   0.660   4.342   9.110 -0.4540 -0.7642 -0.0546
  185MPD1    C2 2815   0.744   4.328   9.225  0.5192 -0.1418  0.0588
  185MPD1    C3 2816   0.717   4.253   9.335  0.6202 -0.0209 -0.4667
  185MPD1    C4 2817   0.613   4.160   9.312 -0.3656 -0.6821  0.0296
  185MPD1    C5 2818   0.557   4.157   9.189  0.5937 -0.0179 -0.5796
  185MPD1     H 2819   0.835   4.386   9.226  0.1870  0.3658  0.8241
  185MPD1    H1 2820   0.590   4.090   9.392 -0.4436 -0.5244  0.1472
  185MPD1    H2 2821   0.496   4.247   9.002 -3.0823 -1.5567  1.8226
  185MPD1    H3 2822   0.492   4.072   9.173  0.6835 -0.3102  0.6296
  185MPD1     N 2823   0.785   4.257   9.452 -0.7674  0.5619  0.7181
  185MPD1    H5 2824   0.757   4.184   9.518 -1.1250  0.2982  0.2684
  185MPD1    N1 2825   0.696   4.428   9.004  0.0664  0.4433 -0.3449
  185MPD1    H6 2826   0.611   4.457   8.956  0.6878  1.2135 -0.9798
  185MPD1    H7 2827   0.734   4.517   9.035 -2.0928  1.0864  0.4948
  186MPD1     C 2828   4.314   3.860  16.422  0.0060  0.2026 -0.3743
  186MPD1    C1 2829   4.382   3.957  16.346 -0.2790 -0.5323 -0.0974
  186MPD1    C2 2830   4.327   4.084  16.355  1.3876 -0.9018 -0.1672
  186MPD1    C3 2831   4.215   4.116  16.427  0.3690  0.0846  0.2551
  186MPD1    C4 2832   4.144   4.017  16.489 -0.4954 -0.6291  0.6017
  186MPD1    C5 2833   4.198   3.888  16.485  0.0362 -0.3069 -0.5597
  186MPD1     H 2834   4.379   4.167  16.307  3.0868 -1.6153  0.4515
  186MPD1    H1 2835   4.049   4.040  16.535 -0.5252 -0.8205  0.6336
  186MPD1    H2 2836   4.346   3.756  16.417  1.5740  0.5817  1.9167
  186MPD1    H3 2837   4.158   3.811  16.551 -1.1474 -0.4578 -1.4518
  186MPD1     N 2838   4.157   4.252  16.422  0.5497  0.6963 -0.3846
  186MPD1    H5 2839   4.091   4.267  16.498  0.8911  0.7835 -0.1066
  186MPD1    N1 2840   4.483   3.927  16.255  0.0146  0.1289 -0.1492
  186MPD1    H6 2841   4.539   3.843  16.266 -0.5765  0.1882  3.2658
  186MPD1    H7 2842   4.556   3.995  16.239 -1.3336  1.3985 -0.9340
  187MPD1     C 2843   2.992   3.063   0.454  0.0319 -0.5627  0.5988
  187MPD1    C1 2844   2.891   2.986   0.401 -0.0263 -0.4893 -0.5326
  187MPD1    C2 2845   2.916   2.873   0.323  0.8313 -0.1081  0.5323
  187MPD1    C3 2846   3.048   2.828   0.305 -0.2628 -0.0925  1.0244
  187MPD1    C4 2847   3.150   2.904   0.363 -0.7875  0.4686  0.3702
  187MPD1    C5 2848   3.120   3.016   0.438  0.6515 -0.5594 -0.6761
  187MPD1     H 2849   2.826   2.825   0.286  1.4734 -0.3252 -0.7381
  187MPD1    H1 2850   3.251   2.868   0.353 -0.8742  0.2897  0.1448
  187MPD1    H2 2851   2.966   3.154   0.508  0.2313 -0.1992  0.0842
  187MPD1    H3 2852   3.202   3.077   0.475 -0.0343 -0.6582  1.0412
  187MPD1     N 2853   3.081   2.711   0.228 -0.0332 -0.3632  0.1213
  187MPD1    H5 2854   3.179   2.689   0.218  0.1982  0.9988 -0.6865
  187MPD1    N1 2855   2.761   3.033   0.403 -0.5290 -0.2188  0.1897
  187MPD1    H6 2856   2.737   3.099   0.477 -0.9197 -1.5236  1.2330
  187MPD1    H7 2857   2.689   2.960   0.406 -0.4732 -0.1242  3.4345
  188MPD1     C 2858   3.117   1.499   9.198 -0.9879 -0.3569  0.0333
  188MPD1    C1 2859   3.229   1.438   9.257  0.6176 -0.4920 -0.1400
  188MPD1    C2 2860   3.211   1.315   9.313  0.1948  0.1902  0.8545
  188MPD1    C3 2861   3.093   1.243   9.299  0.0485  0.5766  0.3773
  188MPD1    C4 2862   2.986   1.306   9.240  0.3816 -0.0068  0.1125
  188MPD1    C5 2863   2.990   1.440   9.209  0.1122 -0.8514 -0.9323
  188MPD1     H 2864   3.300   1.273   9.357 -0.4815 -1.9481  0.1899
  188MPD1    H1 2865   2.890   1.256   9.234  0.8089 -0.9014  0.7093
  188MPD1    H2 2866   3.121   1.604   9.173  3.1818 -0.4064  0.6013
  188MPD1    H3 2867   2.898   1.479   9.167  0.5086  0.0383 -0.9695
  188MPD1     N 2868   3.072   1.109   9.342  0.4634 -0.1253  0.3107
  188MPD1    H5 2869   2.995   1.055   9.305  3.6248 -2.7441 -2.4940
  188MPD1    N1 2870   3.350   1.508   9.275  0.3632 -0.4557  0.5258
  188MPD1    H6 2871   3.346   1.608   9.254 -0.1697 -0.4914  0.4665
  188MPD1    H7 2872   3.391   1.513   9.368  2.3039  3.9617 -0.5526
  189MPD1     C 2873   4.638   1.994   0.818 -0.4851  0.1788 -0.0540
  189MPD1    C1 2874   4.508   2.034   0.852 -0.0253 -0.0618 -0.0906
  189MPD1    C2 2875   4.493   2.167   0.873  0.1759  0.0532  0.2763
  189MPD1    C3 2876   4.592   2.264   0.844  1.0266 -0.3302  0.5867
  189MPD1    C4 2877   4.720   2.219   0.809 -0.3222  0.0497  0.2143
  189MPD1    C5 2878   0.014   2.083   0.797 -0.0628 -0.6623 -0.2490
  189MPD1     H 2879   4.396   2.196   0.913 -0.9238  0.7891 -2.9781
  189MPD1    H1 2880   0.074   2.295   0.787  1.1960 -1.2210  1.0203
  189MPD1    H2 2881   4.666   1.890   0.804 -1.4541 -0.2172  0.9294
  189MPD1    H3 2882   0.098   2.043   0.742  1.2540 -0.6269  1.7125
  189MPD1     N 2883   4.547   2.396   0.853  0.5076 -0.0052  0.8211
  189MPD1    H5 2884   4.447   2.409   0.866  1.0806  1.1737  4.0360
  189MPD1    N1 2885   4.413   1.937   0.883 -0.2802  0.2914 -0.7520
  189MPD1    H6 2886   4.319   1.974   0.869  0.0247 -0.0288 -3.7986
  189MPD1    H7 2887   4.425   1.853   0.826  0.7575  0.3771 -0.6594
  190MPD1     C 2888   3.412   0.375  16.376 -0.5725 -0.6958  0.0879
  190MPD1    C1 2889   3.395   0.503  16.426  0.0226 -0.2370 -0.2531
  190MPD1    C2 2890   3.447   0.611  16.352 -0.7024 -0.1765 -0.1796
  190MPD1    C3 2891   3.523   0.592  16.236  0.3026 -0.2457 -0.3725
  190MPD1    C4 2892   3.530   0.462  16.188 -0.1668  0.6925 -0.1925
  190MPD1    C5 2893   3.466   0.358  16.253  0.0435  0.4689  0.0639
  190MPD1     H 2894   3.444   0.709  16.398  2.2788  0.4400 -1.2251
  190MPD1    H1 2895   3.578   0.430  16.096 -0.1076  2.1646 -0.6715
  190MPD1    H2 2896   3.376   0.288  16.430  0.8401 -0.8693  0.7447
  190MPD1    H3 2897   3.468   0.255  16.221  0.5989  0.6455 -0.4674
  190MPD1     N 2898   3.565   0.700  16.161 -0.0791  0.1108 -1.2778
  190MPD1    H5 2899   3.581   0.780  16.222  0.4492 -0.2324 -0.9718
  190MPD1    N1 2900   3.366   0.524  16.562  0.3937 -0.7392  0.0404
  190MPD1    H6 2901   3.310   0.609  16.564  0.7263 -0.4639 -2.1908
  190MPD1    H7 2902   3.321   0.444  16.607  0.4263 -1.5155 -1.3017
  191MPD1     C 2903   3.445   2.118  12.870  0.0506  0.3694 -0.0911
  191MPD1    C1 2904   3.559   2.106  12.794  0.3167 -0.8139 -0.3895
  191MPD1    C2 2905   3.580   2.199  12.696  0.6168 -0.2277  1.0080
  191MPD1    C3 2906   3.491   2.304  12.669  0.0467 -0.5111  0.9742
  191MPD1    C4 2907   3.375   2.305  12.744  0.0094 -0.0734 -0.0509
  191MPD1    C5 2908   3.355   2.218  12.847 -0.5949  0.1698  0.6070
  191MPD1     H 2909   3.675   2.193  12.644  0.8367 -2.6762  1.6875
  191MPD1    H1 2910   3.302   2.385  12.740  1.9260  1.6520 -1.0042
  191MPD1    H2 2911   3.424   2.057  12.957  1.0089  0.3728  0.1490
  191MPD1    H3 2912   3.264   2.229  12.905 -1.9071  0.9515 -1.5791
  191MPD1     N 2913   3.525   2.398  12.569  0.6061  0.4822 -0.9017
  191MPD1    H5 2914   3.621   2.397  12.536  0.5841  1.2650 -0.9753
  191MPD1    N1 2915   3.668   2.029  12.843  0.0323  1.3362 -0.2823
  191MPD1    H6 2916   3.736   1.994  12.776  1.7239  1.0786  1.5590
  191MPD1    H7 2917   3.640   1.955  12.907  2.2044  2.9860  2.6299
  192MPD1     C 2918   3.320   3.193  12.993 -0.2903  0.6035  0.1621
  192MPD1    C1 2919   3.341   3.246  12.871  0.0301  0.3756 -0.9573
  192MPD1    C2 2920   3.380   3.171  12.765  0.4623  0.2755 -0.2002
  192MPD1    C3 2921   3.392   3.032  12.775 -0.2330 -0.2590  0.1812
  192MPD1    C4 2922   3.377   2.981  12.904  0.7378 -0.7834  0.0403
  192MPD1    C5 2923   3.342   3.058  13.011 -0.4935  0.3487  0.5115
  192MPD1     H 2924   3.394   3.215  12.668  0.5365 -1.1296 -0.8246
  192MPD1    H1 2925   3.404   2.879  12.931 -1.1170 -1.0430  0.8584
  192MPD1    H2 2926   3.281   3.256  13.072  0.2498 -0.9347  1.6698
  192MPD1    H3 2927   3.319   3.017  13.109 -0.4754  1.9917  1.2025
  192MPD1     N 2928   3.436   2.943  12.676 -0.8193  0.0122 -0.0617
  192MPD1    H5 2929   3.451   2.847  12.705 -3.4848 -0.1530  0.7889
  192MPD1    N1 2930   3.349   3.384  12.862  0.6358  0.5797  0.0000
  192MPD1    H6 2931   3.312   3.436  12.942  0.4691  0.1338  0.2093
  192MPD1    H7 2932   3.312   3.432  12.780  0.6660 -0.3967 -0.5779
  193MPD1     C 2933   2.345   3.079  16.279 -0.4359  1.0940 -0.1074
  193MPD1    C1 2934   2.434   2.975  16.303 -0.0053  0.2644 -0.6578
  193MPD1    C2 2935   2.516   2.972  16.411 -0.0371 -0.7078  0.9461
  193MPD1    C3 2936   2.517   3.078  16.499  0.1974  0.1404 -0.5993
  193MPD1    C4 2937   2.429   3.185  16.478 -0.9228 -0.1157  0.1537
  193MPD1    C5 2938   2.334   3.181  16.375 -0.3819 -0.5721  0.3623
  193MPD1     H 2939   2.589   2.893  16.423 -1.7660 -2.6751 -1.5674
  193MPD1    H1 2940   2.421   3.270  16.545 -0.4586  0.6957 -0.8117
  193MPD1    H2 2941   2.284   3.083  16.190  1.1507 -3.0242 -1.3387
  193MPD1    H3 2942   2.265   3.264  16.370 -2.8819 -2.6848 -0.0827
  193MPD1     N 2943   2.603   3.095  16.611  0.2922  0.2571  0.0626
  193MPD1    H5 2944   2.593   3.180  16.667  1.8370  0.2290  0.4036
  193MPD1    N1 2945   2.452   2.874  16.206 -0.3957 -0.5574  0.2124
  193MPD1    H6 2946   2.368   2.834  16.163  0.5485 -1.6007 -0.6558
  193MPD1    H7 2947   2.508   2.796  16.238  0.2104 -0.3996 -0.4553
  194MPD1     C 2948   0.259   0.784  16.469 -0.2948 -0.2454 -0.0949
  194MPD1    C1 2949   0.314   0.702  16.367  0.1286 -0.0584 -0.2063
  194MPD1    C2 2950   0.330   0.572  16.400 -0.5408 -0.6560 -0.0277
  194MPD1    C3 2951   0.304   0.530  16.531  0.1739  0.4051 -0.2767
  194MPD1    C4 2952   0.259   0.614  16.629  0.1488 -0.2209 -0.3950
  194MPD1    C5 2953   0.234   0.739  16.593 -0.0280 -0.2579 -0.3131
  194MPD1     H 2954   0.374   0.508  16.325 -2.3196 -1.0353 -0.7583
  194MPD1    H1 2955   0.225   0.568  16.721  1.4757 -1.4635 -0.5388
  194MPD1    H2 2956   0.232   0.888  16.452  0.1677 -0.2781 -1.0046
  194MPD1    H3 2957   0.183   0.811  16.657  0.4927 -0.3857  0.2486
  194MPD1     N 2958   0.348   0.402  16.576 -0.0007  0.0644 -0.2839
  194MPD1    H5 2959   0.357   0.403  16.677  4.6895  2.1874 -0.7285
  194MPD1    N1 2960   0.351   0.754  16.246  0.5986 -0.4285 -0.2610
  194MPD1    H6 2961   0.329   0.852  16.228  2.3227 -0.0310 -0.1628
  194MPD1    H7 2962   0.320   0.706  16.162  1.2297  0.7264 -1.1428
  195MPD1     C 2963   2.320   1.224  17.418  0.5184  0.7403  0.0164
  195MPD1    C1 2964   2.359   1.263  17.546  0.4667 -1.0255 -0.4006
  195MPD1    C2 2965   2.447   1.188  17.612 -0.4453  0.1628  1.1113
  195MPD1    C3 2966   2.490   1.064  17.564 -0.9478  0.2285  0.6413
  195MPD1    C4 2967   2.437   1.012  17.449  0.3423  0.3035  0.0631
  195MPD1    C5 2968   2.361   1.101  17.369 -0.4062  0.3021 -0.1568
  195MPD1     H 2969   2.486   1.232   0.018 -0.4676 -0.3043  1.3502
  195MPD1    H1 2970   2.474   0.918  17.409  1.0696  0.3207  0.6971
  195MPD1    H2 2971   2.280   1.298  17.350 -0.2880  0.2501 -0.0438
  195MPD1    H3 2972   2.359   1.075  17.264  1.1122 -3.1478  0.6696
  195MPD1     N 2973   2.586   0.984  17.637 -0.2656  0.5693 -0.4866
  195MPD1    H5 2974   2.619   0.898  17.596  1.1729  0.5954  0.6075
  195MPD1    N1 2975   2.336   1.395  17.584 -0.4019  0.7364 -0.8415
  195MPD1    H6 2976   2.260   1.440  17.533 -0.1894  1.6148 -0.3860
  195MPD1    H7 2977   2.317   1.402  17.684  0.2601 -0.9777 -0.5927
  196MPD1     C 2978   2.781   1.106   1.253 -0.1172  0.5746 -0.0044
  196MPD1    C1 2979   2.889   1.059   1.326 -0.0171 -0.0738  0.3933
  196MPD1    C2 2980   2.967   1.149   1.395  0.9021  0.1838 -0.0658
  196MPD1    C3 2981   2.938   1.286   1.383  0.1087  0.3186  0.4851
  196MPD1    C4 2982   2.851   1.333   1.289  0.1163  0.0070 -0.5535
  196MPD1    C5 2983   2.775   1.240   1.224 -0.5657 -0.7602 -0.6127
  196MPD1     H 2984   3.034   1.105   1.468  2.5718 -0.6516 -2.1121
  196MPD1    H1 2985   2.817   1.435   1.275 -0.8716 -0.3796 -0.9603
  196MPD1    H2 2986   2.718   1.031   1.209  1.4323  0.0422 -1.3366
  196MPD1    H3 2987   2.693   1.272   1.161  0.2400  0.0318 -1.2541
  196MPD1     N 2988   3.012   1.382   1.463  0.7958 -0.0594  0.5095
  196MPD1    H5 2989   3.000   1.479   1.436 -1.2986 -0.1282  1.1738
  196MPD1    N1 2990   2.893   0.922   1.341  0.0255  0.6082 -1.0696
  196MPD1    H6 2991   2.992   0.896   1.340 -0.0244  0.4386 -1.4472
  196MPD1    H7 2992   2.842   0.871   1.269  2.4218 -0.0791 -2.2781
  197MPD1     C 2993   1.560   4.336   0.277 -0.6412 -0.0263  0.0805
  197MPD1    C1 2994   1.533   4.457   0.212 -0.2717  0.1347  0.1860
  197MPD1    C2 2995   1.527   4.459   0.079  0.0318  0.0698  0.3395
  197MPD1    C3 2996   1.547   4.350  17.676  0.0691 -0.1474 -0.2043
  197MPD1    C4 2997   1.582   4.234   0.057 -0.4427 -0.3544 -0.6615
  197MPD1    C5 2998   1.593   4.230   0.195  0.7037  0.2162 -0.0392
  197MPD1     H 2999   1.491   4.551   0.034  0.8941  0.2152 -0.0542
  197MPD1    H1 3000   1.615   4.148  17.683  0.1623  0.3617 -1.3705
  197MPD1    H2 3001   1.563   4.324   0.385 -1.6975 -1.1012 -0.0153
  197MPD1    H3 3002   1.617   4.131   0.232  1.5917  0.2930 -0.4271
  197MPD1     N 3003   1.552   4.365  17.533  0.4407 -0.1713 -0.2205
  197MPD1    H5 3004   1.591   4.286  17.482 -1.8233 -0.8760 -0.8479
  197MPD1    N1 3005   1.487   4.563   0.289  0.1361 -0.8208 -0.1470
  197MPD1    H6 3006   1.485   4.653   0.241  0.2031 -0.9332 -0.3638
  197MPD1    H7 3007   1.533   4.567   0.380 -0.5438 -0.2646  0.1717
  198MPD1     C 3008   3.176   2.109  15.907  0.0288  0.0054 -0.5769
  198MPD1    C1 3009   3.239   2.102  16.030  0.2836  0.0144 -0.6460
  198MPD1    C2 3010   3.367   2.046  16.035  0.4405  0.0440  0.0825
  198MPD1    C3 3011   3.440   2.024  15.918 -0.3729  1.0233  0.3112
  198MPD1    C4 3012   3.376   2.052  15.798 -0.7435  0.5557 -0.2474
  198MPD1    C5 3013   3.247   2.084  15.787 -0.1827  0.4466 -0.1045
  198MPD1     H 3014   3.414   2.026  16.130  2.8901 -0.3918 -1.1984
  198MPD1    H1 3015   3.427   2.046  15.702  0.3496  2.0666  0.2322
  198MPD1    H2 3016   3.076   2.151  15.900  0.2485  0.8142  1.2447
  198MPD1    H3 3017   3.198   2.103  15.692 -0.8723  0.6753  0.3023
  198MPD1     N 3018   3.576   1.980  15.924 -0.0542 -0.4682 -0.9273
  198MPD1    H5 3019   3.626   1.980  15.836 -0.0807 -1.7081 -0.9331
  198MPD1    N1 3020   3.170   2.136  16.147  0.6868  0.1447 -0.1389
  198MPD1    H6 3021   3.078   2.177  16.142  0.8191  0.7375  2.2471
  198MPD1    H7 3022   3.175   2.053  16.207 -0.0829 -0.9578 -1.5911
  199MPD1     C 3023   1.413   2.019   9.569 -0.2034 -0.3929 -0.4916
  199MPD1    C1 3024   1.296   1.981   9.522  0.4935 -0.4554  0.3981
  199MPD1    C2 3025   1.222   2.074   9.456  0.4181 -0.1386 -0.5701
  199MPD1    C3 3026   1.251   2.205   9.451  0.7490  0.0061 -0.0599
  199MPD1    C4 3027   1.382   2.239   9.480  0.1183 -0.1661 -0.9597
  199MPD1    C5 3028   1.463   2.144   9.534 -0.5169  0.3991 -0.2368
  199MPD1     H 3029   1.121   2.044   9.432 -0.0332  0.9897 -0.0677
  199MPD1    H1 3030   1.406   2.345   9.484 -1.6604  0.2203 -0.6922
  199MPD1    H2 3031   1.477   1.944   9.613 -0.3328 -0.5008 -0.4869
  199MPD1    H3 3032   1.563   2.175   9.560 -0.2467  0.0162 -0.8255
  199MPD1     N 3033   1.168   2.306   9.391  0.6483  0.2434  0.1125
  199MPD1    H5 3034   1.199   2.401   9.376 -0.6294  0.5498 -0.5363
  199MPD1    N1 3035   1.248   1.847   9.551 -0.0806 -0.2726 -0.5738
  199MPD1    H6 3036   1.317   1.773   9.537 -2.2388 -2.5046  0.5622
  199MPD1    H7 3037   1.167   1.819   9.496 -1.0534 -0.2465  0.8450
  200MPD1     C 3038   0.787   2.017  13.647 -0.7537  0.1779  0.0131
  200MPD1    C1 3039   0.855   2.118  13.717  0.0203  0.5376 -0.6133
  200MPD1    C2 3040   0.789   2.223  13.763  0.3108  0.3331 -0.3618
  200MPD1    C3 3041   0.653   2.242  13.733  0.0416  0.6074  0.1291
  200MPD1    C4 3042   0.589   2.147  13.656  0.1154 -0.7511 -0.3552
  200MPD1    C5 3043   0.656   2.035  13.613 -0.1534  0.0672  0.6100
  200MPD1     H 3044   0.846   2.291  13.825  0.0679 -1.1342  1.4860
  200MPD1    H1 3045   0.484   2.143  13.631 -0.2995  0.9678  1.1094
  200MPD1    H2 3046   0.839   1.928  13.613 -1.9896 -0.5431  0.0237
  200MPD1    H3 3047   0.607   1.961  13.550  0.3770  1.6842 -1.6961
  200MPD1     N 3048   0.587   2.349  13.798  0.3343 -0.0538  0.4730
  200MPD1    H5 3049   0.649   2.400  13.859  0.3205 -0.9424  1.2242
  200MPD1    N1 3050   0.986   2.097  13.761 -0.1197 -0.1986  0.4347
  200MPD1    H6 3051   1.047   2.044  13.699 -0.6170  0.1863 -0.3794
  200MPD1    H7 3052   1.035   2.184  13.781  0.4928 -0.8177  1.6387
  201MPD1     C 3053   4.049   0.879  12.859 -0.5100  0.0259  0.4633
  201MPD1    C1 3054   3.987   0.958  12.763 -0.4415  0.4853 -0.5002
  201MPD1    C2 3055   3.879   1.045  12.800  0.1207 -0.2017 -0.3330
  201MPD1    C3 3056   3.837   1.043  12.934 -0.4451  0.6115 -0.0204
  201MPD1    C4 3057   3.906   0.969  13.030  0.1326 -0.6449 -0.6755
  201MPD1    C5 3058   4.004   0.884  12.989 -0.4488  0.5711  0.5690
  201MPD1     H 3059   3.838   1.114  12.727 -0.5851 -0.3652 -0.0922
  201MPD1    H1 3060   3.881   0.972  13.136 -0.5374  0.3222 -0.8588
  201MPD1    H2 3061   4.137   0.819  12.842 -1.5640 -0.6122 -2.7140
  201MPD1    H3 3062   4.060   0.823  13.059 -2.5065 -2.3023 -0.3088
  201MPD1     N 3063   3.717   1.120  12.958  0.0619  0.6876 -0.0033
  201MPD1    H5 3064   3.677   1.164  12.876 -2.8794 -2.9429 -0.5219
  201MPD1    N1 3065   4.040   0.959  12.632 -0.4557 -0.4934 -0.2545
  201MPD1    H6 3066   4.079   0.868  12.610 -0.1909  0.2726 -2.8926
  201MPD1    H7 3067   3.973   0.974  12.557  1.5895  3.0537 -1.3435
  202MPD1     C 3068   2.315   0.910   9.134 -0.6982  0.2055 -0.0228
  202MPD1    C1 3069   2.285   1.031   9.189  0.0564 -0.0443  0.6334
  202MPD1    C2 3070   2.366   1.065   9.294  0.0035 -0.3705 -0.2572
  202MPD1    C3 3071   2.461   0.976   9.341 -0.5651 -0.8520 -0.0981
  202MPD1    C4 3072   2.465   0.845   9.300  0.1588  0.3532 -0.6685
  202MPD1    C5 3073   2.392   0.817   9.188  0.3977 -0.1995  0.0047
  202MPD1     H 3074   2.380   1.172   9.310 -0.1437 -0.5434  1.0318
  202MPD1    H1 3075   2.523   0.773   9.357 -2.4709 -0.4940  0.9049
  202MPD1    H2 3076   2.270   0.881   9.040 -4.3193  1.0906  1.4146
  202MPD1    H3 3077   2.385   0.715   9.153 -0.0247 -0.6525  1.3911
  202MPD1     N 3078   2.555   1.003   9.442  0.5075 -0.7139  0.7652
  202MPD1    H5 3079   2.620   0.928   9.465  0.8907 -1.2963 -2.1541
  202MPD1    N1 3080   2.232   1.132   9.109  0.2282 -0.4034  0.1897
  202MPD1    H6 3081   2.186   1.202   9.167  0.1139 -0.7678  0.5445
  202MPD1    H7 3082   2.165   1.110   9.036  2.1171 -3.0712 -0.7480
  203MPD1     C 3083   1.658   2.430  12.453 -0.1298 -0.6179 -0.4752
  203MPD1    C1 3084   1.685   2.391  12.579  0.2779  0.3638 -0.3968
  203MPD1    C2 3085   1.690   2.255  12.604  0.2865 -0.1531 -0.3089
  203MPD1    C3 3086   1.652   2.156  12.514  0.4756 -0.4860 -0.5562
  203MPD1    C4 3087   1.626   2.198  12.386  0.3704  0.1321 -0.1518
  203MPD1    C5 3088   1.635   2.339  12.358  0.0333 -0.5642 -0.1314
  203MPD1     H 3089   1.717   2.225  12.704  0.4199  1.2587  0.0796
  203MPD1    H1 3090   1.590   2.139  12.303  1.1960 -1.4179  0.5956
  203MPD1    H2 3091   1.647   2.530  12.413 -1.1436 -0.7388 -0.4992
  203MPD1    H3 3092   1.601   2.371  12.260 -2.7895 -1.4774  0.5409
  203MPD1     N 3093   1.636   2.026  12.565  0.5226  0.1976  0.0191
  203MPD1    H5 3094   1.652   2.011  12.664 -0.3097 -0.9277 -0.0064
  203MPD1    N1 3095   1.719   2.483  12.682  0.0408 -0.1939  0.1109
  203MPD1    H6 3096   1.712   2.581  12.656 -1.6428 -0.3032  0.1573
  203MPD1    H7 3097   1.672   2.460  12.770 -0.4881  2.3362  0.4843
  204MPD1     C 3098   0.386   3.520   0.653 -0.1671 -0.3329  0.2251
  204MPD1    C1 3099   0.435   3.562   0.530 -0.6201 -0.5998 -0.2905
  204MPD1    C2 3100   0.443   3.466   0.427 -1.1309  0.5045  0.5654
  204MPD1    C3 3101   0.401   3.336   0.449  0.4127  0.1451  0.1943
  204MPD1    C4 3102   0.343   3.303   0.571 -0.8548  0.4777 -0.4061
  204MPD1    C5 3103   0.336   3.394   0.670 -0.5679  0.2164  0.2642
  204MPD1     H 3104   0.488   3.483   0.330 -0.3106 -1.7012  0.5684
  204MPD1    H1 3105   0.304   3.206   0.598  3.0916 -0.8729  0.5249
  204MPD1    H2 3106   0.372   3.590   0.734 -0.3224  1.0148 -0.9545
  204MPD1    H3 3107   0.299   3.364   0.767  0.4211 -2.2977 -0.1461
  204MPD1     N 3108   0.424   3.241   0.347  0.7762  0.2146  0.0181
  204MPD1    H5 3109   0.465   3.282   0.264 -0.5248  1.1093 -0.1724
  204MPD1    N1 3110   0.471   3.698   0.512 -0.0386 -0.8651 -0.0545
  204MPD1    H6 3111   0.486   3.745   0.601 -0.6466  0.2671 -0.5527
  204MPD1    H7 3112   0.553   3.695   0.452  0.4303  0.0181  0.5453
  205MPD1     C 3113   0.571   2.239  16.680  0.2331 -0.2951  0.5066
  205MPD1    C1 3114   0.655   2.137  16.713  0.2124 -0.1056 -0.0307
  205MPD1    C2 3115   0.686   2.111  16.847  0.3878  0.6841  0.1775
  205MPD1    C3 3116   0.617   2.179  16.951  0.2098  0.4791  0.7306
  205MPD1    C4 3117   0.527   2.276  16.917  0.3001 -0.1180  1.0551
  205MPD1    C5 3118   0.502   2.302  16.779 -0.1764 -0.2524  0.6368
  205MPD1     H 3119   0.769   2.043  16.864 -0.5389 -0.4847  0.0462
  205MPD1    H1 3120   0.468   2.333  16.988  0.0562 -0.2089  0.9241
  205MPD1    H2 3121   0.545   2.270  16.579  1.4700  1.6336  0.7756
  205MPD1    H3 3122   0.419   2.370  16.762  0.4750  0.7242  1.3440
  205MPD1     N 3123   0.629   2.141  17.087  0.5516  0.1845 -0.7579
  205MPD1    H5 3124   0.572   2.193  17.154  0.4604 -0.4882 -0.3151
  205MPD1    N1 3125   0.734   2.080  16.612  0.5342  0.2346 -0.1625
  205MPD1    H6 3126   0.682   2.088  16.525  0.9910  1.1708 -0.3527
  205MPD1    H7 3127   0.762   1.985  16.637  0.8269 -0.2478 -2.2859
  206MPD1     C 3128   0.718   0.686  16.856  0.1967  0.0991  0.1504
  206MPD1    C1 3129   0.758   0.562  16.810 -0.2005 -0.4134  0.2264
  206MPD1    C2 3130   0.738   0.537  16.671  0.2436 -0.2455 -0.0522
  206MPD1    C3 3131   0.672   0.631  16.594 -0.6884  0.0900  0.0795
  206MPD1    C4 3132   0.628   0.748  16.646  0.7290 -0.2813  0.0291
  206MPD1    C5 3133   0.653   0.776  16.771  0.2715 -0.9836 -0.1420
  206MPD1     H 3134   0.780   0.449  16.624 -2.3086 -1.2282 -0.5047
  206MPD1    H1 3135   0.562   0.814  16.592  1.8536  0.5901 -0.2750
  206MPD1    H2 3136   0.730   0.710  16.961  0.3059 -2.4893  0.7350
  206MPD1    H3 3137   0.611   0.865  16.816 -0.8492 -0.5004 -2.1428
  206MPD1     N 3138   0.643   0.615  16.457 -0.3839 -0.3142 -0.1389
  206MPD1    H5 3139   0.585   0.683  16.409 -0.3666 -0.0605  0.1960
  206MPD1    N1 3140   0.835   0.475  16.892 -0.1396 -0.4840  0.5232
  206MPD1    H6 3141   0.825   0.376  16.870 -1.4868 -0.0348 -0.9083
  206MPD1    H7 3142   0.827   0.490  16.992  1.2488  3.5686  0.0204
  207MPD1     C 3143   3.146   2.102   9.726  0.2619  0.7546  0.1570
  207MPD1    C1 3144   3.200   2.218   9.676 -0.9619 -0.5299 -0.6049
  207MPD1    C2 3145   3.289   2.290   9.762  0.4660 -0.0559 -0.2957
  207MPD1    C3 3146   3.328   2.234   9.880  0.3216  0.0224  0.1461
  207MPD1    C4 3147   3.270   2.116   9.929 -0.3685 -0.6200 -0.3593
  207MPD1    C5 3148   3.175   2.057   9.853 -0.5277  0.2296  0.6935
  207MPD1     H 3149   3.337   2.381   9.730  3.0569 -1.5171 -0.5356
  207MPD1    H1 3150   3.307   2.071  10.021 -1.8174 -0.8429  0.1078
  207MPD1    H2 3151   3.077   2.045   9.664 -1.3752  2.6523  0.2350
  207MPD1    H3 3152   3.132   1.967   9.896  0.2811 -0.5775 -0.2142
  207MPD1     N 3153   3.429   2.292   9.961 -0.1088 -0.0359 -0.5196
  207MPD1    H5 3154   3.440   2.245  10.051 -2.2203  0.8360  0.1952
  207MPD1    N1 3155   3.193   2.249   9.537 -0.3625 -0.1996  0.1491
  207MPD1    H6 3156   3.197   2.350   9.529  0.4749 -0.3727 -1.4482
  207MPD1    H7 3157   3.113   2.200   9.498  1.3114 -0.9253 -2.3520
  208MPD1     C 3158   2.100   2.331   0.240 -0.1067 -0.3182 -0.4100
  208MPD1    C1 3159   2.069   2.310   0.371  0.1040  0.1465 -0.4505
  208MPD1    C2 3160   1.983   2.206   0.404 -0.3120 -0.2440 -0.0590
  208MPD1    C3 3161   1.932   2.124   0.300 -0.2441 -0.5966 -0.5501
  208MPD1    C4 3162   1.978   2.138   0.175 -0.3726 -0.0859 -0.6617
  208MPD1    C5 3163   2.066   2.242   0.148  0.5482 -0.0222  0.7243
  208MPD1     H 3164   1.966   2.188   0.509  0.2370 -1.5331 -0.1901
  208MPD1    H1 3165   1.968   2.060   0.101  2.9766 -0.8997 -0.2752
  208MPD1    H2 3166   2.170   2.407   0.209 -0.4291  1.2235  2.5962
  208MPD1    H3 3167   2.115   2.249   0.052  0.1455  0.2050  0.5415
  208MPD1     N 3168   1.862   2.007   0.329 -0.2723 -0.1657 -0.5997
  208MPD1    H5 3169   1.841   1.996   0.428  1.1029  1.2178 -0.1513
  208MPD1    N1 3170   2.112   2.399   0.465 -0.7695  0.7398 -0.9264
  208MPD1    H6 3171   2.197   2.455   0.455  0.6530 -0.8431  2.1564
  208MPD1    H7 3172   2.121   2.352   0.555 -1.8412 -1.4340 -1.9690
  209MPD1     C 3173   4.213   1.507  11.556 -0.0567 -0.1402 -0.6862
  209MPD1    C1 3174   4.268   1.631  11.569 -0.9967 -0.0207 -0.4034
  209MPD1    C2 3175   4.271   1.714  11.465 -0.0477  0.2111  0.3737
  209MPD1    C3 3176   4.211   1.688  11.340  0.1301  0.0075  0.0692
  209MPD1    C4 3177   4.159   1.561  11.329  1.2190  0.2005  0.1482
  209MPD1    C5 3178   4.163   1.473  11.435 -0.5616  0.2550 -0.5687
  209MPD1     H 3179   4.327   1.806  11.472  2.5024 -1.2639 -0.8163
  209MPD1    H1 3180   4.101   1.532  11.243  1.5566  1.6289 -0.5499
  209MPD1    H2 3181   4.212   1.440  11.641 -0.5583 -1.0073 -1.3790
  209MPD1    H3 3182   4.119   1.374  11.425 -1.2154  0.2894  2.0417
  209MPD1     N 3183   4.215   1.787  11.236  0.1679  0.5246  0.2558
  209MPD1    H5 3184   4.259   1.875  11.258  0.2978  0.0182  1.9964
  209MPD1    N1 3185   4.338   1.655  11.683  0.0715  0.2049 -0.5824
  209MPD1    H6 3186   4.299   1.608  11.764  1.1122  0.1919 -0.0876
  209MPD1    H7 3187   4.347   1.751  11.716 -1.7467  0.8819 -2.0563
  210MPD1     C 3188   0.221   2.116  11.161 -1.0021 -0.2002  0.4737
  210MPD1    C1 3189   0.183   2.133  11.035  0.2265  0.1353  0.0911
  210MPD1    C2 3190   0.048   2.111  11.000 -0.8076  0.2495 -0.5161
  210MPD1    C3 3191   4.680   2.101  11.110 -0.2526  0.1470  0.3205
  210MPD1    C4 3192   4.715   2.101  11.245  0.0050 -0.1343 -0.3582
  210MPD1    C5 3193   0.131   2.112  11.265 -0.3840  0.3742 -0.8670
  210MPD1     H 3194   0.021   2.102  10.895 -0.9601  1.4020 -0.5707
  210MPD1    H1 3195   4.638   2.089  11.320  0.5240  2.6329  0.6212
  210MPD1    H2 3196   0.325   2.124  11.189 -0.9620  2.5284 -0.4365
  210MPD1    H3 3197   0.162   2.102  11.368  0.5369  0.1443 -1.1643
  210MPD1     N 3198   4.541   2.082  11.087 -0.0524  0.2000 -0.4060
  210MPD1    H5 3199   4.490   2.064  11.173  1.5313  0.1798  0.5341
  210MPD1    N1 3200   0.275   2.132  10.927  0.0173  0.1671 -0.0504
  210MPD1    H6 3201   0.363   2.173  10.958 -0.3954  0.9040  0.1366
  210MPD1    H7 3202   0.245   2.174  10.840  0.9063  0.0487 -0.4075
  211MPD1     C 3203   1.211   1.771  16.658  0.6233 -0.1814 -0.8030
  211MPD1    C1 3204   1.083   1.780  16.618 -0.7593  0.2157  0.7746
  211MPD1    C2 3205   1.014   1.901  16.598 -0.1971 -0.2318  0.0008
  211MPD1    C3 3206   1.093   2.014  16.620 -0.0649 -0.5926 -0.7151
  211MPD1    C4 3207   1.233   2.005  16.646  0.7841 -0.0872  0.2247
  211MPD1    C5 3208   1.285   1.888  16.667 -0.5077 -0.2573  0.3033
  211MPD1     H 3209   0.909   1.906  16.573 -0.9643  0.5754  3.3524
  211MPD1    H1 3210   1.303   2.086  16.657  1.3434 -0.2649 -2.0110
  211MPD1    H2 3211   1.259   1.675  16.667  2.1974  0.7411  0.7786
  211MPD1    H3 3212   1.391   1.882  16.691 -1.0215 -1.2244  2.2897
  211MPD1     N 3213   1.019   2.136  16.609 -0.1750  0.0698  0.2598
  211MPD1    H5 3214   0.918   2.131  16.620 -0.1254  1.6821  1.3814
  211MPD1    N1 3215   1.011   1.664  16.590  1.0782  0.4387 -0.0452
  211MPD1    H6 3216   1.028   1.586  16.653 -0.7105 -0.0697 -0.1966
  211MPD1    H7 3217   0.913   1.678  16.568  1.2232  2.6709  0.6496
  212MPD1     C 3218   4.685   0.913  16.013  0.1111 -0.0002  0.1009
  212MPD1    C1 3219   4.580   0.964  16.086  0.1889 -0.3209 -0.4987
  212MPD1    C2 3220   4.555   0.902  16.203  0.6427  0.6339 -0.5386
  212MPD1    C3 3221   4.635   0.800  16.254  0.0275  0.1601 -0.5205
  212MPD1    C4 3222   0.010   0.745  16.173 -0.6140 -0.0022 -0.4262
  212MPD1    C5 3223   0.039   0.810  16.055  0.0431 -0.2296  0.3141
  212MPD1     H 3224   4.479   0.952  16.262 -1.3485  0.9181 -3.2920
  212MPD1    H1 3225   0.063   0.650  16.180  2.7708  1.7891 -1.7637
  212MPD1    H2 3226   4.695   0.952  15.912 -1.4983 -1.0140 -0.4582
  212MPD1    H3 3227   0.120   0.768  15.996 -0.4649  0.8045 -1.1182
  212MPD1     N 3228   4.622   0.732  16.378 -0.6662 -0.0265  0.3466
  212MPD1    H5 3229   4.669   0.642  16.382 -0.0116  0.3708  1.5287
  212MPD1    N1 3230   4.469   1.041  16.039  0.0459  0.4492  0.2872
  212MPD1    H6 3231   4.410   1.087  16.108 -2.3532  0.0026 -1.4646
  212MPD1    H7 3232   4.500   1.104  15.965 -0.5519 -1.0395 -1.2235
  213MPD1     C 3233   2.958   1.233  16.238  0.1553  0.1496 -0.0648
  213MPD1    C1 3234   2.926   1.134  16.148 -0.4023 -0.1474 -0.5913
  213MPD1    C2 3235   2.885   1.181  16.025 -0.4572 -0.5324 -0.1001
  213MPD1    C3 3236   2.906   1.314  15.984 -0.4315 -0.2800  0.1268
  213MPD1    C4 3237   2.959   1.406  16.070  0.5102 -0.0119 -0.3647
  213MPD1    C5 3238   2.977   1.362  16.194  0.2921  0.6286  0.1125
  213MPD1     H 3239   2.831   1.113  15.960  2.2594 -1.0374 -1.7898
  213MPD1    H1 3240   2.970   1.511  16.046  2.2116 -0.3915 -1.2114
  213MPD1    H2 3241   2.991   1.219  16.341 -1.3656  0.0797  0.4202
  213MPD1    H3 3242   3.002   1.433  16.273 -0.4951 -0.1162  1.0413
  213MPD1     N 3243   2.886   1.336  15.845  0.2964 -0.7419  0.5711
  213MPD1    H5 3244   2.846   1.254  15.801 -1.4042  0.1887  0.4066
  213MPD1    N1 3245   2.876   1.012  16.191 -0.2138  0.5583  0.1171
  213MPD1    H6 3246   2.938   0.986  16.267 -1.1775  1.9590  1.3854
  213MPD1    H7 3247   2.885   0.945  16.114  0.0207 -0.6510  1.2036
  214MPD1     C 3248   2.143   1.312  15.410 -0.1583  0.2672 -0.0779
  214MPD1    C1 3249   2.225   1.390  15.339 -0.2028 -0.2734  0.2912
  214MPD1    C2 3250   2.363   1.391  15.359 -0.4937 -0.0491 -0.2944
  214MPD1    C3 3251   2.419   1.323  15.465  0.0457  0.1064 -0.2934
  214MPD1    C4 3252   2.332   1.254  15.550  0.2094 -0.5590  0.3959
  214MPD1    C5 3253   2.193   1.244  15.521  0.1753 -0.2993 -0.2180
  214MPD1     H 3254   2.430   1.447  15.295  1.1419  0.0792  1.5102
  214MPD1    H1 3255   2.367   1.190  15.631  1.4883  0.3224  0.5277
  214MPD1    H2 3256   2.036   1.322  15.394 -0.3952 -3.8230 -0.9277
  214MPD1    H3 3257   2.126   1.176  15.573  0.5278 -1.1648 -0.9104
  214MPD1     N 3258   2.561   1.315  15.481  0.3352 -0.5651 -0.2454
  214MPD1    H5 3259   2.591   1.262  15.563 -1.6642 -1.8644 -0.3444
  214MPD1    N1 3260   2.170   1.460  15.227  0.7664  0.1207 -0.9696
  214MPD1    H6 3261   2.078   1.503  15.234 -0.4033 -2.2773 -1.7947
  214MPD1    H7 3262   2.231   1.541  15.215  3.4033 -1.6480  0.2931
  215MPD1     C 3263   3.406   1.269  10.791  0.2879 -0.4670  0.2759
  215MPD1    C1 3264   3.516   1.268  10.872  0.4457 -0.6404  0.1137
  215MPD1    C2 3265   3.580   1.389  10.902  0.7314  0.4111 -0.0587
  215MPD1    C3 3266   3.541   1.499  10.837 -0.2146  0.0866 -0.5395
  215MPD1    C4 3267   3.439   1.492  10.743 -0.2702  0.6766 -0.1875
  215MPD1    C5 3268   3.369   1.379  10.725 -0.6118 -0.1303 -0.2814
  215MPD1     H 3269   3.650   1.402  10.984  1.9339 -0.6217 -0.9177
  215MPD1    H1 3270   3.403   1.572  10.679 -0.6766  0.5431 -0.1296
  215MPD1    H2 3271   3.349   1.180  10.767 -1.1104  0.2651  0.8481
  215MPD1    H3 3272   3.291   1.383  10.649 -1.3077 -0.6430  0.4012
  215MPD1     N 3273   3.611   1.620  10.864  0.1061 -0.5282 -0.4929
  215MPD1    H5 3274   3.675   1.616  10.942  0.9602 -2.6809 -1.3238
  215MPD1    N1 3275   3.532   1.156  10.955  0.4835  0.6396 -0.1822
  215MPD1    H6 3276   3.619   1.169  11.006  0.9797 -3.1430 -0.1175
  215MPD1    H7 3277   3.536   1.067  10.907 -2.6453  1.2852 -1.6852
  216MPD1     C 3278   0.299   0.376  17.501 -0.0789 -0.5563 -0.5220
  216MPD1    C1 3279   0.181   0.337  17.562 -1.0253 -0.5660  0.9669
  216MPD1    C2 3280   0.090   0.255  17.498  0.1250  0.1170  0.2414
  216MPD1    C3 3281   0.115   0.216  17.365 -0.4875  0.2987  0.7133
  216MPD1    C4 3282   0.231   0.255  17.306 -0.9125  0.4044 -0.4747
  216MPD1    C5 3283   0.318   0.337  17.371 -1.1095  0.4711  0.0653
  216MPD1     H 3284   0.002   0.216  17.548 -1.7263 -0.6260 -3.5482
  216MPD1    H1 3285   0.261   0.224  17.206 -0.5020 -0.1763 -0.1725
  216MPD1    H2 3286   0.376   0.443  17.538 -1.5893 -0.1330  1.8696
  216MPD1    H3 3287   0.407   0.380  17.326 -0.2018 -0.8680  0.5826
  216MPD1     N 3288   0.025   0.136  17.304 -0.3498  0.5021  0.0267
  216MPD1    H5 3289   4.673   0.101  17.365 -0.6576  0.1485 -0.5380
  216MPD1    N1 3290   0.158   0.365   0.017 -0.0558  0.2938 -0.0031
  216MPD1    H6 3291   0.204   0.449   0.052  2.7610 -0.9501 -0.7607
  216MPD1    H7 3292   0.061   0.375   0.048  0.2113  2.0232  0.2523
  217MPD1     C 3293   2.058   0.023   9.593  0.5440  0.6721  0.1732
  217MPD1    C1 3294   1.952   0.078   9.520 -0.4370 -0.2281 -0.1227
  217MPD1    C2 3295   1.952   0.214   9.486 -0.1164 -0.4169 -0.5343
  217MPD1    C3 3296   2.064   0.289   9.514 -0.0945  0.4418  0.0633
  217MPD1    C4 3297   2.171   0.235   9.583 -0.1310 -0.3513  0.1367
  217MPD1    C5 3298   2.165   0.106   9.626  0.5198 -0.3395 -0.0854
  217MPD1     H 3299   1.870   0.261   9.433  1.3619  0.7081 -1.8258
  217MPD1    H1 3300   2.258   0.295   9.607  1.1181 -1.5207 -1.5090
  217MPD1    H2 3301   2.062   4.645   9.639 -3.3168 -0.4700 -1.9124
  217MPD1    H3 3302   2.244   0.071   9.691  2.1208  2.2691 -0.6222
  217MPD1     N 3303   2.090   0.416   9.470 -0.1356 -0.3906 -0.0333
  217MPD1    H5 3304   2.183   0.455   9.481 -0.0203 -1.0517  1.2786
  217MPD1    N1 3305   1.836   0.005   9.495 -0.7809 -0.2797  0.0147
  217MPD1    H6 3306   1.770   0.041   9.425  0.3375 -0.5269 -1.1669
  217MPD1    H7 3307   1.853   4.626   9.489  0.3047  0.0228 -1.9302
  218MPD1     C 3308   2.810   1.828  12.649  0.4300 -0.4988 -0.1667
  218MPD1    C1 3309   2.886   1.940  12.609 -0.2231 -0.0194 -0.4131
  218MPD1    C2 3310   3.021   1.908  12.586  0.1188  0.4780 -0.2520
  218MPD1    C3 3311   3.088   1.794  12.627 -0.4141 -0.3765  0.4646
  218MPD1    C4 3312   3.014   1.706  12.694 -0.3008  1.0683 -0.4216
  218MPD1    C5 3313   2.875   1.720  12.695  0.6352  0.9406  0.4815
  218MPD1     H 3314   3.082   1.974  12.524  2.2031 -2.2924 -1.1381
  218MPD1    H1 3315   3.050   1.609  12.724  0.6094  0.9871 -1.7465
  218MPD1    H2 3316   2.702   1.836  12.653  0.2616 -3.5826  1.8587
  218MPD1    H3 3317   2.821   1.636  12.737  0.6789  0.1348 -1.0658
  218MPD1     N 3318   3.229   1.790  12.611 -0.0834  0.4828  0.7846
  218MPD1    H5 3319   3.283   1.864  12.566  0.8021 -0.7928 -0.2408
  218MPD1    N1 3320   2.825   2.054  12.561  0.1045 -0.2000 -0.2662
  218MPD1    H6 3321   2.737   2.076  12.608  0.1544 -0.3062 -0.1202
  218MPD1    H7 3322   2.882   2.138  12.570 -0.6924  0.2675  0.4928
  219MPD1     C 3323   3.707   2.285  12.129  0.3104  0.2098  0.2324
  219MPD1    C1 3324   3.781   2.172  12.120  0.1002 -0.0054 -0.6418
  219MPD1    C2 3325   3.760   2.073  12.217 -0.5627 -0.0675 -0.2747
  219MPD1    C3 3326   3.658   2.083  12.311 -0.5500  0.1487  0.3133
  219MPD1    C4 3327   3.580   2.190  12.305  0.1028  0.2660  0.4460
  219MPD1    C5 3328   3.607   2.294  12.218 -0.0340  0.2842  0.2560
  219MPD1     H 3329   3.821   1.984  12.229  3.1376  1.9212 -4.1052
  219MPD1    H1 3330   3.507   2.202  12.384 -1.2608 -1.6024 -0.5154
  219MPD1    H2 3331   3.725   2.370  12.065 -0.7215 -0.3046 -0.7155
  219MPD1    H3 3332   3.554   2.388  12.218 -0.2469  0.1634 -0.0669
  219MPD1     N 3333   3.632   1.990  12.410  0.7072 -0.2775 -0.4019
  219MPD1    H5 3334   3.552   2.021  12.464 -0.7565 -0.5787 -2.4046
  219MPD1    N1 3335   3.893   2.154  12.039  0.4021 -0.2386 -0.0295
  219MPD1    H6 3336   3.901   2.055  12.016 -0.4688 -0.0080 -1.3664
  219MPD1    H7 3337   3.872   2.196  11.948  3.2600  0.2089 -0.5037
  220MPD1     C 3338   3.228   3.150   9.715 -0.0191  0.7449  0.6716
  220MPD1    C1 3339   3.225   3.162   9.846  0.2791  0.0202 -0.1259
  220MPD1    C2 3340   3.183   3.052   9.921  0.6199  0.3594  0.2507
  220MPD1    C3 3341   3.155   2.934   9.864  0.2794  0.0820 -0.1734
  220MPD1    C4 3342   3.185   2.918   9.728 -0.7465  0.0975 -0.2272
  220MPD1    C5 3343   3.205   3.030   9.661 -0.3958 -1.2633 -0.4379
  220MPD1     H 3344   3.179   3.064  10.029 -1.2471 -0.5095  0.2784
  220MPD1    H1 3345   3.187   2.823   9.677 -2.9253 -0.0349 -0.0421
  220MPD1    H2 3346   3.248   3.238   9.653  0.0860 -0.2855 -0.7623
  220MPD1    H3 3347   3.207   3.016   9.553 -0.5789  0.8574 -0.7026
  220MPD1     N 3348   3.130   2.819   9.940  0.4313  0.3764  1.2901
  220MPD1    H5 3349   3.127   2.829  10.041  2.4097 -0.7716  1.4473
  220MPD1    N1 3350   3.230   3.287   9.899 -0.8947 -0.4105 -0.3462
  220MPD1    H6 3351   3.283   3.359   9.852 -0.1971 -0.3316  0.5724
  220MPD1    H7 3352   3.255   3.277   9.997 -0.5297  0.0272 -0.3985
  221MPD1     C 3353   0.274   1.801  17.070  0.6416  0.3708 -0.2852
  221MPD1    C1 3354   0.186   1.760  16.977  0.1824  0.2154 -0.3745
  221MPD1    C2 3355   0.226   1.750  16.846  0.4461 -0.3596 -0.0803
  221MPD1    C3 3356   0.354   1.788  16.812  0.2282 -0.2025  0.3753
  221MPD1    C4 3357   0.445   1.826  16.912 -0.3152  0.6148 -0.4196
  221MPD1    C5 3358   0.406   1.814  17.044 -0.8669 -0.1038 -0.1406
  221MPD1     H 3359   0.160   1.720  16.766  2.6545 -0.3563 -1.9064
  221MPD1    H1 3360   0.548   1.852  16.890 -0.4500  0.4358 -1.2559
  221MPD1    H2 3361   0.241   1.834  17.168 -3.1875 -0.4544 -1.3065
  221MPD1    H3 3362   0.473   1.854  17.118  0.5556 -0.6551 -1.1403
  221MPD1     N 3363   0.410   1.778  16.682  0.4300 -0.2423 -0.2556
  221MPD1    H5 3364   0.509   1.800  16.679  0.6089 -1.0142 -0.0645
  221MPD1    N1 3365   0.050   1.759  17.015  0.3241 -0.4823 -0.0153
  221MPD1    H6 3366   4.705   1.695  16.971  3.0220 -0.2413 -4.3860
  221MPD1    H7 3367   0.039   1.754  17.116  0.4774  0.6897  0.0640
  222MPD1     C 3368   0.422   0.421  17.015 -0.2840 -0.9774  0.0491
  222MPD1    C1 3369   0.299   0.418  16.953 -0.2326  0.0598  0.5560
  222MPD1    C2 3370   0.221   0.532  16.950 -0.1174  0.1059  0.2903
  222MPD1    C3 3371   0.258   0.645  17.008 -0.3280  0.5623 -0.0890
  222MPD1    C4 3372   0.378   0.650  17.071 -0.1207 -0.4964  0.1339
  222MPD1    C5 3373   0.459   0.539  17.069  0.3918 -0.8206  0.5150
  222MPD1     H 3374   0.124   0.526  16.900 -1.1771  0.9250  2.2403
  222MPD1    H1 3375   0.419   0.737  17.121  0.7370  0.6744 -2.6495
  222MPD1    H2 3376   0.487   0.335  17.016 -0.5466 -1.2125 -2.5440
  222MPD1    H3 3377   0.556   0.545  17.118 -0.2333  2.2946  1.3700
  222MPD1     N 3378   0.181   0.767  17.008 -0.0810 -0.0937  0.7129
  222MPD1    H5 3379   0.227   0.849  17.048  1.6958 -0.2709 -1.0020
  222MPD1    N1 3380   0.259   0.304  16.883 -0.2349  0.3142 -0.0041
  222MPD1    H6 3381   0.160   0.294  16.865 -0.1394  0.8389 -0.8242
  222MPD1    H7 3382   0.288   0.224  16.939  2.3079  1.4380  0.2913
  223MPD1     C 3383   4.120   1.484  16.710  0.4977 -0.0647  0.3361
  223MPD1    C1 3384   4.122   1.457  16.850 -0.0964 -0.7531  0.6697
  223MPD1    C2 3385   4.225   1.382  16.904  0.5241  0.1764  0.3114
  223MPD1    C3 3386   4.323   1.327  16.819  0.1671 -0.2376  0.4928
  223MPD1    C4 3387   4.308   1.343  16.679 -0.5280 -0.0896 -1.0179
  223MPD1    C5 3388   4.203   1.422  16.628  0.3646 -0.1738  0.1546
  223MPD1     H 3389   4.219   1.353  17.009  1.6548  0.4775  0.4533
  223MPD1    H1 3390   4.371   1.302  16.601  1.1378 -0.9748  0.8034
  223MPD1    H2 3391   4.037   1.539  16.666  0.3667 -1.1301 -0.7536
  223MPD1    H3 3392   4.189   1.426  16.520 -0.1282 -2.9136  0.1049
  223MPD1     N 3393   4.415   1.242  16.882  0.6286  0.1660 -0.8073
  223MPD1    H5 3394   4.416   1.251  16.983 -1.6731  2.6960 -0.9886
  223MPD1    N1 3395   4.036   1.530  16.935  0.1428  0.0732  0.2822
  223MPD1    H6 3396   3.949   1.563  16.895  0.6924 -0.2489 -1.1646
  223MPD1    H7 3397   4.017   1.489  17.027  0.2315  0.1978  0.3569
  224MPD1     C 3398   2.025   2.775   9.365  0.4485 -0.1781 -0.3331
  224MPD1    C1 3399   2.096   2.770   9.480 -0.7281 -0.6710 -0.3319
  224MPD1    C2 3400   2.111   2.647   9.544 -0.1280  0.1472  0.6918
  224MPD1    C3 3401   2.048   2.538   9.502  0.4117  0.6468 -0.5648
  224MPD1    C4 3402   1.966   2.547   9.390 -0.1414 -0.8938 -0.3490
  224MPD1    C5 3403   1.958   2.663   9.321 -0.6209  0.5754 -0.1626
  224MPD1     H 3404   2.172   2.634   9.633  0.5643  0.2028  0.2235
  224MPD1    H1 3405   1.905   2.463   9.359  0.6665 -2.1468  1.4743
  224MPD1    H2 3406   2.008   2.868   9.311 -2.4103  0.4095  1.5703
  224MPD1    H3 3407   1.892   2.686   9.237 -0.5563 -0.5306 -0.5213
  224MPD1     N 3408   2.047   2.413   9.572 -0.5063 -0.7451  0.2393
  224MPD1    H5 3409   1.981   2.339   9.550 -0.1869 -0.5010 -1.6117
  224MPD1    N1 3410   2.188   2.878   9.513 -0.3672 -0.7866 -0.3671
  224MPD1    H6 3411   2.200   2.885   9.614 -2.2442  1.1812 -0.2787
  224MPD1    H7 3412   2.148   2.969   9.493  1.3287  0.1352  0.4977
  225MPD1     C 3413   3.023   3.496  12.885 -0.5541 -0.0731  0.1405
  225MPD1    C1 3414   3.001   3.365  12.866  0.8277 -0.0830  0.6190
  225MPD1    C2 3415   3.033   3.309  12.741 -0.8539  0.0079 -0.2826
  225MPD1    C3 3416   3.093   3.388  12.641 -0.4848 -0.4156  0.6988
  225MPD1    C4 3417   3.104   3.526  12.664 -0.6643 -0.3286 -0.0757
  225MPD1    C5 3418   3.075   3.577  12.784  0.0074 -0.1738 -0.0852
  225MPD1     H 3419   3.019   3.206  12.713 -1.8012  0.5126 -1.6990
  225MPD1    H1 3420   3.138   3.597  12.590  1.4225 -1.2031  0.0424
  225MPD1    H2 3421   2.982   3.543  12.974 -0.5760 -0.6241  0.4212
  225MPD1    H3 3422   3.066   3.683  12.805 -1.0120 -0.4570  0.8980
  225MPD1     N 3423   3.144   3.333  12.521  0.0859  0.3662  0.4163
  225MPD1    H5 3424   3.197   3.398  12.463 -0.0802  0.3625  0.2617
  225MPD1    N1 3425   2.931   3.296  12.969 -0.0592 -0.4758  0.1814
  225MPD1    H6 3426   2.932   3.194  12.962  0.8545 -0.4959  0.5732
  225MPD1    H7 3427   2.972   3.324  13.058  2.6006 -3.2389 -0.1604
  226MPD1     C 3428   1.817   3.028   8.768 -0.9699  0.1749  0.4678
  226MPD1    C1 3429   1.757   3.044   8.895  0.6192  0.4525  0.2908
  226MPD1    C2 3430   1.829   3.087   9.006  0.0820  0.4186 -0.6869
  226MPD1    C3 3431   1.963   3.115   9.000 -0.4056  0.8664  0.2455
  226MPD1    C4 3432   2.031   3.104   8.876 -0.7938 -0.7382 -0.1601
  226MPD1    C5 3433   1.955   3.063   8.763  0.4186  0.3476  0.2591
  226MPD1     H 3434   1.782   3.095   9.104  0.1234  0.0366 -0.6380
  226MPD1    H1 3435   2.137   3.123   8.872 -0.6768 -1.2528  0.5004
  226MPD1    H2 3436   1.770   2.991   8.677  1.3039  0.2863 -0.7471
  226MPD1    H3 3437   2.006   3.039   8.670  1.1955 -2.6686  1.4742
  226MPD1     N 3438   2.037   3.148   9.119 -0.6650 -0.1462 -0.2682
  226MPD1    H5 3439   1.972   3.154   9.198 -2.6448 -3.4311 -1.6522
  226MPD1    N1 3440   1.629   2.995   8.919  0.3954  0.0968  0.1574
  226MPD1    H6 3441   1.570   2.987   8.837 -0.4005  0.2724  0.7177
  226MPD1    H7 3442   1.583   3.050   8.991 -0.4378 -0.8443  0.3331
  227MPD1     C 3443   2.055   3.729   9.931 -0.2095  1.1285 -0.3324
  227MPD1    C1 3444   2.185   3.717   9.914 -0.0732  0.3712 -0.3871
  227MPD1    C2 3445   2.228   3.633   9.814  0.9244  0.6677  0.3437
  227MPD1    C3 3446   2.141   3.554   9.733  0.2921 -0.0673  0.4462
  227MPD1    C4 3447   2.011   3.567   9.764 -0.3023 -0.3082 -0.0826
  227MPD1    C5 3448   1.965   3.661   9.852  0.3731 -0.2970 -0.5017
  227MPD1     H 3449   2.333   3.612   9.797  0.7111 -0.9926  1.0668
  227MPD1    H1 3450   1.934   3.516   9.706  0.7646 -2.2025  0.1829
  227MPD1    H2 3451   2.015   3.799  10.004 -1.4269  0.7526 -0.6306
  227MPD1    H3 3452   1.859   3.673   9.870  0.3744  0.6188 -1.0900
  227MPD1     N 3453   2.194   3.470   9.628 -0.2516 -0.0918 -0.1073
  227MPD1    H5 3454   2.295   3.469   9.617 -0.0625  3.0680  1.3096
  227MPD1    N1 3455   2.276   3.797   9.983 -0.3897  0.5979 -0.6645
  227MPD1    H6 3456   2.256   3.808  10.082 -3.4454  2.2326 -1.4638
  227MPD1    H7 3457   2.374   3.770   9.972 -0.5351  0.1706 -0.9050
  228MPD1     C 3458   0.263   0.216  13.356  0.4614  0.4755 -0.5487
  228MPD1    C1 3459   0.156   0.235  13.438 -0.4123  0.0901  0.0461
  228MPD1    C2 3460   0.032   0.248  13.381 -0.2299  0.8074 -0.2756
  228MPD1    C3 3461   0.021   0.269  13.245 -0.3917 -0.4018  0.6631
  228MPD1    C4 3462   0.131   0.260  13.169 -0.2742 -0.5059  0.0461
  228MPD1    C5 3463   0.252   0.230  13.224 -0.2264 -0.8290  0.7717
  228MPD1     H 3464   4.660   0.239  13.436  0.8496  0.4643  1.4724
  228MPD1    H1 3465   0.125   0.257  13.061 -2.1495 -0.3402  0.1509
  228MPD1    H2 3466   0.368   0.197  13.376  0.6254  2.7182  0.7028
  228MPD1    H3 3467   0.335   0.216  13.156 -0.4741 -1.7422  0.6544
  228MPD1     N 3468   4.615   0.298  13.195 -0.1254 -0.6568 -0.6008
  228MPD1    H5 3469   4.532   0.283  13.253 -0.4504  1.6881 -0.4680
  228MPD1    N1 3470   0.167   0.208  13.579 -0.3724 -0.7024  0.0337
  228MPD1    H6 3471   0.260   0.231  13.613 -2.5404  3.8866  2.7796
  228MPD1    H7 3472   0.098   0.258  13.635 -0.6827 -0.7053 -0.3487
  229MPD1     C 3473   3.464   4.497  14.376 -0.6885  0.2080 -1.0440
  229MPD1    C1 3474   3.457   4.561  14.492  0.1062 -0.6749  0.2737
  229MPD1    C2 3475   3.533   4.520  14.606  0.2982  0.0041  0.0489
  229MPD1    C3 3476   3.624   4.424  14.587  0.3002  0.0609  0.1186
  229MPD1    C4 3477   3.631   4.364  14.466 -0.2474 -0.6717 -0.4804
  229MPD1    C5 3478   3.545   4.390  14.360 -0.4720  0.1680  0.6511
  229MPD1     H 3479   3.525   4.585  14.693  1.7399 -0.2276  0.3480
  229MPD1    H1 3480   3.710   4.290  14.461 -1.5119 -2.2084  2.1594
  229MPD1    H2 3481   3.406   4.515  14.286  0.5130  0.3896 -1.7770
  229MPD1    H3 3482   3.537   4.349  14.260 -2.2717 -0.6010  1.1072
  229MPD1     N 3483   3.714   4.389  14.696 -0.3337  0.1365 -0.3393
  229MPD1    H5 3484   3.789   4.327  14.668 -1.6927 -0.4557 -2.6436
  229MPD1    N1 3485   3.355   4.663  14.508  0.0857  0.2840  0.0325
  229MPD1    H6 3486   3.344   4.707  14.416 -1.9685  0.5851  0.4327
  229MPD1    H7 3487   3.361   0.002  14.590  0.0792  0.0034  0.2339
  230MPD1     C 3488   3.992   4.678  15.678 -0.2190  0.4356 -0.0078
  230MPD1    C1 3489   3.982   0.040  15.565 -0.1665 -0.1508  0.3061
  230MPD1    C2 3490   3.968   4.698  15.440  0.1882 -0.5842 -0.7789
  230MPD1    C3 3491   3.964   4.555  15.421  0.3873  0.7525 -0.6348
  230MPD1    C4 3492   3.967   4.478  15.537  0.3251  0.0954  0.0559
  230MPD1    C5 3493   3.971   4.541  15.660  0.1249  0.3460 -0.3272
  230MPD1     H 3494   3.955   0.042  15.355 -0.6232  0.2544 -0.0205
  230MPD1    H1 3495   3.979   4.370  15.538 -0.5211  0.0151  1.4732
  230MPD1    H2 3496   4.000   0.004  15.775 -1.8951 -1.2887  0.9637
  230MPD1    H3 3497   3.974   4.490  15.756  0.2068 -0.4033 -0.7294
  230MPD1     N 3498   3.949   4.503  15.292  0.0198  0.2393  0.9063
  230MPD1    H5 3499   3.939   4.554  15.205 -0.1443 -0.5960  0.4349
  230MPD1    N1 3500   3.963   0.183  15.582 -0.4615  0.2572 -1.2448
  230MPD1    H6 3501   4.005   0.228  15.501 -2.1569  1.5164 -1.4312
  230MPD1    H7 3502   4.015   0.217  15.662 -2.0993 -3.0607  1.2477
  231MPD1     C 3503   2.497   1.576  15.851  1.3180  0.3019  0.0490
  231MPD1    C1 3504   2.409   1.560  15.749  0.2478  0.2930  0.8326
  231MPD1    C2 3505   2.451   1.618  15.631  0.2840 -0.7852 -0.5808
  231MPD1    C3 3506   2.575   1.669  15.600  0.3073  0.1986 -0.1363
  231MPD1    C4 3507   2.667   1.671  15.704  0.0526 -0.2480 -0.1999
  231MPD1    C5 3508   2.622   1.628  15.827 -1.0481  0.2606 -0.5263
  231MPD1     H 3509   2.374   1.618  15.554  0.3742  1.4718 -0.6726
  231MPD1    H1 3510   2.774   1.689  15.696  0.0400 -1.4700 -3.3929
  231MPD1    H2 3511   2.465   1.547  15.950 -3.4782 -1.3796 -1.9895
  231MPD1    H3 3512   2.701   1.632  15.901 -0.8273 -3.8189 -0.5448
  231MPD1     N 3513   2.606   1.720  15.468  0.2663  0.3335 -0.5595
  231MPD1    H5 3514   2.540   1.711  15.392  0.1727  1.4624 -0.6112
  231MPD1    N1 3515   2.282   1.505  15.774  0.3352 -0.1802  0.5295
  231MPD1    H6 3516   2.232   1.479  15.690  0.0544  1.0402  0.3313
  231MPD1    H7 3517   2.260   1.445  15.853 -0.0780  2.3063  2.2932
  232MPD1     C 3518   0.010   3.714   1.244 -0.5012  0.2596  0.0287
  232MPD1    C1 3519   4.717   3.768   1.371 -0.0145 -0.9395  0.2612
  232MPD1    C2 3520   4.603   3.843   1.404  0.2792 -0.4882 -0.3938
  232MPD1    C3 3521   4.517   3.885   1.309  0.5026 -0.3547  0.0163
  232MPD1    C4 3522   4.539   3.841   1.175  0.0986  0.4899 -0.2605
  232MPD1    C5 3523   4.638   3.749   1.148  0.1958 -0.4732  0.2795
  232MPD1     H 3524   4.582   3.872   1.506  1.6529 -1.0196  0.0362
  232MPD1    H1 3525   4.475   3.867   1.092  0.7139  0.4316 -0.7516
  232MPD1    H2 3526   0.093   3.646   1.225  0.7583  1.2947  1.7871
  232MPD1    H3 3527   4.635   3.695   1.054 -0.8593  0.0528  0.0098
  232MPD1     N 3528   4.400   3.963   1.340  0.2482  0.3321 -0.0463
  232MPD1    H5 3529   4.383   3.979   1.439 -1.1714 -3.2597  0.2666
  232MPD1    N1 3530   0.076   3.713   1.469  0.3294 -0.0280 -0.7203
  232MPD1    H6 3531   0.091   3.779   1.545  1.2588  1.3496 -2.1019
  232MPD1    H7 3532   0.167   3.690   1.429 -0.2827 -1.5689 -1.2112
  233MPD1     C 3533   2.613   2.827   2.394  0.5677  0.1874 -0.2114
  233MPD1    C1 3534   2.496   2.833   2.327  0.5021  0.2078  0.3071
  233MPD1    C2 3535   2.430   2.713   2.298 -0.2199 -0.1269  0.0962
  233MPD1    C3 3536   2.497   2.590   2.309  0.2836 -0.3056 -0.4578
  233MPD1    C4 3537   2.618   2.583   2.375  0.2885 -0.3136  0.1810
  233MPD1    C5 3538   2.677   2.706   2.420 -0.4397  0.1836  0.4472
  233MPD1     H 3539   2.327   2.728   2.267  0.3368 -0.7532 -2.0621
  233MPD1    H1 3540   2.667   2.486   2.381  0.6814  0.0380  2.9898
  233MPD1    H2 3541   2.666   2.918   2.421  0.0486 -0.5947  3.4413
  233MPD1    H3 3542   2.771   2.709   2.474 -0.6880 -0.7904  0.9360
  233MPD1     N 3543   2.439   2.475   2.253 -0.7061 -0.6106  0.3588
  233MPD1    H5 3544   2.502   2.396   2.260  0.0902  0.1030  1.2964
  233MPD1    N1 3545   2.426   2.952   2.314 -0.3004 -0.1441  0.1002
  233MPD1    H6 3546   2.488   3.025   2.281  0.5138 -0.5750  0.6667
  233MPD1    H7 3547   2.343   2.944   2.255  2.0319 -2.1441 -2.9085
  234MPD1     C 3548   3.338   0.957  10.469 -0.2765 -0.9158  0.0831
  234MPD1    C1 3549   3.217   0.909  10.443 -0.7664 -0.4474 -0.0979
  234MPD1    C2 3550   3.135   0.965  10.357  0.5730  0.1179 -0.3695
  234MPD1    C3 3551   3.181   1.072  10.282 -0.0998  0.8536 -1.0489
  234MPD1    C4 3552   3.304   1.130  10.302  0.2400 -0.0669 -0.2985
  234MPD1    C5 3553   3.381   1.073  10.403 -0.0278 -0.5972  0.1852
  234MPD1     H 3554   3.034   0.933  10.335  0.1787  0.8124  0.4230
  234MPD1    H1 3555   3.344   1.217  10.251 -1.2954  2.0541  2.1307
  234MPD1    H2 3556   3.392   0.927  10.558  0.5292 -0.1167 -0.1341
  234MPD1    H3 3557   3.482   1.101  10.429 -0.2970 -0.4823  1.0800
  234MPD1     N 3558   3.082   1.118  10.189 -0.0600 -0.7756  0.0394
  234MPD1    H5 3559   2.992   1.073  10.187  1.0355 -2.9907  1.1530
  234MPD1    N1 3560   3.176   0.794  10.509  0.0350 -0.2128 -0.0029
  234MPD1    H6 3561   3.229   0.783  10.595  0.9439 -0.4150 -0.5884
  234MPD1    H7 3562   3.078   0.792  10.536  0.3048 -2.0370  0.8453
  235MPD1     C 3563   2.276   4.277   8.808 -0.4077  0.4824  0.7121
  235MPD1    C1 3564   2.329   4.401   8.778  0.7435 -0.6696  0.0010
  235MPD1    C2 3565   2.464   4.407   8.762 -0.0225  0.1041  0.2137
  235MPD1    C3 3566   2.540   4.304   8.822  0.0816  0.4649  0.5455
  235MPD1    C4 3567   2.480   4.187   8.863 -0.0845 -0.0697 -0.6005
  235MPD1    C5 3568   2.348   4.180   8.862 -0.1663 -0.0848 -0.1495
  235MPD1     H 3569   2.513   4.487   8.709 -0.4277  0.2330  0.0377
  235MPD1    H1 3570   2.526   4.094   8.893 -1.7089 -0.3524  0.9952
  235MPD1    H2 3571   2.170   4.255   8.804  0.3107 -2.8305 -0.7604
  235MPD1    H3 3572   2.299   4.089   8.893 -0.6414 -0.0013 -0.6549
  235MPD1     N 3573   2.678   4.324   8.834  0.7510  0.3939  0.4507
  235MPD1    H5 3574   2.719   4.400   8.781 -0.9054  0.7717 -0.2967
  235MPD1    N1 3575   2.254   4.497   8.713  0.0854 -0.3663  0.0886
  235MPD1    H6 3576   2.300   4.585   8.735 -0.3993 -0.2884  0.7951
  235MPD1    H7 3577   2.160   4.503   8.752  0.6349 -0.9316  1.5082
  236MPD1     C 3578   3.595   4.301   9.994  0.1515  0.7215  0.5358
  236MPD1    C1 3579   3.510   4.192   9.966 -0.4903 -0.6046  0.6346
  236MPD1    C2 3580   3.562   4.061   9.959 -0.7877  1.0749  0.4097
  236MPD1    C3 3581   3.696   4.037   9.986 -0.0798  0.1744  0.4557
  236MPD1    C4 3582   3.780   4.141  10.011  0.4626 -0.1450 -0.1116
  236MPD1    C5 3583   3.729   4.267  10.013  0.7185 -0.3253 -0.8623
  236MPD1     H 3584   3.491   3.984   9.932 -0.5112 -0.1683  3.2392
  236MPD1    H1 3585   3.885   4.123  10.029  0.4128  0.7398  1.0865
  236MPD1    H2 3586   3.560   4.404   9.994 -2.4153 -0.1565 -2.7248
  236MPD1    H3 3587   3.793   4.350  10.040 -0.9122 -0.1939  2.5642
  236MPD1     N 3588   3.746   3.906   9.988 -0.3733  0.0716 -0.4992
  236MPD1    H5 3589   3.845   3.904  10.010 -0.0787 -0.7999 -1.8738
  236MPD1    N1 3590   3.380   4.223   9.934 -0.2846 -0.3615 -0.0515
  236MPD1    H6 3591   3.315   4.151   9.967 -1.8863  1.2859  0.3882
  236MPD1    H7 3592   3.354   4.312   9.976  0.5878 -0.5709  0.9587
  237MPD1     C 3593   2.401   2.557  16.022  0.1407  0.0993  0.6138
  237MPD1    C1 3594   2.265   2.591  16.023 -0.7782  0.2264 -0.1668
  237MPD1    C2 3595   2.200   2.620  15.906  0.2702 -0.4908  0.3093
  237MPD1    C3 3596   2.265   2.596  15.787  0.3772 -0.5423  0.4508
  237MPD1    C4 3597   2.391   2.547  15.785  0.0776 -0.0622  0.2500
  237MPD1    C5 3598   2.464   2.530  15.905  0.7373 -0.1460  0.5230
  237MPD1     H 3599   2.103   2.668  15.908  0.7131  0.5044 -1.8860
  237MPD1    H1 3600   2.432   2.523  15.687  0.4661 -0.3302  0.4821
  237MPD1    H2 3601   2.453   2.546  16.116 -3.2198 -0.8589  2.3537
  237MPD1    H3 3602   2.569   2.504  15.905  0.7661 -0.0693 -1.6228
  237MPD1     N 3603   2.210   2.622  15.667  0.0007 -0.6138 -0.0479
  237MPD1    H5 3604   2.261   2.608  15.580 -0.8531 -0.3928 -0.5868
  237MPD1    N1 3605   2.208   2.627  16.141  0.3066  0.6547  1.1386
  237MPD1    H6 3606   2.107   2.635  16.136  0.1753 -1.0512  1.0801
  237MPD1    H7 3607   2.233   2.577  16.227  1.7344  0.9921  0.9202
  238MPD1     C 3608   4.093   2.213  14.976 -0.4143 -0.1145  0.7451
  238MPD1    C1 3609   3.995   2.159  15.058  0.8475  0.2610  0.1427
  238MPD1    C2 3610   3.955   2.031  15.045  0.0234 -0.1046 -0.0033
  238MPD1    C3 3611   4.021   1.944  14.961  0.3534  0.8304  0.5230
  238MPD1    C4 3612   4.129   1.993  14.895 -0.4310  0.3047  0.2832
  238MPD1    C5 3613   4.156   2.127  14.896 -0.6243 -0.1529 -0.0001
  238MPD1     H 3614   3.867   1.996  15.099  0.0648 -1.1778 -0.6181
  238MPD1    H1 3615   4.191   1.925  14.837 -2.8940 -1.5905 -0.1406
  238MPD1    H2 3616   4.123   2.317  14.969  1.1262 -0.7014 -1.5514
  238MPD1    H3 3617   4.234   2.165  14.831 -2.4391  3.1289 -0.2708
  238MPD1     N 3618   3.988   1.806  14.963 -0.4857  0.2032 -0.4622
  238MPD1    H5 3619   4.051   1.743  14.913 -0.1083  0.9181 -0.8921
  238MPD1    N1 3620   3.920   2.247  15.130  0.1530 -0.0343 -0.0583
  238MPD1    H6 3621   3.899   2.191  15.213 -2.7371  0.0184 -0.7519
  238MPD1    H7 3622   3.972   2.327  15.165 -4.2591  2.5607  0.6699
  239MPD1     C 3623   3.634   1.634  14.673  0.2016 -0.5845  0.7280
  239MPD1    C1 3624   3.728   1.615  14.570 -0.3296 -0.6429 -0.6764
  239MPD1    C2 3625   3.814   1.726  14.540 -0.1221 -0.3193 -0.0341
  239MPD1    C3 3626   3.814   1.847  14.607 -0.5648  0.4481  0.2779
  239MPD1    C4 3627   3.717   1.856  14.706  0.2662 -0.5335 -0.2329
  239MPD1    C5 3628   3.633   1.753  14.736 -0.1043  0.3756  0.2480
  239MPD1     H 3629   3.874   1.704  14.452  0.5298 -0.7082  0.5093
  239MPD1    H1 3630   3.701   1.939  14.773  0.6455 -0.3862 -0.3221
  239MPD1    H2 3631   3.569   1.558  14.713 -0.7085  0.1133  0.5728
  239MPD1    H3 3632   3.561   1.776  14.814  0.1772 -1.1272  0.9387
  239MPD1     N 3633   3.914   1.944  14.587 -0.1657 -0.5902  0.0025
  239MPD1    H5 3634   3.893   2.030  14.636 -0.7644 -0.3999 -0.5821
  239MPD1    N1 3635   3.747   1.495  14.502  0.0261  0.1751  0.8684
  239MPD1    H6 3636   3.777   1.504  14.405 -0.0319  0.5838  0.8881
  239MPD1    H7 3637   3.676   1.427  14.530 -2.1797  1.9195 -0.4765
  240MPD1     C 3638   3.476   0.466  13.607  0.3537 -0.5370 -0.4493
  240MPD1    C1 3639   3.590   0.533  13.595  0.3327  0.2665 -0.0075
  240MPD1    C2 3640   3.629   0.633  13.684 -0.3079  1.0250  0.9235
  240MPD1    C3 3641   3.563   0.637  13.806  0.3043 -0.2306  0.0947
  240MPD1    C4 3642   3.449   0.559  13.823 -0.5630 -0.3570 -0.4069
  240MPD1    C5 3643   3.406   0.473  13.725  0.1914 -0.2823 -0.3133
  240MPD1     H 3644   3.708   0.705  13.667  0.5895  0.2326  1.7160
  240MPD1    H1 3645   3.375   0.569  13.901  1.5395  0.3038  1.4886
  240MPD1    H2 3646   3.441   0.396  13.532 -2.2097 -0.7636  0.9553
  240MPD1    H3 3647   3.317   0.412  13.739 -2.1966  2.3475 -4.1112
  240MPD1     N 3648   3.600   0.740  13.892  0.1867  0.5642  0.7184
  240MPD1    H5 3649   3.660   0.808  13.847  1.6153 -0.3493  1.2339
  240MPD1    N1 3650   3.649   0.540  13.472  0.9280 -0.2152  0.0897
  240MPD1    H6 3651   3.647   0.445  13.435  2.5738 -0.5298  0.7674
  240MPD1    H7 3652   3.745   0.573  13.483  0.8692  0.0760 -0.2879
  241MPD1     C 3653   4.271   1.451  14.158 -0.5753  0.5416 -0.2711
  241MPD1    C1 3654   4.248   1.376  14.041 -0.7174  0.2542 -0.2018
  241MPD1    C2 3655   4.139   1.290  14.056 -0.3268 -0.2775 -0.2606
  241MPD1    C3 3656   4.073   1.276  14.177 -0.2750 -0.8758  0.1634
  241MPD1    C4 3657   4.098   1.357  14.280 -0.4656 -0.0201 -0.3830
  241MPD1    C5 3658   4.206   1.442  14.275  0.3745 -0.2967 -1.1981
  241MPD1     H 3659   4.111   1.229  13.970  0.0356 -0.2066 -0.4286
  241MPD1    H1 3660   4.043   1.352  14.373 -0.9925  2.2514 -0.5738
  241MPD1    H2 3661   4.357   1.516  14.152  0.4664 -0.9521 -1.6760
  241MPD1    H3 3662   4.237   1.499  14.362 -0.4987 -0.8777 -0.4910
  241MPD1     N 3663   3.964   1.181  14.194 -0.1569 -0.1345 -0.4937
  241MPD1    H5 3664   3.912   1.188  14.282 -1.8978 -2.0184 -1.3774
  241MPD1    N1 3665   4.323   1.395  13.925  0.1682 -0.1885 -0.0320
  241MPD1    H6 3666   4.419   1.409  13.954  1.2233  0.3396 -3.7298
  241MPD1    H7 3667   4.329   1.315  13.863 -1.2818  0.1115 -0.5768
  242MPD1     C 3668   3.217   0.675  15.834  0.2921  0.6842  0.0153
  242MPD1    C1 3669   3.164   0.557  15.799 -0.1359 -0.2417  0.3586
  242MPD1    C2 3670   3.197   0.498  15.672 -0.7541 -0.3793  0.1948
  242MPD1    C3 3671   3.277   0.569  15.583 -0.3285  0.4086 -0.1735
  242MPD1    C4 3672   3.325   0.690  15.624 -1.3518  0.0469  0.6174
  242MPD1    C5 3673   3.295   0.741  15.747  0.0622 -0.4516  0.8135
  242MPD1     H 3674   3.158   0.402  15.641  1.3074 -0.9357 -0.7344
  242MPD1    H1 3675   3.370   0.760  15.555 -1.4115 -0.2147  0.3167
  242MPD1    H2 3676   3.205   0.723  15.931 -1.1840  1.3716 -0.5083
  242MPD1    H3 3677   3.343   0.834  15.773 -0.8193  0.4272 -0.6953
  242MPD1     N 3678   3.325   0.503  15.467  0.1098 -0.0261  0.3951
  242MPD1    H5 3679   3.282   0.416  15.438 -0.3640 -0.1815  1.5674
  242MPD1    N1 3680   3.109   0.486  15.904  0.3037  0.2099 -0.4286
  242MPD1    H6 3681   3.032   0.423  15.882  0.0625  1.3768 -2.9237
  242MPD1    H7 3682   3.073   0.551  15.973 -3.0508 -0.8558 -1.1657
  243MPD1     C 3683   4.165   3.991   0.243  0.2915 -0.1911  0.2642
  243MPD1    C1 3684   4.211   3.893   0.328 -0.0651 -0.3366 -0.1536
  243MPD1    C2 3685   4.326   3.830   0.299  0.4379  0.3037  0.6135
  243MPD1    C3 3686   4.412   3.875   0.203  0.1834 -0.4028 -0.2871
  243MPD1    C4 3687   4.374   3.990   0.133 -0.2503 -0.3546 -0.3415
  243MPD1    C5 3688   4.250   4.041   0.154  0.6957 -0.2534  0.1774
  243MPD1     H 3689   4.366   3.750   0.361 -1.9418 -0.8628  0.6212
  243MPD1    H1 3690   4.431   4.039   0.055 -0.0462  0.5699  0.3826
  243MPD1    H2 3691   4.069   4.041   0.249  0.2702  0.0288 -1.6909
  243MPD1    H3 3692   4.219   4.119   0.085 -0.9565 -0.0335  1.1658
  243MPD1     N 3693   4.530   3.807   0.179  0.6937 -0.1309  0.1213
  243MPD1    H5 3694   4.551   3.734   0.246 -1.9007 -0.3408  0.7100
  243MPD1    N1 3695   4.127   3.848   0.428  0.7185 -0.0133  0.0378
  243MPD1    H6 3696   4.171   3.795   0.503 -2.2923 -0.7286  1.3288
  243MPD1    H7 3697   4.072   3.924   0.468  1.0909  1.0008 -1.3502
  244MPD1     C 3698   0.021   3.123   0.593 -0.3695  0.2161 -0.0441
  244MPD1    C1 3699   4.700   3.253   0.615 -0.1698  0.8562  0.3235
  244MPD1    C2 3700   4.711   3.345   0.511 -0.3022 -0.6926 -0.5098
  244MPD1    C3 3701   0.049   3.315   0.390  0.5099  0.0968  0.2088
  244MPD1    C4 3702   0.074   3.185   0.361  0.3361 -0.6773  0.3987
  244MPD1    C5 3703   0.063   3.089   0.465  0.0272 -0.1159 -0.3888
  244MPD1     H 3704   4.683   3.449   0.524  3.1933  0.4866 -2.4229
  244MPD1    H1 3705   0.100   3.155   0.260  1.1632 -0.1702  0.4593
  244MPD1    H2 3706   0.017   3.044   0.667  2.5546  0.6877  0.6209
  244MPD1    H3 3707   0.108   2.992   0.447  1.4395  0.5332 -0.2816
  244MPD1     N 3708   0.056   3.426   0.298  0.1797  0.1219 -0.3011
  244MPD1    H5 3709   0.031   3.519   0.328 -0.9721 -0.8167  1.6555
  244MPD1    N1 3710   4.640   3.283   0.744 -0.2618  0.5383  0.1324
  244MPD1    H6 3711   4.667   3.369   0.792 -1.8230  0.2984  1.4311
  244MPD1    H7 3712   4.654   3.201   0.803  0.4858  1.8291  1.7578
  245MPD1     C 3713   2.516   3.939  13.151  0.0661  0.2893 -0.4661
  245MPD1    C1 3714   2.647   3.948  13.188  0.4267 -0.4682 -0.1552
  245MPD1    C2 3715   2.686   4.065  13.249  0.7886  0.5045  0.3089
  245MPD1    C3 3716   2.592   4.157  13.292 -1.3775 -0.7819 -0.3106
  245MPD1    C4 3717   2.463   4.147  13.252  0.0158 -0.1197  0.4030
  245MPD1    C5 3718   2.419   4.033  13.185 -0.0724 -0.1720 -0.6616
  245MPD1     H 3719   2.790   4.081  13.275  1.3554  1.8943 -2.7558
  245MPD1    H1 3720   2.398   4.232  13.270  1.3261  1.2136 -1.1924
  245MPD1    H2 3721   2.488   3.851  13.094 -0.9389 -1.1082  2.1724
  245MPD1    H3 3722   2.323   4.026  13.136 -1.2173  1.3193  1.3502
  245MPD1     N 3723   2.647   4.266  13.359  0.1725  0.2663 -0.8068
  245MPD1    H5 3724   2.746   4.265  13.382  0.4640  3.4923 -1.8899
  245MPD1    N1 3725   2.742   3.857  13.143  0.0962 -0.0147 -0.0993
  245MPD1    H6 3726   2.836   3.869  13.180  0.4728 -1.9225 -0.4793
  245MPD1    H7 3727   2.701   3.764  13.143 -1.1098  0.5138 -1.2954
  246MPD1     C 3728   3.297   1.016   9.043  0.1022  0.5606 -0.4354
  246MPD1    C1 3729   3.203   1.103   9.016  0.4975  0.5332  0.0463
  246MPD1    C2 3730   3.077   1.051   8.973 -0.3384  0.1832 -0.5736
  246MPD1    C3 3731   3.052   0.918   8.981  0.3195  0.1687 -0.0526
  246MPD1    C4 3732   3.151   0.834   9.027  1.2565  0.1556 -0.5388
  246MPD1    C5 3733   3.271   0.882   9.058  0.2953  0.6436  0.2365
  246MPD1     H 3734   2.999   1.111   8.928 -1.1548  0.4077  1.1480
  246MPD1    H1 3735   3.143   0.726   9.030  0.2920  0.2740  1.1567
  246MPD1    H2 3736   3.400   1.047   9.058  0.4753 -0.4078 -0.9918
  246MPD1    H3 3737   3.348   0.805   9.065 -1.3085 -0.9725  0.1175
  246MPD1     N 3738   2.921   0.868   8.947 -0.3321 -0.1061  0.8414
  246MPD1    H5 3739   2.849   0.938   8.931  0.3162  0.2739 -0.4412
  246MPD1    N1 3740   3.234   1.237   8.990 -0.6137 -0.2086  0.2694
  246MPD1    H6 3741   3.151   1.288   9.018 -0.3136  0.3035  0.2285
  246MPD1    H7 3742   3.302   1.266   9.060 -0.6398 -1.1528  0.6836
  247MPD1     C 3743   1.305   4.345  16.983  1.3192  0.0369  0.6686
  247MPD1    C1 3744   1.351   4.423  16.877 -0.1295  0.9078 -0.1625
  247MPD1    C2 3745   1.344   4.353  16.762  0.4550  0.1614  0.2180
  247MPD1    C3 3746   1.325   4.217  16.749  0.9860  0.2918  0.1304
  247MPD1    C4 3747   1.283   4.143  16.863  0.5112  0.0382 -0.3907
  247MPD1    C5 3748   1.278   4.211  16.979 -0.2277 -0.3165  0.5836
  247MPD1     H 3749   1.370   4.405  16.671 -1.2550  1.6447  0.6011
  247MPD1    H1 3750   1.265   4.037  16.862  2.8548 -0.3550 -0.3780
  247MPD1    H2 3751   1.299   4.392  17.080 -0.7239  0.5484  0.2903
  247MPD1    H3 3752   1.231   4.153  17.058  0.0823 -1.6879 -0.2394
  247MPD1     N 3753   1.345   4.142  16.628  0.2550 -0.3264  0.4779
  247MPD1    H5 3754   1.312   4.046  16.630 -2.3354  0.5420 -1.0336
  247MPD1    N1 3755   1.349   4.564  16.886  0.2195 -0.0564 -0.3335
  247MPD1    H6 3756   1.367   4.596  16.981  1.1990 -2.1558  0.1895
  247MPD1    H7 3757   1.423   4.599  16.826  0.3730  1.5543  0.7896
  248MPD1     C 3758   2.179   3.261   1.176 -0.4283 -0.1295  0.1600
  248MPD1    C1 3759   2.174   3.334   1.292 -0.1707  0.2197  0.1022
  248MPD1    C2 3760   2.083   3.441   1.297  0.3501  0.9588 -0.2746
  248MPD1    C3 3761   1.980   3.453   1.208  0.2405  0.3621  0.8341
  248MPD1    C4 3762   1.975   3.364   1.106 -0.2369  0.5434 -0.0860
  248MPD1    C5 3763   2.074   3.275   1.086  0.8703  0.1129 -0.0858
  248MPD1     H 3764   2.089   3.507   1.383  3.5549 -1.3944  1.3301
  248MPD1    H1 3765   1.898   3.359   1.030  1.8171  0.8775 -2.1617
  248MPD1    H2 3766   2.248   3.178   1.174  0.6629  0.7793  0.6080
  248MPD1    H3 3767   2.068   3.209   1.000  1.4099  2.2726 -1.7905
  248MPD1     N 3768   1.883   3.548   1.226  0.6860  0.3671 -0.4860
  248MPD1    H5 3769   1.896   3.605   1.309 -1.5393 -2.2777  1.6785
  248MPD1    N1 3770   2.286   3.330   1.380  0.5223 -0.1187 -0.1236
  248MPD1    H6 3771   2.332   3.239   1.384 -0.1473 -0.5940 -2.8620
  248MPD1    H7 3772   2.268   3.346   1.479  0.9304 -1.2007  0.1346
  249MPD1     C 3773   3.541   1.779   9.962 -0.2442  0.0895  0.0929
  249MPD1    C1 3774   3.496   1.812   9.839  0.2421  0.3085  0.2346
  249MPD1    C2 3775   3.537   1.936   9.795  0.0917 -0.8402 -0.2140
  249MPD1    C3 3776   3.632   2.021   9.854 -0.7293 -0.2115  0.8520
  249MPD1    C4 3777   3.681   1.981   9.977  0.3896  0.4030  0.3286
  249MPD1    C5 3778   3.627   1.864  10.028 -0.5524  0.7494 -0.7495
  249MPD1     H 3779   3.506   1.965   9.696  1.2872 -0.3782 -0.4521
  249MPD1    H1 3780   3.742   2.042  10.043  0.3699  0.3467  0.3980
  249MPD1    H2 3781   3.502   1.696  10.020  2.1753 -0.9785  0.1583
  249MPD1    H3 3782   3.657   1.817  10.121 -2.4550  1.9136  0.4665
  249MPD1     N 3783   3.676   2.137   9.785  0.0768 -0.3894  0.2798
  249MPD1    H5 3784   3.642   2.165   9.693  0.6833 -0.1037  0.1413
  249MPD1    N1 3785   3.392   1.745   9.772  0.0691  0.0620 -0.8959
  249MPD1    H6 3786   3.369   1.778   9.678 -1.4524  1.2589 -0.1032
  249MPD1    H7 3787   3.398   1.644   9.780 -0.7314 -0.0032 -1.1277
  250MPD2     C 3788   0.789   2.019  13.186 -0.5281 -1.2992 -0.4035
  250MPD2    C1 3789   0.686   2.027  13.095 -0.5293 -0.0783 -0.1897
  250MPD2    C2 3790   0.605   1.912  13.080 -0.1851 -0.4680  0.1929
  250MPD2    C3 3791   0.622   1.797  13.159  0.3531  0.2133  0.1768
  250MPD2    C4 3792   0.719   1.800  13.257  0.6853 -0.3726 -0.0182
  250MPD2    C5 3793   0.804   1.911  13.270 -0.3891 -0.1174  0.1486
  250MPD2     H 3794   0.530   1.909  13.002  0.6036 -1.5321 -0.5256
  250MPD2    H1 3795   0.737   1.717  13.324  1.2499  0.9567  1.4790
  250MPD2    H2 3796   0.854   2.105  13.199 -1.4276 -0.6962  0.1945
  250MPD2    H3 3797   0.880   1.911  13.347  0.8554 -0.9790 -1.0641
  250MPD2     N 3798   0.558   1.676  13.137  1.1473  0.2252 -0.0102
  250MPD2    H5 3799   0.603   1.598  13.184 -0.4625  0.1987  1.4968
  250MPD2    N1 3800   0.679   2.148  13.021  0.7548 -0.4236 -0.0639
  250MPD2    H7 3801   0.755   2.214  13.037  0.4080 -0.1678  0.5186
  251TMC3    C1 3802   0.604   2.296  12.867 -0.4251 -0.3231 -0.0280
  251TMC3    C2 3803   0.493   2.377  12.852 -0.9781 -0.3941 -0.3561
  251TMC3    C3 3804   0.508   2.499  12.789 -0.0816 -0.2231  0.1322
  251TMC3    C4 3805   0.730   2.340  12.830  0.2438  0.0728 -0.8296
  251TMC3    C5 3806   0.740   2.461  12.768 -0.3453 -0.1542  0.2834
  251TMC3    C6 3807   0.626   2.542  12.742  0.1218 -0.5869 -0.1003
  251TMC3     C 3808   0.595   2.167  12.924  0.5760  0.1649  0.5561
  251TMC3     O 3809   0.483   2.117  12.914  0.1475 -0.0365  0.3107
  251TMC3     H 3810   0.400   2.347  12.899 -0.7560  1.3792  1.2176
  251TMC3    H1 3811   0.815   2.274  12.837  0.1601  0.2301  1.6207
  251TMC3    H2 3812   0.633   2.633  12.684 -3.4918 -0.0669  0.2665
  251TMC3    C7 3813   0.869   2.508  12.761  0.9180  0.0313  0.1770
  251TMC3    C8 3814   0.401   2.603  12.801  0.1385  0.0352 -0.5260
  251TMC3    O1 3815   0.954   2.424  12.737  0.4054  0.0221  0.2866
  251TMC3    O2 3816   0.427   2.722  12.789  0.5795 -0.3055 -0.9051
  252TMC3    C1 3817   1.223   3.319   9.547  0.5356  0.9834  0.4119
  252TMC3    C2 3818   1.280   3.447   9.572  0.9382  0.3952  0.1844
  252TMC3    C3 3819   1.320   3.521   9.461  0.7537  0.2934 -0.0367
  252TMC3    C4 3820   1.196   3.272   9.420  0.3001 -0.8007  0.1646
  252TMC3    C5 3821   1.218   3.362   9.323 -0.0414 -0.0115  0.2791
  252TMC3    C6 3822   1.273   3.488   9.337  0.3643 -0.1382  0.2222
  252TMC3     C 3823   1.199   3.243   9.669  1.5532  0.0378  0.9051
  252TMC3     O 3824   1.270   3.268   9.767  0.3689  0.0681 -0.4683
  252TMC3     H 3825   1.297   3.486   9.672  0.1465  0.6425  0.2182
  252TMC3    H1 3826   1.151   3.174   9.410 -1.9601  0.4273 -1.6751
  252TMC3    H2 3827   1.294   3.549   9.250  0.1420  1.6114  1.4008
  252TMC3    C7 3828   1.197   3.321   9.188 -0.1503  0.2206 -0.4752
  252TMC3    C8 3829   1.388   3.650   9.477  0.4083  0.5197 -0.1498
  252TMC3    O1 3830   1.229   3.397   9.094  0.1907  0.1193 -0.3579
  252TMC3    O2 3831   1.401   3.721   9.378 -0.0554  0.0754 -0.4534
  253MPD2     C 3832   1.269   3.223  15.644  0.0306 -0.4344  0.3391
  253MPD2    C1 3833   1.147   3.165  15.644 -0.1871  0.0600  0.3952
  253MPD2    C2 3834   1.136   3.045  15.718 -0.9067  0.0593  0.1880
  253MPD2    C3 3835   1.241   2.995  15.798  0.2890 -0.4463  0.3348
  253MPD2    C4 3836   1.360   3.072  15.804  0.4469 -0.7436 -0.0441
  253MPD2    C5 3837   1.375   3.185  15.726 -0.7545  0.3629  0.1652
  253MPD2     H 3838   1.050   2.983  15.697 -1.4555  0.0993  2.3802
  253MPD2    H1 3839   1.447   3.043  15.862  2.7561 -0.6582 -3.4078
  253MPD2    H2 3840   1.291   3.314  15.590  1.4978 -0.5183  0.8065
  253MPD2    H3 3841   1.467   3.242  15.719 -0.5849  0.5362  3.7963
  253MPD2     N 3842   1.217   2.888  15.886 -0.0967 -0.4235 -0.2420
  253MPD2    H5 3843   1.276   2.897  15.968 -1.5189  0.7988  0.6451
  253MPD2    N1 3844   1.033   3.225  15.582 -0.0993 -0.3905 -0.1276
  253MPD2    H7 3845   0.953   3.163  15.572 -1.1849  0.9260  0.5328
  254TMC3    C1 3846   1.096   2.746  16.020 -0.9931 -0.1886 -0.5346
  254TMC3    C2 3847   0.977   2.762  16.085  0.1802 -0.4567  0.4693
  254TMC3    C3 3848   0.970   2.711  16.215  0.2551 -0.2394 -0.2921
  254TMC3    C4 3849   1.207   2.697  16.085  0.2461  0.6707 -0.1067
  254TMC3    C5 3850   1.196   2.654  16.215  0.2479 -0.0674 -0.3063
  254TMC3    C6 3851   1.076   2.662  16.279 -0.6406 -0.0974  0.7942
  254TMC3     C 3852   1.112   2.802  15.890  0.0437  0.1315 -1.1144
  254TMC3     O 3853   1.020   2.778  15.815  0.1128  0.4646  0.1726
  254TMC3     H 3854   0.891   2.803  16.032  0.1377  0.4062  1.2180
  254TMC3    H1 3855   1.304   2.688  16.038 -0.4119  0.6003 -1.4626
  254TMC3    H2 3856   1.079   2.627  16.381  0.4383  0.0629  0.8210
  254TMC3    C7 3857   1.314   2.625  16.295 -0.3689  0.4402  0.0350
  254TMC3    C8 3858   0.867   2.752  16.303 -0.3947  0.8646 -0.3017
  254TMC3    O1 3859   1.294   2.544  16.387 -0.5581  0.2473  0.2742
  254TMC3    O2 3860   0.894   2.786  16.414 -0.3259  0.0753 -0.2175
  255MPD2     C 3861   0.032   4.606   9.814  0.3552 -1.1443 -0.1241
  255MPD2    C1 3862   0.149   4.639   9.753 -0.3043 -0.6467 -0.2584
  255MPD2    C2 3863   0.187   4.576   9.637  0.6185 -0.0593 -0.0056
  255MPD2    C3 3864   0.123   4.464   9.592  0.0199  0.9711 -0.6930
  255MPD2    C4 3865   0.007   4.440   9.654  0.2592  0.3064 -0.1437
  255MPD2    C5 3866   4.683   4.495   9.767 -0.1405  0.0822  0.0225
  255MPD2     H 3867   0.278   4.610   9.591  0.2237 -0.5567 -1.1384
  255MPD2    H1 3868   4.667   4.356   9.623  0.8175 -0.8104  1.7564
  255MPD2    H2 3869   0.001   4.665   9.899 -1.0827  0.2366 -1.6099
  255MPD2    H3 3870   4.599   4.463   9.829  1.2887 -1.8505  0.9544
  255MPD2     N 3871   0.164   4.386   9.483 -0.3157 -0.0385  0.2799
  255MPD2    H5 3872   0.089   4.321   9.460  1.3116 -1.1281 -2.0016
  255MPD2    N1 3873   0.219   0.031   9.808  0.3529  0.7745  0.4803
  255MPD2    H7 3874   0.178   0.080   9.887  1.8859 -0.7667  2.2426
  256TMC3    C1 3875   0.397   0.166   9.873  0.4684  0.1503  0.1009
  256TMC3    C2 3876   0.530   0.167   9.902 -0.8178  0.0340 -0.6642
  256TMC3    C3 3877   0.586   0.287   9.944 -0.2696 -0.0653  0.1554
  256TMC3    C4 3878   0.308   0.273   9.895  0.9698  0.0021 -0.1050
  256TMC3    C5 3879   0.373   0.382   9.939  0.0098 -0.4616  1.4482
  256TMC3    C6 3880   0.507   0.398   9.965  0.5128 -0.1258 -0.1956
  256TMC3     C 3881   0.346   0.064   9.780  0.6932 -0.5369 -0.0507
  256TMC3     O 3882   0.419   0.034   9.687 -0.0940 -0.2055 -0.4564
  256TMC3     H 3883   0.595   0.085   9.874  0.1776  0.5508  0.1641
  256TMC3    H1 3884   0.200   0.270   9.879  1.4364  0.6325 -3.3612
  256TMC3    H2 3885   0.556   0.494   9.970 -0.4895  0.2229  2.8091
  256TMC3    C7 3886   0.301   0.502   9.912 -0.0086 -0.1517 -0.4895
  256TMC3    C8 3887   0.725   0.292   9.920  0.2885  1.0842 -0.2067
  256TMC3    O1 3888   0.206   0.486   9.839  0.5421 -0.2157 -0.8286
  256TMC3    O2 3889   0.790   0.188   9.940 -0.0178  0.4645 -0.2443
  257MPD2     C 3890   4.225   2.389  13.161 -0.5604 -0.5934  0.2972
  257MPD2    C1 3891   4.307   2.288  13.118 -0.2192 -0.0655 -0.2668
  257MPD2    C2 3892   4.313   2.176  13.199 -0.2816  0.2695  0.3949
  257MPD2    C3 3893   4.245   2.171  13.323  0.5851  0.0753 -0.1619
  257MPD2    C4 3894   4.164   2.272  13.363 -0.3610  0.4558 -0.2958
  257MPD2    C5 3895   4.162   2.384  13.285  0.1174 -0.3654 -0.3197
  257MPD2     H 3896   4.382   2.098  13.170  0.8045  1.9212 -1.5074
  257MPD2    H1 3897   4.104   2.279  13.454  0.0922  0.1096  0.0327
  257MPD2    H2 3898   4.225   2.484  13.107 -1.4121 -1.9447 -2.0812
  257MPD2    H3 3899   4.094   2.459  13.324  0.0628  0.0518 -1.2116
  257MPD2     N 3900   4.261   2.051  13.406  0.1503  0.1931 -0.5796
  257MPD2    H5 3901   4.290   1.968  13.354  1.7730  0.2213  0.2795
  257MPD2    N1 3902   4.356   2.309  12.987 -0.5920 -0.6631 -0.5652
  257MPD2    H7 3903   4.342   2.400  12.945  1.9009 -1.1192 -2.4092
  258TMC3    C1 3904   4.252   1.920  13.609 -0.8739  0.2428  0.3411
  258TMC3    C2 3905   4.304   1.816  13.536  0.0150  0.0558 -0.9848
  258TMC3    C3 3906   4.366   1.722  13.608  0.0047 -0.6033 -0.1669
  258TMC3    C4 3907   4.264   1.925  13.744  0.2627  0.1293 -0.6326
  258TMC3    C5 3908   4.340   1.835  13.810  0.1937 -0.5067  0.3447
  258TMC3    C6 3909   4.393   1.727  13.740  0.1599 -0.1592  0.1993
  258TMC3     C 3910   4.222   2.038  13.533  0.2658  0.6183  0.2793
  258TMC3     O 3911   4.176   2.128  13.604  0.4087 -0.0014 -0.5569
  258TMC3     H 3912   4.289   1.807  13.429 -2.2881 -0.3129 -0.6350
  258TMC3    H1 3913   4.219   2.010  13.794 -0.0681 -0.0098 -0.6949
  258TMC3    H2 3914   4.441   1.646  13.793  1.0370  1.0175  1.1939
  258TMC3    C7 3915   4.345   1.832  13.959  0.5001  0.0295 -0.4941
  258TMC3    C8 3916   4.411   1.614  13.530  0.2242 -0.1797  0.5107
  258TMC3    O1 3917   4.269   1.906  14.021 -0.2367 -0.0186 -0.3898
  258TMC3    O2 3918   4.338   1.581  13.440 -0.6006  0.5770 -0.1190
  259MPD2     C 3919   2.332   3.824   1.436  0.0852 -0.4164  0.2883
  259MPD2    C1 3920   2.431   3.889   1.515  0.4368  0.2327  0.5925
  259MPD2    C2 3921   2.556   3.888   1.465 -0.0739 -0.0590  0.2909
  259MPD2    C3 3922   2.593   3.830   1.337 -0.1346  0.0631  0.0453
  259MPD2    C4 3923   2.496   3.762   1.268 -0.1498  0.3093 -0.1202
  259MPD2    C5 3924   2.366   3.763   1.317  0.4296  0.0427 -0.2940
  259MPD2     H 3925   2.639   3.937   1.514  1.0292  0.6419 -2.2924
  259MPD2    H1 3926   2.521   3.703   1.181 -1.0902 -2.3192  1.3942
  259MPD2    H2 3927   2.227   3.831   1.460 -0.0832 -1.3844 -0.1792
  259MPD2    H3 3928   2.291   3.714   1.255  0.5441  0.5097 -0.7933
  259MPD2     N 3929   2.732   3.835   1.297  0.9732 -0.2912 -0.5577
  259MPD2    H5 3930   2.801   3.861   1.366 -1.3933  2.2222  0.8670
  259MPD2    N1 3931   2.396   3.941   1.635  0.4333 -0.1949 -0.1347
  259MPD2    H7 3932   2.299   3.940   1.664  1.0102 -0.8897  1.7306
  260TMC3    C1 3933   2.907   3.864   1.145 -0.3448  0.3726  0.1119
  260TMC3    C2 3934   2.994   3.841   1.249  0.1848  0.0479 -0.0481
  260TMC3    C3 3935   3.133   3.851   1.224 -0.1817  0.3147 -0.0376
  260TMC3    C4 3936   2.947   3.888   1.015 -0.0982 -0.9218 -0.5002
  260TMC3    C5 3937   3.083   3.897   1.000 -0.4125  0.1129  0.1820
  260TMC3    C6 3938   3.181   3.886   1.097 -0.7397  1.2132 -0.2813
  260TMC3     C 3939   2.764   3.831   1.164 -0.2578  0.2503  0.3120
  260TMC3     O 3940   2.690   3.831   1.067 -0.2049  0.6237  0.1725
  260TMC3     H 3941   2.982   3.818   1.354  1.6885  2.2554  0.6040
  260TMC3    H1 3942   2.884   3.896   0.928 -0.3300 -1.4478 -0.3774
  260TMC3    H2 3943   3.288   3.898   1.085 -0.7067 -0.8620 -2.0308
  260TMC3    C7 3944   3.126   3.908   0.864 -0.3147 -0.9643 -0.6246
  260TMC3    C8 3945   3.222   3.861   1.342 -0.1528 -0.6447  0.2038
  260TMC3    O1 3946   3.039   3.906   0.777 -0.5991 -0.1788 -0.0521
  260TMC3    O2 3947   3.177   3.817   1.450  0.3329  0.6931 -0.3413
  261MPD2     C 3948   0.049   1.494  12.542 -0.1638 -0.3014 -0.4328
  261MPD2    C1 3949   0.185   1.503  12.550  0.2243  0.1359 -0.6353
  261MPD2    C2 3950   0.254   1.586  12.469 -0.2439 -0.8258  1.0815
  261MPD2    C3 3951   0.191   1.670  12.379 -0.4882 -1.0292  0.2798
  261MPD2    C4 3952   0.055   1.655  12.366 -0.5688  0.2889 -0.2414
  261MPD2    C5 3953   4.705   1.570  12.451  0.9282  0.0231 -0.1146
  261MPD2     H 3954   0.361   1.588  12.485  0.0225  0.0232 -0.7522
  261MPD2    H1 3955   0.003   1.723  12.300  0.4282  0.3761 -0.9434
  261MPD2    H2 3956   4.704   1.432  12.601 -0.6891  0.8760  0.2186
  261MPD2    H3 3957   4.598   1.569  12.436  1.1716  2.2913 -2.0707
  261MPD2     N 3958   0.280   1.765  12.320 -0.5404  0.2394  0.0805
  261MPD2    H5 3959   0.376   1.771  12.352 -0.3477  0.4281 -0.5377
  261MPD2    N1 3960   0.269   1.438  12.646  0.3672 -0.4817  0.3262
  261MPD2    H7 3961   0.364   1.473  12.651  0.0845  0.3439 -0.0962
  262TMC3    C1 3962   0.343   1.965  12.218  0.2235 -0.0976 -0.6135
  262TMC3    C2 3963   0.314   2.098  12.213  0.8191  0.0098  0.9173
  262TMC3    C3 3964   0.411   2.178  12.157 -0.5325  0.3870 -0.1610
  262TMC3    C4 3965   0.456   1.909  12.174  0.0960 -0.0414 -0.1905
  262TMC3    C5 3966   0.558   1.991  12.131 -0.2729 -0.6540  0.3152
  262TMC3    C6 3967   0.532   2.125  12.114  0.1434  0.1262  0.2956
  262TMC3     C 3968   0.235   1.874  12.256  0.1436 -0.7433 -0.0889
  262TMC3     O 3969   0.127   1.889  12.204  0.1588  0.7014 -0.2684
  262TMC3     H 3970   0.219   2.134  12.252 -0.4649 -1.0978 -1.1678
  262TMC3    H1 3971   0.482   1.804  12.173  2.1220  0.4920 -2.3233
  262TMC3    H2 3972   0.616   2.187  12.086 -0.0533 -1.5180 -3.8497
  262TMC3    C7 3973   0.648   1.922  12.042  1.1123  0.6904  0.0461
  262TMC3    C8 3974   0.396   2.315  12.116 -0.3785 -0.1914  0.0549
  262TMC3    O1 3975   0.705   1.825  12.089 -1.0544  0.3143  0.0429
  262TMC3    O2 3976   0.491   2.373  12.061 -0.0724  0.1444 -0.3409
  263MPD2     C 3977   1.472   1.366  11.521  0.3366  0.5334  0.1075
  263MPD2    C1 3978   1.598   1.390  11.478  0.7287  0.1441  0.1698
  263MPD2    C2 3979   1.606   1.485  11.375  0.0067  0.2065 -0.3316
  263MPD2    C3 3980   1.493   1.536  11.313  0.1709  0.4531  0.7709
  263MPD2    C4 3981   1.371   1.504  11.366 -0.0423  0.2919  0.2558
  263MPD2    C5 3982   1.360   1.422  11.471  0.1128  0.1116 -0.3573
  263MPD2     H 3983   1.700   1.503  11.325 -0.7051  2.0788 -1.0369
  263MPD2    H1 3984   1.281   1.552  11.328 -0.9056 -1.8334 -0.3802
  263MPD2    H2 3985   1.457   1.302  11.608 -1.0934 -0.8059 -1.1336
  263MPD2    H3 3986   1.261   1.400  11.508 -0.6747  1.8705 -1.4253
  263MPD2     N 3987   1.512   1.620  11.199 -0.2995  0.3818 -0.2520
  263MPD2    H5 3988   1.609   1.633  11.169 -0.1670  0.1751  0.0864
  263MPD2    N1 3989   1.709   1.327  11.544 -0.0864  0.0327  0.2434
  263MPD2    H7 3990   1.701   1.267  11.626 -0.2401 -0.7951 -0.3678
  264TMC3    C1 3991   1.451   1.775  11.024  0.7567  0.1731 -0.2254
  264TMC3    C2 3992   1.349   1.871  11.013 -0.6895  0.2574 -0.6500
  264TMC3    C3 3993   1.319   1.915  10.884 -0.5280 -0.2473  0.0370
  264TMC3    C4 3994   1.508   1.725  10.916  0.3500 -0.3822  0.1116
  264TMC3    C5 3995   1.481   1.773  10.793  0.6798  0.1913 -0.3418
  264TMC3    C6 3996   1.374   1.857  10.770 -0.7747  0.6431  0.0469
  264TMC3     C 3997   1.412   1.687  11.129 -0.4063  0.1962  0.1072
  264TMC3     O 3998   1.286   1.687  11.143 -0.2053  0.7543  0.2211
  264TMC3     H 3999   1.302   1.916  11.099  0.6014  0.2000  0.0913
  264TMC3    H1 4000   1.583   1.649  10.934 -0.5619 -1.3237 -0.0854
  264TMC3    H2 4001   1.336   1.875  10.670  1.3032  1.1516 -0.6463
  264TMC3    C7 4002   1.591   1.792  10.703  0.2490  0.0373  0.1721
  264TMC3    C8 4003   1.322   2.058  10.860 -0.0122 -0.1650  0.2951
  264TMC3    O1 4004   1.665   1.704  10.666  0.1195 -0.1687  0.0954
  264TMC3    O2 4005   1.389   2.092  10.759  0.0806  0.2713  0.0897
  265MPD2     C 4006   2.891   2.426  15.773 -0.0551  0.1299 -0.9722
  265MPD2    C1 4007   2.944   2.542  15.730 -0.2078 -0.5733  0.6652
  265MPD2    C2 4008   3.029   2.536  15.626 -0.0708 -0.4954  0.1604
  265MPD2    C3 4009   3.055   2.417  15.565  0.3341 -0.0117 -0.0941
  265MPD2    C4 4010   2.991   2.301  15.602  0.3195  0.1144 -1.0419
  265MPD2    C5 4011   2.905   2.304  15.710  0.1566 -0.8585  0.4301
  265MPD2     H 4012   3.069   2.629  15.588 -0.1920 -1.9052 -3.3982
  265MPD2    H1 4013   3.008   2.209  15.547  0.2313 -0.8825  0.5828
  265MPD2    H2 4014   2.833   2.424  15.865  0.6138 -1.1679 -0.5831
  265MPD2    H3 4015   2.856   2.215  15.749 -0.5415 -0.9442 -0.6396
  265MPD2     N 4016   3.158   2.406  15.466  0.3040  0.3923  0.1630
  265MPD2    H5 4017   3.185   2.317  15.426  0.2048 -0.1970  1.4303
  265MPD2    N1 4018   2.925   2.668  15.791  0.3360 -0.3090  0.0568
  265MPD2    H7 4019   2.960   2.752  15.747  0.2040 -0.1424  0.2698
  266TMC3    C1 4020   2.848   2.828  15.958 -0.4913 -0.4262  0.6276
  266TMC3    C2 4021   2.815   2.852  16.089  0.2277 -0.2833 -0.1354
  266TMC3    C3 4022   2.814   2.978  16.136  0.5153 -0.3496 -0.1166
  266TMC3    C4 4023   2.876   2.929  15.873 -0.3053  0.1890 -0.2938
  266TMC3    C5 4024   2.875   3.060  15.922  0.8349 -0.4942  0.7140
  266TMC3    C6 4025   2.851   3.079  16.054  0.2100 -0.1011 -0.7217
  266TMC3     C 4026   2.859   2.687  15.911 -0.5195  0.4538  0.2748
  266TMC3     O 4027   2.807   2.601  15.982  0.1346  0.1970  0.1080
  266TMC3     H 4028   2.778   2.770  16.149 -1.8866  0.3375 -0.6055
  266TMC3    H1 4029   2.909   2.922  15.770  1.3370 -2.7178  0.4528
  266TMC3    H2 4030   2.854   3.183  16.086  1.2466 -0.3331 -0.0638
  266TMC3    C7 4031   2.901   3.173  15.834 -0.3817 -0.4005  0.6101
  266TMC3    C8 4032   2.879   2.988  16.265 -0.2471 -0.0448 -0.3673
  266TMC3    O1 4033   2.870   3.151  15.718 -0.0460  0.4116  0.2212
  266TMC3    O2 4034   2.925   2.885  16.307 -0.5743 -0.2087  0.0627
  267MPD2     C 4035   4.338   4.383  17.579 -0.8348 -0.4163 -0.2881
  267MPD2    C1 4036   4.430   4.483  17.544 -0.1376 -0.6490 -0.0845
  267MPD2    C2 4037   4.376   4.597  17.491  0.3659 -0.1474 -0.2239
  267MPD2    C3 4038   4.243   4.600  17.449 -0.1834 -0.0323 -0.0649
  267MPD2    C4 4039   4.159   4.498  17.486  0.8250 -0.3158  1.0482
  267MPD2    C5 4040   4.204   4.394  17.553 -0.7603 -0.1596  1.2898
  267MPD2     H 4041   4.441   4.683  17.486  0.3650 -0.1955 -1.0086
  267MPD2    H1 4042   4.053   4.510  17.466  1.7272  1.3675 -2.6493
  267MPD2    H2 4043   4.373   4.295  17.633  1.1028 -0.2145 -1.1915
  267MPD2    H3 4044   4.131   4.320  17.582 -3.9012  1.3691 -2.6531
  267MPD2     N 4045   4.206   4.708  17.365  0.1827 -0.1054 -0.1610
  267MPD2    H5 4046   4.111   0.020  17.379  0.4822  0.1685  1.1818
  267MPD2    N1 4047   4.566   4.453  17.571 -0.5675 -0.0512  0.0840
  267MPD2    H7 4048   4.590   4.367  17.619  1.8379  1.5934  1.7851
  268TMC3    C1 4049   0.072   4.511  17.593 -0.2474  1.1797 -0.5705
  268TMC3    C2 4050   0.183   4.551  17.518 -0.1442  0.3418 -0.6443
  268TMC3    C3 4051   0.302   4.539  17.576  1.0205 -0.6682 -0.3492
  268TMC3    C4 4052   0.083   4.469   0.042 -0.4246  0.5169  0.0607
  268TMC3    C5 4053   0.210   4.456   0.095 -0.1475 -0.0705 -0.0027
  268TMC3    C6 4054   0.318   4.495   0.018 -0.9661 -0.2028  0.3345
  268TMC3     C 4055   4.664   4.539  17.524  0.2169  0.1896  0.1396
  268TMC3     O 4056   4.658   4.614  17.433 -0.7153  0.2798 -0.0681
  268TMC3     H 4057   0.154   4.601  17.426 -0.2999 -0.8392 -1.2345
  268TMC3    H1 4058   4.710   4.444   0.091 -1.0507 -0.5508 -1.6617
  268TMC3    H2 4059   0.413   4.500   0.071 -1.7741 -1.5278  1.9237
  268TMC3    C7 4060   0.235   4.408   0.226 -0.6129  0.0323  0.0975
  268TMC3    C8 4061   0.414   4.615  17.532 -0.4470 -0.1926 -0.3470
  268TMC3    O1 4062   0.349   4.371   0.255 -0.0161  0.1573 -0.5995
  268TMC3    O2 4063   0.486   4.657  17.623  0.3791 -0.1216  0.4207
  269MPD2     C 4064   0.786   3.149  15.882  0.0665 -0.2308  0.2334
  269MPD2    C1 4065   0.651   3.170  15.856  0.0760 -0.0407  0.0324
  269MPD2    C2 4066   0.614   3.297  15.823 -0.0786  0.4459 -0.7326
  269MPD2    C3 4067   0.697   3.402  15.815  0.2995  0.7861 -0.1871
  269MPD2    C4 4068   0.830   3.375  15.848 -0.1595  0.0737 -0.2433
  269MPD2    C5 4069   0.870   3.251  15.889 -0.8351 -0.4047 -0.3577
  269MPD2     H 4070   0.517   3.312  15.777  0.2099  2.6029 -0.6174
  269MPD2    H1 4071   0.909   3.448  15.846 -0.7073  0.6830  0.3887
  269MPD2    H2 4072   0.829   3.056  15.919 -1.1982 -1.4442 -1.3266
  269MPD2    H3 4073   0.973   3.235  15.919 -0.4448  1.9987 -0.4240
  269MPD2     N 4074   0.659   3.527  15.767  0.4639  0.1629 -0.2693
  269MPD2    H5 4075   0.567   3.529  15.724  0.1914  0.7267  0.3463
  269MPD2    N1 4076   0.576   3.053  15.842 -0.1349  0.1041 -0.3515
  269MPD2    H7 4077   0.631   2.967  15.841  0.6070  0.5582  0.6118
  270TMC3    C1 4078   0.371   2.928  15.832 -0.0644  0.2562  0.5651
  270TMC3    C2 4079   0.260   2.908  15.752 -0.6198 -0.3705  0.2672
  270TMC3    C3 4080   0.248   2.780  15.696 -0.3148  0.0618  0.6107
  270TMC3    C4 4081   0.440   2.816  15.883 -0.6323  0.3303  0.6615
  270TMC3    C5 4082   0.408   2.698  15.835  0.2346 -1.0251  0.1715
  270TMC3    C6 4083   0.311   2.670  15.741  0.1849  0.1039 -0.3185
  270TMC3     C 4084   0.437   3.057  15.829  0.1158  0.1620  0.2845
  270TMC3     O 4085   0.365   3.160  15.827  0.1248  0.5192  0.0952
  270TMC3     H 4086   0.210   2.991  15.704 -3.1173 -3.1870 -2.0137
  270TMC3    H1 4087   0.529   2.829  15.943  1.5604  0.0439 -2.5386
  270TMC3    H2 4088   0.295   2.570  15.702  0.2271  0.2292 -0.6547
  270TMC3    C7 4089   0.491   2.586  15.880  0.5168  0.5297 -0.5810
  270TMC3    C8 4090   0.184   2.776  15.563 -0.1704  0.3193  0.3813
  270TMC3    O1 4091   0.606   2.607  15.920 -0.0098  0.0202  0.0797
  270TMC3    O2 4092   0.066   2.811  15.549 -0.1816 -0.2841  0.0891
  271MPD2     C 4093   0.146   2.330  13.877 -0.9471  0.3279  0.0218
  271MPD2    C1 4094   0.099   2.382  13.991 -0.3157  0.2056  0.0927
  271MPD2    C2 4095   4.703   2.466  13.977 -0.3359  0.6155 -0.0791
  271MPD2    C3 4096   4.651   2.501  13.855  0.5470 -0.1594 -0.6640
  271MPD2    C4 4097   4.709   2.455  13.743 -0.1257 -0.3131  0.3757
  271MPD2    C5 4098   0.099   2.375  13.757 -0.9032 -0.6919 -0.7419
  271MPD2     H 4099   4.663   2.509  14.068 -0.1933  2.4039 -0.8717
  271MPD2    H1 4100   4.675   2.465  13.640 -1.3829  1.1079  0.9210
  271MPD2    H2 4101   0.225   2.256  13.876 -2.0750 -0.8685 -0.4761
  271MPD2    H3 4102   0.138   2.328  13.668  2.9064 -2.2404  1.7322
  271MPD2     N 4103   4.526   2.565  13.845 -0.1109  0.0692  0.4229
  271MPD2    H5 4104   4.512   2.598  13.750  1.9592 -1.7003 -0.4865
  271MPD2    N1 4105   0.145   2.351  14.125 -0.0893 -0.0539  0.7416
  271MPD2    H7 4106   0.100   2.393  14.206  0.2823 -0.8048  1.3337
  272TMC3    C1 4107   0.298   2.278  14.292  0.1243  0.2536  0.4529
  272TMC3    C2 4108   0.433   2.272  14.311  0.1419 -0.9438  0.3827
  272TMC3    C3 4109   0.476   2.319  14.431 -0.8236 -0.2921  0.0647
  272TMC3    C4 4110   0.206   2.286  14.393  0.2482 -0.5380 -0.0251
  272TMC3    C5 4111   0.258   2.332  14.516 -0.1568 -0.8665 -0.7142
  272TMC3    C6 4112   0.392   2.360  14.530 -0.4298 -0.7224 -0.5498
  272TMC3     C 4113   0.263   2.290  14.150 -0.3182  0.4338  0.8827
  272TMC3     O 4114   0.348   2.257  14.067  0.2959 -0.9194 -0.3414
  272TMC3     H 4115   0.503   2.252  14.231 -0.7423 -0.1918 -0.5804
  272TMC3    H1 4116   0.099   2.278  14.382  0.4271  0.4034 -2.3346
  272TMC3    H2 4117   0.422   2.391  14.630  1.4782 -1.2422 -0.9687
  272TMC3    C7 4118   0.175   2.421  14.598 -0.5883 -0.2259  0.6688
  272TMC3    C8 4119   0.618   2.319  14.442 -0.2229 -0.2483 -0.1908
  272TMC3    O1 4120   0.231   2.517  14.647  0.0615 -0.6866 -0.3024
  272TMC3    O2 4121   0.685   2.359  14.346 -0.1933 -0.0634  0.0929
  273MPD2     C 4122   1.928   0.124  11.914 -0.3532  0.4172  0.3533
  273MPD2    C1 4123   2.048   0.195  11.921  0.1177  1.3938  0.0560
  273MPD2    C2 4124   2.101   0.256  11.806  0.1906 -1.1005  0.7359
  273MPD2    C3 4125   2.021   0.248  11.694  0.2374 -0.0019 -0.4000
  273MPD2    C4 4126   1.908   0.174  11.689 -0.4388 -0.4289 -0.0867
  273MPD2    C5 4127   1.856   0.107  11.797  0.1982  0.6806  0.3624
  273MPD2     H 4128   2.200   0.300  11.798 -0.3649 -0.0404 -0.3058
  273MPD2    H1 4129   1.852   0.164  11.597  0.0385 -0.8040 -0.3319
  273MPD2    H2 4130   1.899   0.077  12.007  2.1943 -1.2903  0.2801
  273MPD2    H3 4131   1.768   0.043  11.792  0.3435  0.3359  2.3541
  273MPD2     N 4132   2.045   0.320  11.575  0.0177  0.3061 -0.6996
  273MPD2    H5 4133   1.981   0.298  11.500  1.6783  1.9033 -2.6108
  273MPD2    N1 4134   2.108   0.202  12.048  0.5942  0.4701  0.1782
  273MPD2    H7 4135   2.060   0.155  12.124 -0.3658 -2.7408 -2.3757
  274TMC3    C1 4136   2.124   0.482  11.425  0.5426  0.2916 -0.1573
  274TMC3    C2 4137   2.010   0.481  11.348  0.8197  0.1810 -0.4661
  274TMC3    C3 4138   2.017   0.544  11.227  0.1877 -0.6661 -0.5996
  274TMC3    C4 4139   2.234   0.556  11.392  0.6668  0.0607 -0.3116
  274TMC3    C5 4140   2.235   0.619  11.270 -0.0832  0.0395  0.5072
  274TMC3    C6 4141   2.132   0.598  11.175  0.2643 -0.4835  0.4336
  274TMC3     C 4142   2.135   0.421  11.558 -0.3283 -0.8135  0.3316
  274TMC3     O 4143   2.211   0.476  11.634  0.2750 -0.3851 -0.5860
  274TMC3     H 4144   1.919   0.440  11.390  0.1317  0.3525 -1.7893
  274TMC3    H1 4145   2.316   0.565  11.462 -1.0860 -4.4201  2.3327
  274TMC3    H2 4146   2.130   0.649  11.078 -1.0351 -0.5966  0.3968
  274TMC3    C7 4147   2.276   0.756  11.275 -0.4598  0.3407 -0.1691
  274TMC3    C8 4148   1.918   0.494  11.132 -0.1456 -0.6888  0.2332
  274TMC3    O1 4149   2.198   0.831  11.212  0.6813  0.5923  0.4852
  274TMC3    O2 4150   1.829   0.425  11.179  0.4391  0.1165  0.4238
  275MPD2     C 4151   1.243   3.528  14.316  0.2655  0.5912 -0.0221
  275MPD2    C1 4152   1.125   3.601  14.322 -0.2181 -0.1634 -0.2049
  275MPD2    C2 4153   1.016   3.542  14.268  0.5250 -0.3111  0.0366
  275MPD2    C3 4154   1.018   3.419  14.200 -0.4715  0.0755 -0.0443
  275MPD2    C4 4155   1.136   3.353  14.194 -0.2072 -0.2689 -0.5179
  275MPD2    C5 4156   1.246   3.408  14.254 -0.3162 -0.2784  0.0019
  275MPD2     H 4157   0.925   3.601  14.274 -0.7174 -2.1389 -0.9081
  275MPD2    H1 4158   1.144   3.251  14.158  1.2486 -0.0026 -0.9303
  275MPD2    H2 4159   1.335   3.558  14.364 -0.0642 -0.6801  1.4408
  275MPD2    H3 4160   1.338   3.353  14.270  0.0973  0.0610 -1.1979
  275MPD2     N 4161   0.901   3.347  14.159 -0.1169  1.1814  0.3982
  275MPD2    H5 4162   0.918   3.254  14.121 -2.1172  1.0786 -0.2351
  275MPD2    N1 4163   1.114   3.730  14.378  0.4513  0.2607  0.1806
  275MPD2    H7 4164   1.029   3.784  14.367  0.3927 -0.0538 -0.9594
  276TMC3    C1 4165   1.160   3.912  14.520  0.0701  0.3244  0.7801
  276TMC3    C2 4166   1.036   3.893  14.564 -0.1017 -0.8925  0.5963
  276TMC3    C3 4167   1.006   3.946  14.694  0.2107  0.5901 -0.1443
  276TMC3    C4 4168   1.253   3.974  14.601 -0.1467 -0.3214  0.5822
  276TMC3    C5 4169   1.214   4.040  14.717  0.4906  0.2096  0.1476
  276TMC3    C6 4170   1.088   4.029  14.769 -0.3375 -0.5623 -0.0806
  276TMC3     C 4171   1.208   3.799  14.447  0.3657  0.3948 -0.8951
  276TMC3     O 4172   1.332   3.769  14.461  0.0155 -0.1468  0.0886
  276TMC3     H 4173   0.955   3.838  14.517 -0.6906  0.5683 -0.0994
  276TMC3    H1 4174   1.350   3.994  14.557  0.1117  1.2271  1.8679
  276TMC3    H2 4175   1.057   4.081  14.859  1.8630  1.5769 -0.5544
  276TMC3    C7 4176   1.318   4.112  14.794  0.9661 -0.0872  0.1250
  276TMC3    C8 4177   0.867   3.938  14.740  0.6227  0.3195 -0.1064
  276TMC3    O1 4178   1.281   4.196  14.875 -0.3252  0.0416 -0.5302
  276TMC3    O2 4179   0.779   3.943  14.655 -0.1915  0.2060  0.1881
  277MPD2     C 4180   3.801   2.142  13.283 -0.4766  0.3891  0.0135
  277MPD2    C1 4181   3.682   2.188  13.332  0.1341 -0.3039  0.0488
  277MPD2    C2 4182   3.644   2.172  13.465 -0.3243 -0.1300 -0.0718
  277MPD2    C3 4183   3.734   2.099  13.549 -0.0668 -0.3540  0.3351
  277MPD2    C4 4184   3.857   2.056  13.502  0.1680 -0.1589 -0.5446
  277MPD2    C5 4185   3.879   2.075  13.368  0.3336 -0.0344 -0.3307
  277MPD2     H 4186   3.553   2.217  13.502 -0.1708  0.2986 -0.2224
  277MPD2    H1 4187   3.933   2.011  13.565  0.7029  1.9502  0.3150
  277MPD2    H2 4188   3.838   2.171  13.185 -0.6659  0.4682 -0.0339
  277MPD2    H3 4189   3.970   2.048  13.315  0.6607  1.1930 -0.3872
  277MPD2     N 4190   3.689   2.069  13.683 -0.5363  0.0613 -0.2880
  277MPD2    H5 4191   3.601   2.112  13.712 -0.8553 -0.9662  0.2511
  277MPD2    N1 4192   3.612   2.273  13.236  0.2351  0.1489  0.0772
  277MPD2    H7 4193   3.659   2.295  13.149  0.1669 -0.4955 -0.1247
  278TMC3    C1 4194   3.634   1.968  13.886  0.0893 -0.9025  0.7163
  278TMC3    C2 4195   3.597   1.837  13.880  0.0991 -0.3372 -0.4106
  278TMC3    C3 4196   3.475   1.810  13.926  0.1810  0.0521 -0.5054
  278TMC3    C4 4197   3.559   2.073  13.932  0.6233  0.4465 -0.5187
  278TMC3    C5 4198   3.441   2.034  13.986 -0.7407  0.8244 -0.2140
  278TMC3    C6 4199   3.398   1.905  13.986  0.0850 -0.2364 -0.5723
  278TMC3     C 4200   3.742   1.995  13.787  0.0835 -0.4402  0.8969
  278TMC3     O 4201   3.846   1.923  13.786  0.2030  0.2709  0.0414
  278TMC3     H 4202   3.670   1.766  13.842  0.2387 -0.5058  0.1634
  278TMC3    H1 4203   3.600   2.174  13.936 -1.4550  1.1777  2.0986
  278TMC3    H2 4204   3.295   1.886  14.015 -0.6390  1.3274 -2.0840
  278TMC3    C7 4205   3.363   2.147  14.048 -0.2961 -0.2208 -0.1951
  278TMC3    C8 4206   3.405   1.683  13.911  0.0795  0.4984  0.3927
  278TMC3    O1 4207   3.435   2.242  14.083  0.4578 -0.1087 -0.1010
  278TMC3    O2 4208   3.309   1.663  13.986 -0.4555  0.2783  0.5636
  279MPD2     C 4209   2.337   3.498   0.566  0.5496  0.2457  0.3482
  279MPD2    C1 4210   2.208   3.477   0.522  0.3524 -0.1037  0.3015
  279MPD2    C2 4211   2.190   3.490   0.380 -0.4510  0.4414  0.2522
  279MPD2    C3 4212   2.299   3.503   0.296  0.2896 -0.6179 -0.1141
  279MPD2    C4 4213   2.425   3.522   0.345 -0.1893  0.4538 -0.0142
  279MPD2    C5 4214   2.443   3.524   0.479 -0.4150  0.0577  0.3272
  279MPD2     H 4215   2.089   3.474   0.343 -0.2269  0.3698 -0.3345
  279MPD2    H1 4216   2.521   3.533   0.296  0.1656 -2.6450 -0.0379
  279MPD2    H2 4217   2.355   3.488   0.673 -0.4698 -0.5247  0.4513
  279MPD2    H3 4218   2.542   3.535   0.523 -0.7139 -0.7855  1.1996
  279MPD2     N 4219   2.273   3.503   0.158  0.0360  0.5216  0.6104
  279MPD2    H5 4220   2.348   3.535   0.097 -0.9288  0.6023 -0.5357
  279MPD2    N1 4221   2.091   3.444   0.599  0.2955  0.0573 -0.2518
  279MPD2    H7 4222   2.001   3.461   0.555  0.4036 -0.6065 -0.7342
  280TMC3    C1 4223   1.960   3.366   0.759 -0.0247 -0.4643  0.3623
  280TMC3    C2 4224   1.948   3.249   0.683 -0.0585 -1.1878 -0.0120
  280TMC3    C3 4225   1.851   3.229   0.590 -0.9782 -0.2870 -0.1204
  280TMC3    C4 4226   1.864   3.460   0.731 -0.0496  0.2021  0.8803
  280TMC3    C5 4227   1.768   3.448   0.635 -0.2980 -0.2618  0.3604
  280TMC3    C6 4228   1.761   3.333   0.562  0.2286  0.7909 -0.0050
  280TMC3     C 4229   2.089   3.417   0.730 -1.1273  0.8396  0.3709
  280TMC3     O 4230   2.181   3.401   0.810 -0.3112  0.4981 -0.6226
  280TMC3     H 4231   2.038   3.190   0.678 -0.6899 -2.1673  0.0933
  280TMC3    H1 4232   1.877   3.556   0.779  0.7809  1.1360 -1.2054
  280TMC3    H2 4233   1.693   3.325   0.478  0.7085  1.3973 -0.4563
  280TMC3    C7 4234   1.747   3.575   0.560 -0.7147 -0.4822  0.3894
  280TMC3    C8 4235   1.891   3.161   0.467  0.4572 -0.0947  0.1079
  280TMC3    O1 4236   1.822   3.668   0.585 -0.8917 -0.2243  0.0311
  280TMC3    O2 4237   1.855   3.217   0.363  0.5443 -0.4488 -1.1392
  281TMC3    C1 4238   1.116   2.356  13.064  0.2289 -0.2880 -0.2989
  281TMC3    C2 4239   1.202   2.455  13.013 -0.1145 -0.3381  0.2372
  281TMC3    C3 4240   1.299   2.411  12.924  0.1626 -0.3455 -0.1183
  281TMC3    C4 4241   1.130   2.225  13.035 -0.3139  0.5926  0.2724
  281TMC3    C5 4242   1.228   2.186  12.954  0.1929  0.2894 -0.7506
  281TMC3    C6 4243   1.322   2.273  12.905  0.0660 -0.0226  0.0303
  281TMC3     C 4244   0.982   2.401  13.089  0.3094  0.5705  0.8638
  281TMC3     O 4245   0.895   2.320  13.069 -0.5196  0.0114  0.0077
  281TMC3     H 4246   1.194   2.561  13.033 -2.0493 -0.5028  0.3778
  281TMC3    H1 4247   1.060   2.152  13.074  1.3596 -2.3545 -2.2187
  281TMC3    H2 4248   1.405   2.234  12.847 -2.5731 -0.3017 -3.5462
  281TMC3    C7 4249   1.283   2.052  12.978 -0.4109  0.2373 -0.3878
  281TMC3    C8 4250   1.399   2.502  12.867  0.5431  0.2883  0.6374
  281TMC3    O1 4251   1.330   1.986  12.891  0.3238  0.1556  0.3346
  281TMC3    O2 4252   1.515   2.463  12.862  0.0510  0.2417 -0.5828
  282MPD2     C 4253   3.175   4.337  15.365  0.3787 -0.3344  0.3680
  282MPD2    C1 4254   3.038   4.374  15.353 -0.0736 -0.2130 -0.2324
  282MPD2    C2 4255   2.967   4.346  15.240  0.2387 -0.0358 -0.2770
  282MPD2    C3 4256   3.033   4.280  15.137 -0.1055  0.3313 -0.2037
  282MPD2    C4 4257   3.162   4.233  15.149 -0.1308 -0.3374  0.0671
  282MPD2    C5 4258   3.229   4.258  15.263 -0.5045 -0.1864  0.9183
  282MPD2     H 4259   2.867   4.385  15.226 -0.3103 -0.2068  3.1775
  282MPD2    H1 4260   3.218   4.181  15.073 -2.1508 -0.5908 -1.2333
  282MPD2    H2 4261   3.231   4.376  15.449 -1.6536 -1.0320  2.0469
  282MPD2    H3 4262   3.334   4.231  15.276 -0.7745 -0.5335  2.3563
  282MPD2     N 4263   2.952   4.262  15.020  0.4676  0.2673 -0.1977
  282MPD2    H5 4264   2.854   4.286  15.031  0.4086  0.4600 -1.1651
  282MPD2    N1 4265   2.965   4.440  15.448 -0.2896  0.0184  0.2897
  282MPD2    H7 4266   2.868   4.461  15.428 -0.1989 -1.3220 -1.6061
  283TMC3    C1 4267   2.907   4.479  15.671 -0.2237 -0.2708  1.3315
  283TMC3    C2 4268   2.849   4.598  15.678  0.4470 -0.5507 -0.6105
  283TMC3    C3 4269   2.738   4.611  15.754 -0.4658  0.2211 -0.4696
  283TMC3    C4 4270   2.856   4.365  15.733 -0.8428 -0.1477 -0.0199
  283TMC3    C5 4271   2.751   4.383  15.810 -0.1971  0.6054 -0.2337
  283TMC3    C6 4272   2.683   4.504  15.826  0.3697 -0.4818  0.0508
  283TMC3     C 4273   3.007   4.456  15.579  0.2128 -0.6771  0.0293
  283TMC3     O 4274   3.108   4.431  15.636  0.2372  0.3097  0.2165
  283TMC3     H 4275   2.904   4.672  15.621 -0.9748  0.4702 -0.6527
  283TMC3    H1 4276   2.903   4.269  15.722 -0.1621  0.1324  0.4400
  283TMC3    H2 4277   2.606   4.507  15.902 -1.2259  0.2426 -1.5856
  283TMC3    C7 4278   2.726   4.268  15.889 -0.8420 -0.4541  0.5907
  283TMC3    C8 4279   2.704   0.014  15.809 -0.2585  0.3882  0.7631
  283TMC3    O1 4280   2.823   4.212  15.937 -0.6245  0.2429 -0.0056
  283TMC3    O2 4281   2.648   0.017  15.917 -0.5635 -0.2914  0.7202
  284MPD2     C 4282   1.698   2.925  11.633  0.4421 -0.1903  0.2112
  284MPD2    C1 4283   1.795   2.837  11.592 -0.1495 -0.5903  0.0423
  284MPD2    C2 4284   1.762   2.723  11.520 -0.3167 -0.0541 -0.0558
  284MPD2    C3 4285   1.633   2.699  11.484 -0.1539  0.0946  0.6705
  284MPD2    C4 4286   1.533   2.790  11.516 -0.1253 -0.0262 -0.5688
  284MPD2    C5 4287   1.574   2.901  11.584  0.1839  0.1503  0.1585
  284MPD2     H 4288   1.841   2.657  11.485 -1.6715 -1.7182  0.0187
  284MPD2    H1 4289   1.428   2.787  11.491  0.1576 -1.1478 -1.6343
  284MPD2    H2 4290   1.730   3.012  11.690 -1.2686 -0.5758  1.7423
  284MPD2    H3 4291   1.503   2.982  11.601  0.3806  0.5236 -0.8083
  284MPD2     N 4292   1.605   2.579  11.420 -0.3348 -0.5754 -0.3178
  284MPD2    H5 4293   1.679   2.538  11.363  0.4824 -2.3768  2.0698
  284MPD2    N1 4294   1.930   2.869  11.611 -0.2404 -0.0606  0.8038
  284MPD2    H7 4295   1.999   2.829  11.549 -1.8405 -1.7287  0.0779
  285TMC3    C1 4296   2.136   2.965  11.682  1.2521  0.0549 -0.4869
  285TMC3    C2 4297   2.195   2.880  11.590 -0.4954  0.8901  0.4376
  285TMC3    C3 4298   2.284   2.933  11.503 -0.6265  0.0765 -0.3335
  285TMC3    C4 4299   2.178   3.092  11.690 -0.0528  0.5203  0.0660
  285TMC3    C5 4300   2.277   3.136  11.612  0.1877 -0.3168  0.2047
  285TMC3    C6 4301   2.337   3.056  11.517 -0.1572 -0.0078  0.0430
  285TMC3     C 4302   1.991   2.951  11.700  0.5713 -0.2010  0.0643
  285TMC3     O 4303   1.935   3.030  11.780  0.3331 -0.3858  0.1887
  285TMC3     H 4304   2.169   2.775  11.593  1.3963  0.3806 -0.6467
  285TMC3    H1 4305   2.121   3.152  11.760  1.6888  3.8967 -1.3649
  285TMC3    H2 4306   2.396   3.106  11.442 -2.9940  0.2783 -1.9715
  285TMC3    C7 4307   2.322   3.276  11.631  0.8091 -0.8240  0.8560
  285TMC3    C8 4308   2.242   2.898  11.373  0.4927  0.3333 -0.3705
  285TMC3    O1 4309   2.267   3.336  11.723  0.2152  0.3711  0.1880
  285TMC3    O2 4310   2.147   2.821  11.370  0.4217  0.1896  0.3931
  286MPD2     C 4311   1.449   2.569   1.539  0.5986 -0.2861 -0.5610
  286MPD2    C1 4312   1.476   2.495   1.429  0.2291 -0.6653 -0.7751
  286MPD2    C2 4313   1.572   2.398   1.432 -0.3698  0.3416  0.6718
  286MPD2    C3 4314   1.657   2.385   1.541 -0.4531 -0.0157  0.2315
  286MPD2    C4 4315   1.638   2.466   1.652  0.0905 -0.1650 -0.5140
  286MPD2    C5 4316   1.530   2.548   1.654  1.2857  0.4196  0.4521
  286MPD2     H 4317   1.582   2.337   1.343  0.9857  2.7924 -0.8748
  286MPD2    H1 4318   1.711   2.463   1.733  1.2984 -3.5164 -1.7457
  286MPD2    H2 4319   1.360   2.630   1.543 -0.1608 -1.3445 -1.3949
  286MPD2    H3 4320   1.512   2.602   1.746 -1.9586 -0.8855  0.5803
  286MPD2     N 4321   1.766   2.304   1.548  0.2321  0.5855  0.0318
  286MPD2    H5 4322   1.818   2.312   1.634  0.3119  1.9607 -0.1512
  286MPD2    N1 4323   1.387   2.498   1.315 -0.8281 -0.8840  0.0932
  286MPD2    H7 4324   1.392   2.422   1.249 -2.4320  1.1035 -2.3188
  287TMC3    C1 4325   1.944   2.165   1.477 -0.3677  0.0771  0.0881
  287TMC3    C2 4326   1.991   2.076   1.384 -0.1938  0.2604  0.4440
  287TMC3    C3 4327   2.126   2.063   1.355  0.2732  0.3202  0.5530
  287TMC3    C4 4328   2.031   2.233   1.554  0.1487 -0.5513 -0.4855
  287TMC3    C5 4329   2.169   2.211   1.527  0.2190  0.4169  0.0316
  287TMC3    C6 4330   2.219   2.128   1.430 -0.3233  0.0919 -0.8887
  287TMC3     C 4331   1.812   2.220   1.451  0.6078 -0.2184  0.3201
  287TMC3     O 4332   1.756   2.184   1.346 -0.0844  0.2363  0.1233
  287TMC3     H 4333   1.915   2.024   1.326  1.0159  0.3983 -1.2562
  287TMC3    H1 4334   2.000   2.319   1.612  4.4162 -1.0922  2.5585
  287TMC3    H2 4335   2.326   2.111   1.417 -0.4063 -1.2781  0.2786
  287TMC3    C7 4336   2.263   2.256   1.632 -1.0665  0.4275 -0.1765
  287TMC3    C8 4337   2.156   1.989   1.235  0.7960 -0.2704 -0.3739
  287TMC3    O1 4338   2.208   2.347   1.696 -0.2063  0.0092  0.1606
  287TMC3    O2 4339   2.070   1.917   1.196 -0.1107 -0.5993 -0.5712
  288TMC3    C1 4340   3.507   1.788  14.376  0.0970  0.3521  0.2371
  288TMC3    C2 4341   3.445   1.873  14.459  0.0630  0.4129  1.0519
  288TMC3    C3 4342   3.475   2.010  14.458  0.5155  0.2380 -0.6246
  288TMC3    C4 4343   3.605   1.836  14.285  1.0082  0.7821 -0.3692
  288TMC3    C5 4344   3.630   1.977  14.285 -0.1134 -0.1282 -0.4404
  288TMC3    C6 4345   3.561   2.062  14.373 -0.4355 -0.8670  0.0738
  288TMC3     C 4346   3.457   1.651  14.367  0.0826  0.5101  0.7245
  288TMC3     O 4347   3.353   1.619  14.422 -0.0044  0.2487 -0.2556
  288TMC3     H 4348   3.378   1.825  14.529  0.8771 -0.4245  1.2568
  288TMC3    H1 4349   3.670   1.775  14.224  0.6811  1.3914 -1.3183
  288TMC3    H2 4350   3.578   2.169  14.373  0.8950 -1.0774 -1.5202
  288TMC3    C7 4351   3.749   2.010  14.215  1.1275 -0.2896 -0.9177
  288TMC3    C8 4352   3.474   2.076  14.587  0.1576 -0.6478 -0.8241
  288TMC3    O1 4353   3.804   1.928  14.146  0.4639 -0.2287  0.7443
  288TMC3    O2 4354   3.537   2.179  14.589 -0.2908  0.3074 -0.0277
  289MPD2     C 4355   3.534   1.243  14.684  0.6592  0.0079 -0.6825
  289MPD2    C1 4356   3.469   1.214  14.564  0.2091  0.7698 -0.1982
  289MPD2    C2 4357   3.335   1.230  14.548  0.3500  0.6633  0.6365
  289MPD2    C3 4358   3.261   1.287  14.649  0.2007  0.8370  0.5642
  289MPD2    C4 4359   3.322   1.326  14.767 -0.3493  0.0031 -0.3084
  289MPD2    C5 4360   3.453   1.299  14.782  0.4172  0.5873  0.4035
  289MPD2     H 4361   3.289   1.216  14.451  1.8706 -0.8733  0.1453
  289MPD2    H1 4362   3.262   1.384  14.835 -1.7276 -0.8365 -0.8072
  289MPD2    H2 4363   3.638   1.222  14.704  0.6835 -0.8844 -1.7687
  289MPD2    H3 4364   3.500   1.309  14.879 -0.4374 -2.0509  1.0740
  289MPD2     N 4365   3.121   1.303  14.632  0.4215  0.3638  0.7266
  289MPD2    H5 4366   3.081   1.370  14.698  0.8310  3.1632 -1.8688
  289MPD2    N1 4367   3.551   1.167  14.458 -0.4942 -0.1072  0.8678
  289MPD2    H7 4368   3.652   1.161  14.469 -0.2536  0.9558 -0.7432
  290TMC3    C1 4369   2.906   1.268  14.557 -0.0713  0.4811  0.2760
  290TMC3    C2 4370   2.863   1.389  14.522 -0.7385  0.3275 -0.0563
  290TMC3    C3 4371   2.748   1.409  14.438  0.9715  0.3793  0.1519
  290TMC3    C4 4372   2.835   1.154  14.519 -0.0947 -0.2716 -0.0895
  290TMC3    C5 4373   2.718   1.168  14.447 -0.4631  0.0208 -0.1868
  290TMC3    C6 4374   2.673   1.295  14.406  0.1783 -0.6656 -0.4969
  290TMC3     C 4375   3.045   1.245  14.535 -1.0570  0.1753  0.3599
  290TMC3     O 4376   3.075   1.154  14.454  0.1174 -0.2602  0.1115
  290TMC3     H 4377   2.916   1.478  14.556  2.0290 -1.6775  0.8926
  290TMC3    H1 4378   2.880   1.058  14.541  1.0685  0.7419  1.9262
  290TMC3    H2 4379   2.583   1.299  14.347  1.2599  0.7283 -2.0475
  290TMC3    C7 4380   2.665   1.064  14.360 -0.0741  0.0618 -0.2170
  290TMC3    C8 4381   2.697   1.537  14.407 -0.1079 -0.0670 -0.7613
  290TMC3    O1 4382   2.629   1.090  14.247  0.2796  0.3531 -0.0775
  290TMC3    O2 4383   2.578   1.537  14.388  0.4632  0.5963  0.1027
  291MPD2     C 4384   2.804   0.542   0.895  0.6967 -0.6219  0.6824
  291MPD2    C1 4385   2.687   0.581   0.825 -0.8040 -0.0953 -0.4270
  291MPD2    C2 4386   2.706   0.628   0.695 -0.7122 -0.2375  0.1305
  291MPD2    C3 4387   2.833   0.638   0.640  1.1991  0.0779 -0.0719
  291MPD2    C4 4388   2.947   0.590   0.710 -0.2340 -0.3731 -0.1860
  291MPD2    C5 4389   2.927   0.545   0.834 -0.0829 -0.3311 -1.0434
  291MPD2     H 4390   2.616   0.663   0.646 -0.8575 -1.8451 -0.7452
  291MPD2    H1 4391   3.052   0.601   0.686  0.1659 -1.3430  1.1601
  291MPD2    H2 4392   2.807   0.514   0.999 -1.6324  0.2512  0.9963
  291MPD2    H3 4393   3.018   0.519   0.887 -0.6988 -1.5820 -0.5890
  291MPD2     N 4394   2.851   0.697   0.511  0.3777  0.3551 -0.4533
  291MPD2    H5 4395   2.936   0.675   0.461 -0.3446 -2.1572 -0.5348
  291MPD2    N1 4396   2.555   0.571   0.871 -0.3112  0.1302 -0.2525
  291MPD2    H7 4397   2.484   0.594   0.802  0.7175 -0.1277 -1.3911
  292TMC3    C1 4398   2.379   0.520   1.021  0.2604  0.1870  0.1365
  292TMC3    C2 4399   2.326   0.574   1.134 -0.0539 -0.5275 -0.5650
  292TMC3    C3 4400   2.194   0.577   1.149 -0.2450 -0.1542  0.9131
  292TMC3    C4 4401   2.304   0.471   0.917 -0.2042 -1.1097 -0.2988
  292TMC3    C5 4402   2.167   0.482   0.937 -0.6706  0.1364 -0.0605
  292TMC3    C6 4403   2.111   0.516   1.052  0.4047 -0.3877  0.4328
  292TMC3     C 4404   2.521   0.532   1.001 -0.4355  0.1261 -0.7005
  292TMC3     O 4405   2.591   0.523   1.099  0.0704  0.6577  0.3477
  292TMC3     H 4406   2.396   0.613   1.208 -0.4959 -0.0999 -0.3743
  292TMC3    H1 4407   2.345   0.440   0.822  0.4008  0.2582 -0.4814
  292TMC3    H2 4408   2.007   0.487   1.065  0.7029 -2.6802 -2.2592
  292TMC3    C7 4409   2.089   0.408   0.842 -0.0469  0.0009 -0.2949
  292TMC3    C8 4410   2.151   0.628   1.277 -0.5927 -0.1665 -0.1421
  292TMC3    O1 4411   2.143   0.335   0.764 -0.1755 -0.4179 -0.0500
  292TMC3    O2 4412   2.235   0.667   1.354  0.1821  0.1715  0.2437
  293MPD2     C 4413   4.563   1.578  12.803  0.4668  0.2847  0.3993
  293MPD2    C1 4414   4.535   1.710  12.777  0.2123 -0.4416  0.1867
  293MPD2    C2 4415   4.552   1.809  12.871 -0.7772 -0.1535  0.3668
  293MPD2    C3 4416   4.605   1.777  12.998 -0.3842 -0.6457 -0.2632
  293MPD2    C4 4417   4.652   1.644  13.018  0.0896  0.5977  0.5693
  293MPD2    C5 4418   4.632   1.551  12.919  0.4502 -0.4846 -0.4809
  293MPD2     H 4419   4.513   1.908  12.848 -0.9733 -0.8553 -2.2846
  293MPD2    H1 4420   4.693   1.608  13.112  1.7325  1.7989  0.3171
  293MPD2    H2 4421   4.557   1.508  12.721 -1.2606  0.9780 -0.0534
  293MPD2    H3 4422   4.659   1.447  12.929  0.4006 -0.7356 -2.9359
  293MPD2     N 4423   4.621   1.875  13.098  0.0588  0.7115  0.1276
  293MPD2    H5 4424   4.602   1.971  13.072  1.3775  0.7379 -0.7365
  293MPD2    N1 4425   4.472   1.742  12.656 -0.5594  0.2644  0.2159
  293MPD2    H7 4426   4.437   1.672  12.591  2.3307 -0.0023 -1.0836
  294TMC3    C1 4427   4.447   1.857  12.446  0.2806 -0.4854 -0.1753
  294TMC3    C2 4428   4.347   1.775  12.401  0.0082 -0.0139  0.2940
  294TMC3    C3 4429   4.312   1.780  12.270  0.6415 -0.0808  0.2169
  294TMC3    C4 4430   4.485   1.967  12.369  0.2221 -0.8545  1.1261
  294TMC3    C5 4431   4.449   1.957  12.237 -0.1055  0.3169 -0.6446
  294TMC3    C6 4432   4.359   1.868  12.183  0.3850 -0.1544 -0.7373
  294TMC3     C 4433   4.461   1.863  12.593 -0.2170  0.1582 -0.3648
  294TMC3     O 4434   4.489   1.967  12.641  1.0619 -0.1418  0.4962
  294TMC3     H 4435   4.290   1.718  12.474  1.6135 -0.6436  1.0554
  294TMC3    H1 4436   4.566   2.034  12.393 -0.4225 -0.2953  1.7392
  294TMC3    H2 4437   4.321   1.871  12.081 -0.2724  1.8832 -0.4423
  294TMC3    C7 4438   4.502   2.062  12.156 -0.5727  0.6192 -0.1074
  294TMC3    C8 4439   4.220   1.679  12.215  0.2321 -0.0245 -0.1142
  294TMC3    O1 4440   4.498   2.176  12.199  0.9327 -1.1733  0.7217
  294TMC3    O2 4441   4.232   1.641  12.097  0.1920 -0.3580  0.6184
  295MPD2     C 4442   3.882   1.369   0.378  0.4859  0.3449 -0.6525
  295MPD2    C1 4443   3.986   1.412   0.468 -0.3852  0.2842  0.3343
  295MPD2    C2 4444   3.945   1.443   0.600  0.5856 -0.8616  0.0060
  295MPD2    C3 4445   3.820   1.408   0.647  0.2750 -0.5160 -0.1518
  295MPD2    C4 4446   3.732   1.366   0.555  0.2715 -0.9078 -0.2640
  295MPD2    C5 4447   3.755   1.366   0.419  0.4339  0.6751 -0.2537
  295MPD2     H 4448   4.025   1.471   0.668  1.7763 -2.6122 -0.6597
  295MPD2    H1 4449   3.635   1.334   0.593  0.1659  1.6380  1.5938
  295MPD2    H2 4450   3.899   1.335   0.277  2.0031 -1.3403  0.1576
  295MPD2    H3 4451   3.676   1.331   0.352  0.8433 -0.0229 -0.3771
  295MPD2     N 4452   3.781   1.410   0.781 -0.2387  0.6474  0.2639
  295MPD2    H5 4453   3.686   1.378   0.798  0.5699 -1.1612  1.3822
  295MPD2    N1 4454   4.126   1.419   0.432 -0.2110 -0.0302  0.7762
  295MPD2    H7 4455   4.196   1.456   0.496  0.2461  1.3939 -0.5341
  296TMC3    C1 4456   3.797   1.407   1.016 -0.3902  0.0866  0.2009
  296TMC3    C2 4457   3.835   1.475   1.126 -0.2740  1.0495 -0.2705
  296TMC3    C3 4458   3.792   1.430   1.249  0.2632  0.0170 -0.0782
  296TMC3    C4 4459   3.713   1.298   1.029  0.1793  0.0715  0.2385
  296TMC3    C5 4460   3.672   1.256   1.156 -0.3381 -0.0638 -0.0212
  296TMC3    C6 4461   3.711   1.324   1.272 -0.6248  0.7392  0.1010
  296TMC3     C 4462   3.856   1.448   0.887  0.3598 -1.0316 -0.8261
  296TMC3     O 4463   3.949   1.531   0.900  0.3609 -0.7402 -0.2994
  296TMC3     H 4464   3.899   1.563   1.120 -0.6455  1.5260  2.6523
  296TMC3    H1 4465   3.685   1.239   0.942 -0.8287 -0.2511  0.7884
  296TMC3    H2 4466   3.695   1.286   1.372  0.0509 -2.7519 -1.1035
  296TMC3    C7 4467   3.576   1.148   1.160  0.7435  0.5427  0.6785
  296TMC3    C8 4468   3.850   1.494   1.371  0.5268 -0.8199 -0.2764
  296TMC3    O1 4469   3.502   1.134   1.063 -0.1351 -0.2638  0.4210
  296TMC3    O2 4470   3.885   1.418   1.460  0.0139  0.1934  0.2935
  297MPD2     C 4471   1.779   3.394  16.744  0.3780 -0.0753 -0.1596
  297MPD2    C1 4472   1.752   3.464  16.635 -0.2114 -0.5840  0.6454
  297MPD2    C2 4473   1.847   3.565  16.595  0.1229  0.3740 -0.7893
  297MPD2    C3 4474   1.962   3.586  16.665 -0.0362  0.5367 -0.4458
  297MPD2    C4 4475   1.985   3.505  16.772 -0.2844 -0.1563 -0.8309
  297MPD2    C5 4476   1.897   3.409  16.815 -0.2396  0.9275 -0.7443
  297MPD2     H 4477   1.823   3.620  16.505  0.6743  1.0528 -0.5211
  297MPD2    H1 4478   2.072   3.522  16.835 -0.7111  0.0975 -0.3116
  297MPD2    H2 4479   1.711   3.325  16.792 -1.3655  2.0788  0.4445
  297MPD2    H3 4480   1.918   3.351  16.903  1.7502  0.8447 -1.2861
  297MPD2     N 4481   2.046   3.693  16.624 -0.1079 -0.4095  0.4071
  297MPD2    H5 4482   2.015   3.752  16.548  0.9944  0.4709  0.6325
  297MPD2    N1 4483   1.637   3.442  16.561 -0.2025 -0.1397  0.5761
  297MPD2    H7 4484   1.628   3.499  16.477  3.9307  0.4455  0.5372
  298TMC3    C1 4485   1.439   3.353  16.487  0.0889 -0.4122  0.4996
  298TMC3    C2 4486   1.484   3.387  16.362 -0.3662 -0.5176  0.1654
  298TMC3    C3 4487   1.390   3.424  16.272 -0.1653 -0.3582 -0.5387
  298TMC3    C4 4488   1.305   3.331  16.509  0.9276 -0.3075 -0.5700
  298TMC3    C5 4489   1.221   3.349  16.409  0.2097 -0.2308  0.1529
  298TMC3    C6 4490   1.255   3.396  16.289 -0.2128 -0.9150  0.2565
  298TMC3     C 4491   1.535   3.357  16.596  0.8387  0.1153 -0.5059
  298TMC3     O 4492   1.508   3.299  16.700 -0.3125  0.0772 -0.2257
  298TMC3     H 4493   1.589   3.388  16.336 -0.7384  1.5723 -1.2917
  298TMC3    H1 4494   1.282   3.300  16.611  2.6421 -3.0956 -1.0309
  298TMC3    H2 4495   1.179   3.422  16.217  0.7043 -2.7957 -1.3872
  298TMC3    C7 4496   1.084   3.323  16.444 -0.6053  0.0396 -0.6701
  298TMC3    C8 4497   1.426   3.443  16.133  0.5945  0.4835  0.7964
  298TMC3    O1 4498   1.050   3.359  16.557  0.0174 -0.4523  0.6839
  298TMC3    O2 4499   1.352   3.396  16.050 -0.0521 -0.2093 -0.0082
  299MPD2     C 4500   2.973   2.553  10.427  0.1411  0.7243  0.3363
  299MPD2    C1 4501   2.987   2.667  10.349  0.2203 -0.2490  0.6984
  299MPD2    C2 4502   2.904   2.675  10.242  0.2594  0.6065 -0.6462
  299MPD2    C3 4503   2.811   2.575  10.207  0.1235 -0.1218  0.4539
  299MPD2    C4 4504   2.821   2.453  10.269  0.3031  0.6494 -0.2497
  299MPD2    C5 4505   2.892   2.448  10.383 -0.4331  0.5575  0.0970
  299MPD2     H 4506   2.912   2.768  10.185 -0.3238  0.8322 -0.3618
  299MPD2    H1 4507   2.750   2.374  10.251  1.9186 -0.1445 -3.1216
  299MPD2    H2 4508   3.034   2.525  10.512  0.8075  0.8011 -0.1172
  299MPD2    H3 4509   2.889   2.362  10.449  0.9403 -0.4256 -1.1500
  299MPD2     N 4510   2.716   2.601  10.106  0.8043 -0.3080 -0.2514
  299MPD2    H5 4511   2.669   2.517  10.078  0.7367  0.1742 -1.5724
  299MPD2    N1 4512   3.095   2.754  10.386 -0.5783 -0.4856  0.4664
  299MPD2    H7 4513   3.137   2.732  10.476 -0.2158  0.4669  0.5288
  300TMC3    C1 4514   2.601   2.692   9.923 -0.4774 -0.4262  0.3021
  300TMC3    C2 4515   2.593   2.784   9.825  0.5437  0.3409 -0.3468
  300TMC3    C3 4516   2.472   2.820   9.775 -0.4074 -0.1573  0.2771
  300TMC3    C4 4517   2.493   2.619   9.960  1.2861  0.3134  0.2788
  300TMC3    C5 4518   2.374   2.645   9.911  0.5036 -0.2739  0.3971
  300TMC3    C6 4519   2.356   2.747   9.820 -0.4247 -0.1658  0.2599
  300TMC3     C 4520   2.710   2.712  10.025  0.9714  0.3463  0.6248
  300TMC3     O 4521   2.777   2.814  10.018 -0.1441  0.3523 -0.0758
  300TMC3     H 4522   2.684   2.829   9.788 -0.7627  1.3838 -2.2446
  300TMC3    H1 4523   2.499   2.547  10.041 -0.1874 -0.6663 -0.4948
  300TMC3    H2 4524   2.256   2.776   9.791 -0.2208 -0.9339 -1.1731
  300TMC3    C7 4525   2.268   2.626  10.002  0.3729  1.1248 -0.3293
  300TMC3    C8 4526   2.444   2.962   9.777  0.1402  0.5886  1.0642
  300TMC3    O1 4527   2.299   2.621  10.119  0.5572  0.1162 -0.4639
  300TMC3    O2 4528   2.336   3.000   9.748 -0.3792 -0.4583 -0.2135
  301MPD2     C 4529   4.511   4.465   1.726 -0.1871 -0.0886 -0.2844
  301MPD2    C1 4530   4.482   4.452   1.592 -0.6329  0.3514  0.0493
  301MPD2    C2 4531   4.553   4.372   1.511  0.0546  0.0789 -0.1909
  301MPD2    C3 4532   4.663   4.304   1.564 -0.1896  0.4547  0.5955
  301MPD2    C4 4533   4.702   4.327   1.694  0.0643 -0.7199  0.1404
  301MPD2    C5 4534   4.631   4.412   1.773 -0.1219 -0.2277 -0.4484
  301MPD2     H 4535   4.544   4.372   1.403  2.1525  1.0873 -0.3774
  301MPD2    H1 4536   0.072   4.290   1.741  1.6066  0.9948 -1.4793
  301MPD2    H2 4537   4.456   4.538   1.784  0.1631  1.8207 -2.3452
  301MPD2    H3 4538   4.651   4.428   1.878 -0.6463  3.2584 -0.8644
  301MPD2     N 4539   0.021   4.217   1.484  0.0265 -0.3672  0.4569
  301MPD2    H5 4540   0.112   4.194   1.524  1.3036  1.2095 -1.5931
  301MPD2    N1 4541   4.370   4.517   1.528  0.4018  0.2530 -0.0501
  301MPD2    H7 4542   4.357   4.507   1.428 -1.6515 -1.4760  0.3868
  302TMC3    C1 4543   0.100   4.094   1.290  0.6817  0.4823  0.6045
  302TMC3    C2 4544   0.203   4.035   1.369 -0.5923  0.1383 -0.4074
  302TMC3    C3 4545   0.278   3.940   1.297 -0.1906 -0.0584 -0.4452
  302TMC3    C4 4546   0.076   4.065   1.158 -0.1054 -0.2966  0.3330
  302TMC3    C5 4547   0.157   3.969   1.103  0.3705 -0.1534 -0.1142
  302TMC3    C6 4548   0.258   3.906   1.167  0.2008 -0.0857  0.7193
  302TMC3     C 4549   0.004   4.190   1.351 -0.3360  0.2521 -0.1884
  302TMC3     O 4550   4.636   4.205   1.270 -0.4614  0.0881  0.2788
  302TMC3     H 4551   0.224   4.065   1.471  0.8434 -1.0648 -0.3477
  302TMC3    H1 4552   0.010   4.125   1.097  0.4555  1.1948  1.1684
  302TMC3    H2 4553   0.323   3.832   1.122 -0.9408 -0.3499 -0.5032
  302TMC3    C7 4554   0.164   3.934   0.960  0.5423  0.4125  0.4845
  302TMC3    C8 4555   0.389   3.863   1.356 -0.1977 -0.0918  0.6452
  302TMC3    O1 4556   0.249   3.859   0.912  0.2284  0.3460 -1.1009
  302TMC3    O2 4557   0.471   3.814   1.279 -0.1600  0.1751  0.2819
  303MPD2     C 4558   0.406   1.883   9.942 -0.3624  0.2015 -0.1544
  303MPD2    C1 4559   0.313   1.932  10.037  1.1455 -0.6905 -0.0059
  303MPD2    C2 4560   0.230   2.034   9.994  0.0306  0.3328  0.4214
  303MPD2    C3 4561   0.241   2.089   9.868  0.6247  0.4604  0.3115
  303MPD2    C4 4562   0.335   2.046   9.781 -0.1646  0.4461  0.7407
  303MPD2    C5 4563   0.404   1.936   9.813  0.7996 -0.2621  0.4803
  303MPD2     H 4564   0.156   2.070  10.064 -0.2406  0.1969  0.2076
  303MPD2    H1 4565   0.348   2.087   9.682 -2.6222 -0.1262  0.1938
  303MPD2    H2 4566   0.466   1.794   9.957  0.6803  1.0848  0.8725
  303MPD2    H3 4567   0.470   1.895   9.738  0.9918 -0.7313  0.9008
  303MPD2     N 4568   0.158   2.198   9.827 -0.1393  0.0415  0.6072
  303MPD2    H5 4569   0.171   2.227   9.730  1.5723 -0.7881  0.5734
  303MPD2    N1 4570   0.287   1.866  10.158  0.0691  0.2677 -0.5277
  303MPD2    H7 4571   0.338   1.779  10.168 -0.8313  0.1242  2.8140
  304TMC3    C1 4572   0.184   1.775  10.346 -0.1392 -0.2054 -0.3235
  304TMC3    C2 4573   0.106   1.806  10.453 -0.5431  0.3025  0.3986
  304TMC3    C3 4574   0.018   1.711  10.492 -0.0621 -0.4114 -0.3650
  304TMC3    C4 4575   0.175   1.652  10.294  0.1375  0.1025  0.0229
  304TMC3    C5 4576   0.103   1.557  10.362 -0.6096 -0.2953  0.6301
  304TMC3    C6 4577   0.030   1.578  10.471  0.0718 -0.2690  0.3686
  304TMC3     C 4578   0.187   1.882  10.250 -0.2409 -0.0085 -0.1064
  304TMC3     O 4579   0.115   1.981  10.270  0.0834 -0.0968 -0.1022
  304TMC3     H 4580   0.086   1.907  10.486  1.6259  1.1682 -0.9564
  304TMC3    H1 4581   0.234   1.607  10.215  1.9424 -1.5980  2.3313
  304TMC3    H2 4582   4.687   1.507  10.522 -2.0276  1.0763 -0.3684
  304TMC3    C7 4583   0.042   1.473  10.257 -0.4717  0.2760 -0.0910
  304TMC3    C8 4584   4.602   1.747  10.469  0.5328 -0.0670  0.4405
  304TMC3    O1 4585   0.117   1.417  10.175 -0.1289  0.1408 -0.5619
  304TMC3    O2 4586   4.529   1.646  10.453 -0.0839 -0.3918  0.6041
  305MPD2     C 4587   3.193   4.470  14.080 -0.6535 -0.0670 -0.0585
  305MPD2    C1 4588   3.192   4.340  14.115  0.2407  0.8446  0.5149
  305MPD2    C2 4589   3.184   4.240  14.015  0.7932 -0.7518  0.0185
  305MPD2    C3 4590   3.192   4.275  13.879 -0.6393 -0.2543 -0.3499
  305MPD2    C4 4591   3.205   4.409  13.845  0.4144 -0.1982  0.0148
  305MPD2    C5 4592   3.196   4.503  13.948 -0.3636 -0.2055 -0.1659
  305MPD2     H 4593   3.169   4.136  14.042 -2.9609 -0.9663 -2.8879
  305MPD2    H1 4594   3.219   4.444  13.743 -0.4251  1.9614  0.6405
  305MPD2    H2 4595   3.189   4.551  14.151 -3.4148 -1.5554  1.4695
  305MPD2    H3 4596   3.198   4.609  13.923 -2.0181 -0.0869  0.2242
  305MPD2     N 4597   3.191   4.181  13.778 -0.0915 -0.4631 -0.6093
  305MPD2    H5 4598   3.196   4.215  13.682  1.8734  1.2051  0.0813
  305MPD2    N1 4599   3.160   4.320  14.250  0.0460 -0.1404  0.1487
  305MPD2    H7 4600   3.137   4.400  14.309  0.3362  2.2481 -2.9897
  306TMC3    C1 4601   3.199   4.230  14.449  0.1754  0.2772  1.3236
  306TMC3    C2 4602   3.313   4.192  14.507 -0.3678  0.2762  0.1081
  306TMC3    C3 4603   3.339   4.236  14.633 -0.5074  0.6251 -0.0711
  306TMC3    C4 4604   3.110   4.317  14.511  0.2053  0.0837  0.1067
  306TMC3    C5 4605   3.150   4.371  14.628 -0.0171  0.1540  0.1376
  306TMC3    C6 4606   3.261   4.327  14.696 -0.4729 -0.5600 -0.5452
  306TMC3     C 4607   3.179   4.198  14.311  0.0528  0.2627  0.6512
  306TMC3     O 4608   3.225   4.093  14.267  0.3074 -0.1257  0.0412
  306TMC3     H 4609   3.386   4.121  14.470  0.9368  1.6529  0.0334
  306TMC3    H1 4610   3.018   4.341  14.461 -0.5131  0.2006  1.4983
  306TMC3    H2 4611   3.294   4.364  14.792 -2.4099  2.5490 -1.0792
  306TMC3    C7 4612   3.067   4.475  14.678  0.3550 -0.1323  0.2498
  306TMC3    C8 4613   3.441   4.162  14.706 -0.4884 -0.1309 -0.0568
  306TMC3    O1 4614   2.950   4.482  14.642  0.4420 -0.2604  0.0050
  306TMC3    O2 4615   3.503   4.074  14.645 -0.3685 -0.4038  0.0603
  307MPD2     C 4616   0.635   1.857   0.457 -0.0675 -0.4129 -0.3458
  307MPD2    C1 4617   0.678   1.973   0.504  0.1345  0.8814 -0.0537
  307MPD2    C2 4618   0.620   2.025   0.618  0.4133  0.3033  0.6135
  307MPD2    C3 4619   0.526   1.958   0.689 -0.2564  0.0103  0.2409
  307MPD2    C4 4620   0.489   1.835   0.642 -0.4062  0.6239  0.4789
  307MPD2    C5 4621   0.539   1.787   0.521 -0.2600  0.2531  0.1148
  307MPD2     H 4622   0.661   2.119   0.652 -1.2699  0.9769  0.7965
  307MPD2    H1 4623   0.410   1.780   0.692  0.6456  0.0570  1.5109
  307MPD2    H2 4624   0.682   1.807   0.373 -0.5483 -0.7492 -0.4126
  307MPD2    H3 4625   0.520   1.687   0.482  1.4656  0.0240 -0.1097
  307MPD2     N 4626   0.472   2.028   0.803 -0.0492 -0.7326 -0.3915
  307MPD2    H5 4627   0.496   2.126   0.816  0.5114 -0.8801 -0.3053
  307MPD2    N1 4628   0.770   2.059   0.440 -0.3666 -0.4443 -0.2152
  307MPD2    H7 4629   0.800   2.138   0.496 -0.7734 -0.7606  0.4477
  308TMC3    C1 4630   0.190   2.123   1.160 -0.0647  0.1575  0.4251
  308TMC3    C2 4631   0.279   2.212   1.218 -0.9738 -0.8503  0.4293
  308TMC3    C3 4632   0.401   2.224   1.158 -0.1306 -0.4390 -0.2399
  308TMC3    C4 4633   0.225   2.035   1.064  0.2505 -0.1302  0.0265
  308TMC3    C5 4634   0.336   2.061   0.990 -0.0225  0.3750 -0.3965
  308TMC3    C6 4635   0.422   2.160   1.037 -1.0990  0.0353 -0.4111
  308TMC3     C 4636   0.050   2.165   1.177  0.0204 -1.1555 -0.5412
  308TMC3     O 4637   4.682   2.080   1.168  0.2984  0.5320 -0.2154
  308TMC3     H 4638   0.259   2.263   1.311  0.1847  2.1849 -0.9747
  308TMC3    H1 4639   0.148   1.970   1.024  1.9616 -1.6944 -0.7298
  308TMC3    H2 4640   0.519   2.168   0.989 -0.8052  0.1800  0.1978
  308TMC3    C7 4641   0.376   1.970   0.887  0.0579  0.2127  0.5999
  308TMC3    C8 4642   0.494   2.317   1.216  0.2578  0.3805  0.0153
  308TMC3    O1 4643   0.330   1.856   0.906 -0.6380  0.2672 -0.6703
  308TMC3    O2 4644   0.484   2.333   1.335  0.9099 -0.1841  0.1725
  309MPD2     C 4645   0.023   3.011  17.617 -0.1708  0.1013  0.1025
  309MPD2    C1 4646   4.679   3.109  17.544  0.0928  0.0122  0.3967
  309MPD2    C2 4647   4.585   3.186  17.606 -0.7091  0.2898 -0.6216
  309MPD2    C3 4648   4.566   3.165   0.058 -0.3550  0.1850 -0.4795
  309MPD2    C4 4649   4.622   3.054   0.124  0.2137 -0.7781  0.0135
  309MPD2    C5 4650   4.706   2.974   0.056 -0.4425 -0.8083 -0.0594
  309MPD2     H 4651   4.543   3.266  17.546  0.0784  0.8696 -0.3943
  309MPD2    H1 4652   4.612   3.035   0.230  1.2577  1.2114  0.4663
  309MPD2    H2 4653   0.102   2.950  17.576 -0.1825  1.0198 -1.2942
  309MPD2    H3 4654   0.046   2.907   0.115 -2.3655 -2.2481  0.2560
  309MPD2     N 4655   4.487   3.262   0.122 -0.6070  0.1206 -0.6560
  309MPD2    H5 4656   4.452   3.341   0.069  1.2910  1.8322  0.6467
  309MPD2    N1 4657   4.707   3.125  17.404  0.0827 -0.4988  0.0248
  309MPD2    H7 4658   4.659   3.205  17.365 -0.5077  0.2373  2.2261
  310TMC3    C1 4659   0.088   3.076  17.197 -0.0816  0.1342 -1.1811
  310TMC3    C2 4660   0.007   3.161  17.128  0.1958  0.3709  0.5376
  310TMC3    C3 4661   0.038   3.184  16.997  0.3654 -0.6701  0.3982
  310TMC3    C4 4662   0.194   3.005  17.137 -0.6986 -0.1658 -0.0539
  310TMC3    C5 4663   0.221   3.033  17.006  0.1378  0.5184  0.0876
  310TMC3    C6 4664   0.145   3.119  16.934 -0.3287  0.2776  0.7162
  310TMC3     C 4665   0.077   3.047  17.336  0.0204  0.1749  0.5706
  310TMC3     O 4666   0.145   2.954  17.376 -0.2311 -0.4014  0.9073
  310TMC3     H 4667   4.656   3.225  17.179 -0.1045  0.0220  0.5535
  310TMC3    H1 4668   0.247   2.925  17.186  0.2978  1.4113  1.4115
  310TMC3    H2 4669   0.156   3.134  16.828  3.1797 -0.0693  1.0284
  310TMC3    C7 4670   0.342   2.979  16.954 -0.4484 -0.6175  0.2904
  310TMC3    C8 4671   4.672   3.275  16.921  0.1969  0.4655 -0.3926
  310TMC3    O1 4672   0.352   2.962  16.834  0.3776 -0.7452 -0.4609
  310TMC3    O2 4673   4.550   3.285  16.925 -0.3925 -0.4486 -0.1549
  311MPD2     C 4674   2.412   3.651  12.713  0.4280  0.7093  0.3007
  311MPD2    C1 4675   2.376   3.750  12.800 -0.0655 -0.0891 -0.5402
  311MPD2    C2 4676   2.248   3.757  12.851  0.7309 -0.3063  0.7178
  311MPD2    C3 4677   2.150   3.658  12.818 -0.6104  0.6867 -0.1782
  311MPD2    C4 4678   2.192   3.554  12.745 -0.2151  0.2761  0.3510
  311MPD2    C5 4679   2.316   3.557  12.689 -0.2525 -0.2821  1.2500
  311MPD2     H 4680   2.213   3.843  12.907  0.3806  0.7525 -1.1115
  311MPD2    H1 4681   2.123   3.479  12.706 -1.7064  1.4230  0.7954
  311MPD2    H2 4682   2.504   3.647  12.657  0.2704  1.2904 -0.0006
  311MPD2    H3 4683   2.345   3.482  12.617 -0.9898 -0.3049  0.9671
  311MPD2     N 4684   2.013   3.676  12.865 -0.1743  0.1631  0.0221
  311MPD2    H5 4685   1.992   3.762  12.914  3.0479  2.2375 -2.2542
  311MPD2    N1 4686   2.471   3.854  12.829  0.5274  0.0383 -0.8665
  311MPD2    H7 4687   2.429   3.943  12.853  0.0762 -1.0036  2.1036
  312TMC3    C1 4688   1.776   3.634  12.878 -0.2551 -0.1924 -1.2442
  312TMC3    C2 4689   1.672   3.558  12.830 -0.7230 -0.2591 -0.4598
  312TMC3    C3 4690   1.546   3.572  12.879  0.1781  0.0612 -0.4873
  312TMC3    C4 4691   1.756   3.706  12.991 -0.2888 -0.5821  0.0642
  312TMC3    C5 4692   1.626   3.717  13.041 -0.2394  0.5856  0.6548
  312TMC3    C6 4693   1.521   3.656  12.982  0.1137  0.1654  0.9250
  312TMC3     C 4694   1.909   3.588  12.844  0.0368 -0.3873  0.3048
  312TMC3     O 4695   1.914   3.487  12.777 -0.8068 -0.6582 -0.3747
  312TMC3     H 4696   1.692   3.483  12.754  0.6880 -0.5044  0.1600
  312TMC3    H1 4697   1.839   3.764  13.031  0.2132 -2.4363  1.6896
  312TMC3    H2 4698   1.419   3.689  13.000 -0.2430 -0.7559  0.5986
  312TMC3    C7 4699   1.604   3.790  13.163  0.1027  0.0237  0.1300
  312TMC3    C8 4700   1.451   3.466  12.834 -0.1794 -0.5775  0.4058
  312TMC3    O1 4701   1.491   3.802  13.209  0.2281  1.0020 -0.0613
  312TMC3    O2 4702   1.479   3.404  12.733  0.5159  0.8466  0.3564
  313MPD2     C 4703   2.244   2.999  10.318  0.3631  0.2898  0.1966
  313MPD2    C1 4704   2.113   2.969  10.353  0.2120  0.3200  0.2146
  313MPD2    C2 4705   2.025   2.947  10.252 -0.9339 -0.2288 -0.6025
  313MPD2    C3 4706   2.061   2.935  10.122 -0.1642 -0.0859  0.5758
  313MPD2    C4 4707   2.186   2.972  10.088  0.0322  0.3437  0.1543
  313MPD2    C5 4708   2.271   3.004  10.187  0.7165 -0.6495  0.2173
  313MPD2     H 4709   1.924   2.925  10.283 -0.3162  0.0598  1.6322
  313MPD2    H1 4710   2.225   2.982   9.987  0.5195  0.0404  0.3146
  313MPD2    H2 4711   2.326   3.035  10.380  0.5289  1.3712 -0.6276
  313MPD2    H3 4712   2.374   3.019  10.158  0.9329 -0.0189  1.3312
  313MPD2     N 4713   1.956   2.896  10.035  0.1745  0.1328  0.5007
  313MPD2    H5 4714   1.870   2.871  10.082 -1.2795  3.0734 -0.5927
  313MPD2    N1 4715   2.065   2.986  10.485 -0.9810  0.3618  0.2556
  313MPD2    H7 4716   1.964   2.973  10.494 -0.9048  0.8384  1.9487
  314TMC3    C1 4717   2.080   3.008  10.719  0.5566 -0.5331  0.2118
  314TMC3    C2 4718   2.146   3.060  10.832 -0.7953 -0.0748 -0.0372
  314TMC3    C3 4719   2.062   3.079  10.939 -0.0145  0.2663 -0.0394
  314TMC3    C4 4720   1.941   2.994  10.724  0.2866  0.1291 -0.0245
  314TMC3    C5 4721   1.863   3.002  10.839  0.0654  0.1998 -0.5654
  314TMC3    C6 4722   1.929   3.048  10.950 -0.1343  0.3053  0.5306
  314TMC3     C 4723   2.150   3.000  10.595  0.1780 -0.2163 -0.4354
  314TMC3     O 4724   2.272   2.973  10.596  0.7187 -0.2512 -0.0140
  314TMC3     H 4725   2.254   3.075  10.835 -0.9422  0.8635  0.3131
  314TMC3    H1 4726   1.892   2.965  10.632  1.3081  0.8901 -0.8096
  314TMC3    H2 4727   1.863   3.069  11.033  0.3572  2.2320  0.4462
  314TMC3    C7 4728   1.736   3.070  10.822 -0.7984  0.3505  0.1607
  314TMC3    C8 4729   2.113   3.178  11.027  0.5585  0.0258 -0.1876
  314TMC3    O1 4730   1.637   3.051  10.893  0.1484 -0.4526  0.4925
  314TMC3    O2 4731   2.194   3.257  10.984 -0.2911 -0.7737  0.0271
  315MPD2     C 4732   1.173   2.904  17.594  1.0110  0.7782  0.2574
  315MPD2    C1 4733   1.260   2.982  17.675 -0.4283  0.3669 -0.0004
  315MPD2    C2 4734   1.248   3.121  17.662  0.6083 -0.7257 -0.0196
  315MPD2    C3 4735   1.164   3.178  17.568 -0.3492  0.6683 -0.0773
  315MPD2    C4 4736   1.087   3.093  17.489  0.4687  0.0734 -0.3887
  315MPD2    C5 4737   1.086   2.958  17.506  0.4627 -0.0116  0.5390
  315MPD2     H 4738   1.312   3.178   0.043  1.3344 -1.9179  0.3086
  315MPD2    H1 4739   1.031   3.133  17.406 -0.1249  2.9435  1.3717
  315MPD2    H2 4740   1.156   2.798  17.603 -0.0939  0.9933  0.7607
  315MPD2    H3 4741   1.021   2.901  17.441 -0.1757  0.8684  0.3990
  315MPD2     N 4742   1.158   3.314  17.563  0.4527 -0.2419  0.0437
  315MPD2    H5 4743   1.210   3.366  17.634  2.0576  2.3553 -3.0398
  315MPD2    N1 4744   1.352   2.932   0.087  0.4240 -0.1817  0.0176
  315MPD2    H7 4745   1.387   2.997   0.157 -3.4137  2.1418 -0.2496
  316TMC3    C1 4746   1.108   3.532  17.489 -0.0740 -0.9099  0.4148
  316TMC3    C2 4747   1.221   3.578  17.553 -0.4888  0.0633 -0.2415
  316TMC3    C3 4748   1.231   3.709  17.581 -1.2846  0.3354 -0.1841
  316TMC3    C4 4749   1.021   3.618  17.439 -0.9729 -0.3631 -0.0464
  316TMC3    C5 4750   1.031   3.751  17.468  0.3712 -1.0449  0.0387
  316TMC3    C6 4751   1.134   3.798  17.542 -0.1018 -0.2243 -0.0062
  316TMC3     C 4752   1.078   3.387  17.479 -0.0908 -0.1706  0.5522
  316TMC3     O 4753   0.982   3.349  17.413 -0.2362  0.3305 -0.2203
  316TMC3     H 4754   1.297   3.505  17.577  1.0990  1.6583 -0.4000
  316TMC3    H1 4755   0.931   3.576  17.397 -1.1241 -0.0967  0.0153
  316TMC3    H2 4756   1.145   3.903  17.567  0.0172 -0.1491 -0.3765
  316TMC3    C7 4757   0.944   3.851  17.416 -0.3344  0.0247  0.3450
  316TMC3    C8 4758   1.363   3.751  17.634 -0.8122  0.3452 -0.0895
  316TMC3    O1 4759   0.954   3.964  17.455 -0.3047 -0.4549 -0.2089
  316TMC3    O2 4760   1.380   3.868  17.614 -0.6800  0.1365 -0.2239
  317MPD2     C 4761   3.586   0.589  12.381 -0.0020 -0.1436 -0.5237
  317MPD2    C1 4762   3.721   0.594  12.388  0.2641  0.3780  0.3757
  317MPD2    C2 4763   3.773   0.583  12.515  0.0335 -0.3343 -0.4376
  317MPD2    C3 4764   3.686   0.558  12.623 -0.3399 -0.3065 -0.2220
  317MPD2    C4 4765   3.551   0.555  12.602  0.3097  0.1755  0.1307
  317MPD2    C5 4766   3.507   0.590  12.482 -0.4333 -0.2127 -0.4190
  317MPD2     H 4767   3.881   0.589  12.522 -0.1031  1.3336  0.2462
  317MPD2    H1 4768   3.483   0.540  12.686 -1.1999  1.5151 -0.8547
  317MPD2    H2 4769   3.536   0.628  12.293 -0.4734 -2.1990 -1.1589
  317MPD2    H3 4770   3.399   0.595  12.471 -0.6603  0.7583  2.2629
  317MPD2     N 4771   3.714   0.530  12.753 -0.3468 -0.0003 -0.0153
  317MPD2    H5 4772   3.641   0.517  12.822  0.8709  0.2675  1.3322
  317MPD2    N1 4773   3.812   0.607  12.283  0.0377  0.5040  0.4730
  317MPD2    H7 4774   3.912   0.613  12.303  0.1521  0.7967 -0.2024
  318TMC3    C1 4775   3.867   0.499  12.936  0.4233  0.4521  0.6225
  318TMC3    C2 4776   3.774   0.425  12.994  0.0283  0.1056  0.1655
  318TMC3    C3 4777   3.805   0.386  13.125  0.1220 -0.3536 -0.8131
  318TMC3    C4 4778   3.988   0.536  12.988  0.0486 -0.5678 -0.2779
  318TMC3    C5 4779   4.017   0.493  13.117  0.2559  0.7371  0.0779
  318TMC3    C6 4780   3.920   0.418  13.182 -0.3435  0.2347  0.5882
  318TMC3     C 4781   3.847   0.533  12.802 -0.0826 -0.0339 -0.1892
  318TMC3     O 4782   3.951   0.566  12.745 -0.5548  0.2351 -0.6079
  318TMC3     H 4783   3.694   0.374  12.942  0.7532  0.9405 -1.7380
  318TMC3    H1 4784   4.058   0.606  12.943 -0.4625 -0.1866 -0.4746
  318TMC3    H2 4785   3.946   0.376  13.278 -0.9660  0.2360  0.7572
  318TMC3    C7 4786   4.141   0.545  13.177 -0.7302  0.1720 -0.6477
  318TMC3    C8 4787   3.707   0.334  13.220  0.1040 -0.6532  0.2751
  318TMC3    O1 4788   4.200   0.639  13.129 -0.4745 -0.4905  0.9234
  318TMC3    O2 4789   3.741   0.306  13.336  0.0030 -0.0148  0.1448
  319MPD2     C 4790   4.016   2.811  17.050  0.3898  0.3513 -0.2731
  319MPD2    C1 4791   3.907   2.726  17.048 -0.1669  0.2717  1.1155
  319MPD2    C2 4792   3.874   2.663  16.933 -0.0646  0.7644 -0.3935
  319MPD2    C3 4793   3.950   2.678  16.817  0.6285 -0.3794 -0.5868
  319MPD2    C4 4794   4.057   2.763  16.824  0.1302  0.4439  0.9029
  319MPD2    C5 4795   4.083   2.835  16.935  0.2641 -0.2845  0.0094
  319MPD2     H 4796   3.793   2.591  16.930  0.3396  0.3021 -0.4024
  319MPD2    H1 4797   4.125   2.767  16.740 -1.1216 -3.1465 -0.2801
  319MPD2    H2 4798   4.061   2.862  17.134  1.4840 -1.1474  0.0376
  319MPD2    H3 4799   4.176   2.890  16.939  1.2923 -2.1077  1.4017
  319MPD2     N 4800   3.908   2.614  16.700 -0.3370  0.4315 -0.4133
  319MPD2    H5 4801   3.834   2.545  16.702  1.1040 -1.0300  1.8620
  319MPD2    N1 4802   3.847   2.693  17.167 -0.2038  0.0003  0.1882
  319MPD2    H7 4803   3.771   2.626  17.156 -0.5750  0.1755  1.6878
  320TMC3    C1 4804   3.890   2.573  16.471  0.2325 -0.3463 -0.6705
  320TMC3    C2 4805   3.842   2.658  16.377  0.0378  0.2089  0.1141
  320TMC3    C3 4806   3.753   2.611  16.288  0.1962  0.4943 -0.8164
  320TMC3    C4 4807   3.864   2.446  16.479 -0.0783 -0.9830 -0.2971
  320TMC3    C5 4808   3.787   2.399  16.380  0.2572 -0.1203 -0.4446
  320TMC3    C6 4809   3.727   2.483  16.286 -0.8705  0.0518  0.3038
  320TMC3     C 4810   3.960   2.637  16.576  0.0413  0.6583  0.7060
  320TMC3     O 4811   4.051   2.707  16.540  0.1989 -0.1568 -0.3774
  320TMC3     H 4812   3.851   2.765  16.386  0.8199 -0.0236  1.9688
  320TMC3    H1 4813   3.914   2.383  16.552 -1.3215  2.2413  3.3278
  320TMC3    H2 4814   3.660   2.433  16.216  1.4834 -1.6834 -0.7014
  320TMC3    C7 4815   3.741   2.260  16.387 -0.7754 -0.4191 -0.2646
  320TMC3    C8 4816   3.660   2.714  16.240 -0.4221 -0.0908 -0.0858
  320TMC3    O1 4817   3.695   2.218  16.280  0.8988  0.2974 -0.1492
  320TMC3    O2 4818   3.701   2.827  16.252 -0.3142  0.1893 -0.4193
  321TMC3    C1 4819   3.790   2.683  17.395  0.0150  0.1917 -0.0791
  321TMC3    C2 4820   3.761   2.549  17.403 -0.3731  0.6892 -0.4552
  321TMC3    C3 4821   3.714   2.497  17.517  0.2891  0.1921 -0.3548
  321TMC3    C4 4822   3.772   2.764  17.501  0.0952  0.1593  0.1788
  321TMC3    C5 4823   3.719   2.712  17.613  0.1054  0.8684 -0.2102
  321TMC3    C6 4824   3.673   2.577  17.619  0.2671  0.4370  0.1024
  321TMC3     C 4825   3.875   2.737  17.296 -0.2974 -0.3698  1.5904
  321TMC3     O 4826   3.949   2.826  17.338 -0.1224  0.7685  0.2818
  321TMC3     H 4827   3.802   2.477  17.333 -2.8374  0.4975 -1.6955
  321TMC3    H1 4828   3.792   2.869  17.485  0.4539 -0.1163 -1.2239
  321TMC3    H2 4829   3.640   2.526   0.024  3.0889 -0.0956  0.8562
  321TMC3    C7 4830   3.814   2.739   0.035 -0.6503  0.3070  1.2409
  321TMC3    C8 4831   3.771   2.372  17.551 -0.5689 -0.2828  0.0012
  321TMC3    O1 4832   3.831   2.640   0.104  0.0452  0.2544 -0.5828
  321TMC3    O2 4833   3.777   2.277  17.474  0.0898  0.4514  0.2118
  322MPD2     C 4834   2.880   3.444  13.677  0.2210  0.0496 -0.1039
  322MPD2    C1 4835   2.953   3.398  13.791 -0.2848 -0.5392 -0.7297
  322MPD2    C2 4836   3.003   3.273  13.784 -0.1160 -0.5647  0.2266
  322MPD2    C3 4837   2.981   3.197  13.670  0.6811  0.2137  0.5053
  322MPD2    C4 4838   2.893   3.232  13.571 -0.0372  0.2910  0.4993
  322MPD2    C5 4839   2.841   3.357  13.583 -0.9201 -0.4109 -0.3021
  322MPD2     H 4840   3.065   3.236  13.865 -0.6683 -0.6719  0.6037
  322MPD2    H1 4841   2.869   3.174  13.482  1.4022 -0.9554  0.9183
  322MPD2    H2 4842   2.823   3.536  13.680 -0.5443 -0.4555  0.8139
  322MPD2    H3 4843   2.768   3.393  13.512 -0.9115  1.3222  0.5541
  322MPD2     N 4844   3.051   3.082  13.664 -0.1602  0.1199  0.4337
  322MPD2    H5 4845   3.115   3.074  13.743 -1.7265 -3.8425  1.3102
  322MPD2    N1 4846   2.967   3.486  13.900 -0.2464 -0.0120 -0.0855
  322MPD2    H7 4847   2.940   3.583  13.885 -2.0293 -0.4672  0.1082
  323TMC3    C1 4848   3.055   3.572  14.098  0.7889 -0.4079 -0.2611
  323TMC3    C2 4849   3.127   3.668  14.036  0.5660  0.5823 -0.6860
  323TMC3    C3 4850   3.171   3.777  14.106  0.0276 -0.2724 -0.0943
  323TMC3    C4 4851   3.041   3.566  14.231 -0.4228  0.0683  0.8062
  323TMC3    C5 4852   3.091   3.672  14.305  0.3933 -0.5301  0.3568
  323TMC3    C6 4853   3.141   3.788  14.239 -0.0537 -0.0048 -0.1258
  323TMC3     C 4854   3.024   3.450  14.016  0.8065 -0.0570 -0.5863
  323TMC3     O 4855   3.049   3.343  14.070  0.5733  0.0841 -0.1189
  323TMC3     H 4856   3.153   3.661  13.931 -1.3243 -1.8496 -0.9729
  323TMC3    H1 4857   3.004   3.476  14.278 -0.2365 -0.7130 -0.5778
  323TMC3    H2 4858   3.170   3.869  14.305 -1.7555  1.8283 -1.6373
  323TMC3    C7 4859   3.120   3.633  14.440  0.0255 -0.9965 -0.6630
  323TMC3    C8 4860   3.311   3.795  14.071  0.1427  0.2093  0.2771
  323TMC3    O1 4861   3.121   3.513  14.469 -0.0926  0.0999  0.2608
  323TMC3    O2 4862   3.357   3.723  13.979  0.3352 -0.4490  0.7797
  324MPD2     C 4863   0.054   4.288  14.457 -0.7229 -0.9716 -0.1923
  324MPD2    C1 4864   0.038   4.419  14.484  0.2909  0.3481  0.3055
  324MPD2    C2 4865   4.631   4.478  14.476  0.0499  0.1837  0.1799
  324MPD2    C3 4866   4.517   4.399  14.454 -0.4646  0.7579  0.0492
  324MPD2    C4 4867   4.546   4.269  14.415 -0.2500  0.0260 -0.6310
  324MPD2    C5 4868   4.672   4.215  14.419 -0.3166 -0.5927  0.3464
  324MPD2     H 4869   4.631   4.583  14.501 -2.2910  0.1093  0.4483
  324MPD2    H1 4870   4.468   4.204  14.376 -0.0478  0.1257 -1.1915
  324MPD2    H2 4871   0.153   4.244  14.462 -0.8974 -1.3626 -0.1179
  324MPD2    H3 4872   4.695   4.113  14.389  3.7654  0.0517  1.2190
  324MPD2     N 4873   4.385   4.451  14.446  0.0974  0.2510 -0.1584
  324MPD2    H5 4874   4.317   4.387  14.405  0.6632 -0.1699 -0.4364
  324MPD2    N1 4875   0.147   4.505  14.524 -0.8140  0.1658  0.8776
  324MPD2    H7 4876   0.128   4.604  14.530  1.0695  0.7919 -3.1893
  325TMC3    C1 4877   4.235   4.633  14.441  0.2535 -0.0228 -0.1144
  325TMC3    C2 4878   4.168   4.563  14.348  0.2356  0.2311 -0.3848
  325TMC3    C3 4879   4.051   4.619  14.306 -0.5486 -0.5666  0.5916
  325TMC3    C4 4880   4.200   0.039  14.482 -0.5776  0.0102 -0.2185
  325TMC3    C5 4881   4.098   0.097  14.419 -0.5881 -0.6320  0.3069
  325TMC3    C6 4882   4.017   0.031  14.332  0.0127 -0.1545 -0.6830
  325TMC3     C 4883   4.352   4.578  14.497 -0.0949 -0.4371  0.2069
  325TMC3     O 4884   4.421   4.651  14.566  0.5498  0.0739 -0.1589
  325TMC3     H 4885   4.191   4.460  14.320 -0.2819  0.1517 -0.5239
  325TMC3    H1 4886   4.250   0.100  14.557 -0.8176  0.3440 -0.3286
  325TMC3    H2 4887   3.944   0.078  14.268  1.1201  0.4333 -1.5029
  325TMC3    C7 4888   4.093   0.240  14.438  0.4481 -0.3203  0.8911
  325TMC3    C8 4889   3.977   4.554  14.192 -0.6291 -0.0717  0.2556
  325TMC3    O1 4890   4.196   0.298  14.444 -0.0396 -0.5183  0.1024
  325TMC3    O2 4891   4.029   4.463  14.127 -0.3239 -0.1880  0.4260
  326MPD2     C 4892   1.462   0.562  11.232  1.0187 -0.6271  0.6278
  326MPD2    C1 4893   1.438   0.586  11.098 -0.3424 -0.2230  0.1042
  326MPD2    C2 4894   1.502   0.687  11.031  0.1978 -0.5397  0.5220
  326MPD2    C3 4895   1.603   0.758  11.097 -0.3599 -0.1349 -0.1439
  326MPD2    C4 4896   1.638   0.729  11.222  0.2081  1.1023  0.2688
  326MPD2    C5 4897   1.560   0.635  11.289  0.0432 -0.7022 -0.0213
  326MPD2     H 4898   1.478   0.711  10.928 -1.3382 -0.4915  0.8764
  326MPD2    H1 4899   1.715   0.775  11.284  0.4662  0.2465  0.5910
  326MPD2    H2 4900   1.423   0.483  11.295 -1.1367 -0.7302 -0.8500
  326MPD2    H3 4901   1.598   0.601  11.384  1.2077 -2.2732 -1.0545
  326MPD2     N 4902   1.681   0.849  11.025  0.4335  0.3615 -0.5820
  326MPD2    H5 4903   1.766   0.876  11.073 -0.8692  2.8573  0.3213
  326MPD2    N1 4904   1.337   0.507  11.026 -0.5726 -0.0999  0.1996
  326MPD2    H7 4905   1.318   0.542  10.932  0.8321  0.8837  0.2820
  327TMC3    C1 4906   1.227   0.321  10.963  0.1367 -0.5472  0.2982
  327TMC3    C2 4907   1.117   0.386  10.916 -0.7270  0.0932 -0.1695
  327TMC3    C3 4908   1.095   0.375  10.783 -0.3284 -0.3888 -0.3553
  327TMC3    C4 4909   1.314   0.254  10.886 -0.1266 -0.3604 -0.6923
  327TMC3    C5 4910   1.307   0.272  10.751  0.2353  0.1670 -0.4833
  327TMC3    C6 4911   1.189   0.316  10.696  0.4835  0.2151  0.6487
  327TMC3     C 4912   1.299   0.382  11.065  1.0953 -0.4236  0.0362
  327TMC3     O 4913   1.327   0.313  11.161 -0.0861 -1.0596  0.6406
  327TMC3     H 4914   1.049   0.437  10.982  2.3862 -0.1840  3.2468
  327TMC3    H1 4915   1.404   0.216  10.933  0.1032  3.0531  1.5766
  327TMC3    H2 4916   1.186   0.329  10.589 -0.7035  0.2653  0.6869
  327TMC3    C7 4917   1.413   0.342  10.693 -0.0476  0.6010 -1.7741
  327TMC3    C8 4918   0.977   0.448  10.723 -0.6378  0.6660 -0.4450
  327TMC3    O1 4919   1.408   0.391  10.580 -0.2239  0.0141  0.0559
  327TMC3    O2 4920   1.001   0.512  10.619 -0.1190  0.5337  0.4478
  328MPD2     C 4921   3.481   1.338  17.198 -0.1799  0.4720  0.2302
  328MPD2    C1 4922   3.355   1.315  17.148 -0.0027 -0.2529 -0.0526
  328MPD2    C2 4923   3.258   1.414  17.163  0.3514 -0.1577  0.1303
  328MPD2    C3 4924   3.287   1.534  17.228  0.4096  0.0265  0.2936
  328MPD2    C4 4925   3.414   1.550  17.282 -0.1000  0.1847 -0.7761
  328MPD2    C5 4926   3.514   1.454  17.260 -0.5473  0.0116  0.2457
  328MPD2     H 4927   3.161   1.396  17.119  0.1516  0.5269  0.2991
  328MPD2    H1 4928   3.456   1.646  17.310 -0.3289 -0.3646  1.4609
  328MPD2    H2 4929   3.559   1.262  17.192 -0.6773 -0.1635  1.6655
  328MPD2    H3 4930   3.618   1.475  17.282 -0.5158 -0.1548  0.2537
  328MPD2     N 4931   3.198   1.646  17.229  0.0228  0.1744 -0.1249
  328MPD2    H5 4932   3.235   1.738  17.251  0.9828 -0.6609  1.7499
  328MPD2    N1 4933   3.335   1.192  17.077 -1.0818  0.3968  0.4391
  328MPD2    H7 4934   3.413   1.128  17.081 -0.2373  1.4202  0.4395
  329TMC3    C1 4935   3.252   1.033  16.940 -0.4892  0.0970  0.7997
  329TMC3    C2 4936   3.251   0.926  17.021 -0.0898 -0.8406 -0.1827
  329TMC3    C3 4937   3.263   0.800  16.959  0.2062 -0.1393 -0.1424
  329TMC3    C4 4938   3.256   1.031  16.806 -0.5820  0.2545 -0.4320
  329TMC3    C5 4939   3.274   0.902  16.753  0.7122 -0.7913 -0.2469
  329TMC3    C6 4940   3.289   0.785  16.823 -0.3522  0.1954  0.0120
  329TMC3     C 4941   3.234   1.159  16.994  0.3001 -0.3681 -0.2244
  329TMC3     O 4942   3.139   1.225  16.951  0.5053  0.0367  0.2410
  329TMC3     H 4943   3.230   0.944  17.126 -0.2092  1.4858 -0.5974
  329TMC3    H1 4944   3.218   1.115  16.749 -0.1856  0.8337  0.1543
  329TMC3    H2 4945   3.309   0.685  16.785 -0.2114 -0.1053  0.8746
  329TMC3    C7 4946   3.247   0.878  16.611 -0.2224 -0.3496  0.2577
  329TMC3    C8 4947   3.235   0.686  17.035 -0.3035 -0.1714  0.2222
  329TMC3    O1 4948   3.212   0.765  16.573  0.7071 -0.4818 -0.1560
  329TMC3    O2 4949   3.286   0.577  17.002 -0.3722 -0.0877  0.4955
  330TMC3    C1 4950   1.519   0.424   9.483 -0.6996  0.7071 -0.2412
  330TMC3    C2 4951   1.446   0.312   9.461 -0.4623 -0.2409  0.0116
  330TMC3    C3 4952   1.492   0.198   9.521  0.3632  0.3407  0.4343
  330TMC3    C4 4953   1.630   0.430   9.562  0.3137 -0.1848 -0.5600
  330TMC3    C5 4954   1.665   0.313   9.624  0.2486 -0.5660  0.0633
  330TMC3    C6 4955   1.596   0.191   9.606 -0.1025  0.1197  0.6342
  330TMC3     C 4956   1.470   0.558   9.446 -0.6900  0.2732  0.3481
  330TMC3     O 4957   1.550   0.648   9.435  0.0069 -0.1062 -0.0025
  330TMC3     H 4958   1.362   0.312   9.393 -1.2569  1.1464  0.9870
  330TMC3    H1 4959   1.699   0.513   9.561  0.8065 -0.5948 -0.7697
  330TMC3    H2 4960   1.631   0.101   9.657  1.2587  0.6307  0.6005
  330TMC3    C7 4961   1.744   0.330   9.745  0.6306 -0.0858  0.2184
  330TMC3    C8 4962   1.440   0.084   9.448  0.5457 -0.1398  0.4592
  330TMC3    O1 4963   1.763   0.444   9.792 -0.0046 -0.2186 -0.4775
  330TMC3    O2 4964   1.420   0.104   9.329 -0.2329  0.3005  0.9210
  331MPD2     C 4965   4.030   3.442  12.834 -0.0255 -0.0642  0.1038
  331MPD2    C1 4966   4.150   3.488  12.791 -0.2161  0.2577  0.2492
  331MPD2    C2 4967   4.243   3.412  12.725 -0.3472 -0.2666  0.1175
  331MPD2    C3 4968   4.216   3.281  12.714 -0.6850  0.3090 -0.4159
  331MPD2    C4 4969   4.100   3.223  12.761  0.3167 -0.2235 -0.0736
  331MPD2    C5 4970   4.012   3.308  12.826 -0.2563 -0.1188  0.5008
  331MPD2     H 4971   4.331   3.455  12.680 -0.6422 -1.0722 -1.2203
  331MPD2    H1 4972   4.086   3.116  12.755 -0.0979 -0.2531  1.3019
  331MPD2    H2 4973   3.954   3.506  12.877  0.0010  1.5403 -2.2340
  331MPD2    H3 4974   3.920   3.263  12.863 -0.4431 -1.7410 -1.9228
  331MPD2     N 4975   4.314   3.203  12.653  0.2016  0.0730  0.3903
  331MPD2    H5 4976   4.399   3.253  12.628 -1.0742  0.4600 -3.1008
  331MPD2    N1 4977   4.185   3.625  12.823  0.4975  0.2619 -0.1986
  331MPD2    H7 4978   4.113   3.677  12.872  1.0937 -0.9721  1.9966
  332TMC3    C1 4979   4.407   3.049  12.513 -0.5310 -0.3198 -0.1432
  332TMC3    C2 4980   4.462   3.151  12.438  0.2534  0.0397  0.0017
  332TMC3    C3 4981   4.555   3.125  12.342  0.6365  0.2632  1.4261
  332TMC3    C4 4982   4.441   2.921  12.496 -0.2378  0.1181 -0.4862
  332TMC3    C5 4983   4.549   2.903  12.414  0.2327 -0.1263 -0.0958
  332TMC3    C6 4984   4.611   3.001  12.334 -0.2960  0.2106 -0.3084
  332TMC3     C 4985   4.305   3.073  12.617 -0.4987 -0.5376  0.5159
  332TMC3     O 4986   4.227   2.982  12.644  0.0852  0.3443 -0.8102
  332TMC3     H 4987   4.429   3.255  12.439  0.3189  0.0777 -1.0830
  332TMC3    H1 4988   4.405   2.842  12.560  1.5223 -0.3136 -0.0282
  332TMC3    H2 4989   4.695   2.983  12.268  0.0535  1.7376 -0.2811
  332TMC3    C7 4990   4.632   2.782  12.434  0.3063 -0.0773 -0.9658
  332TMC3    C8 4991   4.637   3.239  12.299  0.2045  0.9743  0.1390
  332TMC3    O1 4992   4.571   2.674  12.451 -0.1067  0.1493 -0.1295
  332TMC3    O2 4993   4.628   3.342  12.363 -0.1325  0.1207  0.2620
  333MPD2     C 4994   4.530   3.991  10.621 -0.1141 -0.3572 -0.9880
  333MPD2    C1 4995   4.626   3.893  10.644  0.6562  0.1308  0.5836
  333MPD2    C2 4996   4.637   3.821  10.765 -0.0245  0.4943  0.3280
  333MPD2    C3 4997   4.546   3.843  10.862  0.1255 -1.1814  0.5334
  333MPD2    C4 4998   4.450   3.936  10.845  0.2553  0.5157 -0.2331
  333MPD2    C5 4999   4.439   4.003  10.728 -0.4411  0.1524 -0.3425
  333MPD2     H 5000   4.709   3.744  10.788 -0.2438  0.9164  2.4608
  333MPD2    H1 5001   4.369   3.948  10.916  1.5337 -0.8470  1.4488
  333MPD2    H2 5002   4.525   4.055  10.534 -2.6849 -0.8611 -1.2199
  333MPD2    H3 5003   4.349   4.060  10.710  0.4557  1.6419 -0.1754
  333MPD2     N 5004   4.558   3.754  10.971 -0.6065 -0.3933  0.3004
  333MPD2    H5 5005   4.619   3.674  10.963 -0.6947 -0.4899  0.5958
  333MPD2    N1 5006   0.002   3.871  10.537  0.4610  0.3941  0.6769
  333MPD2    H7 5007   4.705   3.924  10.452  2.7416 -1.1772 -0.8074
  334TMC3    C1 5008   0.210   3.803  10.435  0.6032  0.9722  0.1662
  334TMC3    C2 5009   0.308   3.710  10.443 -0.0749  0.5102  0.2663
  334TMC3    C3 5010   0.432   3.740  10.393  0.2365  0.3279 -0.3296
  334TMC3    C4 5011   0.236   3.931  10.389 -0.5516  0.1639  0.3522
  334TMC3    C5 5012   0.364   3.953  10.349  0.1155  0.4178  0.8706
  334TMC3    C6 5013   0.467   3.863  10.362 -0.3582 -0.2802 -0.3491
  334TMC3     C 5014   0.116   3.791  10.543  0.2209 -0.2194  0.0560
  334TMC3     O 5015   0.165   3.733  10.639 -0.0116 -0.3533 -0.2771
  334TMC3     H 5016   0.283   3.606  10.462  1.6606 -0.1099 -0.7996
  334TMC3    H1 5017   0.168   4.015  10.387 -0.4999  0.1931 -0.4559
  334TMC3    H2 5018   0.565   3.899  10.333 -1.0221  0.3955 -1.7869
  334TMC3    C7 5019   0.412   4.087  10.319  0.3063  0.1332 -0.9982
  334TMC3    C8 5020   0.529   3.634  10.400  0.3724 -0.1980  0.3722
  334TMC3    O1 5021   0.516   4.132  10.367  0.0373  0.6995 -0.3256
  334TMC3    O2 5022   0.494   3.519  10.378 -0.2362  0.6948 -0.2004
  335TMC3    C1 5023   4.000   1.531  17.610  0.2666 -0.1039  0.7045
  335TMC3    C2 5024   3.945   1.453  17.510 -0.2739  0.1321  0.5638
  335TMC3    C3 5025   4.024   1.429  17.404  0.1665 -0.2073  0.4797
  335TMC3    C4 5026   4.133   1.544  17.621  0.8563 -0.3199  0.0448
  335TMC3    C5 5027   4.211   1.503  17.519  0.0136  0.6783 -0.0373
  335TMC3    C6 5028   4.158   1.443  17.410 -0.1370 -0.4521  0.1334
  335TMC3     C 5029   3.926   1.563   0.036 -0.0710 -0.1961  0.1251
  335TMC3     O 5030   3.810   1.521   0.030  0.3219  0.1328 -1.0112
  335TMC3     H 5031   3.839   1.431  17.509  0.2360 -2.2561 -1.0457
  335TMC3    H1 5032   4.188   1.575   0.024 -0.2868  0.3405  0.5314
  335TMC3    H2 5033   4.217   1.407  17.326  0.5967 -0.6969  0.7520
  335TMC3    C7 5034   4.359   1.542  17.512 -0.4399 -0.3641  0.1728
  335TMC3    C8 5035   3.975   1.381  17.276 -0.0596  0.1719  0.2582
  335TMC3    O1 5036   4.407   1.490  17.410 -0.1986 -0.3715 -0.2467
  335TMC3    O2 5037   4.025   1.431  17.177 -0.0604  0.2653  0.7693
  336MPD2     C 5038   3.849   3.880  16.712 -0.6823  0.6358 -0.3164
  336MPD2    C1 5039   3.831   3.789  16.612 -0.1068 -0.9578 -0.7690
  336MPD2    C2 5040   3.839   3.653  16.637 -0.2019  0.3027 -0.6545
  336MPD2    C3 5041   3.874   3.610  16.762 -0.4816  0.0600 -0.2061
  336MPD2    C4 5042   3.893   3.708  16.859  0.7887  0.0181 -0.3394
  336MPD2    C5 5043   3.866   3.838  16.836 -0.3841 -0.2143 -0.3346
  336MPD2     H 5044   3.812   3.587  16.555  1.9482  0.1736 -1.2489
  336MPD2    H1 5045   3.912   3.676  16.961 -0.7406  0.1788 -0.0154
  336MPD2    H2 5046   3.834   3.987  16.711 -2.0518  0.4159 -1.5463
  336MPD2    H3 5047   3.870   3.915  16.912  0.9225 -2.1355  1.5635
  336MPD2     N 5048   3.898   3.474  16.796  0.1534  0.1137 -0.3247
  336MPD2    H5 5049   3.940   3.454  16.886  0.4005  1.4471 -0.1415
  336MPD2    N1 5050   3.782   3.830  16.479 -0.2993 -0.2684  0.7553
  336MPD2    H7 5051   3.788   3.759  16.407  0.4707 -0.1554  0.7076
  337TMC3    C1 5052   3.713   3.961  16.306  0.8321 -0.7434  1.0739
  337TMC3    C2 5053   3.595   3.901  16.278  0.0602  0.3082  0.3424
  337TMC3    C3 5054   3.518   3.964  16.187 -0.2960 -0.3231 -0.5983
  337TMC3    C4 5055   3.739   4.086  16.254  0.4730  0.2311  0.2914
  337TMC3    C5 5056   3.659   4.149  16.156 -0.7305 -0.2177 -0.4291
  337TMC3    C6 5057   3.540   4.090  16.132  0.2541  0.5133 -0.3212
  337TMC3     C 5058   3.753   3.959  16.441  0.0369 -0.3788  0.5687
  337TMC3     O 5059   3.755   4.060  16.507 -0.1586  0.5061  0.1352
  337TMC3     H 5060   3.562   3.810  16.326 -0.5651  0.6294  0.5232
  337TMC3    H1 5061   3.835   4.135  16.268  0.6572  0.2892 -1.1541
  337TMC3    H2 5062   3.470   4.144  16.070 -0.1474  1.4654  0.9472
  337TMC3    C7 5063   3.674   4.290  16.140  0.2392  0.7347  0.1399
  337TMC3    C8 5064   3.385   3.909  16.166  1.2304 -0.0558  0.1692
  337TMC3    O1 5065   3.578   4.367  16.147  0.0765 -0.2947 -0.4839
  337TMC3    O2 5066   3.344   3.831  16.247 -0.1050 -0.5068  0.0349
  338MPD2     C 5067   4.655   3.116   1.947 -0.5282 -0.2494 -0.5472
  338MPD2    C1 5068   4.556   3.185   1.871 -0.4941 -0.3355 -0.2873
  338MPD2    C2 5069   4.475   3.275   1.930 -0.5409  0.1492  0.2618
  338MPD2    C3 5070   4.496   3.310   2.067  0.0688 -0.5538 -0.1322
  338MPD2    C4 5071   4.590   3.240   2.141  0.9328 -0.8448  1.0728
  338MPD2    C5 5072   4.669   3.147   2.081  0.3225 -0.3147  0.1044
  338MPD2     H 5073   4.390   3.316   1.877 -1.2193 -0.2022  1.0722
  338MPD2    H1 5074   4.619   3.248   2.245 -1.1208 -0.9911  1.6560
  338MPD2    H2 5075   4.715   3.035   1.906 -1.3963  0.5863 -3.4565
  338MPD2    H3 5076   0.009   3.098   2.156 -1.0687 -1.2356  0.6083
  338MPD2     N 5077   4.414   3.405   2.128 -0.0051  0.0697  0.2136
  338MPD2    H5 5078   4.341   3.447   2.070 -0.9069 -3.1139 -0.9496
  338MPD2    N1 5079   4.536   3.151   1.733 -0.3335 -0.1937  0.5737
  338MPD2    H7 5080   4.447   3.180   1.694 -0.2292 -0.7442 -0.0716
  339TMC3    C1 5081   4.346   3.567   2.293 -0.3463 -0.6347  0.5628
  339TMC3    C2 5082   4.300   3.586   2.423 -0.0752  0.2498  0.1109
  339TMC3    C3 5083   4.237   3.707   2.451  0.2003 -0.4920  0.1153
  339TMC3    C4 5084   4.315   3.657   2.198 -0.6367  0.1687  0.1845
  339TMC3    C5 5085   4.250   3.775   2.231  0.3620 -0.0961 -0.4380
  339TMC3    C6 5086   4.220   3.805   2.356 -0.1910 -0.2140  0.4813
  339TMC3     C 5087   4.420   3.439   2.260  0.1498 -0.0620 -0.3248
  339TMC3     O 5088   4.487   3.400   2.355  0.1252 -0.2689  0.0428
  339TMC3     H 5089   4.316   3.514   2.502 -3.0061 -0.1554  0.3348
  339TMC3    H1 5090   4.333   3.653   2.091  2.0510 -2.3176  0.7316
  339TMC3    H2 5091   4.176   3.901   2.380 -0.8600 -0.2515 -0.5764
  339TMC3    C7 5092   4.223   3.867   2.126  0.1535 -0.0987 -0.3540
  339TMC3    C8 5093   4.172   3.722   2.575  0.6778  0.4054 -0.4002
  339TMC3    O1 5094   4.211   3.823   2.015 -0.2528  0.0430  0.1084
  339TMC3    O2 5095   4.216   3.659   2.667  0.2859 -0.0810  0.4749
  340MPD2     C 5096   0.189   1.000   9.996 -0.1611 -0.2943 -0.1848
  340MPD2    C1 5097   0.135   0.912   9.901 -0.4001  0.6402  0.0312
  340MPD2    C2 5098   0.173   0.780   9.895 -0.0550  1.1610  0.8768
  340MPD2    C3 5099   0.285   0.747   9.973 -0.0754 -0.6423  0.0243
  340MPD2    C4 5100   0.337   0.829  10.072  0.1082  0.5265  0.3264
  340MPD2    C5 5101   0.283   0.954  10.086  0.7889  0.3830  0.4379
  340MPD2     H 5102   0.136   0.710   9.822  0.0100  1.7830  0.2446
  340MPD2    H1 5103   0.409   0.791  10.144 -0.1359  2.0579  1.3816
  340MPD2    H2 5104   0.153   1.101  10.013  1.9068  0.3912  0.2123
  340MPD2    H3 5105   0.319   1.018  10.166  1.4056  0.2360  0.2768
  340MPD2     N 5106   0.345   0.618   9.975  0.0019 -0.3142 -0.3042
  340MPD2    H5 5107   0.423   0.605  10.038 -0.3856  0.9495  0.4419
  340MPD2    N1 5108   0.031   0.940   9.805 -0.5183  0.2337  0.7718
  340MPD2    H7 5109   4.719   0.865   9.746  0.4603  1.4208 -1.2688
  341TMC3    C1 5110   4.637   1.060   9.651 -0.3673 -0.3507 -0.0055
  341TMC3    C2 5111   4.523   0.984   9.642  0.2950 -0.1860  0.4616
  341TMC3    C3 5112   4.481   0.948   9.512  0.3231 -0.9368  0.1275
  341TMC3    C4 5113   4.707   1.103   9.543  0.0360  0.3189 -0.6501
  341TMC3    C5 5114   4.664   1.058   9.418 -0.2711  0.1654 -0.1028
  341TMC3    C6 5115   4.549   0.989   9.403 -0.0108  0.1825 -0.0488
  341TMC3     C 5116   4.714   1.068   9.773 -0.5682 -0.3936  0.3017
  341TMC3     O 5117   0.033   1.180   9.802 -0.2748 -0.0356 -0.2579
  341TMC3     H 5118   4.479   0.938   9.730  0.1256  2.9877  2.0201
  341TMC3    H1 5119   0.081   1.152   9.564  0.5738 -1.6478  1.4793
  341TMC3    H2 5120   4.537   0.932   9.312 -2.2371 -1.6688  1.3975
  341TMC3    C7 5121   0.039   1.043   9.317  0.2733  0.3613 -0.1251
  341TMC3    C8 5122   4.387   0.839   9.491  0.5121  0.0561  0.4920
  341TMC3    O1 5123   0.046   0.939   9.258 -0.0773 -0.0122 -0.0607
  341TMC3    O2 5124   4.389   0.778   9.384 -0.3633 -0.0395  0.2554
  342MPD2     C 5125   2.029   4.529  17.136 -1.0630  0.0142  0.3869
  342MPD2    C1 5126   2.010   4.412  17.209  1.1721  0.5263 -0.2602
  342MPD2    C2 5127   1.958   4.430  17.333  0.0334 -0.6370  0.0437
  342MPD2    C3 5128   1.929   4.550  17.395  0.0287 -0.2045  0.0935
  342MPD2    C4 5129   1.959   4.666  17.329  0.3826 -0.7590 -0.2468
  342MPD2    C5 5130   2.016   4.654  17.203  0.2394 -0.1616 -0.5630
  342MPD2     H 5131   1.926   4.341  17.386  0.5256  0.3664  2.0272
  342MPD2    H1 5132   1.943   0.047  17.362  0.7100 -0.9913  0.6279
  342MPD2    H2 5133   2.070   4.529  17.036 -1.8799  1.2710  0.0689
  342MPD2    H3 5134   2.023   0.027  17.150 -1.0689 -0.0729 -0.5677
  342MPD2     N 5135   1.880   4.553  17.531 -0.3883 -0.5753 -0.8718
  342MPD2    H5 5136   1.893   4.472  17.591 -0.6313  1.1300  1.5015
  342MPD2    N1 5137   2.025   4.282  17.156  0.4050  0.2008 -0.9110
  342MPD2    H7 5138   2.032   4.206  17.223  0.3689  2.3049  1.4918
  343TMC3    C1 5139   2.094   4.115  17.016 -0.1320 -0.1256  0.7182
  343TMC3    C2 5140   2.178   4.074  16.927 -0.3580  0.7209 -0.0145
  343TMC3    C3 5141   2.218   3.936  16.938 -0.1556  0.3903  0.1376
  343TMC3    C4 5142   2.022   4.031  17.094 -0.0724  0.2283 -0.6136
  343TMC3    C5 5143   2.048   3.895  17.090 -0.4773  0.0924  0.7300
  343TMC3    C6 5144   2.150   3.847  17.015  0.0484 -0.3834  0.0722
  343TMC3     C 5145   2.058   4.252  17.024 -0.4876  0.3313 -0.2111
  343TMC3     O 5146   2.068   4.317  16.921 -0.3259  0.5840  0.1336
  343TMC3     H 5147   2.236   4.148  16.873  2.8174 -2.4314 -0.9559
  343TMC3    H1 5148   1.934   4.055  17.152 -1.3936  0.7989 -2.8817
  343TMC3    H2 5149   2.190   3.751  17.044 -0.5489 -0.4899  0.5351
  343TMC3    C7 5150   2.000   3.807  17.184  0.4681  0.0271 -0.1708
  343TMC3    C8 5151   2.363   3.919  16.924 -0.1583  0.1915  0.1652
  343TMC3    O1 5152   1.977   3.688  17.159 -0.1092  0.2799  0.0430
  343TMC3    O2 5153   2.425   4.023  16.927 -0.0606  0.0467 -0.0664
  344MPD2     C 5154   3.763   3.068  10.012 -0.8511 -0.8693 -0.1362
  344MPD2    C1 5155   3.643   3.130  10.042 -0.0372 -0.0263  0.1028
  344MPD2    C2 5156   3.600   3.230   9.958  0.0416 -0.6366 -0.5397
  344MPD2    C3 5157   3.677   3.271   9.860 -0.4394 -0.2709 -0.6587
  344MPD2    C4 5158   3.799   3.214   9.829  0.1390 -0.5222  0.4030
  344MPD2    C5 5159   3.853   3.124   9.921  0.3487 -1.0723  0.2533
  344MPD2     H 5160   3.507   3.280   9.986 -0.2720 -1.5543  0.0539
  344MPD2    H1 5161   3.859   3.244   9.744  0.5878  0.3442  1.0222
  344MPD2    H2 5162   3.789   2.982  10.073  3.3341 -0.6100 -1.5501
  344MPD2    H3 5163   3.950   3.079   9.906  0.3265 -0.8245 -0.6739
  344MPD2     N 5164   3.648   3.381   9.773  0.0939 -0.4406  0.3246
  344MPD2    H5 5165   3.714   3.395   9.697  1.9115 -0.1105  1.9641
  344MPD2    N1 5166   3.561   3.095  10.154  0.1820 -0.5865  0.9915
  344MPD2    H7 5167   3.470   3.139  10.166 -0.7510 -1.5875 -2.2745
  345TMC3    C1 5168   3.550   3.579   9.686 -0.0451 -0.1584 -0.3409
  345TMC3    C2 5169   3.672   3.625   9.644  0.7940 -0.1708  0.7414
  345TMC3    C3 5170   3.686   3.753   9.597  0.5000  0.2742  0.3399
  345TMC3    C4 5171   3.446   3.666   9.693 -0.4721  0.4206 -0.4221
  345TMC3    C5 5172   3.460   3.801   9.648  0.0147 -1.1537 -0.0893
  345TMC3    C6 5173   3.579   3.840   9.594 -0.1010 -0.4941  0.0884
  345TMC3     C 5174   3.544   3.464   9.778  0.1204 -0.3905  0.9237
  345TMC3     O 5175   3.446   3.458   9.851  0.2545 -0.2065 -0.6966
  345TMC3     H 5176   3.761   3.564   9.655 -0.0083 -1.2286  1.4009
  345TMC3    H1 5177   3.354   3.630   9.740  0.8904 -2.0069  0.4107
  345TMC3    H2 5178   3.596   3.934   9.542 -0.6562 -0.7264 -0.4982
  345TMC3    C7 5179   3.341   3.894   9.641  0.3934  0.5802  0.6343
  345TMC3    C8 5180   3.824   3.791   9.561  0.0917  1.0699 -0.1223
  345TMC3    O1 5181   3.360   4.014   9.627  0.1629 -1.0069 -0.0086
  345TMC3    O2 5182   3.906   3.701   9.577  0.2944 -0.3925 -0.3295
  346MPD2     C 5183   3.184   0.223  13.881  0.5290  0.2730  0.6042
  346MPD2    C1 5184   3.304   0.234  13.940 -0.2821 -0.2351 -0.0289
  346MPD2    C2 5185   3.316   0.316  14.045 -0.5765  0.0989  0.5705
  346MPD2    C3 5186   3.210   0.390  14.093 -0.1074  0.4606 -0.7034
  346MPD2    C4 5187   3.088   0.378  14.030  0.7069 -0.3540 -0.1628
  346MPD2    C5 5188   3.074   0.287  13.930  0.0443  0.7357  0.0876
  346MPD2     H 5189   3.410   0.327  14.098 -1.3092 -0.3555  1.9869
  346MPD2    H1 5190   3.002   0.438  14.054 -0.2258 -2.2362  1.1710
  346MPD2    H2 5191   3.168   0.158  13.796 -3.2102  1.0525  0.7060
  346MPD2    H3 5192   2.975   0.263  13.892  0.9059 -0.4289 -1.4155
  346MPD2     N 5193   3.233   0.481  14.197  0.1356  0.5002  0.0109
  346MPD2    H5 5194   3.327   0.491  14.235  0.5927  1.4539 -1.3766
  346MPD2    N1 5195   3.420   0.161  13.900  0.8718 -0.4160 -0.5870
  346MPD2    H7 5196   3.500   0.173  13.962  2.2218 -1.2439 -2.1661
  347TMC3    C1 5197   3.200   0.631  14.371  0.1854 -0.5644  0.2452
  347TMC3    C2 5198   3.334   0.645  14.370  0.3544  0.6627 -0.0899
  347TMC3    C3 5199   3.388   0.718  14.469  0.4371  0.6945 -0.1670
  347TMC3    C4 5200   3.121   0.681  14.472 -0.0917 -0.3070 -0.1303
  347TMC3    C5 5201   3.179   0.766  14.563  0.3578  0.1876 -1.1613
  347TMC3    C6 5202   3.314   0.791  14.559 -0.5776  0.3382  0.1147
  347TMC3     C 5203   3.143   0.569  14.256 -0.2425 -0.1010 -0.6485
  347TMC3     O 5204   3.021   0.567  14.247 -0.1319  0.3238 -0.1394
  347TMC3     H 5205   3.397   0.615  14.287 -1.6863 -1.5827 -0.8216
  347TMC3    H1 5206   3.013   0.673  14.472  0.1055 -3.0688 -1.1928
  347TMC3    H2 5207   3.359   0.871  14.618 -2.1452  1.5102 -0.2657
  347TMC3    C7 5208   3.104   0.818  14.673  0.0660 -0.2266 -0.3297
  347TMC3    C8 5209   3.536   0.730  14.496 -0.0538  0.7527  0.2845
  347TMC3    O1 5210   2.985   0.805  14.668  0.3093  0.2062  0.0953
  347TMC3    O2 5211   3.578   0.821  14.566 -0.7101 -0.0983 -0.0340
  348MPD2     C 5212   2.132   4.461  12.171 -0.3641  0.0292  0.5210
  348MPD2    C1 5213   2.258   4.474  12.115 -0.0587 -0.1248  0.7446
  348MPD2    C2 5214   2.277   4.514  11.987 -0.0761  0.4334 -0.1586
  348MPD2    C3 5215   2.165   4.548  11.911  0.2171 -0.3884 -0.0605
  348MPD2    C4 5216   2.040   4.546  11.970 -0.6234  0.8567 -0.3205
  348MPD2    C5 5217   2.028   4.515  12.103  0.2557  0.4376  0.9419
  348MPD2     H 5218   2.373   4.506  11.939 -0.3055 -0.5970 -0.4392
  348MPD2    H1 5219   1.950   4.566  11.913 -1.7997  0.3472  1.3507
  348MPD2    H2 5220   2.117   4.437  12.275 -1.2451  1.2007  0.6593
  348MPD2    H3 5221   1.926   4.522  12.139 -0.1578 -0.2366 -0.0909
  348MPD2     N 5222   2.186   4.579  11.774  0.5502 -0.4872 -0.6512
  348MPD2    H5 5223   2.280   4.577  11.738  0.7539 -0.9811 -0.0842
  348MPD2    N1 5224   2.370   4.422  12.178 -0.2367  0.6461  0.5041
  348MPD2    H7 5225   2.455   4.417  12.123 -3.1393 -1.4429 -3.8223
  349TMC3    C1 5226   2.503   4.302  12.321 -0.1551  0.1250  0.4888
  349TMC3    C2 5227   2.508   4.186  12.392  0.2112 -0.0116  0.1857
  349TMC3    C3 5228   2.626   4.117  12.381  0.4454  0.2055 -0.2906
  349TMC3    C4 5229   2.606   4.355  12.248  0.4558  0.0396 -0.4356
  349TMC3    C5 5230   2.728   4.275  12.249  0.0552 -0.0461  0.4032
  349TMC3    C6 5231   2.735   4.158  12.319 -0.4879 -1.0055 -0.1289
  349TMC3     C 5232   2.371   4.352  12.299 -0.6104 -0.4242  0.5329
  349TMC3     O 5233   2.287   4.312  12.374 -0.1384  0.0193  0.4009
  349TMC3     H 5234   2.427   4.124  12.429  0.1469 -0.7443 -1.1595
  349TMC3    H1 5235   2.613   4.461  12.226  0.2340 -0.3575 -2.3847
  349TMC3    H2 5236   2.830   4.109  12.338 -0.4466 -0.1669  1.8136
  349TMC3    C7 5237   2.851   4.329  12.193 -0.3816  0.1779 -0.5387
  349TMC3    C8 5238   2.618   3.973  12.423  0.2281 -0.1086  1.1218
  349TMC3    O1 5239   2.949   4.295  12.254 -0.0687  0.1298 -0.0914
  349TMC3    O2 5240   2.547   3.941  12.519 -0.2536  0.1812 -0.2285
  350MPD2     C 5241   1.449   2.628   9.086  0.2138  0.2314  0.0734
  350MPD2    C1 5242   1.454   2.520   9.175  0.2431  0.5003  0.2353
  350MPD2    C2 5243   1.517   2.538   9.300  0.1378  0.3935  0.2895
  350MPD2    C3 5244   1.559   2.660   9.342 -0.3338  0.4214 -0.3737
  350MPD2    C4 5245   1.561   2.760   9.253  0.1282  0.2676 -0.2973
  350MPD2    C5 5246   1.505   2.744   9.125  0.2201  0.2810 -0.4442
  350MPD2     H 5247   1.517   2.456   9.371  1.3443  0.3462  0.2342
  350MPD2    H1 5248   1.573   2.864   9.281  5.2088 -0.7788  1.3024
  350MPD2    H2 5249   1.418   2.629   8.982 -1.2816 -2.1340  0.4973
  350MPD2    H3 5250   1.486   2.830   9.062 -2.0387  0.5734  0.6041
  350MPD2     N 5251   1.616   2.672   9.474 -0.4034 -0.1120 -0.2689
  350MPD2    H5 5252   1.616   2.593   9.537 -3.3104  0.7553  0.8247
  350MPD2    N1 5253   1.418   2.393   9.133  0.7110  0.5198  0.0663
  350MPD2    H7 5254   1.447   2.319   9.196 -0.1540  0.3082  0.2192
  351TMC3    C1 5255   1.350   2.220   9.002  0.3112 -0.3495 -0.2292
  351TMC3    C2 5256   1.450   2.149   9.059  0.0566 -0.0843 -0.4790
  351TMC3    C3 5257   1.427   2.031   9.118 -0.0020 -0.8056  0.1952
  351TMC3    C4 5258   1.219   2.180   9.019 -0.4777 -0.9196  0.0029
  351TMC3    C5 5259   1.194   2.063   9.081  0.2349  0.5324  0.7361
  351TMC3    C6 5260   1.299   1.989   9.135  0.4224  0.3043 -0.0308
  351TMC3     C 5261   1.364   2.363   9.012  0.1183 -0.6098  0.0953
  351TMC3     O 5262   1.293   2.439   8.946 -0.5267  0.0147 -0.0122
  351TMC3     H 5263   1.548   2.195   9.059  0.7041 -1.4866 -1.1404
  351TMC3    H1 5264   1.138   2.245   8.989  0.8530  0.1389 -1.3551
  351TMC3    H2 5265   1.272   1.908   9.201 -1.2314 -0.8647 -2.1295
  351TMC3    C7 5266   1.061   2.022   9.121  0.0130 -0.7039 -1.3696
  351TMC3    C8 5267   1.527   1.996   9.208 -0.0820  0.8336  0.8208
  351TMC3    O1 5268   1.050   1.936   9.208  0.1975  0.2468  0.0195
  351TMC3    O2 5269   1.606   2.084   9.233  0.3247  0.5464  0.1802
  352MPD2     C 5270   4.000   0.694   1.360  1.1192 -0.0181  0.4088
  352MPD2    C1 5271   3.888   0.612   1.336 -0.4534  0.1202 -0.7189
  352MPD2    C2 5272   3.893   0.483   1.379  0.1499 -0.2716 -0.0045
  352MPD2    C3 5273   4.005   0.427   1.441  0.1431 -0.6695  0.6464
  352MPD2    C4 5274   4.112   0.511   1.461  0.0082  0.9068 -0.2861
  352MPD2    C5 5275   4.115   0.646   1.423  0.3542  0.2103  0.0504
  352MPD2     H 5276   3.805   0.424   1.353 -1.0773  2.1925 -1.4082
  352MPD2    H1 5277   4.204   0.473   1.503 -1.5367 -2.2990  0.2193
  352MPD2    H2 5278   4.000   0.797   1.326 -0.1608 -0.7137 -1.7640
  352MPD2    H3 5279   4.202   0.711   1.425  0.7139 -0.1854 -2.6851
  352MPD2     N 5280   4.013   0.292   1.470  0.6710 -0.0813 -0.4262
  352MPD2    H5 5281   4.089   0.261   1.531  0.3094  0.1272  0.1305
  352MPD2    N1 5282   3.775   0.651   1.253  1.1531 -0.0276 -0.2978
  352MPD2    H7 5283   3.701   0.582   1.252 -0.1456  1.3663 -1.4997
  353TMC3    C1 5284   4.004   0.067   1.420 -0.2996  0.2202 -0.1101
  353TMC3    C2 5285   4.103   0.041   1.510 -0.2472  0.0433 -0.2827
  353TMC3    C3 5286   4.178   4.644   1.492 -0.3263  0.0120 -0.6677
  353TMC3    C4 5287   3.961   4.692   1.327  0.3456  0.7116 -0.4554
  353TMC3    C5 5288   4.043   4.587   1.309  0.8940  0.1881 -0.1684
  353TMC3    C6 5289   4.151   4.560   1.390  0.2027  0.5087  0.3571
  353TMC3     C 5290   3.943   0.195   1.413 -0.1450  0.4931 -0.2116
  353TMC3     O 5291   3.863   0.210   1.324  0.3107  0.2760  0.3195
  353TMC3     H 5292   4.115   0.096   1.602 -1.3787 -0.7819  0.3664
  353TMC3    H1 5293   3.885   4.715   1.253  1.5489 -0.3527 -2.0308
  353TMC3    H2 5294   4.204   4.466   1.381  1.0142  1.1981 -2.2105
  353TMC3    C7 5295   4.046   4.532   1.174 -0.6550 -0.5247 -0.2433
  353TMC3    C8 5296   4.278   4.603   1.584 -0.1852  0.4436 -0.3866
  353TMC3    O1 5297   4.160   4.511   1.136 -0.5480 -0.0649 -0.0616
  353TMC3    O2 5298   4.265   4.647   1.698  0.0328  0.0426  0.3267
  354TMC3    C1 5299   1.413   1.269  13.728 -0.5420  0.0949  0.2334
  354TMC3    C2 5300   1.487   1.383  13.710  0.0446 -0.5314 -0.5820
  354TMC3    C3 5301   1.547   1.392  13.584 -0.5739 -1.2262 -0.7249
  354TMC3    C4 5302   1.398   1.169  13.634 -0.0066  0.0007 -0.1031
  354TMC3    C5 5303   1.475   1.173  13.521 -0.1620 -0.8726  0.1460
  354TMC3    C6 5304   1.543   1.289  13.492  0.2054  0.4774  0.7648
  354TMC3     C 5305   1.379   1.232  13.866  0.1953 -0.6528  0.1438
  354TMC3     O 5306   1.298   1.139  13.877  0.7629 -0.5635  0.1443
  354TMC3     H 5307   1.471   1.471  13.772 -0.6384 -2.2394  1.6805
  354TMC3    H1 5308   1.358   1.073  13.664  1.0384 -0.7103 -0.9990
  354TMC3    H2 5309   1.623   1.279  13.420  0.1442  3.0012  0.3562
  354TMC3    C7 5310   1.500   1.047  13.452 -0.5602  0.0463  0.0056
  354TMC3    C8 5311   1.593   1.520  13.544 -0.2344 -0.3813  0.3513
  354TMC3    O1 5312   1.446   0.948  13.499 -0.1345 -0.1860 -0.8281
  354TMC3    O2 5313   1.594   1.603  13.631  0.2376  0.6948 -0.0192
  355MPD2     C 5314   2.342   1.614  12.029  0.1343 -0.1059  0.2337
  355MPD2    C1 5315   2.315   1.667  11.904  0.0257 -0.1140 -0.0487
  355MPD2    C2 5316   2.385   1.772  11.855  0.1850 -0.1471  0.2306
  355MPD2    C3 5317   2.492   1.821  11.934  0.6099  0.1365 -0.2675
  355MPD2    C4 5318   2.523   1.767  12.058  0.4855 -0.6326 -0.1538
  355MPD2    C5 5319   2.446   1.660  12.107 -0.1767 -0.0803  0.4855
  355MPD2     H 5320   2.370   1.810  11.755  1.2893 -0.3816 -0.0242
  355MPD2    H1 5321   2.605   1.805  12.117 -1.5800  0.6632  1.9080
  355MPD2    H2 5322   2.283   1.532  12.068 -0.7197  0.9075  1.0688
  355MPD2    H3 5323   2.481   1.624  12.202  0.0188  1.7335  1.1082
  355MPD2     N 5324   2.551   1.950  11.903  0.0180  0.0853 -0.0224
  355MPD2    H5 5325   2.597   1.995  11.982  1.7052  1.4376 -1.7807
  355MPD2    N1 5326   2.198   1.619  11.839 -0.1254 -0.1123 -0.0888
  355MPD2    H7 5327   2.137   1.562  11.896  0.3629 -0.5406  0.0064
  356TMC3    C1 5328   2.574   2.146  11.776 -1.0539  0.4314  0.0033
  356TMC3    C2 5329   2.626   2.196  11.658 -0.4145  0.5604 -0.3181
  356TMC3    C3 5330   2.697   2.318  11.659 -0.0165 -0.2114  0.0238
  356TMC3    C4 5331   2.579   2.218  11.889  0.0466  0.2005  0.3051
  356TMC3    C5 5332   2.650   2.339  11.888  0.2165 -0.7667  0.2997
  356TMC3    C6 5333   2.711   2.389  11.777  0.2011 -0.2022 -0.5200
  356TMC3     C 5334   2.535   2.013  11.782 -0.2795  0.4251 -1.0691
  356TMC3     O 5335   2.491   1.971  11.676  0.0951 -0.3240  0.0971
  356TMC3     H 5336   2.636   2.133  11.571  0.8045  1.1833 -0.6364
  356TMC3    H1 5337   2.514   2.195  11.972  0.0359 -2.0896 -0.3464
  356TMC3    H2 5338   2.762   2.484  11.779  1.3053 -0.8805  3.4448
  356TMC3    C7 5339   2.679   2.406  12.017 -0.3312 -0.2531  0.2072
  356TMC3    C8 5340   2.744   2.353  11.526  0.6923 -0.6780 -0.0344
  356TMC3    O1 5341   2.608   2.370  12.108  0.1183 -0.6977  0.1113
  356TMC3    O2 5342   2.704   2.303  11.423 -0.3065  0.0495  0.2713
  357MPD2     C 5343   1.859   1.827   1.583  0.0879 -0.2935  0.5570
  357MPD2    C1 5344   1.994   1.812   1.583  0.2541  0.5191 -0.4358
  357MPD2    C2 5345   2.071   1.883   1.669 -0.2341 -0.2400 -0.7984
  357MPD2    C3 5346   2.012   1.953   1.769 -0.2563  0.5210 -0.4211
  357MPD2    C4 5347   1.873   1.955   1.782 -0.5287  0.0154  0.3471
  357MPD2    C5 5348   1.804   1.897   1.686 -0.9852 -0.4760  0.4677
  357MPD2     H 5349   2.179   1.891   1.666 -0.5914  4.1746 -0.9621
  357MPD2    H1 5350   1.822   2.005   1.863 -1.1662 -2.2705  1.3523
  357MPD2    H2 5351   1.798   1.771   1.514  0.4406 -2.2941  1.8892
  357MPD2    H3 5352   1.696   1.901   1.687 -0.9879  0.1276 -1.5526
  357MPD2     N 5353   2.102   2.023   1.856 -0.2372 -0.3893 -0.2678
  357MPD2    H5 5354   2.196   1.989   1.838 -0.1860 -0.3754 -0.0206
  357MPD2    N1 5355   2.057   1.739   1.482 -0.3212  0.2741 -0.0268
  357MPD2    H7 5356   1.994   1.717   1.405  0.9143  1.5971 -1.4200
  358TMC3    C1 5357   2.226   1.617   1.360 -0.5596 -0.1411  0.1207
  358TMC3    C2 5358   2.128   1.566   1.282 -0.0731 -0.3292  0.6241
  358TMC3    C3 5359   2.170   1.513   1.163  0.1301  0.0122  0.6250
  358TMC3    C4 5360   2.359   1.625   1.326  0.0231 -0.5508  0.4172
  358TMC3    C5 5361   2.393   1.576   1.203  0.1580  0.5039 -0.4468
  358TMC3    C6 5362   2.302   1.520   1.121  0.0277  0.6010 -0.5081
  358TMC3     C 5363   2.190   1.696   1.476 -0.1675  1.1368  0.2420
  358TMC3     O 5364   2.279   1.711   1.562  0.3261  0.4245  0.3619
  358TMC3     H 5365   2.024   1.585   1.305  0.4186  2.2097  0.7805
  358TMC3    H1 5366   2.436   1.663   1.392 -0.6115 -0.2026  0.9539
  358TMC3    H2 5367   2.330   1.467   1.031  1.4071  0.9614 -0.2829
  358TMC3    C7 5368   2.540   1.562   1.170 -0.1090 -0.4087 -0.3539
  358TMC3    C8 5369   2.068   1.513   1.059  0.4780 -0.1894  0.0135
  358TMC3    O1 5370   2.617   1.623   1.247 -0.0615 -0.2064 -0.0369
  358TMC3    O2 5371   2.100   1.579   0.960  0.2116  0.2023  0.3526
  359MPD2     C 5372   2.093   4.539  12.663  0.8287 -0.1572 -0.3476
  359MPD2    C1 5373   2.062   4.557  12.525  0.2373 -0.1624  0.1677
  359MPD2    C2 5374   1.954   4.485  12.472  0.4997  0.3382 -0.1354
  359MPD2    C3 5375   1.878   4.411  12.553  0.4952  0.3346 -0.0675
  359MPD2    C4 5376   1.905   4.404  12.691 -0.0734  0.4896 -0.2606
  359MPD2    C5 5377   2.020   4.461  12.741 -0.3000  0.2853 -0.3746
  359MPD2     H 5378   1.932   4.499  12.366  2.1810  0.9372 -0.3956
  359MPD2    H1 5379   1.849   4.354  12.768  1.1396 -2.5373 -1.3431
  359MPD2    H2 5380   2.172   4.600  12.704  2.1971 -2.2605  0.1285
  359MPD2    H3 5381   2.034   4.446  12.848  0.5003 -1.2965 -0.6972
  359MPD2     N 5382   1.761   4.342  12.501  0.1403 -0.4188  0.0701
  359MPD2    H5 5383   1.710   4.283  12.566 -0.3330  0.6428  0.6445
  359MPD2    N1 5384   2.136   4.654  12.446  0.2340 -0.0142 -0.4350
  359MPD2    H7 5385   2.101   4.671  12.352 -1.1689  0.7909  0.2412
  360TMC3    C1 5386   2.289   0.106  12.393 -0.0076  0.8717  0.0913
  360TMC3    C2 5387   2.351   0.205  12.469 -0.0572 -0.1525  0.4559
  360TMC3    C3 5388   2.395   0.309  12.387  0.1311 -0.3779  0.0206
  360TMC3    C4 5389   2.235   0.136  12.270 -0.5262  0.2967 -0.0341
  360TMC3    C5 5390   2.251   0.258  12.214  0.4932  0.7353 -0.1927
  360TMC3    C6 5391   2.341   0.343  12.265 -0.4557  0.0125  0.0626
  360TMC3     C 5392   2.252   4.719  12.480  0.1317  0.1026 -0.3386
  360TMC3     O 5393   2.333   4.697  12.570  0.0177  0.3441  0.3128
  360TMC3     H 5394   2.406   0.189  12.561  2.0603 -1.3032 -1.0098
  360TMC3    H1 5395   2.177   0.059  12.222 -1.0447  1.2975 -1.0033
  360TMC3    H2 5396   2.389   0.420  12.206 -0.1437  0.2361  0.5992
  360TMC3    C7 5397   2.218   0.277  12.077 -0.9928 -0.3111 -0.3032
  360TMC3    C8 5398   2.537   0.316  12.405 -0.1485 -0.0598  0.0939
  360TMC3    O1 5399   2.277   0.357  12.001  0.2941 -0.0435  0.1448
  360TMC3    O2 5400   2.592   0.312  12.512  0.0183  0.2987 -0.4833
  361MPD2     C 5401   3.114   4.535  17.371 -0.1102  0.3675  0.1911
  361MPD2    C1 5402   3.114   4.618  17.485  0.0267 -0.0792 -0.2298
  361MPD2    C2 5403   3.182   4.584  17.594 -0.5194 -0.0508 -0.0342
  361MPD2    C3 5404   3.257   4.464  17.595 -0.1073  0.6454 -0.3399
  361MPD2    C4 5405   3.271   4.394  17.483 -0.1082  0.7008  0.2089
  361MPD2    C5 5406   3.198   4.426  17.376  0.1181 -0.0108  0.9459
  361MPD2     H 5407   3.174   4.639   0.002  0.5143 -1.9917  1.2119
  361MPD2    H1 5408   3.337   4.307  17.483 -0.3034  0.5566 -0.7122
  361MPD2    H2 5409   3.049   4.549  17.286 -1.3520  2.0355  1.4277
  361MPD2    H3 5410   3.213   4.372  17.283  0.5620 -0.7109  1.4186
  361MPD2     N 5411   3.332   4.424   0.022  0.0813 -0.3920 -0.5330
  361MPD2    H5 5412   3.362   4.327   0.024 -0.4625 -0.5466  0.4480
  361MPD2    N1 5413   3.023   0.010  17.490 -0.5567  0.8809 -0.5458
  361MPD2    H7 5414   3.024   0.060  17.579  0.1047  0.4117 -0.2888
  362TMC3    C1 5415   2.874   0.172  17.416 -0.4216 -0.3846 -1.1649
  362TMC3    C2 5416   2.826   0.190  17.538 -0.2061  0.1449 -0.3804
  362TMC3    C3 5417   2.736   0.293  17.562  0.8521 -0.2660  0.1690
  362TMC3    C4 5418   2.847   0.261  17.311  0.0892 -0.6132 -0.3125
  362TMC3    C5 5419   2.781   0.376  17.342  0.6041  0.0889 -0.3810
  362TMC3    C6 5420   2.728   0.390  17.471  0.1156 -0.2704  0.2001
  362TMC3     C 5421   2.961   0.064  17.385 -0.5876  0.3949 -0.4026
  362TMC3     O 5422   2.970   0.034  17.266 -0.5010  1.0676 -0.3118
  362TMC3     H 5423   2.858   0.123  17.617 -2.5220 -0.6568 -0.1234
  362TMC3    H1 5424   2.886   0.241  17.212 -0.9110 -1.3812 -0.5545
  362TMC3    H2 5425   2.692   0.487  17.502  0.5075  0.7492 -2.5458
  362TMC3    C7 5426   2.761   0.492  17.250 -0.5240 -0.0846 -0.6225
  362TMC3    C8 5427   2.693   0.320   0.011  0.4317  0.1929 -0.7987
  362TMC3    O1 5428   2.685   0.578  17.286  0.0868  0.0530  0.6431
  362TMC3    O2 5429   2.769   0.276   0.096 -0.3982  0.6648  0.1749
  363TMC3    C1 5430   2.472   2.150   9.487  0.0527 -0.8363 -0.5838
  363TMC3    C2 5431   2.593   2.081   9.482  0.1121  0.0407  0.4755
  363TMC3    C3 5432   2.709   2.149   9.464 -0.4101  0.5917  0.2532
  363TMC3    C4 5433   2.473   2.284   9.475 -0.3849 -0.1121 -0.3427
  363TMC3    C5 5434   2.593   2.354   9.479  0.0178  0.9976 -0.1784
  363TMC3    C6 5435   2.711   2.288   9.461  0.3576  0.5554  0.7394
  363TMC3     C 5436   2.358   2.075   9.442  0.2910 -0.2108 -0.5068
  363TMC3     O 5437   2.336   1.963   9.484 -0.7710  0.1698 -0.2739
  363TMC3     H 5438   2.591   1.973   9.492 -1.0028  0.0780  0.6682
  363TMC3    H1 5439   2.380   2.338   9.486 -0.4106  0.2148 -2.1427
  363TMC3    H2 5440   2.805   2.338   9.438  1.5914 -0.6377  3.2033
  363TMC3    C7 5441   2.592   2.489   9.440  1.0654  0.1053  0.3093
  363TMC3    C8 5442   2.836   2.073   9.468 -0.4692 -0.4859 -0.6030
  363TMC3    O1 5443   2.501   2.532   9.376 -0.0307 -0.2387 -0.2028
  363TMC3    O2 5444   2.938   2.142   9.482 -0.1043  0.7805  0.1182
  364MPD2     C 5445   0.513   0.660  10.750 -0.2918  0.3645  0.5902
  364MPD2    C1 5446   0.613   0.679  10.659 -0.1934 -0.2662  0.1932
  364MPD2    C2 5447   0.741   0.631  10.677 -0.3408 -0.3724  0.2128
  364MPD2    C3 5448   0.758   0.543  10.787  0.2353 -0.1535 -0.5026
  364MPD2    C4 5449   0.659   0.528  10.882 -0.4189  0.3078  0.3757
  364MPD2    C5 5450   0.540   0.582  10.861 -0.3386  0.3391 -0.9743
  364MPD2     H 5451   0.815   0.645  10.599 -1.4261 -0.2286 -0.8005
  364MPD2    H1 5452   0.669   0.460  10.965  1.4428  1.9058  1.4576
  364MPD2    H2 5453   0.416   0.706  10.734  0.7638  1.8054 -1.7498
  364MPD2    H3 5454   0.456   0.562  10.927  0.5005 -2.4854 -0.7868
  364MPD2     N 5455   0.870   0.460  10.811  0.0317 -0.5295 -0.3216
  364MPD2    H5 5456   0.875   0.398  10.891 -0.1012  0.1442  0.2088
  364MPD2    N1 5457   0.591   0.764  10.548 -0.3244 -0.2148  0.0863
  364MPD2    H7 5458   0.499   0.807  10.556  0.3360  1.6462 -2.1662
  365TMC3    C1 5459   0.627   0.868  10.341 -0.0141  0.8132 -0.2758
  365TMC3    C2 5460   0.677   0.843  10.215 -0.4193  0.9562  0.3091
  365TMC3    C3 5461   0.718   0.943  10.133 -0.1347 -0.1779 -0.6418
  365TMC3    C4 5462   0.615   0.992  10.393  0.3469  0.0885 -0.2464
  365TMC3    C5 5463   0.658   1.097  10.307  0.3749 -0.0612 -0.1877
  365TMC3    C6 5464   0.708   1.077  10.174  0.1665  0.2464  0.0367
  365TMC3     C 5465   0.669   0.763  10.429  0.3040 -0.6412 -0.6424
  365TMC3     O 5466   0.751   0.686  10.377 -0.0817  0.2386  0.2879
  365TMC3     H 5467   0.675   0.744  10.170 -1.7322  0.8670  0.5530
  365TMC3    H1 5468   0.577   1.007  10.493  2.7670  1.1070  0.5182
  365TMC3    H2 5469   0.754   1.148  10.106 -0.2040 -0.4870 -0.9917
  365TMC3    C7 5470   0.682   1.235  10.363 -0.0399 -0.6395 -0.3902
  365TMC3    C8 5471   0.848   0.910  10.078 -0.0363  0.5252  0.7549
  365TMC3    O1 5472   0.759   1.300  10.292  0.1381  0.1614 -0.6926
  365TMC3    O2 5473   0.899   0.993   9.996 -0.0784  0.0603 -0.0721
  366MPD2     C 5474   3.330   2.590  15.794 -0.0558 -0.5523 -0.2967
  366MPD2    C1 5475   3.410   2.698  15.814  0.6416  1.1965  0.0294
  366MPD2    C2 5476   3.542   2.676  15.854 -0.0522 -0.2839  0.0913
  366MPD2    C3 5477   3.606   2.556  15.862 -0.7865  0.6163 -0.3011
  366MPD2    C4 5478   3.523   2.447  15.833  0.0538  0.9417  1.0408
  366MPD2    C5 5479   3.391   2.469  15.801  0.8808 -0.1248 -0.5298
  366MPD2     H 5480   3.599   2.760  15.891  1.3483 -1.6913  1.1683
  366MPD2    H1 5481   3.556   2.343  15.831 -1.3947  0.5392 -1.4418
  366MPD2    H2 5482   3.228   2.593  15.758  0.3034 -0.5495 -1.3103
  366MPD2    H3 5483   3.329   2.382  15.785 -0.7686  1.1378 -1.0166
  366MPD2     N 5484   3.748   2.548  15.876  1.0284 -0.0390 -0.3864
  366MPD2    H5 5485   3.794   2.637  15.891 -0.1272  0.3423  0.9185
  366MPD2    N1 5486   3.374   2.840  15.792 -0.8051  0.5153 -0.0653
  366MPD2    H7 5487   3.447   2.906  15.815  0.8293 -1.2474 -0.1536
  367TMC3    C1 5488   3.255   3.029  15.744  0.0648 -0.1878 -0.2842
  367TMC3    C2 5489   3.349   3.093  15.823 -0.6747  0.3116  0.0498
  367TMC3    C3 5490   3.403   3.207  15.778 -0.8944 -0.2582  0.0351
  367TMC3    C4 5491   3.222   3.073  15.625 -0.5402  0.6196 -0.2969
  367TMC3    C5 5492   3.268   3.192  15.586 -0.1802 -0.0045  0.1109
  367TMC3    C6 5493   3.364   3.263  15.654 -0.1110 -0.4585  0.8421
  367TMC3     C 5494   3.252   2.886  15.753  0.0999  0.0671 -1.0207
  367TMC3     O 5495   3.152   2.824  15.726 -0.1374 -0.5377 -0.1378
  367TMC3     H 5496   3.376   3.038  15.913 -0.5179  0.8000  0.3007
  367TMC3    H1 5497   3.151   3.024  15.559  3.0871 -3.6281 -1.0155
  367TMC3    H2 5498   3.407   3.352  15.610  0.7068 -0.9065  0.7369
  367TMC3    C7 5499   3.251   3.226  15.446 -0.0156 -0.6067 -0.5170
  367TMC3    C8 5500   3.474   3.281  15.884 -0.1936  0.1668 -0.9483
  367TMC3    O1 5501   3.236   3.135  15.366 -0.3727 -0.4618 -0.0280
  367TMC3    O2 5502   3.511   3.215  15.976 -0.4660 -0.0934  0.2918
  368MPD2     C 5503   0.143   4.300  13.293  0.0794 -0.1085  0.0944
  368MPD2    C1 5504   0.161   4.395  13.203 -0.1635 -0.2763  0.0157
  368MPD2    C2 5505   0.265   4.379  13.120  0.2300  0.1293 -0.9408
  368MPD2    C3 5506   0.358   4.273  13.130  0.1370  0.1605 -0.4414
  368MPD2    C4 5507   0.331   4.173  13.220 -0.1379  0.2348  0.4815
  368MPD2    C5 5508   0.217   4.181  13.291  0.4847 -0.3825 -0.0290
  368MPD2     H 5509   0.296   4.461  13.056  0.7108 -0.2631 -1.2151
  368MPD2    H1 5510   0.395   4.088  13.238 -0.5488  0.1845  1.7130
  368MPD2    H2 5511   0.059   4.315  13.360  0.5765  0.0108  0.6846
  368MPD2    H3 5512   0.190   4.095  13.352 -1.6481  0.3050  0.0071
  368MPD2     N 5513   0.485   4.278  13.056  0.0482  0.1618  0.1134
  368MPD2    H5 5514   0.561   4.215  13.082 -0.2530 -0.8691 -1.4650
  368MPD2    N1 5515   0.059   4.502  13.192 -1.0314  0.0397  0.0588
  368MPD2    H7 5516   4.705   4.503  13.261  0.4423 -0.5300  1.6794
  369TMC3    C1 5517   4.644   4.663  13.064  0.3118 -0.3693 -0.4188
  369TMC3    C2 5518   4.644   0.000  12.941 -0.2453 -0.5530 -0.6369
  369TMC3    C3 5519   4.529   4.717  12.869 -0.3628  0.1488 -0.1102
  369TMC3    C4 5520   4.527   4.612  13.117 -0.4865  0.3650 -0.3306
  369TMC3    C5 5521   4.409   4.609  13.039 -0.0937  0.3192 -0.1220
  369TMC3    C6 5522   4.409   4.665  12.912 -0.2701  0.0111  0.4164
  369TMC3     C 5523   0.055   4.597  13.090  0.3141  0.2845  0.7546
  369TMC3     O 5524   0.140   4.630  13.014  0.5264 -0.2440 -0.4945
  369TMC3     H 5525   0.014   0.046  12.904  0.3851  0.4693  2.1659
  369TMC3    H1 5526   4.525   4.565  13.214 -0.8753  2.6812  0.7681
  369TMC3    H2 5527   4.328   4.666  12.840  1.2838 -0.2638 -1.3375
  369TMC3    C7 5528   4.293   4.536  13.089  0.0395  0.6453  0.1021
  369TMC3    C8 5529   4.536   0.013  12.727  0.1256  0.5318 -0.5681
  369TMC3    O1 5530   4.289   4.514  13.210 -0.2026  0.0583  0.5646
  369TMC3    O2 5531   4.436   0.046  12.668  0.0986  0.3633 -0.3788
  370TMC3    C1 5532   3.995   0.912  16.298 -0.6503  0.0716  0.4650
  370TMC3    C2 5533   3.934   0.856  16.404 -0.2924  0.7700 -0.7402
  370TMC3    C3 5534   3.873   0.731  16.395  0.5501  0.4933 -0.2785
  370TMC3    C4 5535   3.995   0.850  16.178 -0.1862 -0.0600  0.2728
  370TMC3    C5 5536   3.940   0.726  16.174 -0.3894 -0.6201  0.6574
  370TMC3    C6 5537   3.875   0.664  16.276  0.0224 -0.0347 -0.3903
  370TMC3     C 5538   4.107   0.998  16.333  0.6103 -0.2034  0.3604
  370TMC3     O 5539   4.166   0.962  16.434  0.4009  0.1618  0.0227
  370TMC3     H 5540   3.943   0.903  16.501 -0.9080  0.4931 -0.5558
  370TMC3    H1 5541   4.038   0.902  16.093 -2.1279  0.6258 -0.2909
  370TMC3    H2 5542   3.828   0.568  16.261  1.4180 -0.7848  0.0273
  370TMC3    C7 5543   3.972   0.656  16.050  0.4880  0.5353 -0.5777
  370TMC3    C8 5544   3.866   0.642  16.519  0.3415  0.1699  0.4792
  370TMC3    O1 5545   3.959   0.720  15.948  0.4597  0.3106 -0.0279
  370TMC3    O2 5546   3.848   0.520  16.505 -0.2310 -0.4827 -0.3640
  371TMC3    C1 5547   0.651   3.725  15.657 -0.4501 -0.2280  0.4151
  371TMC3    C2 5548   0.535   3.754  15.713  0.3695 -0.8924  0.2048
  371TMC3    C3 5549   0.477   3.870  15.687  0.3690 -0.7341 -0.0495
  371TMC3    C4 5550   0.711   3.809  15.576  0.4302 -0.4580 -0.2757
  371TMC3    C5 5551   0.646   3.921  15.547  0.0262  0.0720  0.1354
  371TMC3    C6 5552   0.530   3.961  15.599  0.2248 -0.0646  0.0303
  371TMC3     C 5553   0.740   3.633  15.721 -0.5912 -0.2132 -0.3320
  371TMC3     O 5554   0.860   3.654  15.720 -0.2841  0.0642 -0.2610
  371TMC3     H 5555   0.486   3.697  15.791  1.0511 -1.0788  0.4976
  371TMC3    H1 5556   0.818   3.803  15.562  0.8021 -0.6698  2.5663
  371TMC3    H2 5557   0.484   4.050  15.558  0.3141  0.2001  0.4990
  371TMC3    C7 5558   0.724   4.027  15.490 -0.2121  0.2744  0.7651
  371TMC3    C8 5559   0.335   3.872  15.709  0.2438 -0.5051 -0.1381
  371TMC3    O1 5560   0.704   4.142  15.522  0.7837 -0.2692  0.0080
  371TMC3    O2 5561   0.284   3.762  15.727  0.2517  0.8133 -0.2544
  372MPD2     C 5562   0.715   4.672  13.198 -0.8716 -0.0776  0.2425
  372MPD2    C1 5563   0.795   4.576  13.273  0.5069  1.2158  0.1538
  372MPD2    C2 5564   0.726   4.500  13.364 -0.3876  0.0562 -0.4580
  372MPD2    C3 5565   0.595   4.506  13.385  0.1537 -0.3968  0.0231
  372MPD2    C4 5566   0.515   4.595  13.317 -0.1032  0.0945  0.3980
  372MPD2    C5 5567   0.577   4.680  13.225  0.1247 -0.2510 -0.1269
  372MPD2     H 5568   0.780   4.430  13.427 -0.5576  0.2590 -0.0867
  372MPD2    H1 5569   0.407   4.591  13.328 -0.3833 -0.4487 -2.5815
  372MPD2    H2 5570   0.755   0.022  13.126  0.0091 -0.0617  0.7531
  372MPD2    H3 5571   0.517   0.041  13.187  0.0349 -0.6613 -0.8726
  372MPD2     N 5572   0.535   4.404  13.472 -0.3130 -0.4794 -0.4283
  372MPD2    H5 5573   0.584   4.317  13.492 -1.7206 -1.2733 -0.4412
  372MPD2    N1 5574   0.937   4.558  13.262 -0.4485 -0.3914  0.0096
  372MPD2    H7 5575   0.985   4.524  13.345 -2.1404  1.2514  1.6610
  373TMC3    C1 5576   0.358   4.331  13.620  0.0567 -0.1509 -0.0109
  373TMC3    C2 5577   0.306   4.359  13.742  0.3634  0.3975  0.3585
  373TMC3    C3 5578   0.266   4.254  13.816 -0.0198  0.0529  0.0192
  373TMC3    C4 5579   0.379   4.208  13.569 -0.4506 -0.5252 -0.0219
  373TMC3    C5 5580   0.318   4.102  13.640 -0.1073  0.2010 -0.0183
  373TMC3    C6 5581   0.277   4.122  13.764  0.0700 -0.3682  0.4280
  373TMC3     C 5582   0.432   4.444  13.558 -0.1124 -0.6963  0.3488
  373TMC3     O 5583   0.374   4.553  13.576  0.0028  0.0419  0.3831
  373TMC3     H 5584   0.286   4.460  13.776 -0.6243  0.0695  0.7572
  373TMC3    H1 5585   0.442   4.189  13.483 -0.1842 -2.0354  0.5171
  373TMC3    H2 5586   0.232   4.043  13.823 -0.7681 -0.5586 -0.4702
  373TMC3    C7 5587   0.342   3.971  13.581 -0.2836 -0.2553  0.0502
  373TMC3    C8 5588   0.159   4.285  13.902 -0.0805  0.1505 -0.1441
  373TMC3    O1 5589   0.414   3.968  13.482 -0.6527  0.1806  0.2872
  373TMC3    O2 5590   0.075   4.342  13.834  0.7094  0.3982 -0.3090
  374TMC3    C1 5591   0.984   4.228   9.818  0.2927  0.6914  0.4914
  374TMC3    C2 5592   1.054   4.339   9.856  0.4981  0.1681 -0.4405
  374TMC3    C3 5593   1.066   4.448   9.778  1.3470 -0.4474  0.0818
  374TMC3    C4 5594   0.917   4.232   9.697 -0.5863  0.1659 -0.5503
  374TMC3    C5 5595   0.928   4.350   9.621 -0.6325 -0.1422 -0.4814
  374TMC3    C6 5596   1.004   4.457   9.657  0.1282  0.2712 -0.2307
  374TMC3     C 5597   0.976   4.118   9.918 -0.5400 -0.3329 -0.0986
  374TMC3     O 5598   1.043   4.123  10.019 -0.1581  0.1498 -0.7429
  374TMC3     H 5599   1.105   4.336   9.952 -0.3148  0.8161  0.0119
  374TMC3    H1 5600   0.878   4.137   9.662 -0.6155 -0.2403  0.5563
  374TMC3    H2 5601   1.019   4.542   9.591 -1.9840  0.7410 -0.1229
  374TMC3    C7 5602   0.864   4.365   9.490  0.4289 -0.4068  0.5795
  374TMC3    C8 5603   1.156   4.557   9.817 -0.5444  0.2883  0.2724
  374TMC3    O1 5604   0.886   4.470   9.432 -0.4613  0.4134  0.7799
  374TMC3    O2 5605   1.148   4.661   9.748 -0.8230 -0.7473  0.1220
  375MPD2     C 5606   0.897   1.126  17.475  0.4534  0.3621  0.5383
  375MPD2    C1 5607   0.854   1.163  17.353  0.2203 -0.0579  0.5204
  375MPD2    C2 5608   0.919   1.105  17.240 -0.6157 -0.1887  0.1529
  375MPD2    C3 5609   1.005   0.996  17.253 -0.0417 -0.5676 -0.3033
  375MPD2    C4 5610   1.042   0.967  17.377 -0.7847 -0.1676  0.2417
  375MPD2    C5 5611   0.998   1.036  17.485 -0.6720  0.3322  0.2000
  375MPD2     H 5612   0.885   1.129  17.141 -0.9655  0.5937  0.4662
  375MPD2    H1 5613   1.125   0.900  17.395 -0.1383  1.0329  1.7989
  375MPD2    H2 5614   0.854   1.165  17.567 -0.4612 -1.8092  1.0437
  375MPD2    H3 5615   1.036   1.017  17.585  1.1423  1.2123 -0.3341
  375MPD2     N 5616   1.058   0.923  17.144  0.2122  0.2360  0.1709
  375MPD2    H5 5617   1.133   0.857  17.164  0.8988  0.2613 -2.2136
  375MPD2    N1 5618   0.753   1.262  17.332 -0.0620 -0.2936  0.4955
  375MPD2    H7 5619   0.749   1.296  17.236  2.6092 -0.4017  0.3400
  376TMC3    C1 5620   1.084   0.870  16.916  0.3443  0.0046 -0.3323
  376TMC3    C2 5621   1.207   0.808  16.949  0.2456 -0.0102  0.2216
  376TMC3    C3 5622   1.262   0.725  16.852  0.6258 -0.6155 -0.1731
  376TMC3    C4 5623   1.033   0.864  16.789  0.1067 -0.1653  0.9463
  376TMC3    C5 5624   1.092   0.778  16.701 -0.1248 -0.1294  0.2307
  376TMC3    C6 5625   1.205   0.707  16.729 -0.4874  0.0639  0.0102
  376TMC3     C 5626   1.007   0.930  17.020  0.6796  0.2594 -0.5768
  376TMC3     O 5627   0.900   0.982  16.989 -0.2095 -0.4203 -0.0779
  376TMC3     H 5628   1.258   0.827  17.043 -3.2252  0.4180  2.0193
  376TMC3    H1 5629   0.953   0.929  16.756 -2.7231 -3.6481  0.9978
  376TMC3    H2 5630   1.251   0.637  16.660  1.9747  1.6587  0.0443
  376TMC3    C7 5631   1.031   0.781  16.572  0.2171  0.8908  0.2627
  376TMC3    C8 5632   1.396   0.674  16.883  0.1928  0.9733 -0.4653
  376TMC3    O1 5633   0.971   0.876  16.524  0.3341  0.0022 -0.0135
  376TMC3    O2 5634   1.424   0.639  16.997  0.6562  0.4613  0.3341
  377MPD2     C 5635   3.767   0.140  12.312 -0.0693 -0.0314 -0.1672
  377MPD2    C1 5636   3.798   0.066  12.426  0.1198  0.5789  0.8452
  377MPD2    C2 5637   3.737   0.088  12.544  0.0710 -0.4881  0.0419
  377MPD2    C3 5638   3.620   0.161  12.541  0.1876  0.0514 -0.1410
  377MPD2    C4 5639   3.585   0.235  12.429 -0.4919  0.3462 -0.0242
  377MPD2    C5 5640   3.659   0.223  12.315  0.2430 -0.3699  0.3371
  377MPD2     H 5641   3.767   0.034  12.633  0.0701 -0.2675  0.1733
  377MPD2    H1 5642   3.498   0.300  12.420  1.0674  2.3597 -0.5447
  377MPD2    H2 5643   3.829   0.122  12.225  2.7867 -0.5465  1.9564
  377MPD2    H3 5644   3.630   0.275  12.224 -1.1570 -2.5234 -0.4756
  377MPD2     N 5645   3.534   0.175  12.653  0.1014 -0.1231  0.2104
  377MPD2    H5 5646   3.457   0.239  12.635 -1.1210 -1.4117  0.8735
  377MPD2    N1 5647   3.903   4.694  12.404  0.2871  0.2869 -0.5242
  377MPD2    H7 5648   3.945   4.703  12.312 -2.1998 -0.4056 -1.7083
  378TMC3    C1 5649   4.233   4.499  12.262  1.0718 -0.6703  0.2572
  378TMC3    C2 5650   4.109   4.536  12.297 -0.0168  0.7321  0.9832
  378TMC3    C3 5651   4.057   4.513  12.430 -0.3418  0.1711  0.0617
  378TMC3    C4 5652   4.318   4.456  12.366  0.2239  0.2464 -0.6756
  378TMC3    C5 5653   4.271   4.432  12.495 -0.0457  0.5131 -0.0100
  378TMC3    C6 5654   4.141   4.454  12.524  0.6489 -0.6843  0.2750
  378TMC3     C 5655   4.274   4.504  12.121  0.3340  0.0253 -0.3901
  378TMC3     O 5656   4.190   4.552  12.041 -0.4519  0.1295  0.2087
  378TMC3     H 5657   4.043   4.573  12.219  0.4859  0.1843  0.3064
  378TMC3    H1 5658   4.425   4.459  12.352  0.2986 -0.5491 -0.2616
  378TMC3    H2 5659   4.103   4.425  12.622 -1.4480 -1.8321 -0.8922
  378TMC3    C7 5660   4.357   4.420  12.606  0.2490  0.3354  0.0181
  378TMC3    C8 5661   3.941   4.586  12.484  0.8047  0.2341 -0.2306
  378TMC3    O1 5662   4.304   4.450  12.712  0.0238  0.3976 -0.8839
  378TMC3    O2 5663   3.900   4.560  12.594  0.2378  0.2461  0.2104
  379MPD2     C 5664   4.718   3.555  16.478 -0.0013 -0.0871  0.2731
  379MPD2    C1 5665   4.609   3.490  16.528  0.0694  0.1159  0.4686
  379MPD2    C2 5666   4.612   3.426  16.655 -0.3739  0.0670  0.2297
  379MPD2    C3 5667   0.016   3.419  16.717  0.5791 -0.0058  0.9674
  379MPD2    C4 5668   0.126   3.484  16.664  0.1160 -0.3386 -0.3247
  379MPD2    C5 5669   0.114   3.560  16.546  0.0361  0.5224  0.3630
  379MPD2     H 5670   4.532   3.364  16.695 -0.9305  0.8924  0.3914
  379MPD2    H1 5671   0.218   3.483  16.721 -0.3147  1.4940  0.3818
  379MPD2    H2 5672   4.712   3.607  16.383 -0.8262 -0.4784  0.1148
  379MPD2    H3 5673   0.199   3.607  16.499  1.0176  0.8873  2.4948
  379MPD2     N 5674   0.040   3.348  16.841 -0.0180  0.1416 -0.7445
  379MPD2    H5 5675   0.137   3.327  16.864 -0.1234 -0.7649 -1.1120
  379MPD2    N1 5676   4.494   3.494  16.450  0.0784  0.1010  0.2569
  379MPD2    H7 5677   4.499   3.539  16.359  1.4061  1.0166  0.7722
  380TMC3    C1 5678   4.277   3.431  16.386  0.9818  0.6436  0.0528
  380TMC3    C2 5679   4.326   3.352  16.281 -0.2406  0.1060 -0.4408
  380TMC3    C3 5680   4.235   3.314  16.185 -0.2788  0.5457  0.3314
  380TMC3    C4 5681   4.149   3.486  16.386  0.0149  0.0790  0.5620
  380TMC3    C5 5682   4.074   3.448  16.283  0.1795 -1.0766 -0.3279
  380TMC3    C6 5683   4.110   3.364  16.181 -0.0383 -0.2843 -0.2992
  380TMC3     C 5684   4.364   3.468  16.497  0.6263  0.3323  0.9262
  380TMC3     O 5685   4.313   3.461  16.607 -0.0894 -0.5355 -0.5183
  380TMC3     H 5686   4.422   3.302  16.278 -0.5829 -0.6022  0.4160
  380TMC3    H1 5687   4.105   3.534  16.472  0.9970  1.5488  0.2535
  380TMC3    H2 5688   4.056   3.366  16.087 -3.2305  0.5590  1.5570
  380TMC3    C7 5689   3.965   3.540  16.252  0.8451 -0.4142 -0.1773
  380TMC3    C8 5690   4.297   3.249  16.071 -0.3061  0.8944  0.1709
  380TMC3    O1 5691   3.984   3.659  16.267  0.4086  0.6781 -0.2923
  380TMC3    O2 5692   4.417   3.264  16.047  0.2071 -0.6667 -0.8421
  381TMC3    C1 5693   4.139   4.486  16.386  0.6039 -0.5922 -0.5838
  381TMC3    C2 5694   4.209   4.606  16.364  0.7617 -0.2587  0.3064
  381TMC3    C3 5695   4.165   0.007  16.407 -0.6245  0.3252  0.5980
  381TMC3    C4 5696   4.017   4.489  16.453 -0.1746 -0.1772 -0.4106
  381TMC3    C5 5697   3.975   4.618  16.492 -0.4987 -0.6930  0.0457
  381TMC3    C6 5698   4.047   0.013  16.486  0.0470 -0.0205 -0.4739
  381TMC3     C 5699   4.198   4.358  16.349  0.4300  0.1195  0.2425
  381TMC3     O 5700   4.293   4.369  16.271 -0.2968  0.2959  0.5754
  381TMC3     H 5701   4.297   4.614  16.301  1.3746  1.2900  1.3367
  381TMC3    H1 5702   3.950   4.404  16.455  0.0199 -0.3203 -0.0708
  381TMC3    H2 5703   4.017   0.107  16.531  1.5421 -0.8161  2.1534
  381TMC3    C7 5704   3.889   4.601  16.608  0.4745  0.3065 -0.7660
  381TMC3    C8 5705   4.228   0.124  16.350 -0.3424  0.1832  0.2380
  381TMC3    O1 5706   3.891   4.494  16.664 -0.0857 -0.5050 -0.9311
  381TMC3    O2 5707   4.306   0.116  16.256  0.3895 -0.9161  0.6462
  382MPD2     C 5708   3.539   2.740  17.092 -0.1704  0.6417 -0.0411
  382MPD2    C1 5709   3.497   2.804  17.206  0.0201 -0.5949  0.1453
  382MPD2    C2 5710   3.431   2.741  17.307 -0.0854 -0.3348  0.5436
  382MPD2    C3 5711   3.395   2.611  17.286  0.2714  0.0817  0.0283
  382MPD2    C4 5712   3.437   2.543  17.172 -0.5180  0.2009  0.0437
  382MPD2    C5 5713   3.515   2.609  17.082  0.3158  0.6239  0.2778
  382MPD2     H 5714   3.407   2.798  17.396 -1.6228 -0.3501  0.1404
  382MPD2    H1 5715   3.404   2.440  17.168 -0.7359  0.1276  3.4799
  382MPD2    H2 5716   3.607   2.784  17.021 -1.2510  1.8938 -0.2961
  382MPD2    H3 5717   3.549   2.549  16.998  2.1306  0.9079  0.8005
  382MPD2     N 5718   3.328   2.530  17.390  0.7858 -0.3609  0.1936
  382MPD2    H5 5719   3.283   2.445  17.357  0.6347 -0.0178 -0.4656
  382MPD2    N1 5720   3.524   2.938  17.237 -0.1355  0.4103 -1.0499
  382MPD2    H7 5721   3.486   2.974  17.324  1.6489 -0.9915  0.2844
  383TMC3    C1 5722   3.203   2.513  17.603 -0.2917  0.1417  0.7250
  383TMC3    C2 5723   3.127   2.416  17.543 -0.0208  0.1762 -0.7399
  383TMC3    C3 5724   3.005   2.389  17.600  0.2988 -0.0393  0.1651
  383TMC3    C4 5725   3.171   2.574   0.036 -0.3617 -0.3036  0.2949
  383TMC3    C5 5726   3.049   2.540   0.088  1.1439 -0.1746  0.5404
  383TMC3    C6 5727   2.963   2.456   0.025  0.1049 -0.2149 -0.5880
  383TMC3     C 5728   3.301   2.582  17.515 -0.6206 -0.1645 -0.1871
  383TMC3     O 5729   3.360   2.674  17.565  0.2841 -0.1208  0.0675
  383TMC3     H 5730   3.146   2.377  17.443 -1.9977 -0.4214 -0.8868
  383TMC3    H1 5731   3.237   2.650   0.077  0.7655 -0.8217 -0.5485
  383TMC3    H2 5732   2.872   2.435   0.081 -0.7180 -1.3698 -2.3772
  383TMC3    C7 5733   2.991   2.642   0.164  0.5846 -0.0947  0.3791
  383TMC3    C8 5734   2.920   2.288  17.547  0.1066  0.1547 -0.1438
  383TMC3    O1 5735   2.870   2.666   0.154  0.1266  0.1536  0.1697
  383TMC3    O2 5736   2.803   2.308  17.570 -0.3068 -0.1049 -0.2270
  384MPD2     C 5737   0.959   2.227  11.975  0.2169 -0.2680  0.4450
  384MPD2    C1 5738   1.000   2.165  12.094 -0.2784 -0.3548 -0.9497
  384MPD2    C2 5739   1.081   2.051  12.073  0.3065 -0.2561 -0.8645
  384MPD2    C3 5740   1.130   2.015  11.954 -0.3541  0.4552  0.5901
  384MPD2    C4 5741   1.084   2.085  11.845  0.3172  0.3046 -0.6275
  384MPD2    C5 5742   0.995   2.180  11.852 -0.3034 -0.2372 -0.9020
  384MPD2     H 5743   1.103   1.992  12.161  0.1154  0.1189 -0.5685
  384MPD2    H1 5744   1.106   2.048  11.745 -0.4031  1.5448 -1.2407
  384MPD2    H2 5745   0.886   2.306  11.968 -0.8936 -1.1843  1.5492
  384MPD2    H3 5746   0.946   2.212  11.761 -0.9384  0.1968 -0.4094
  384MPD2     N 5747   1.215   1.894  11.942  0.0240 -0.3926 -0.5766
  384MPD2    H5 5748   1.231   1.862  11.846  3.8612 -0.0589 -0.0588
  384MPD2    N1 5749   0.954   2.213  12.216 -0.2170  0.2153 -0.9098
  384MPD2    H7 5750   0.879   2.281  12.215 -1.2449 -0.9140 -1.0498
  385TMC3    C1 5751   1.379   1.723  12.017 -0.3456  0.0055  0.1968
  385TMC3    C2 5752   1.313   1.625  11.945 -0.6549  0.4800  0.2389
  385TMC3    C3 5753   1.341   1.495  11.983 -0.4117 -0.0770  0.6016
  385TMC3    C4 5754   1.447   1.692  12.132 -0.1216 -0.1078  0.3811
  385TMC3    C5 5755   1.461   1.564  12.176  0.7371 -0.8901  1.1085
  385TMC3    C6 5756   1.418   1.462  12.091  0.0010  0.0333 -0.1969
  385TMC3     C 5757   1.288   1.837  12.050  0.3237 -0.7494 -0.5496
  385TMC3     O 5758   1.294   1.872  12.168 -0.3052 -0.1638  0.4576
  385TMC3     H 5759   1.242   1.649  11.867  0.8628  0.1316 -1.2524
  385TMC3    H1 5760   1.488   1.769  12.197 -2.4504  0.6186  0.9739
  385TMC3    H2 5761   1.428   1.361  12.131  2.1836  0.1814 -0.3685
  385TMC3    C7 5762   1.409   1.553  12.316 -0.3229 -0.0796 -0.1483
  385TMC3    C8 5763   1.301   1.386  11.910  0.2019  0.2374 -0.2144
  385TMC3    O1 5764   1.408   1.446  12.376  0.2981 -0.2604  0.3140
  385TMC3    O2 5765   1.363   1.284  11.938  0.1699  0.3578  0.1620
  386TMC3    C1 5766   0.751   0.248  11.558  0.8985  0.7807 -0.2520
  386TMC3    C2 5767   0.782   0.214  11.424 -0.5055  0.5339  0.1050
  386TMC3    C3 5768   0.694   0.255  11.330 -0.0907 -0.1419  0.7713
  386TMC3    C4 5769   0.626   0.290  11.596  0.2242 -0.7122 -0.3889
  386TMC3    C5 5770   0.533   0.314  11.496 -0.1501  0.6760  0.4961
  386TMC3    C6 5771   0.567   0.307  11.363 -0.0992 -0.1557  0.2435
  386TMC3     C 5772   0.843   0.227  11.667  1.2111 -0.4804  0.1239
  386TMC3     O 5773   0.830   0.301  11.763 -0.2375  0.2383  0.6537
  386TMC3     H 5774   0.886   0.187  11.407 -0.5028  1.9107 -1.9041
  386TMC3    H1 5775   0.608   0.302  11.702  2.9679 -0.6037  0.0547
  386TMC3    H2 5776   0.493   0.320  11.284 -0.7098  2.4532  1.2314
  386TMC3    C7 5777   0.395   0.317  11.534  0.1045 -1.0983  0.0670
  386TMC3    C8 5778   0.716   0.223  11.186  0.2642 -0.3594  0.1053
  386TMC3    O1 5779   0.356   0.278  11.644  0.3987 -0.2067 -0.1078
  386TMC3    O2 5780   0.626   0.250  11.107  0.3745 -0.2193  0.3510
  387MPD2     C 5781   2.675   0.449   9.253  0.0156 -0.3312 -0.3114
  387MPD2    C1 5782   2.800   0.415   9.301 -0.4249  0.6486  0.4475
  387MPD2    C2 5783   2.820   0.285   9.342 -0.1425 -0.7997 -0.2630
  387MPD2    C3 5784   2.720   0.198   9.371  0.5534 -0.0612 -0.9106
  387MPD2    C4 5785   2.594   0.227   9.323 -0.4387 -0.1719 -0.4756
  387MPD2    C5 5786   2.571   0.347   9.261  0.3052  0.4241  0.2718
  387MPD2     H 5787   2.921   0.253   9.362  0.8528  1.0270 -2.4381
  387MPD2    H1 5788   2.512   0.155   9.323 -1.8157  1.4016  0.7384
  387MPD2    H2 5789   2.659   0.550   9.217  1.8592 -0.6765 -2.0918
  387MPD2    H3 5790   2.471   0.367   9.223 -0.1524  0.4027  1.4882
  387MPD2     N 5791   2.751   0.079   9.435  0.0059  0.0893  0.2474
  387MPD2    H5 5792   2.848   0.075   9.465 -0.0338  0.3671  0.4195
  387MPD2    N1 5793   2.903   0.512   9.320  0.5432 -0.0530  0.1527
  387MPD2    H7 5794   2.988   0.474   9.362  1.9912  1.7693 -1.0912
  388TMC3    C1 5795   3.005   0.709   9.379  0.5261  1.1262  0.6098
  388TMC3    C2 5796   3.041   0.838   9.350  0.4352 -0.3550  0.2607
  388TMC3    C3 5797   3.123   0.897   9.441 -0.6634 -1.0801  0.4375
  388TMC3    C4 5798   3.036   0.647   9.501 -0.3975  0.0541  0.3894
  388TMC3    C5 5799   3.121   0.712   9.595  0.4562  0.3243 -0.4109
  388TMC3    C6 5800   3.167   0.839   9.558 -0.3241 -0.4756 -0.0615
  388TMC3     C 5801   2.901   0.648   9.304 -0.2261 -0.1567 -0.0615
  388TMC3     O 5802   2.811   0.720   9.260 -0.2455 -0.2597  0.3009
  388TMC3     H 5803   3.010   0.886   9.258 -0.2163 -1.0703  0.1060
  388TMC3    H1 5804   2.993   0.553   9.533 -0.1407 -0.6182 -1.2040
  388TMC3    H2 5805   3.231   0.888   9.629  0.0204 -2.2376  0.8580
  388TMC3    C7 5806   3.196   0.633   9.692 -0.3998 -0.4995 -0.1921
  388TMC3    C8 5807   3.148   1.039   9.430  0.4249 -0.1992 -0.0131
  388TMC3    O1 5808   3.313   0.659   9.711 -0.1293  0.0097  0.2176
  388TMC3    O2 5809   3.246   1.077   9.486 -0.3253  0.3056 -0.4731
  389MPD2     C 5810   2.962   3.196  11.143  0.0276  0.2177  0.5993
  389MPD2    C1 5811   2.874   3.165  11.042  0.0981 -0.1671 -1.1791
  389MPD2    C2 5812   2.803   3.050  11.058  0.0944 -0.2218 -0.3558
  389MPD2    C3 5813   2.801   2.972  11.171  0.2471 -0.0688 -0.0143
  389MPD2    C4 5814   2.878   3.016  11.277  0.4465 -0.7565 -0.7348
  389MPD2    C5 5815   2.963   3.127  11.261 -0.5405  0.4566  0.0919
  389MPD2     H 5816   2.730   3.026  10.982 -0.1488  1.1190 -0.5486
  389MPD2    H1 5817   2.881   2.963  11.371  2.1723 -2.5409 -1.7910
  389MPD2    H2 5818   3.028   3.282  11.139 -0.3025  0.5623  2.2989
  389MPD2    H3 5819   3.023   3.164  11.343 -0.4160 -0.3334  0.3557
  389MPD2     N 5820   2.719   2.856  11.186  0.0177 -0.3703  0.4019
  389MPD2    H5 5821   2.708   2.820  11.280 -0.7913  0.0165  0.4519
  389MPD2    N1 5822   2.863   3.255  10.931  0.2893 -0.1458 -0.1993
  389MPD2    H7 5823   2.928   3.332  10.923  1.1410 -1.0024 -1.5581
  390TMC3    C1 5824   2.577   2.669  11.122 -0.4193  0.0914 -0.1042
  390TMC3    C2 5825   2.542   2.656  11.255  0.1745 -0.4499  0.5498
  390TMC3    C3 5826   2.457   2.556  11.296 -0.1361  0.3421  0.3915
  390TMC3    C4 5827   2.513   2.594  11.030  0.7996 -0.6162  0.0989
  390TMC3    C5 5828   2.402   2.529  11.072  0.0998 -0.3141  1.2207
  390TMC3    C6 5829   2.382   2.491  11.205  0.1413  0.2073  0.1179
  390TMC3     C 5830   2.668   2.782  11.079 -0.2682  0.3922 -0.0565
  390TMC3     O 5831   2.707   2.771  10.962 -0.2215  0.1609  0.0684
  390TMC3     H 5832   2.596   2.716  11.328 -0.3745  1.2076 -0.4094
  390TMC3    H1 5833   2.511   2.615  10.924 -0.8734  0.4716  0.3543
  390TMC3    H2 5834   2.310   2.416  11.235  0.8013 -0.1551  0.7995
  390TMC3    C7 5835   2.316   2.461  10.981 -0.0396 -0.8167  0.1233
  390TMC3    C8 5836   2.413   2.548  11.435 -0.5260  0.1074  0.0426
  390TMC3    O1 5837   2.354   2.438  10.867 -0.2219  0.2788  0.0157
  390TMC3    O2 5838   2.425   2.651  11.497  0.4321 -0.2638  0.2507
  391MPD2     C 5839   1.875   4.206  11.201  0.3503  0.0926  0.0612
  391MPD2    C1 5840   1.969   4.309  11.169 -0.2597  0.2469  0.0020
  391MPD2    C2 5841   1.972   4.366  11.036 -0.4533 -0.2431 -0.3211
  391MPD2    C3 5842   1.865   4.331  10.954  0.2984 -0.4162  0.4282
  391MPD2    C4 5843   1.776   4.221  10.988  0.4929  0.2680 -0.9010
  391MPD2    C5 5844   1.790   4.163  11.108 -0.2008  0.3963  0.0760
  391MPD2     H 5845   2.035   4.448  11.003 -0.9766  0.5284  0.5667
  391MPD2    H1 5846   1.694   4.180  10.930  1.0778 -1.8930 -0.2120
  391MPD2    H2 5847   1.863   4.168  11.302 -0.8786  0.8419  0.1931
  391MPD2    H3 5848   1.714   4.091  11.134  1.7624 -0.7772  2.4904
  391MPD2     N 5849   1.852   4.407  10.833  0.0526 -0.1542  0.3037
  391MPD2    H5 5850   1.928   4.467  10.803  2.9608 -3.4797  1.0615
  391MPD2    N1 5851   2.046   4.357  11.273  0.6843  0.2511 -0.3369
  391MPD2    H7 5852   2.022   4.313  11.362  1.0298 -1.7256 -1.2098
  392TMC3    C1 5853   1.772   4.468  10.621 -1.0660  0.1549 -0.5791
  392TMC3    C2 5854   1.671   4.473  10.528  0.1883 -0.6012 -0.6426
  392TMC3    C3 5855   1.689   4.547  10.412  0.1347 -0.3749  0.3596
  392TMC3    C4 5856   1.896   4.520  10.598 -0.7508 -0.6275  0.3931
  392TMC3    C5 5857   1.908   4.589  10.482  0.9481  0.0828 -0.8275
  392TMC3    C6 5858   1.811   4.597  10.384  0.2006  0.2510  0.2070
  392TMC3     C 5859   1.748   4.388  10.745  0.1380 -0.2379 -0.1142
  392TMC3     O 5860   1.635   4.341  10.763  0.5596 -0.1110  0.2175
  392TMC3     H 5861   1.576   4.420  10.530  0.8261 -1.8416 -2.5380
  392TMC3    H1 5862   1.983   4.501  10.661  0.3758 -1.1644 -1.3294
  392TMC3    H2 5863   1.842   4.646  10.293  0.2315  0.6159  0.4159
  392TMC3    C7 5864   2.042   4.615  10.440 -0.6153  0.3215  0.2995
  392TMC3    C8 5865   1.596   4.531  10.302  0.0669  0.2916 -0.1344
  392TMC3    O1 5866   2.066   4.558  10.335  0.4823 -0.1290 -0.4816
  392TMC3    O2 5867   1.515   4.435  10.307  0.0942 -0.3017 -0.0060
  393TMC3    C1 5868   1.208   2.362  10.639 -0.3095 -0.6282 -0.0174
  393TMC3    C2 5869   1.104   2.284  10.674 -0.0063 -0.4430  0.5772
  393TMC3    C3 5870   1.077   2.162  10.637  0.3493  0.1633 -0.0126
  393TMC3    C4 5871   1.286   2.327  10.538  0.4829 -0.5602 -0.6499
  393TMC3    C5 5872   1.257   2.200  10.489  0.2647 -0.2735 -0.0214
  393TMC3    C6 5873   1.160   2.122  10.539 -0.0798 -0.1474 -0.2638
  393TMC3     C 5874   1.187   2.501  10.661  0.0995  0.4139 -0.2672
  393TMC3     O 5875   1.071   2.537  10.664  0.3134 -0.0102  0.2072
  393TMC3     H 5876   1.050   2.320  10.761  0.6032 -0.0323  0.7831
  393TMC3    H1 5877   1.377   2.380  10.511  1.7200 -1.6154  1.4330
  393TMC3    H2 5878   1.130   2.035  10.482 -3.1145  0.1172  0.8918
  393TMC3    C7 5879   1.288   2.164  10.350  0.7884  0.3587  0.7703
  393TMC3    C8 5880   0.952   2.168  10.569 -0.0533  0.0425 -0.4817
  393TMC3    O1 5881   1.273   2.046  10.314 -0.0814 -0.1830  0.5048
  393TMC3    O2 5882   0.949   2.209  10.454 -0.2564  0.0133  0.1978
  394TMC3    C1 5883   2.810   3.320  10.705  0.4169 -0.1587 -0.0240
  394TMC3    C2 5884   2.713   3.309  10.612 -0.3627 -0.1698  0.1864
  394TMC3    C3 5885   2.745   3.293  10.483 -0.0768 -0.2106  0.2505
  394TMC3    C4 5886   2.941   3.317  10.676  0.8639  0.2213 -0.5075
  394TMC3    C5 5887   2.967   3.315  10.540  0.1278  0.6253  0.2964
  394TMC3    C6 5888   2.871   3.302  10.443 -0.0314 -0.3905 -0.5061
  394TMC3     C 5889   2.774   3.234  10.821 -0.0403 -0.3913  0.4125
  394TMC3     O 5890   2.682   3.156  10.799  0.0276  0.5351  0.0967
  394TMC3     H 5891   2.609   3.294  10.639 -0.8105  0.8488 -0.9856
  394TMC3    H1 5892   3.016   3.296  10.752  0.8648  0.3178 -0.4821
  394TMC3    H2 5893   2.907   3.290  10.341  1.4470  1.3843 -0.1929
  394TMC3    C7 5894   3.107   3.306  10.482 -0.4682  0.0716  0.2557
  394TMC3    C8 5895   2.632   3.299  10.389  0.1154  0.6051  0.0171
  394TMC3    O1 5896   3.126   3.303  10.359 -0.3377  0.1340 -0.3321
  394TMC3    O2 5897   2.527   3.353  10.424  0.2824 -0.3089 -0.1034
  395TMC3    C1 5898   2.269   0.742  15.247 -0.5845  0.0714  0.0441
  395TMC3    C2 5899   2.312   0.635  15.170 -0.6671 -0.7313  0.9979
  395TMC3    C3 5900   2.381   0.666  15.053 -0.4915 -0.3112  0.3738
  395TMC3    C4 5901   2.291   0.870  15.214 -0.2396  0.5438  0.5648
  395TMC3    C5 5902   2.376   0.893  15.108  0.8178  0.2464 -0.1673
  395TMC3    C6 5903   2.416   0.796  15.028  0.7921  0.5998  0.4024
  395TMC3     C 5904   2.178   0.722  15.361 -0.0299 -1.1260 -0.5104
  395TMC3     O 5905   2.144   0.818  15.437  0.3278 -0.4441  0.2944
  395TMC3     H 5906   2.326   0.532  15.202  1.6742 -1.1374 -1.3055
  395TMC3    H1 5907   2.253   0.955  15.270 -1.0054 -0.6040  1.7808
  395TMC3    H2 5908   2.474   0.819  14.939 -1.4720 -0.2839 -1.3016
  395TMC3    C7 5909   2.420   1.032  15.079  0.0482 -0.9383 -0.9751
  395TMC3    C8 5910   2.425   0.564  14.959 -0.0527  0.1009 -0.9830
  395TMC3    O1 5911   2.441   1.107  15.172  0.5992 -0.1327  0.5617
  395TMC3    O2 5912   2.528   0.586  14.894  0.5401 -0.3756 -0.5407
  396MPD2     C 5913   1.652   2.195  17.682 -0.5622  0.1394 -0.0205
  396MPD2    C1 5914   1.699   2.171  17.554  0.4875  0.3445  0.4792
  396MPD2    C2 5915   1.684   2.261  17.450 -0.1564  0.3701  0.0836
  396MPD2    C3 5916   1.622   2.383  17.478  0.2201  0.2736  0.2296
  396MPD2    C4 5917   1.576   2.407  17.605  0.6934 -0.0883 -0.0004
  396MPD2    C5 5918   1.605   2.316   0.020  0.1605 -0.1709  0.2055
  396MPD2     H 5919   1.723   2.242  17.351 -0.9989 -2.2641  0.2558
  396MPD2    H1 5920   1.533   2.504  17.629 -0.7079 -0.6725 -0.1875
  396MPD2    H2 5921   1.670   2.143   0.091  2.6697  1.2392 -0.0220
  396MPD2    H3 5922   1.576   2.344   0.121 -0.4845 -1.4772  0.3789
  396MPD2     N 5923   1.592   2.477  17.375 -0.1308 -0.6634 -0.2065
  396MPD2    H5 5924   1.551   2.567  17.396  3.8695  1.0482  0.1107
  396MPD2    N1 5925   1.764   2.043  17.536  0.4486 -0.3856  0.3037
  396MPD2    H7 5926   1.761   1.984  17.619 -1.6919 -1.5901 -0.6417
  397TMC3    C1 5927   1.841   1.852  17.413  0.7487  0.5383 -0.2762
  397TMC3    C2 5928   1.809   1.813  17.289  1.0560 -0.1345  0.3155
  397TMC3    C3 5929   1.714   1.720  17.267  0.9131 -0.2317  0.0864
  397TMC3    C4 5930   1.801   1.777  17.521  0.5048 -0.0202  0.2886
  397TMC3    C5 5931   1.727   1.665  17.493  0.3386 -0.1208 -0.0650
  397TMC3    C6 5932   1.676   1.637  17.371  0.0174 -0.5966 -0.0237
  397TMC3     C 5933   1.827   1.993  17.429 -1.0734  0.5097 -0.0164
  397TMC3     O 5934   1.878   2.065  17.344 -0.5125  0.2307  0.6015
  397TMC3     H 5935   1.824   1.884  17.209 -1.6024 -0.6169 -0.5962
  397TMC3    H1 5936   1.822   1.811  17.622  0.7295  1.9916 -0.4334
  397TMC3    H2 5937   1.609   1.555  17.350 -1.3740 -0.0353  2.2783
  397TMC3    C7 5938   1.693   1.572  17.589 -0.5071  0.5380 -0.5682
  397TMC3    C8 5939   1.687   1.704  17.121  0.0119 -0.5155  0.9171
  397TMC3    O1 5940   1.599   1.498  17.564  1.0379 -0.4126 -0.6512
  397TMC3    O2 5941   1.705   1.796  17.046  0.1645 -0.2958  0.3317
  398MPD2     C 5942   0.076   3.175   1.055  0.3656 -0.0716 -0.2109
  398MPD2    C1 5943   0.109   3.080   0.957  0.1289 -0.5540 -0.3148
  398MPD2    C2 5944   0.234   3.072   0.902  0.1352 -0.2912  0.5275
  398MPD2    C3 5945   0.340   3.146   0.955  0.0143 -0.1668 -0.8271
  398MPD2    C4 5946   0.312   3.242   1.050  0.7733 -0.6836  0.2193
  398MPD2    C5 5947   0.183   3.257   1.089  0.0624 -0.5393  0.1596
  398MPD2     H 5948   0.266   2.998   0.830 -3.3669  0.0868 -1.4397
  398MPD2    H1 5949   0.392   3.295   1.101  0.5027  0.8176 -0.8857
  398MPD2    H2 5950   4.701   3.192   1.102  0.4635 -0.8083  0.2427
  398MPD2    H3 5951   0.168   3.342   1.155  1.1771  1.3802 -2.0441
  398MPD2     N 5952   0.466   3.131   0.889  0.1538 -0.3860  0.7346
  398MPD2    H5 5953   0.468   3.074   0.805 -0.1420  2.2336 -1.0697
  398MPD2    N1 5954   0.017   2.980   0.917 -0.7297  0.5292 -0.0388
  398MPD2    H7 5955   0.053   2.906   0.857  0.2243  2.1690 -1.4916
  399TMC3    C1 5956   4.543   2.854   0.911  0.4229 -0.0547  0.4687
  399TMC3    C2 5957   4.614   2.737   0.905 -0.1257 -0.0359 -0.1865
  399TMC3    C3 5958   4.549   2.624   0.859  0.1989 -0.7237 -0.1147
  399TMC3    C4 5959   4.417   2.871   0.856  0.7068  0.8349 -0.3067
  399TMC3    C5 5960   4.361   2.753   0.802  0.2537 -0.1758  0.6314
  399TMC3    C6 5961   4.429   2.630   0.796  0.5041  0.3606  0.1561
  399TMC3     C 5962   4.604   2.975   0.950 -0.5743 -0.1044 -0.4584
  399TMC3     O 5963   4.530   3.066   0.966  0.0701 -0.4385 -0.1227
  399TMC3     H 5964   4.712   2.722   0.949 -0.3773  1.3376  0.8566
  399TMC3    H1 5965   4.388   2.975   0.841 -0.5522  0.3621 -1.1539
  399TMC3    H2 5966   4.375   2.542   0.764  1.5793 -1.7708  4.1952
  399TMC3    C7 5967   4.247   2.763   0.718  0.0852  0.8162 -0.3651
  399TMC3    C8 5968   4.625   2.503   0.853  0.6247  0.2006 -0.4470
  399TMC3    O1 5969   4.195   2.654   0.683 -0.6028  0.2201  0.0863
  399TMC3    O2 5970   0.031   2.514   0.854  0.4630  0.3877 -0.0791
  400TMC3    C1 5971   3.009   1.765  17.135  0.5167  0.3922  0.7194
  400TMC3    C2 5972   2.875   1.756  17.114  0.0762 -0.1526 -0.1422
  400TMC3    C3 5973   2.808   1.867  17.096  0.4381 -0.7392  0.4641
  400TMC3    C4 5974   3.083   1.880  17.140 -0.7446  0.1747 -0.1560
  400TMC3    C5 5975   2.996   1.992  17.116 -0.2545 -0.7671  0.3046
  400TMC3    C6 5976   2.864   1.992  17.103 -0.1951  0.1216 -0.3917
  400TMC3     C 5977   3.069   1.639  17.184  0.1244  0.0019  0.4754
  400TMC3     O 5978   2.992   1.543  17.182  0.3827  0.2973 -0.0267
  400TMC3     H 5979   2.826   1.659  17.110 -0.3940  0.2028 -2.9871
  400TMC3    H1 5980   3.188   1.893  17.160 -0.4204 -1.4270 -0.8461
  400TMC3    H2 5981   2.799   2.075  17.080  2.0149  1.7992 -0.5827
  400TMC3    C7 5982   3.069   2.119  17.096  0.6112  0.2744 -0.5789
  400TMC3    C8 5983   2.659   1.864  17.080  0.9565  1.0932 -0.0727
  400TMC3    O1 5984   3.190   2.106  17.081  0.5179 -0.0017 -0.5308
  400TMC3    O2 5985   2.616   1.961  17.018 -0.1205 -0.0174  0.6439
  401MPD2     C 5986   1.079   0.361   0.891 -0.1644 -0.3817 -0.2184
  401MPD2    C1 5987   1.089   0.255   0.985 -0.2342  0.4576  0.2804
  401MPD2    C2 5988   1.053   0.128   0.938 -0.5639  0.1745 -0.2290
  401MPD2    C3 5989   1.011   0.101   0.810  0.6538 -0.1120 -0.2747
  401MPD2    C4 5990   0.984   0.209   0.728 -0.2526 -0.7345  0.8601
  401MPD2    C5 5991   1.024   0.338   0.767  0.3780 -0.4923 -0.3030
  401MPD2     H 5992   1.078   0.048   1.007  1.3215 -1.3819 -2.6856
  401MPD2    H1 5993   0.930   0.205   0.635  0.8862 -1.8672  0.2490
  401MPD2    H2 5994   1.114   0.460   0.917  0.9743 -0.9123  0.2365
  401MPD2    H3 5995   1.003   0.423   0.704 -0.5928  1.1749  2.3030
  401MPD2     N 5996   0.975   4.683   0.781 -0.3098 -0.9505  0.4121
  401MPD2    H5 5997   0.986   4.618   0.858  2.1502  1.3186  1.9796
  401MPD2    N1 5998   1.148   0.268   1.115  0.0138 -0.4530 -0.4481
  401MPD2    H7 5999   1.169   0.181   1.164  1.6582  0.5233  0.5702
  402TMC3    C1 6000   0.924   4.495   0.659 -0.0275 -0.0592 -0.3099
  402TMC3    C2 6001   0.865   4.449   0.771  0.0746 -1.1087  0.1020
  402TMC3    C3 6002   0.872   4.309   0.797  0.1108 -1.0666  0.3700
  402TMC3    C4 6003   0.996   4.414   0.580 -0.2530 -0.7040 -0.6539
  402TMC3    C5 6004   0.993   4.278   0.605 -0.4386 -0.1906 -0.0912
  402TMC3    C6 6005   0.931   4.221   0.714 -0.6271  0.4017  0.2710
  402TMC3     C 6006   0.952   4.634   0.656  0.4895  0.0993 -0.2506
  402TMC3     O 6007   0.977   4.676   0.548  0.0061 -0.2106  0.3428
  402TMC3     H 6008   0.816   4.519   0.837 -0.7829 -1.9924  0.4027
  402TMC3    H1 6009   1.059   4.460   0.505  2.1888 -0.1327  1.7582
  402TMC3    H2 6010   0.939   4.114   0.733  3.2879  0.9537  1.9424
  402TMC3    C7 6011   1.127   4.224   0.567 -0.2237  0.4222  0.2510
  402TMC3    C8 6012   0.858   4.264   0.935 -0.4987 -1.2341 -0.1734
  402TMC3    O1 6013   1.189   4.284   0.476 -0.2541 -0.1311  0.6173
  402TMC3    O2 6014   0.917   4.162   0.963  0.8078  0.2160 -0.0538
  403MPD2     C 6015   0.060   2.580  13.207 -0.3085  0.1276  1.2719
  403MPD2    C1 6016   0.121   2.492  13.292  0.6685 -0.4545 -0.2877
  403MPD2    C2 6017   0.249   2.516  13.343  0.0393 -0.2384 -0.2531
  403MPD2    C3 6018   0.298   2.646  13.337 -0.1015  0.4018 -0.1073
  403MPD2    C4 6019   0.228   2.740  13.259 -0.5977  0.6030  0.1814
  403MPD2    C5 6020   0.118   2.705  13.187 -0.2058  0.0608 -0.5788
  403MPD2     H 6021   0.299   2.440  13.402 -0.3269  0.8700  1.5047
  403MPD2    H1 6022   0.266   2.842  13.261  0.4495  0.2117  0.2858
  403MPD2    H2 6023   4.688   2.561  13.154  0.2166 -0.1238  0.4567
  403MPD2    H3 6024   0.070   2.773  13.119 -1.6178 -1.3191 -0.9509
  403MPD2     N 6025   0.414   2.679  13.415  0.3605 -0.1684 -0.1470
  403MPD2    H5 6026   0.469   2.602  13.453 -0.0931 -0.0829  0.6755
  403MPD2    N1 6027   0.066   2.365  13.322 -0.0322  0.2798  0.8521
  403MPD2    H7 6028   0.126   2.293  13.360  0.7663 -0.3998 -1.6811
  404TMC3    C1 6029   4.638   2.196  13.338 -0.2258  0.3402  0.1651
  404TMC3    C2 6030   4.640   2.192  13.473  0.4742 -1.1697  0.1251
  404TMC3    C3 6031   4.649   2.066  13.523  0.2274 -0.6416 -0.3450
  404TMC3    C4 6032   4.658   2.098  13.247 -0.2782  0.0226 -0.1064
  404TMC3    C5 6033   4.659   1.974  13.310 -0.3321 -0.4487  0.2659
  404TMC3    C6 6034   4.663   1.959  13.443 -0.3412  0.1273  0.3283
  404TMC3     C 6035   4.660   2.325  13.295 -0.4067  0.0613 -0.5040
  404TMC3     O 6036   4.564   2.396  13.257 -0.2896  0.2685 -0.4333
  404TMC3     H 6037   4.635   2.285  13.529  2.5204 -1.9173  1.5524
  404TMC3    H1 6038   4.673   2.115  13.141  1.7443 -0.6692  0.0572
  404TMC3    H2 6039   4.664   1.861  13.491  1.1770  0.0523  0.1539
  404TMC3    C7 6040   4.641   1.855  13.232  0.4590 -0.0290  0.0077
  404TMC3    C8 6041   4.663   2.039  13.666 -0.4335  0.3834 -0.2694
  404TMC3    O1 6042   4.655   1.752  13.300  0.5608 -0.0730 -0.0743
  404TMC3    O2 6043   0.014   1.941  13.695  0.3153 -0.1258 -0.4534
  405MPD2     C 6044   0.201   2.710  14.324 -0.5565  0.3408  0.1824
  405MPD2    C1 6045   0.219   2.793  14.212  0.0342  0.0540 -0.2547
  405MPD2    C2 6046   0.117   2.883  14.187  0.3166  0.0336  0.2634
  405MPD2    C3 6047   0.006   2.894  14.273 -0.2065  0.2294 -0.0754
  405MPD2    C4 6048   4.719   2.819  14.385 -0.1196 -0.6599  0.9758
  405MPD2    C5 6049   0.096   2.722  14.404  0.3811  0.6589 -0.3880
  405MPD2     H 6050   0.119   2.944  14.098  0.2356 -1.0304 -0.4586
  405MPD2    H1 6051   4.639   2.835  14.455  0.6216 -2.1385  2.1631
  405MPD2    H2 6052   0.270   2.629  14.344 -0.0637  0.7766  0.2287
  405MPD2    H3 6053   0.098   2.667  14.497 -1.9706  0.9453 -0.1833
  405MPD2     N 6054   4.622   2.982  14.221 -0.1339  0.0627 -0.4283
  405MPD2    H5 6055   4.634   3.027  14.131 -0.9057 -1.6068 -1.3770
  405MPD2    N1 6056   0.325   2.775  14.122 -0.1806 -0.1510 -0.0560
  405MPD2    H7 6057   0.304   2.834  14.042 -2.0493 -0.9925 -0.2063
  406TMC3    C1 6058   4.231   3.214  14.118  0.4545  0.0852  0.1095
  406TMC3    C2 6059   4.249   3.180  13.986 -0.3088 -0.3226  0.3641
  406TMC3    C3 6060   4.332   3.076  13.958 -0.1504 -0.5498 -0.0895
  406TMC3    C4 6061   4.313   3.160  14.217  0.9068  0.9481  0.3394
  406TMC3    C5 6062   4.413   3.070  14.187 -0.5416 -0.0356  0.0846
  406TMC3    C6 6063   4.420   3.032  14.053 -0.3114 -0.2139  0.5936
  406TMC3     C 6064   4.144   3.320  14.152 -0.4060 -0.8975  0.0330
  406TMC3     O 6065   4.095   3.371  14.055  0.4464 -0.2564  0.2112
  406TMC3     H 6066   4.178   3.216  13.912 -0.5849 -1.5158  0.0458
  406TMC3    H1 6067   4.293   3.187  14.320  1.3194  1.1004  0.3755
  406TMC3    H2 6068   4.473   2.942  14.026 -0.5806 -0.7214  1.7434
  406TMC3    C7 6069   4.513   3.030  14.285  0.3049 -0.8036  0.1007
  406TMC3    C8 6070   4.352   3.044  13.822  0.5727  0.6251 -0.2544
  406TMC3    O1 6071   4.489   3.036  14.402  0.4348  0.4809  0.1753
  406TMC3    O2 6072   4.252   3.024  13.752 -0.3786  0.3521  0.0278
  407MPD2     C 6073   2.287   4.427   9.835  0.5393  0.2553  0.6226
  407MPD2    C1 6074   2.357   4.521   9.758  0.2334  0.0138  0.0796
  407MPD2    C2 6075   2.443   4.618   9.813 -0.3693 -0.3304  0.6242
  407MPD2    C3 6076   2.474   4.612   9.947 -0.5417  0.7969 -0.0459
  407MPD2    C4 6077   2.399   4.530  10.026  0.0996  0.1649  0.3086
  407MPD2    C5 6078   2.305   4.442   9.975 -0.1635  0.0919  0.0611
  407MPD2     H 6079   2.489   4.696   9.754  1.2505  0.0208  2.3261
  407MPD2    H1 6080   2.414   4.527  10.134 -2.7600 -0.8210  0.6515
  407MPD2    H2 6081   2.209   4.361   9.799 -0.3933  0.8712  1.4854
  407MPD2    H3 6082   2.258   4.375  10.045 -1.0247 -0.8625 -1.4369
  407MPD2     N 6083   2.587   4.676  10.004 -0.1496  0.2835 -0.0532
  407MPD2    H5 6084   2.607   4.646  10.099  0.0645 -1.0806 -0.5269
  407MPD2    N1 6085   2.344   4.528   9.620 -0.2403 -0.0698  0.5044
  407MPD2    H7 6086   2.400   4.598   9.572 -0.0157  0.0659  0.9646
  408TMC3    C1 6087   2.297   4.441   9.406 -0.8152 -0.5836  0.1830
  408TMC3    C2 6088   2.353   4.336   9.339 -0.7390 -0.3310 -0.5798
  408TMC3    C3 6089   2.411   4.364   9.212 -0.0137  0.3223  0.9231
  408TMC3    C4 6090   2.289   4.565   9.352 -0.4388 -0.1947 -0.2474
  408TMC3    C5 6091   2.336   4.581   9.223 -0.3543  0.0429 -0.3611
  408TMC3    C6 6092   2.390   4.479   9.152 -0.3538  0.7967 -0.1905
  408TMC3     C 6093   2.281   4.424   9.546 -0.5081  0.0154  0.0831
  408TMC3     O 6094   2.241   4.315   9.588 -0.0216 -0.2838  0.4698
  408TMC3     H 6095   2.354   4.235   9.377  0.0233 -0.5745 -1.2507
  408TMC3    H1 6096   2.252   4.653   9.405  0.1150 -2.1730  3.4052
  408TMC3    H2 6097   2.412   4.503   9.049  2.6596  1.1492  0.5441
  408TMC3    C7 6098   2.345   4.713   9.154 -0.1129  0.3230 -0.3085
  408TMC3    C8 6099   2.554   4.332   9.212  0.3464 -0.0494  0.2773
  408TMC3    O1 6100   2.442   0.015   9.087  0.2179  0.5490 -0.2190
  408TMC3    O2 6101   2.588   4.250   9.291  0.0810  0.5381 -0.0402
  409MPD2     C 6102   1.960   1.205  17.344  0.7661  0.5426  0.1824
  409MPD2    C1 6103   1.984   1.278  17.459 -0.8000 -0.4752 -0.1794
  409MPD2    C2 6104   2.023   1.407  17.444  0.4461  0.3216 -0.1835
  409MPD2    C3 6105   2.047   1.467  17.317  0.9617  0.3157 -0.5492
  409MPD2    C4 6106   2.026   1.391  17.200 -0.1855 -0.2979  0.5646
  409MPD2    C5 6107   1.979   1.262  17.221  0.2956 -0.3336  0.2628
  409MPD2     H 6108   2.043   1.464  17.534 -1.5696 -0.2125  0.6135
  409MPD2    H1 6109   2.056   1.426  17.101  3.0858 -1.4878  1.1178
  409MPD2    H2 6110   1.916   1.106  17.346  2.4673 -0.2403 -0.9374
  409MPD2    H3 6111   1.956   1.215  17.127  2.2190 -1.0811  0.1643
  409MPD2     N 6112   2.090   1.594  17.298  0.7173  0.5595  0.0771
  409MPD2    H5 6113   2.074   1.631  17.204 -0.2450  1.3037  0.5318
  409MPD2    N1 6114   1.987   1.225  17.589  0.4495 -0.3005  0.2438
  409MPD2    H7 6115   2.008   1.283  17.669  0.0451 -0.7066  0.6502
  410TMC3    C1 6116   2.208   1.797  17.339 -0.8409  0.2164  0.1666
  410TMC3    C2 6117   2.319   1.858  17.400  0.4720  0.1117  0.1639
  410TMC3    C3 6118   2.368   1.964  17.343  0.0928 -0.0730  0.2099
  410TMC3    C4 6119   2.140   1.858  17.235  0.1205  0.5297 -0.0623
  410TMC3    C5 6120   2.198   1.973  17.190 -0.2324 -0.2347 -0.5631
  410TMC3    C6 6121   2.317   2.032  17.233  0.1676  0.0584  0.3020
  410TMC3     C 6122   2.155   1.670  17.392 -0.2153  0.0690  0.1445
  410TMC3     O 6123   2.188   1.647  17.511  0.5081  0.0891 -0.3194
  410TMC3     H 6124   2.377   1.818  17.482 -0.0582 -0.2253  0.3744
  410TMC3    H1 6125   2.043   1.823  17.201 -0.3547  1.2674  0.5272
  410TMC3    H2 6126   2.361   2.124  17.196 -1.4230  1.0635  0.9037
  410TMC3    C7 6127   2.163   2.001  17.050 -0.4617  0.8645  0.4557
  410TMC3    C8 6128   2.506   2.003  17.374  0.6347 -0.1923  0.1066
  410TMC3    O1 6129   2.074   1.925  17.004  0.2194  0.3061 -0.5392
  410TMC3    O2 6130   2.528   2.121  17.348  0.0269  0.0968 -0.6327
  411MPD2     C 6131   2.779   1.976  14.829  0.2703 -0.0808 -0.0145
  411MPD2    C1 6132   2.694   2.011  14.929 -0.4762  0.2391  0.7772
  411MPD2    C2 6133   2.589   1.927  14.951  0.2626 -0.6959  0.3460
  411MPD2    C3 6134   2.551   1.836  14.850 -0.4739  0.5676 -0.3153
  411MPD2    C4 6135   2.638   1.815  14.745 -0.4368  0.1131  0.2797
  411MPD2    C5 6136   2.751   1.877  14.739  0.5846 -1.1259  0.3593
  411MPD2     H 6137   2.515   1.953  15.026  0.2273  3.5011 -1.1514
  411MPD2    H1 6138   2.612   1.754  14.659  0.0471 -0.6145  0.6426
  411MPD2    H2 6139   2.869   2.035  14.814 -1.8279  3.1132 -0.0214
  411MPD2    H3 6140   2.824   1.855  14.662 -0.1522 -3.9714  0.4529
  411MPD2     N 6141   2.431   1.752  14.852 -0.3398 -0.5465 -0.0952
  411MPD2    H5 6142   2.420   1.690  14.773  0.3595 -1.9423  0.8940
  411MPD2    N1 6143   2.702   2.136  14.994  0.1609 -0.2141  0.3458
  411MPD2    H7 6144   2.753   2.211  14.948 -0.0587  0.6157  1.4343
  412TMC3    C1 6145   2.234   1.640  14.926  0.0864  0.8115 -0.3774
  412TMC3    C2 6146   2.113   1.683  14.969 -0.0691 -0.5815 -0.0522
  412TMC3    C3 6147   2.001   1.601  14.949 -0.2021 -0.2411  0.8602
  412TMC3    C4 6148   2.259   1.518  14.868  0.2800  0.1240 -0.0320
  412TMC3    C5 6149   2.155   1.430  14.861  1.2201  0.2808 -0.3789
  412TMC3    C6 6150   2.030   1.470  14.907  0.3430  0.2223  0.1046
  412TMC3     C 6151   2.337   1.746  14.954 -0.4240 -0.1064  0.1659
  412TMC3     O 6152   2.327   1.812  15.055  0.2858  0.1638  0.2031
  412TMC3     H 6153   2.112   1.789  14.993 -0.4795 -0.8069  0.9399
  412TMC3    H1 6154   2.360   1.487  14.842  0.0959 -1.5648  1.2797
  412TMC3    H2 6155   1.947   1.401  14.908  0.9776 -0.5316  1.1427
  412TMC3    C7 6156   2.144   1.342  14.744 -0.6808  0.5578  0.5966
  412TMC3    C8 6157   1.929   1.659  14.834 -0.2499  0.9656 -0.2775
  412TMC3    O1 6158   2.058   1.254  14.751  0.0617 -0.0282 -0.5481
  412TMC3    O2 6159   2.000   1.736  14.773 -0.0592  0.5223 -0.0823
  413MPD2     C 6160   4.093   0.429  15.337  0.1354 -0.0123 -0.4176
  413MPD2    C1 6161   4.007   0.353  15.264  0.9899 -0.9215  0.4299
  413MPD2    C2 6162   4.069   0.241  15.216  0.3261  0.4570 -0.2959
  413MPD2    C3 6163   4.186   0.189  15.261  0.2769 -0.2778 -0.1969
  413MPD2    C4 6164   4.252   0.260  15.357 -0.4653 -0.1051 -0.8383
  413MPD2    C5 6165   4.215   0.389  15.380 -0.5495 -0.0168 -0.4856
  413MPD2     H 6166   4.003   0.183  15.153 -0.7599  0.5848  0.7077
  413MPD2    H1 6167   4.350   0.225  15.390 -0.4595  0.2306 -0.4948
  413MPD2    H2 6168   4.060   0.529  15.364 -0.6360 -0.2410 -0.5322
  413MPD2    H3 6169   4.273   0.464  15.432 -1.2174  1.3085 -1.6416
  413MPD2     N 6170   4.230   0.060  15.207 -0.3058 -0.0508 -0.2339
  413MPD2    H5 6171   4.165   0.017  15.142 -0.1128 -1.3289  0.4348
  413MPD2    N1 6172   3.878   0.403  15.236  0.1401 -0.0852  0.4380
  413MPD2    H7 6173   3.851   0.478  15.298 -0.0378  0.4995 -0.3457
  414TMC3    C1 6174   4.338   4.590  15.166 -0.1756 -0.3809  0.4081
  414TMC3    C2 6175   4.391   4.476  15.227 -0.0545 -1.0609 -0.1757
  414TMC3    C3 6176   4.351   4.354  15.177  0.3266 -0.3686 -0.2189
  414TMC3    C4 6177   4.253   4.580  15.055 -0.0165 -0.0004 -0.1292
  414TMC3    C5 6178   4.242   4.457  14.994  0.2323  0.3856  0.5079
  414TMC3    C6 6179   4.283   4.340  15.056  0.0504  0.3399  0.4786
  414TMC3     C 6180   4.330   4.706  15.251  0.4800  0.4360 -0.0533
  414TMC3     O 6181   4.417   0.014  15.333 -0.1573 -0.1198  0.1396
  414TMC3     H 6182   4.437   4.477  15.325  0.0531  1.4549 -0.2472
  414TMC3    H1 6183   4.225   4.665  14.994 -3.3948 -0.2102  1.1343
  414TMC3    H2 6184   4.272   4.241  15.014  0.4942 -0.5387  2.3924
  414TMC3    C7 6185   4.157   4.449  14.881 -0.1912 -0.1040  0.0670
  414TMC3    C8 6186   4.429   4.235  15.220  0.2195  0.6340  0.1435
  414TMC3    O1 6187   4.068   4.531  14.884 -0.7210  0.7884  0.1222
  414TMC3    O2 6188   4.358   4.135  15.217  0.2690 -0.4247  0.2460
  415TMC3    C1 6189   4.691   2.327   9.800  0.0419 -0.1471 -0.3843
  415TMC3    C2 6190   0.037   2.400   9.700  0.3917  0.4527  0.1159
  415TMC3    C3 6191   4.690   2.459   9.595 -0.0700  0.0390  0.2100
  415TMC3    C4 6192   4.560   2.295   9.783  0.2637  0.1412 -0.5550
  415TMC3    C5 6193   4.488   2.354   9.678  0.3027 -0.0690 -0.5407
  415TMC3    C6 6194   4.554   2.435   9.585  0.7501  0.2203  0.0429
  415TMC3     C 6195   0.047   2.243   9.893  0.7779  0.3162 -0.1141
  415TMC3     O 6196   4.713   2.197   9.991 -0.8589 -0.2374  0.2317
  415TMC3     H 6197   0.141   2.423   9.718  0.5039  0.1974 -0.1936
  415TMC3    H1 6198   4.518   2.215   9.843  1.6987  0.2603  0.6198
  415TMC3    H2 6199   4.495   2.482   9.507 -1.0458 -0.4662  0.9741
  415TMC3    C7 6200   4.365   2.296   9.625 -0.9181 -0.2569  0.0187
  415TMC3    C8 6201   0.032   2.532   9.488  0.2326 -0.0523  0.5002
  415TMC3    O1 6202   4.345   2.283   9.500  0.2660  0.2383  0.4790
  415TMC3    O2 6203   4.680   2.590   9.404  0.2473 -0.3122  0.1781
  416MPD2     C 6204   2.516   1.125  11.526  0.2532 -0.2088  0.1842
  416MPD2    C1 6205   2.390   1.125  11.475  0.4627 -0.4100  0.0954
  416MPD2    C2 6206   2.344   1.012  11.405 -0.0991  0.8347  0.5334
  416MPD2    C3 6207   2.429   0.902  11.394 -0.5509 -0.2350 -0.2285
  416MPD2    C4 6208   2.564   0.906  11.444  0.0379 -0.3050 -0.0300
  416MPD2    C5 6209   2.597   1.024  11.508  0.3896 -0.1691  0.1311
  416MPD2     H 6210   2.245   1.008  11.361  0.4776  0.0559 -0.6884
  416MPD2    H1 6211   2.628   0.821  11.465 -0.2734 -0.4625  0.2891
  416MPD2    H2 6212   2.557   1.191  11.602 -0.0511  1.2363 -0.8957
  416MPD2    H3 6213   2.691   1.023  11.562  1.3864 -2.6417 -1.6655
  416MPD2     N 6214   2.389   0.779  11.344  0.5634 -0.4335 -0.3696
  416MPD2    H5 6215   2.461   0.708  11.355  0.1484 -0.8693 -0.4766
  416MPD2    N1 6216   2.292   1.216  11.522 -0.2708  0.1573  0.1213
  416MPD2    H7 6217   2.205   1.197  11.473 -0.7076 -0.1982  1.0259
  417TMC3    C1 6218   2.166   1.296  11.687  0.7817  0.0304  0.7105
  417TMC3    C2 6219   2.142   1.269  11.817  0.8945 -0.2486  0.2416
  417TMC3    C3 6220   2.013   1.259  11.844  0.3969 -0.1154 -0.1122
  417TMC3    C4 6221   2.074   1.326  11.583  0.1657  0.2200  0.2308
  417TMC3    C5 6222   1.939   1.312  11.615 -0.2832 -0.3366 -0.4844
  417TMC3    C6 6223   1.912   1.281  11.745  0.5962  0.1274  0.1602
  417TMC3     C 6224   2.298   1.279  11.645  0.2264 -0.0796  0.3337
  417TMC3     O 6225   2.381   1.307  11.729  0.0098 -0.2494  0.0623
  417TMC3     H 6226   2.225   1.242  11.881 -0.9000 -1.1300  2.1629
  417TMC3    H1 6227   2.106   1.357  11.484  1.7848 -2.3443 -0.0591
  417TMC3    H2 6228   1.809   1.255  11.767 -0.0780  3.7889  1.3437
  417TMC3    C7 6229   1.837   1.372  11.528 -0.3960  0.2659 -0.2251
  417TMC3    C8 6230   1.964   1.261  11.981 -0.0258 -0.2436  0.7751
  417TMC3    O1 6231   1.872   1.458  11.448  0.7819 -0.1437 -0.4960
  417TMC3    O2 6232   1.849   1.273  12.017 -0.7754  0.3731 -0.2002
  418TMC3    C1 6233   0.746   3.072   0.650  0.4730  0.3507  0.5725
  418TMC3    C2 6234   0.686   3.170   0.730  0.0934  0.5012  0.0510
  418TMC3    C3 6235   0.687   3.134   0.863  0.1085 -0.2146  0.5012
  418TMC3    C4 6236   0.801   2.957   0.695 -0.2456  0.8431  0.4570
  418TMC3    C5 6237   0.795   2.934   0.830  0.4448  0.0477 -0.3125
  418TMC3    C6 6238   0.745   3.024   0.919 -0.0954  0.0803  0.1947
  418TMC3     C 6239   0.731   3.084   0.507 -0.2552 -0.1339 -0.5270
  418TMC3     O 6240   0.717   3.194   0.458  0.5984  0.0813 -0.1630
  418TMC3     H 6241   0.655   3.266   0.690 -0.6343 -0.2135 -1.1172
  418TMC3    H1 6242   0.859   2.887   0.637 -1.2610  1.8786 -1.8409
  418TMC3    H2 6243   0.730   3.003   1.024 -2.4768  0.9431  0.0161
  418TMC3    C7 6244   0.808   2.790   0.871 -0.0060 -0.4679  0.6568
  418TMC3    C8 6245   0.579   3.186   0.936  0.2620 -0.5144  0.3447
  418TMC3    O1 6246   0.777   2.705   0.790  0.3025  0.9701 -0.0758
  418TMC3    O2 6247   0.601   3.220   1.050  0.5436  0.4239  0.0155
  419MPD2     C 6248   4.494   0.717  12.433  0.3752  0.2695  1.0714
  419MPD2    C1 6249   4.426   0.834  12.424  0.7160  0.5003  0.0943
  419MPD2    C2 6250   4.397   0.893  12.544 -0.2920  0.1484 -0.3940
  419MPD2    C3 6251   4.445   0.845  12.670  0.0142 -0.2156  0.2046
  419MPD2    C4 6252   4.518   0.729  12.672 -0.5571 -0.7483 -0.2696
  419MPD2    C5 6253   4.549   0.676  12.550 -0.2689 -0.0930  0.4423
  419MPD2     H 6254   4.338   0.983  12.547 -0.8753 -0.1911 -2.1356
  419MPD2    H1 6255   4.532   0.672  12.763 -0.0254 -0.6466 -0.2856
  419MPD2    H2 6256   4.524   0.654  12.350 -1.2490  1.1864 -0.2193
  419MPD2    H3 6257   4.613   0.588  12.554  1.9305  1.5197  1.3206
  419MPD2     N 6258   4.406   0.922  12.788  0.2514 -0.1585 -0.0878
  419MPD2    H5 6259   4.362   1.012  12.769  2.2925  0.9113  0.2423
  419MPD2    N1 6260   4.373   0.888  12.303  0.0403  0.2164 -0.2704
  419MPD2    H7 6261   4.313   0.969  12.306 -0.6628 -0.3023 -0.4992
  420TMC3    C1 6262   4.387   0.985  13.016 -0.4192 -0.5581  0.4116
  420TMC3    C2 6263   4.307   1.090  12.978 -0.5614  0.1757 -0.4954
  420TMC3    C3 6264   4.216   1.138  13.067 -0.0837  0.2144  0.2036
  420TMC3    C4 6265   4.389   0.944  13.146 -0.3760 -0.0089  0.4100
  420TMC3    C5 6266   4.318   1.008  13.241 -0.0944  0.4777 -0.6082
  420TMC3    C6 6267   4.213   1.097  13.201  0.1807  0.1980 -0.3675
  420TMC3     C 6268   4.457   0.909  12.915  0.2485 -0.1316 -0.3884
  420TMC3     O 6269   4.499   0.800  12.960  0.5625 -0.0284 -0.1041
  420TMC3     H 6270   4.304   1.136  12.880  0.3183  2.2106  0.4517
  420TMC3    H1 6271   4.453   0.858  13.166 -0.7774 -0.0908  1.3266
  420TMC3    H2 6272   4.144   1.120  13.281 -1.2440 -1.1500 -1.2339
  420TMC3    C7 6273   4.325   0.972  13.379 -0.1353 -0.5088  0.0492
  420TMC3    C8 6274   4.125   1.239  13.023  0.3710  0.4460  0.7303
  420TMC3    O1 6275   4.233   1.007  13.448  0.0545 -1.0504 -0.1602
  420TMC3    O2 6276   4.125   1.268  12.903  0.6153 -0.7309  0.3882
  421TMC3    C1 6277   0.589   2.819  13.497  0.8818  0.0699  0.1005
  421TMC3    C2 6278   0.612   2.921  13.587 -0.8039 -0.2134 -0.5275
  421TMC3    C3 6279   0.725   2.919  13.664 -0.3268 -0.4116 -0.8255
  421TMC3    C4 6280   0.672   2.709  13.487 -0.0759 -0.0260 -0.3018
  421TMC3    C5 6281   0.789   2.720  13.563  0.7247  0.2992  0.4218
  421TMC3    C6 6282   0.806   2.815  13.660 -0.3510  0.5001 -0.2959
  421TMC3     C 6283   0.457   2.808  13.438  0.3115  0.4228  1.0026
  421TMC3     O 6284   0.385   2.907  13.449 -0.4428  0.0822 -0.0457
  421TMC3     H 6285   0.533   2.995  13.597  0.9571  1.5505  0.2380
  421TMC3    H1 6286   0.667   2.652  13.395  0.7299  1.4969 -1.2863
  421TMC3    H2 6287   0.896   2.813  13.721  1.6475  0.6706 -3.2198
  421TMC3    C7 6288   0.902   2.634  13.538  0.0199 -0.3417  0.0603
  421TMC3    C8 6289   0.767   3.037  13.736 -0.3819  0.6605 -0.1661
  421TMC3    O1 6290   1.013   2.667  13.576 -0.6699 -0.0006  0.2638
  421TMC3    O2 6291   0.876   3.027  13.791  0.2831  0.3936  0.3500
  422TMC3    C1 6292   2.852   4.073  12.691 -0.7408  0.2872  0.1699
  422TMC3    C2 6293   2.823   4.187  12.766 -0.1407 -0.5958  0.3243
  422TMC3    C3 6294   2.706   4.190  12.838  0.6027 -0.1903  0.1505
  422TMC3    C4 6295   2.774   3.961  12.710 -0.0778 -0.2253  0.3155
  422TMC3    C5 6296   2.682   3.962  12.805  0.0455  0.5496 -0.5014
  422TMC3    C6 6297   2.633   4.074  12.862  0.1306  0.1679 -0.2729
  422TMC3     C 6298   2.969   4.090  12.600 -0.2674 -0.8001 -0.6981
  422TMC3     O 6299   3.009   4.202  12.568 -0.2361  0.1852 -0.1681
  422TMC3     H 6300   2.876   4.278  12.743 -1.1914 -0.1993 -0.5149
  422TMC3    H1 6301   2.799   3.866  12.663 -0.2103 -0.2369  0.2663
  422TMC3    H2 6302   2.567   4.067  12.947  0.5480  1.2892  0.1478
  422TMC3    C7 6303   2.605   3.837  12.817  0.3095 -0.4434  0.6159
  422TMC3    C8 6304   2.687   4.301  12.917  1.0097  1.0225 -0.0121
  422TMC3    O1 6305   2.664   3.733  12.790  0.5071 -0.1470  0.2843
  422TMC3    O2 6306   2.782   4.372  12.934 -0.4233 -0.9022 -0.2096
  423MPD2     C 6307   3.568   1.031   0.500 -0.0337 -0.0883  0.1879
  423MPD2    C1 6308   3.657   0.947   0.557  0.4671 -0.3329 -0.4509
  423MPD2    C2 6309   3.757   0.896   0.476 -0.0109  0.2000  0.0947
  423MPD2    C3 6310   3.753   0.913   0.339 -0.3401  0.0538 -0.2468
  423MPD2    C4 6311   3.660   1.003   0.285  0.0146 -0.9296  0.6889
  423MPD2    C5 6312   3.565   1.062   0.369  0.0339 -1.2219  0.4362
  423MPD2     H 6313   3.828   0.825   0.517 -0.6775 -0.6057 -0.1534
  423MPD2    H1 6314   3.667   1.038   0.183 -1.7644 -0.3409  0.7635
  423MPD2    H2 6315   3.500   1.081   0.568 -1.3355  0.6142 -1.6393
  423MPD2    H3 6316   3.490   1.127   0.325  1.1158  1.1133  2.0263
  423MPD2     N 6317   3.836   0.841   0.243 -0.4420  0.1679  0.4988
  423MPD2    H5 6318   3.818   0.859   0.145  3.6522  0.4489 -0.1690
  423MPD2    N1 6319   3.649   0.900   0.691 -0.0345  0.0024 -0.1125
  423MPD2    H7 6320   3.721   0.831   0.710 -0.1773 -0.1380 -0.0847
  424TMC3    C1 6321   3.544   0.821   0.888  0.6198  0.4245 -0.1242
  424TMC3    C2 6322   3.648   0.831   0.973 -0.4128  0.1569 -0.0652
  424TMC3    C3 6323   3.642   0.768   1.097 -0.4240 -0.6187  0.1824
  424TMC3    C4 6324   3.430   0.747   0.923  0.5008 -0.0721 -0.9405
  424TMC3    C5 6325   3.423   0.686   1.049  0.8582 -0.1808  0.4122
  424TMC3    C6 6326   3.528   0.699   1.134  0.9700  0.4641  0.4795
  424TMC3     C 6327   3.540   0.912   0.777 -0.3476  0.1598  0.0646
  424TMC3     O 6328   3.427   0.950   0.752 -0.2007  0.2730 -0.7607
  424TMC3     H 6329   3.738   0.881   0.938 -0.8637 -0.7275 -2.5243
  424TMC3    H1 6330   3.342   0.753   0.860  0.5448  0.6117 -0.9417
  424TMC3    H2 6331   3.521   0.647   1.229  1.4206 -0.1463  0.1807
  424TMC3    C7 6332   3.288   0.645   1.087  0.0248 -0.6624  0.2501
  424TMC3    C8 6333   3.763   0.765   1.185 -0.8042  0.8730 -0.1387
  424TMC3    O1 6334   3.197   0.675   1.011 -0.0731 -0.5276  0.1631
  424TMC3    O2 6335   3.838   0.860   1.168 -0.1667 -0.2171  0.5122
  425MPD2     C 6336   2.363   4.124   0.325  0.2525  0.9014  0.4038
  425MPD2    C1 6337   2.378   4.213   0.220 -0.3476  0.7989  0.5869
  425MPD2    C2 6338   2.275   4.303   0.196  0.3130 -0.4836  0.0544
  425MPD2    C3 6339   2.162   4.310   0.268  0.3139 -0.0673  0.1501
  425MPD2    C4 6340   2.140   4.212   0.363 -0.3303  0.0132  0.3003
  425MPD2    C5 6341   2.245   4.129   0.395  0.4043  0.5100 -0.9315
  425MPD2     H 6342   2.282   4.378   0.118  1.1849 -2.3723 -1.6758
  425MPD2    H1 6343   2.056   4.221   0.431 -1.8515  0.6179 -1.6576
  425MPD2    H2 6344   2.436   4.052   0.358  0.5480  1.2281  0.4618
  425MPD2    H3 6345   2.248   4.071   0.486 -0.5432 -0.1921 -1.3537
  425MPD2     N 6346   2.065   4.409   0.235  0.3407  0.5879  0.3810
  425MPD2    H5 6347   2.082   4.466   0.153 -0.0529  0.0829 -0.0448
  425MPD2    N1 6348   2.509   4.207   0.165  0.7029  0.4435 -0.4581
  425MPD2    H7 6349   2.574   4.139   0.203 -0.3492  0.4306  1.3081
  426TMC3    C1 6350   2.677   4.253   0.016  0.0513 -0.1494  0.0452
  426TMC3    C2 6351   2.709   4.291  17.575 -0.1276  0.0142 -0.5937
  426TMC3    C3 6352   2.840   4.304  17.544 -0.4412  0.5182 -0.7840
  426TMC3    C4 6353   2.767   4.244   0.117 -0.2413  0.7952  0.0048
  426TMC3    C5 6354   2.898   4.258   0.085 -0.1411  0.2736 -0.1228
  426TMC3    C6 6355   2.937   4.280  17.640  0.3573 -0.0200 -0.9467
  426TMC3     C 6356   2.542   4.278   0.056  0.3608 -0.5849  0.0875
  426TMC3     O 6357   2.469   4.348  17.679  0.4742  0.0016 -0.7847
  426TMC3     H 6358   2.636   4.307  17.496  0.0551  0.8428 -0.5915
  426TMC3    H1 6359   2.740   4.240   0.222  1.7148 -0.5358  0.4643
  426TMC3    H2 6360   3.041   4.259  17.621  0.0627 -1.3846 -1.0632
  426TMC3    C7 6361   3.008   4.246   0.183  0.1614  0.0130 -0.5774
  426TMC3    C8 6362   2.881   4.272  17.406 -0.0480 -0.0600 -0.1486
  426TMC3    O1 6363   3.122   4.225   0.146 -0.8736  0.1141 -0.1076
  426TMC3    O2 6364   2.982   4.207  17.401  0.6933 -0.0372  0.4686
  427MPD2     C 6365   1.785   1.862  15.048  0.1314  0.3221  0.6465
  427MPD2    C1 6366   1.717   1.828  15.160 -0.4094  0.1897 -0.1458
  427MPD2    C2 6367   1.583   1.821  15.163  0.0529 -0.4982  0.1554
  427MPD2    C3 6368   1.511   1.890  15.062  0.3879 -0.7278  0.3633
  427MPD2    C4 6369   1.581   1.926  14.952 -0.4887  0.1665  0.1043
  427MPD2    C5 6370   1.709   1.905  14.939 -0.5376  0.0879 -0.1023
  427MPD2     H 6371   1.528   1.800  15.254  0.3050  1.6714  0.8108
  427MPD2    H1 6372   1.530   1.974  14.869 -1.4079 -0.3002  0.3957
  427MPD2    H2 6373   1.892   1.855  15.032  0.1156 -1.6002  1.4625
  427MPD2    H3 6374   1.758   1.939  14.849  0.2252 -1.1188 -0.1348
  427MPD2     N 6375   1.372   1.915  15.070  0.3889 -0.2435 -0.6373
  427MPD2    H5 6376   1.331   1.936  14.980  0.3124  3.3137  0.1975
  427MPD2    N1 6377   1.780   1.799  15.284 -0.2395 -0.3321 -0.3922
  427MPD2    H7 6378   1.714   1.756  15.348  0.5479 -0.4907  0.2940
  428TMC3    C1 6379   1.954   1.791  15.444  0.2110  0.4961 -0.4450
  428TMC3    C2 6380   1.899   1.679  15.508 -0.3332  0.4951 -0.3995
  428TMC3    C3 6381   1.946   1.646  15.630 -0.7366  0.0620 -0.1217
  428TMC3    C4 6382   2.060   1.860  15.499 -0.5057  0.2862  0.2199
  428TMC3    C5 6383   2.088   1.829  15.630  0.1620  0.2539  0.3683
  428TMC3    C6 6384   2.037   1.725  15.701  0.2922  0.2461  0.0323
  428TMC3     C 6385   1.906   1.834  15.310  0.0733  0.1423  0.0802
  428TMC3     O 6386   1.985   1.904  15.250 -0.2460  0.6140 -0.2663
  428TMC3     H 6387   1.826   1.613  15.461 -0.4314  1.6150 -1.8299
  428TMC3    H1 6388   2.111   1.941  15.448  0.8472  0.4156  1.7503
  428TMC3    H2 6389   2.071   1.689  15.798  0.9357  0.1174 -0.2461
  428TMC3    C7 6390   2.176   1.917  15.704  0.1684  0.1971 -0.3997
  428TMC3    C8 6391   1.905   1.525  15.697  0.1088 -0.3482  0.1604
  428TMC3    O1 6392   2.149   1.909  15.822 -0.0913 -0.1597 -0.1365
  428TMC3    O2 6393   1.981   1.487  15.787 -0.0980  0.0840  0.3127
  429MPD2     C 6394   2.361   2.384  17.667  0.1941 -0.3240 -0.1514
  429MPD2    C1 6395   2.493   2.366   0.019  0.1478 -0.4478 -0.9216
  429MPD2    C2 6396   2.567   2.480   0.043  0.4103  0.1465 -0.4810
  429MPD2    C3 6397   2.512   2.608   0.014  0.6712  0.8972 -0.4770
  429MPD2    C4 6398   2.385   2.620  17.646 -0.2056  0.1087 -0.0103
  429MPD2    C5 6399   2.303   2.506  17.637 -0.2470  0.2936  0.5601
  429MPD2     H 6400   2.671   2.480   0.071  0.3921  2.3138 -0.4339
  429MPD2    H1 6401   2.330   2.709  17.618 -1.8643 -0.4982  1.2754
  429MPD2    H2 6402   2.298   2.297  17.650  1.9916 -2.0415  1.9039
  429MPD2    H3 6403   2.201   2.511  17.602  0.9000 -0.2106 -2.8651
  429MPD2     N 6404   2.607   2.713   0.006  0.4176  0.3769 -0.2130
  429MPD2    H5 6405   2.700   2.679   0.027 -0.1078 -2.1316 -1.8757
  429MPD2    N1 6406   2.555   2.243   0.043  0.6348 -0.5019  0.5311
  429MPD2    H7 6407   2.655   2.253   0.056  0.2827  1.6977  1.5911
  430TMC3    C1 6408   2.696   2.886  17.564  0.8320  0.6055 -0.0580
  430TMC3    C2 6409   2.667   2.992  17.485  0.1157 -0.1889  0.4052
  430TMC3    C3 6410   2.754   3.013  17.374  0.3311  0.1072 -0.3509
  430TMC3    C4 6411   2.797   2.798  17.535 -0.1059  0.2528 -0.2160
  430TMC3    C5 6412   2.870   2.805  17.412 -0.0220  0.2119 -0.7018
  430TMC3    C6 6413   2.853   2.919  17.339  0.2208 -0.1974  0.4290
  430TMC3     C 6414   2.578   2.842  17.645 -0.5074  1.0103  0.6769
  430TMC3     O 6415   2.477   2.906  17.632  0.3510  0.1285 -0.0684
  430TMC3     H 6416   2.581   3.052  17.508  0.7991  0.2648  1.7825
  430TMC3    H1 6417   2.819   2.712  17.597 -0.1014  0.7216  0.4386
  430TMC3    H2 6418   2.908   2.927  17.246 -0.5703 -1.7318 -0.1799
  430TMC3    C7 6419   2.920   2.688  17.348  0.5307 -0.4703  0.3215
  430TMC3    C8 6420   2.681   3.037  17.255  0.1631 -0.3915  0.0507
  430TMC3    O1 6421   2.852   2.592  17.379  0.4230  0.2264  0.5069
  430TMC3    O2 6422   2.706   2.968  17.158  0.0857 -0.0848  0.2026
  431MPD2     C 6423   3.985   1.492  12.419 -0.3311 -0.4484 -0.1723
  431MPD2    C1 6424   4.063   1.519  12.303 -0.9985  1.3615 -0.1150
  431MPD2    C2 6425   4.090   1.418  12.212  0.1618 -0.0706  0.5928
  431MPD2    C3 6426   4.021   1.297  12.233 -0.1927  0.0363  0.8206
  431MPD2    C4 6427   3.931   1.278  12.335 -0.0249 -0.1623 -0.5540
  431MPD2    C5 6428   3.899   1.382  12.420  0.0959  0.6019 -0.5680
  431MPD2     H 6429   4.182   1.422  12.154 -1.4080 -3.0629 -2.1372
  431MPD2    H1 6430   3.872   1.187  12.342 -0.8498  0.3572 -0.8239
  431MPD2    H2 6431   3.966   1.571  12.490  0.9439  0.8218 -1.2328
  431MPD2    H3 6432   3.831   1.368  12.503 -1.7393  0.9768 -2.0206
  431MPD2     N 6433   4.044   1.183  12.155 -0.0893 -0.2691  0.4445
  431MPD2    H5 6434   3.987   1.104  12.183  0.8202 -0.8504  0.6527
  431MPD2    N1 6435   4.141   1.633  12.313 -0.1541  0.6412  0.2825
  431MPD2    H7 6436   4.122   1.694  12.391 -0.5310  1.1843 -0.2360
  432TMC3    C1 6437   4.135   1.031  12.000  0.4019 -0.0454 -0.1430
  432TMC3    C2 6438   4.182   1.020  11.871 -0.0037 -0.4605 -0.6286
  432TMC3    C3 6439   4.303   0.959  11.853 -0.1423  0.2430  0.5367
  432TMC3    C4 6440   4.196   0.964  12.101  0.6340 -0.1918 -0.5243
  432TMC3    C5 6441   4.322   0.908  12.078  0.7356 -0.0092 -0.1153
  432TMC3    C6 6442   4.373   0.898  11.952 -0.4814  0.3079 -0.4851
  432TMC3     C 6443   4.120   1.172  12.040  0.6275  0.4319  0.1372
  432TMC3     O 6444   4.185   1.251  11.978  0.1506 -0.0210 -0.5252
  432TMC3     H 6445   4.135   1.064  11.783 -1.7163  1.9201  1.4648
  432TMC3    H1 6446   4.156   0.971  12.202  0.3599  3.5288 -0.8809
  432TMC3    H2 6447   4.461   0.838  11.935 -1.3160 -1.3278  0.9514
  432TMC3    C7 6448   4.397   0.833  12.174 -0.4324 -0.2458  0.7652
  432TMC3    C8 6449   4.380   1.004  11.730  0.7681  0.6735 -0.5506
  432TMC3    O1 6450   4.468   0.739  12.137  0.2741 -0.0977 -0.4238
  432TMC3    O2 6451   4.318   1.025  11.628  0.0161  0.6909 -0.0328
  433MPD2     C 6452   2.840   0.276  10.898 -0.2151  0.4668  0.0211
  433MPD2    C1 6453   2.827   0.147  10.937  0.0682  0.4701 -0.8143
  433MPD2    C2 6454   2.825   0.119  11.066 -0.4460  0.3345 -0.1110
  433MPD2    C3 6455   2.864   0.213  11.165  0.9931 -0.1474 -0.2970
  433MPD2    C4 6456   2.879   0.337  11.127  0.2362 -0.1880 -0.3513
  433MPD2    C5 6457   2.866   0.373  10.993 -0.4045  0.1426  0.1241
  433MPD2     H 6458   2.815   0.016  11.099  0.6695  0.4543  0.5933
  433MPD2    H1 6459   2.896   0.415  11.200  1.5955  0.1127 -0.9822
  433MPD2    H2 6460   2.819   0.311  10.798 -2.6987  1.7416  0.9886
  433MPD2    H3 6461   2.892   0.467  10.946  2.5397 -1.6028 -1.7723
  433MPD2     N 6462   2.894   0.165  11.293  0.8001 -0.8007 -0.2144
  433MPD2    H5 6463   2.904   0.065  11.298  1.9676 -0.6875 -0.3364
  433MPD2    N1 6464   2.812   0.035  10.855  0.2274 -0.0812  0.2792
  433MPD2    H7 6465   2.791   4.667  10.901  1.7718 -0.3192  0.5553
  434TMC3    C1 6466   2.785   4.621  10.670 -0.8822 -0.7080  0.4760
  434TMC3    C2 6467   2.844   4.521  10.751  0.1620 -0.0358 -0.0729
  434TMC3    C3 6468   2.896   4.414  10.685 -0.2844  0.7009 -0.0897
  434TMC3    C4 6469   2.774   4.614  10.537 -0.2867  0.3394 -0.3836
  434TMC3    C5 6470   2.823   4.504  10.474 -0.8029 -0.4910 -0.0337
  434TMC3    C6 6471   2.894   4.409  10.542  0.2000 -0.7091  0.5164
  434TMC3     C 6472   2.793   0.040  10.721  0.2408  0.1660  0.3863
  434TMC3     O 6473   2.754   0.138  10.648 -0.6925  0.1306  0.2831
  434TMC3     H 6474   2.868   4.528  10.856  1.9702  0.2409 -0.5069
  434TMC3    H1 6475   2.711   4.677  10.476 -0.5663  1.6651  1.2855
  434TMC3    H2 6476   2.921   4.314  10.498  0.8345 -0.4417  0.3302
  434TMC3    C7 6477   2.773   4.475  10.336 -0.1203  0.6594  0.4197
  434TMC3    C8 6478   2.986   4.329  10.763  0.0318  0.5462  0.7932
  434TMC3    O1 6479   2.697   4.555  10.283  0.3991  0.1880  0.6525
  434TMC3    O2 6480   2.980   4.328  10.887 -0.6566 -0.0780  0.9068
  435MPD2     C 6481   4.060   0.864  15.488  0.0618 -0.1095  0.2695
  435MPD2    C1 6482   4.053   0.829  15.623 -0.2923 -0.3458 -0.3495
  435MPD2    C2 6483   4.149   0.752  15.672 -0.4651  0.4108  0.0307
  435MPD2    C3 6484   4.258   0.713  15.597 -0.2274  0.2531  0.5264
  435MPD2    C4 6485   4.268   0.749  15.462 -0.5285 -0.1429 -0.9670
  435MPD2    C5 6486   4.172   0.827  15.407 -0.5796  0.0058  0.1629
  435MPD2     H 6487   4.140   0.720  15.775 -1.1501  1.9705  0.4549
  435MPD2    H1 6488   4.359   0.717  15.411 -1.4107 -1.2924 -1.8174
  435MPD2    H2 6489   3.990   0.931  15.439  1.7998  1.3447 -0.2476
  435MPD2    H3 6490   4.183   0.858  15.304 -1.7331  0.7005  0.2504
  435MPD2     N 6491   4.346   0.624  15.666  0.3068 -0.3102  0.3845
  435MPD2    H5 6492   4.320   0.603  15.761  1.4761 -1.3572  0.4845
  435MPD2    N1 6493   3.944   0.860  15.707  0.9820  0.0747 -0.2776
  435MPD2    H7 6494   3.948   0.832  15.804  0.0650  0.8075 -0.0290
  436TMC3    C1 6495   3.696   1.060  15.987  0.3412 -0.2938 -0.0547
  436TMC3    C2 6496   3.757   1.050  15.865  0.7772 -0.3203  0.5276
  436TMC3    C3 6497   3.758   0.933  15.798  0.0634 -0.9476  0.1447
  436TMC3    C4 6498   3.644   0.946  16.045  0.1887  0.1623 -0.5835
  436TMC3    C5 6499   3.651   0.826  15.973 -0.3811 -0.4786 -0.4670
  436TMC3    C6 6500   3.705   0.819  15.843 -0.5460 -0.1090  0.0448
  436TMC3     C 6501   3.774   1.145  16.077 -0.0410 -0.4470  0.4258
  436TMC3     O 6502   3.891   1.171  16.047 -0.0347 -0.8876 -0.3454
  436TMC3     H 6503   3.815   1.131  15.823  0.6136 -0.1785  0.5788
  436TMC3    H1 6504   3.591   0.948  16.140 -1.2324 -0.6952 -1.3682
  436TMC3    H2 6505   3.725   0.730  15.785  1.1412 -0.4364  1.1144
  436TMC3    C7 6506   3.603   0.701  16.032  0.7658 -0.7525 -0.4049
  436TMC3    C8 6507   3.837   0.935  15.680 -0.6335  0.5498  0.0902
  436TMC3    O1 6508   3.598   0.609  15.952 -0.2662 -0.3138 -0.5595
  436TMC3    O2 6509   3.797   1.000  15.582  0.2520 -0.2723  0.2590
  437TMC3    C1 6510   3.508   2.614  12.496  0.2739  0.1370  0.3162
  437TMC3    C2 6511   3.441   2.732  12.512 -1.0656  0.2446  0.0721
  437TMC3    C3 6512   3.485   2.852  12.462 -0.0623  0.3246  0.7330
  437TMC3    C4 6513   3.622   2.612  12.419 -0.2168  0.0006  0.2161
  437TMC3    C5 6514   3.658   2.727  12.347  0.5842  0.2720 -0.5765
  437TMC3    C6 6515   3.594   2.846  12.376  0.5874 -0.3158  0.3148
  437TMC3     C 6516   3.440   2.496  12.524 -0.2866 -0.6081 -0.1936
  437TMC3     O 6517   3.318   2.503  12.536 -0.2597  0.5852 -0.3926
  437TMC3     H 6518   3.362   2.725  12.585 -0.6615  1.7154  0.6316
  437TMC3    H1 6519   3.664   2.514  12.399 -2.2250 -0.6737 -0.7529
  437TMC3    H2 6520   3.634   2.937  12.334 -0.1748 -0.2095 -0.1823
  437TMC3    C7 6521   3.788   2.744  12.295  0.6859  0.2269  0.2613
  437TMC3    C8 6522   3.467   2.972  12.542  0.6118 -0.4843 -0.0065
  437TMC3    O1 6523   3.793   2.836  12.216  0.6051  0.2627  0.1029
  437TMC3    O2 6524   3.474   3.082  12.494 -0.4888 -0.1192 -0.4098
  438MPD2     C 6525   0.250   3.388  17.202  0.2908  0.3094  0.7696
  438MPD2    C1 6526   0.369   3.329  17.212 -0.0689  0.2465  0.5866
  438MPD2    C2 6527   0.394   3.265  17.330  0.1311 -0.5929  0.7397
  438MPD2    C3 6528   0.307   3.260  17.439  0.3218 -0.8647 -0.2655
  438MPD2    C4 6529   0.207   3.351  17.437  0.4640 -0.6489  0.0357
  438MPD2    C5 6530   0.168   3.401  17.314 -0.8663 -0.3773  0.4360
  438MPD2     H 6531   0.492   3.219  17.341  1.3574  1.7859  0.0403
  438MPD2    H1 6532   0.132   3.365  17.514 -0.2519 -0.1230 -0.7558
  438MPD2    H2 6533   0.212   3.428  17.109  3.4646  0.7634 -0.3346
  438MPD2    H3 6534   0.071   3.450  17.313 -0.7979 -0.2172  1.9256
  438MPD2     N 6535   0.333   3.183  17.552 -0.0875  0.0184  0.3614
  438MPD2    H5 6536   0.284   3.208  17.637  0.3382  0.9548  0.3317
  438MPD2    N1 6537   0.469   3.325  17.112 -0.3376  0.3704 -0.3788
  438MPD2    H7 6538   0.560   3.302  17.149  0.1907  0.4072 -1.6483
  439TMC3    C1 6539   0.557   3.340  16.893 -0.3862 -0.1930  0.5538
  439TMC3    C2 6540   0.543   3.277  16.768  0.3293  0.2566 -0.5675
  439TMC3    C3 6541   0.657   3.255  16.695  0.1045 -0.4274 -0.5635
  439TMC3    C4 6542   0.676   3.380  16.937  0.0066  0.0802  0.6715
  439TMC3    C5 6543   0.788   3.359  16.853 -0.4997 -0.4084  0.0941
  439TMC3    C6 6544   0.779   3.300  16.732  0.1405 -0.3370  0.6516
  439TMC3     C 6545   0.444   3.342  16.980 -0.0279 -0.2846 -0.0139
  439TMC3     O 6546   0.332   3.337  16.926  0.0359  0.1291 -0.0238
  439TMC3     H 6547   0.450   3.241  16.726 -0.2955 -1.2123  2.0754
  439TMC3    H1 6548   0.694   3.449  17.019  1.6990  1.7027 -1.0729
  439TMC3    H2 6549   0.867   3.288  16.670  2.0882  1.7058  2.9897
  439TMC3    C7 6550   0.917   3.343  16.920  0.1633  0.1804 -0.5271
  439TMC3    C8 6551   0.656   3.136  16.618 -0.4381  0.0602 -0.1840
  439TMC3    O1 6552   0.927   3.386  17.035  0.3114  0.1796  0.3194
  439TMC3    O2 6553   0.765   3.081  16.634  0.0797 -0.0327 -0.1857
  440MPD2     C 6554   4.131   3.793  14.830 -1.9936 -0.2736  0.2344
  440MPD2    C1 6555   4.134   3.852  14.957 -0.2167  0.3141 -0.7045
  440MPD2    C2 6556   4.199   3.792  15.061 -0.1596  0.3841  0.0451
  440MPD2    C3 6557   4.265   3.673  15.041 -0.1233 -0.2050 -0.0490
  440MPD2    C4 6558   4.270   3.620  14.912  0.5789  0.3935 -0.5745
  440MPD2    C5 6559   4.196   3.673  14.810  0.5745 -0.2139  0.3940
  440MPD2     H 6560   4.202   3.843  15.156  0.3838  0.7140 -0.1519
  440MPD2    H1 6561   4.334   3.534  14.892 -0.9377 -1.0132  0.6665
  440MPD2    H2 6562   4.100   3.847  14.742  1.5267  0.6992 -0.4194
  440MPD2    H3 6563   4.203   3.632  14.710  2.8960 -0.1353  0.5066
  440MPD2     N 6564   4.345   3.617  15.149  0.2938  0.2007  0.2857
  440MPD2    H5 6565   4.345   3.679  15.229 -1.3177  0.8513 -0.2265
  440MPD2    N1 6566   4.064   3.971  14.988  0.4123 -0.3935 -0.0085
  440MPD2    H7 6567   4.066   3.992  15.088 -2.2212  0.5960 -0.1466
  441TMC3    C1 6568   4.497   3.476  15.259 -0.1530  0.1957 -0.0586
  441TMC3    C2 6569   4.571   3.585  15.299  0.6490 -0.2625  0.0788
  441TMC3    C3 6570   4.628   3.584  15.420 -0.6259  0.0851  0.3368
  441TMC3    C4 6571   4.468   3.377  15.347 -0.0140 -0.1221 -1.2158
  441TMC3    C5 6572   4.527   3.381  15.475  0.3788 -0.1472 -0.6105
  441TMC3    C6 6573   4.615   3.486  15.512 -0.2454 -0.4204 -0.1607
  441TMC3     C 6574   4.411   3.495  15.145  0.2438 -0.6021 -0.2141
  441TMC3     O 6575   4.425   3.408  15.058  0.0136  0.3908  0.5064
  441TMC3     H 6576   4.591   3.658  15.221 -0.0433 -2.4332 -2.1218
  441TMC3    H1 6577   4.410   3.293  15.309  0.0919 -0.3425 -0.8915
  441TMC3    H2 6578   4.661   3.496  15.610  2.6109 -2.6769 -1.2702
  441TMC3    C7 6579   4.486   3.293  15.585  0.7176  0.1750  0.1214
  441TMC3    C8 6580   4.683   3.708  15.476 -0.2315  0.0234 -0.8471
  441TMC3    O1 6581   4.538   3.317  15.692  0.1504 -0.2268 -0.5831
  441TMC3    O2 6582   0.050   3.702  15.561  0.5283  0.3597 -0.1129
  442MPD2     C 6583   2.287   4.627  16.219 -0.4734 -0.5624  0.0159
  442MPD2    C1 6584   2.176   4.572  16.285 -0.6792 -0.2220 -0.0905
  442MPD2    C2 6585   2.181   4.440  16.325  0.2184 -0.3032  0.2898
  442MPD2    C3 6586   2.296   4.370  16.313 -0.5474 -0.6079  0.6524
  442MPD2    C4 6587   2.405   4.425  16.248  0.5593 -0.7896 -0.2491
  442MPD2    C5 6588   2.400   4.556  16.200  0.1329  0.7691 -0.3358
  442MPD2     H 6589   2.097   4.396  16.377  0.0348  0.6398  0.7851
  442MPD2    H1 6590   2.499   4.374  16.233  2.0905  1.7486  0.6575
  442MPD2    H2 6591   2.282   0.004  16.174  2.0533  0.1539  1.3400
  442MPD2    H3 6592   2.477   4.607  16.143 -0.1131  1.0618 -0.4097
  442MPD2     N 6593   2.313   4.235  16.364  0.2900  0.0428 -0.3822
  442MPD2    H5 6594   2.409   4.201  16.357 -0.3386 -2.0915  1.0728
  442MPD2    N1 6595   2.053   4.638  16.294 -0.0690  0.9693  0.1015
  442MPD2    H7 6596   1.974   4.592  16.339  1.2200 -0.8323  0.5300
  443TMC3    C1 6597   1.897   0.099  16.280 -0.0704  0.2410  0.1539
  443TMC3    C2 6598   1.827   0.170  16.189 -0.1274  0.6724 -0.3073
  443TMC3    C3 6599   1.696   0.208  16.223 -0.2904 -0.4453  0.1875
  443TMC3    C4 6600   1.850   0.092  16.411 -0.1834 -0.4977  0.3957
  443TMC3    C5 6601   1.731   0.154  16.443  0.5172  0.1751  0.3494
  443TMC3    C6 6602   1.648   0.202  16.348 -0.0271 -0.2886  0.3104
  443TMC3     C 6603   2.026   0.045  16.240  1.4587 -0.3741 -0.3818
  443TMC3     O 6604   2.091   0.119  16.163  0.3209  0.1902  0.0064
  443TMC3     H 6605   1.866   0.216  16.099 -0.8970  1.5538 -0.1881
  443TMC3    H1 6606   1.905   0.048  16.493 -0.7758 -0.8357  0.6097
  443TMC3    H2 6607   1.548   0.241  16.363 -0.5792 -1.8840  0.8313
  443TMC3    C7 6608   1.692   0.153  16.580 -0.3112  0.4642 -0.0154
  443TMC3    C8 6609   1.621   0.289  16.123 -0.7538 -0.2895 -0.2828
  443TMC3    O1 6610   1.756   0.081  16.652 -0.3301  0.1597  0.1103
  443TMC3    O2 6611   1.577   0.391  16.165  0.0064  0.5834  0.1659
  444MPD2     C 6612   2.637   3.815  16.996  0.4746 -0.6055  0.3477
  444MPD2    C1 6613   2.531   3.737  16.954 -0.3414  0.6251  0.3999
  444MPD2    C2 6614   2.558   3.599  16.952  0.7842 -0.0266  0.1542
  444MPD2    C3 6615   2.675   3.546  17.002  0.6185 -0.4078 -0.1973
  444MPD2    C4 6616   2.762   3.626  17.062  0.4419 -0.0312  0.2744
  444MPD2    C5 6617   2.741   3.760  17.067  0.0445  0.2542 -0.0174
  444MPD2     H 6618   2.490   3.537  16.895  2.0870 -1.5418  0.2294
  444MPD2    H1 6619   2.849   3.596  17.119  0.5737 -2.6645 -1.3120
  444MPD2    H2 6620   2.622   3.923  16.991 -0.2351 -0.6931  0.6154
  444MPD2    H3 6621   2.809   3.828  17.117  0.4481  1.4273 -2.1636
  444MPD2     N 6622   2.693   3.403  16.985  0.4135 -0.2315  0.4525
  444MPD2    H5 6623   2.618   3.364  16.930 -0.5871  0.2729  1.4650
  444MPD2    N1 6624   2.406   3.786  16.917  0.3726 -0.2788  0.4406
  444MPD2    H7 6625   2.334   3.717  16.897 -0.3538  0.7320 -0.3770
  445TMC3    C1 6626   2.830   3.211  16.931 -0.5137  0.0156 -0.3165
  445TMC3    C2 6627   2.735   3.154  16.845 -0.2826  0.0706 -0.1571
  445TMC3    C3 6628   2.761   3.038  16.778  0.5153 -0.1490 -0.1203
  445TMC3    C4 6629   2.959   3.167  16.917 -0.0179 -0.3140  0.0362
  445TMC3    C5 6630   2.990   3.058  16.844 -0.5817  0.0467 -0.1239
  445TMC3    C6 6631   2.891   2.989  16.773  0.9221  0.4293 -0.7938
  445TMC3     C 6632   2.816   3.338  17.004  0.3113  0.3218 -0.5787
  445TMC3     O 6633   2.916   3.395  17.037 -0.0091  0.2754  0.2722
  445TMC3     H 6634   2.632   3.185  16.860 -0.3944 -1.3438  1.8926
  445TMC3    H1 6635   3.028   3.201  16.994 -0.5570 -1.3674  0.9921
  445TMC3    H2 6636   2.906   2.899  16.714 -0.2490 -0.4854  0.3018
  445TMC3    C7 6637   3.124   3.003  16.854  0.4313 -0.1698  0.2534
  445TMC3    C8 6638   2.686   2.999  16.661  0.3852 -0.0510 -0.2068
  445TMC3    O1 6639   3.200   3.063  16.926  0.4366 -0.3124 -0.3105
  445TMC3    O2 6640   2.711   2.887  16.620  0.0203 -0.1620  0.1326
  446MPD2     C 6641   2.587   4.320  11.390  0.2403  0.4565 -0.5064
  446MPD2    C1 6642   2.610   4.261  11.269 -0.3464 -0.3433  0.2951
  446MPD2    C2 6643   2.717   4.301  11.191  0.1319 -0.3529  0.3012
  446MPD2    C3 6644   2.808   4.393  11.239  1.2719  0.0142  0.3403
  446MPD2    C4 6645   2.794   4.439  11.365  0.0069 -1.2278  0.1769
  446MPD2    C5 6646   2.684   4.396  11.439 -0.0869  0.2811  0.1067
  446MPD2     H 6647   2.750   4.248  11.103 -1.4594  0.3593 -0.7181
  446MPD2    H1 6648   2.862   4.511  11.408  0.7392 -1.1407 -1.1419
  446MPD2    H2 6649   2.503   4.302  11.455  1.0675 -1.0645  0.1577
  446MPD2    H3 6650   2.677   4.432  11.541 -1.0902  1.2932 -0.3101
  446MPD2     N 6651   2.925   4.413  11.167  0.2156  0.2820  0.2164
  446MPD2    H5 6652   2.945   4.353  11.088 -2.4562 -1.0307  0.5272
  446MPD2    N1 6653   2.524   4.160  11.220 -0.6769 -0.5961  0.3616
  446MPD2    H7 6654   2.535   4.147  11.120 -1.0072  1.1099  0.1081
  447TMC3    C1 6655   3.141   4.498  11.129  0.1517  0.5354  0.0815
  447TMC3    C2 6656   3.165   4.589  11.035  0.0006 -0.8614 -0.5942
  447TMC3    C3 6657   3.265   4.570  10.947 -0.5722  0.3465  0.0313
  447TMC3    C4 6658   3.213   4.383  11.144 -0.4132  0.0252 -0.1934
  447TMC3    C5 6659   3.320   4.361  11.063  0.2842 -0.0736 -0.5749
  447TMC3    C6 6660   3.342   4.454  10.962 -0.5848 -0.1331  0.4297
  447TMC3     C 6661   3.014   4.518  11.191  0.7752  0.1624  0.5694
  447TMC3     O 6662   2.979   4.630  11.220 -0.2437  0.3320 -0.0321
  447TMC3     H 6663   3.101   4.676  11.026 -0.1173 -0.9270 -0.3849
  447TMC3    H1 6664   3.183   4.307  11.214 -0.0700  0.9997  1.0126
  447TMC3    H2 6665   3.412   4.427  10.885 -0.8083 -0.8419  0.4714
  447TMC3    C7 6666   3.418   4.251  11.084 -0.6839 -0.0282 -0.3598
  447TMC3    C8 6667   3.251   4.629  10.814  0.4051 -0.1011 -0.3068
  447TMC3    O1 6668   3.506   4.245  10.999 -0.3309 -0.2591  0.2650
  447TMC3    O2 6669   3.188   0.013  10.810  0.0817 -0.9056 -0.1986
  448TMC3    C1 6670   0.430   0.188  16.580 -0.3449 -0.1268  0.1359
  448TMC3    C2 6671   0.384   0.064  16.544 -0.2363 -0.5114  0.4787
  448TMC3    C3 6672   0.423   4.678  16.626 -0.3642  0.5626 -0.0886
  448TMC3    C4 6673   0.520   0.216  16.686 -1.3840 -0.0544  0.0657
  448TMC3    C5 6674   0.556   0.106  16.760 -0.5479  0.9994 -0.4948
  448TMC3    C6 6675   0.505   4.700  16.735 -0.1499  0.0037 -0.3531
  448TMC3     C 6676   0.386   0.298  16.492 -1.0759 -0.1272 -0.0200
  448TMC3     O 6677   0.352   0.290  16.374  0.0430  0.0741  0.3916
  448TMC3     H 6678   0.310   0.056  16.465  1.2715 -1.3776 -0.8505
  448TMC3    H1 6679   0.556   0.315  16.713 -1.0891  0.1613 -1.1474
  448TMC3    H2 6680   0.557   4.619  16.786 -2.6136 -0.6419  1.1606
  448TMC3    C7 6681   0.623   0.135  16.880 -0.3364 -0.1019  0.5624
  448TMC3    C8 6682   0.398   4.548  16.579  0.4541 -0.3216  0.2359
  448TMC3    O1 6683   0.708   0.222  16.891 -0.5203 -0.5575  0.1668
  448TMC3    O2 6684   0.416   4.457  16.660 -0.3172  0.5115 -0.1879
  449MPD2     C 6685   2.582   3.526  13.854  0.3930 -0.3673  0.3344
  449MPD2    C1 6686   2.576   3.385  13.863  0.4903 -0.0426  1.1478
  449MPD2    C2 6687   2.615   3.327  13.982 -0.0426  0.5151 -0.3678
  449MPD2    C3 6688   2.663   3.398  14.087  0.0703  0.5693  0.8446
  449MPD2    C4 6689   2.658   3.540  14.086  0.4396  0.5313  0.0383
  449MPD2    C5 6690   2.619   3.594  13.964 -1.0931  0.0540  0.5203
  449MPD2     H 6691   2.615   3.219  13.981  0.1503  0.5194 -0.7895
  449MPD2    H1 6692   2.703   3.603  14.162  2.4148  2.8811 -3.0936
  449MPD2    H2 6693   2.565   3.583  13.763  2.8885  1.5828  1.1051
  449MPD2    H3 6694   2.653   3.694  13.938 -0.7579 -0.0242  0.6546
  449MPD2     N 6695   2.718   3.328  14.189 -0.4185  0.0286  0.0607
  449MPD2    H5 6696   2.711   3.227  14.179 -0.1181  0.2681 -2.5267
  449MPD2    N1 6697   2.548   3.297  13.758  0.1287  0.2463  0.1940
  449MPD2    H7 6698   2.570   3.201  13.786 -1.6882 -0.5141 -0.9908
  450TMC3    C1 6699   2.495   3.188  13.563 -0.0916  0.7807 -0.2516
  450TMC3    C2 6700   2.569   3.190  13.451 -0.1839  0.0121  0.0997
  450TMC3    C3 6701   2.647   3.081  13.421  0.4260  0.4663 -0.3643
  450TMC3    C4 6702   2.491   3.078  13.640 -0.2270  0.0916 -0.6813
  450TMC3    C5 6703   2.583   2.982  13.625 -0.1767  0.0649  0.9432
  450TMC3    C6 6704   2.657   2.978  13.508 -0.0900 -1.2006 -0.0468
  450TMC3     C 6705   2.498   3.319  13.635  0.0775  0.1021 -0.0273
  450TMC3     O 6706   2.439   3.419  13.591  0.2821  0.3915  0.5336
  450TMC3     H 6707   2.573   3.281  13.392 -0.5535 -0.9686 -1.4300
  450TMC3    H1 6708   2.429   3.088  13.728  1.0690  1.2624  0.0970
  450TMC3    H2 6709   2.738   2.907  13.494  0.1487 -0.6812 -1.3005
  450TMC3    C7 6710   2.665   2.961  13.744  0.1036 -1.0754  0.3979
  450TMC3    C8 6711   2.689   3.066  13.284  0.1646 -0.5112 -0.7841
  450TMC3    O1 6712   2.638   3.035  13.838 -0.0545 -0.7237 -0.1178
  450TMC3    O2 6713   2.615   3.118  13.203  0.4261 -0.1932  0.7317
  451MPD2     C 6714   3.710   2.643   1.869 -1.3068 -0.6416  0.0403
  451MPD2    C1 6715   3.686   2.676   1.733 -0.7770  0.2444 -0.5431
  451MPD2    C2 6716   3.687   2.582   1.637 -0.1921 -0.5698 -0.0774
  451MPD2    C3 6717   3.691   2.448   1.672  0.1174  0.2378 -0.0335
  451MPD2    C4 6718   3.714   2.415   1.804 -0.5077 -0.3601 -0.7789
  451MPD2    C5 6719   3.717   2.511   1.902  0.5311  0.4974  0.4084
  451MPD2     H 6720   3.658   2.609   1.536 -0.5932  0.5196  0.3325
  451MPD2    H1 6721   3.717   2.315   1.845  5.4325  0.3155  0.3866
  451MPD2    H2 6722   3.685   2.714   1.947  1.0278  0.4506 -0.2203
  451MPD2    H3 6723   3.724   2.482   2.007 -1.3927  0.4200  0.5086
  451MPD2     N 6724   3.676   2.340   1.584  0.1221 -0.1055 -0.4967
  451MPD2    H5 6725   3.689   2.251   1.631  2.5990 -0.0149 -0.9912
  451MPD2    N1 6726   3.665   2.812   1.705 -0.0884 -0.5288 -0.2595
  451MPD2    H7 6727   3.656   2.875   1.783 -0.9855 -0.5696 -0.3334
  452TMC3    C1 6728   3.625   2.226   1.387 -0.3887  0.1232 -0.9906
  452TMC3    C2 6729   3.631   2.107   1.455 -0.5725 -0.0873 -0.1962
  452TMC3    C3 6730   3.594   1.992   1.394  1.1100 -0.0123 -0.3030
  452TMC3    C4 6731   3.565   2.231   1.268 -0.1422  0.4004 -0.5144
  452TMC3    C5 6732   3.529   2.114   1.202  0.2741 -0.3953  0.0356
  452TMC3    C6 6733   3.533   1.991   1.267 -0.3005  0.0518  0.5025
  452TMC3     C 6734   3.653   2.355   1.449  0.3709 -0.1642  0.1591
  452TMC3     O 6735   3.626   2.453   1.387 -0.1073  0.3070 -0.6992
  452TMC3     H 6736   3.690   2.093   1.544  1.1670  0.3652 -1.2649
  452TMC3    H1 6737   3.560   2.320   1.206  0.2967 -0.0369 -1.1711
  452TMC3    H2 6738   3.500   1.898   1.222 -2.8041  0.3021  1.8217
  452TMC3    C7 6739   3.508   2.128   1.061 -0.5916 -0.0767  0.3516
  452TMC3    C8 6740   3.594   1.872   1.474 -0.2781  0.5324  0.9011
  452TMC3    O1 6741   3.519   2.240   1.008 -0.2165  0.0440 -0.2239
  452TMC3    O2 6742   3.645   1.883   1.582 -0.0926  0.1346 -0.3027
  453TMC3    C1 6743   0.507   3.172  12.064 -0.2337  0.4594 -1.0015
  453TMC3    C2 6744   0.453   3.044  12.040 -0.0766  0.0778  0.0442
  453TMC3    C3 6745   0.372   3.041  11.934  1.0339  0.0365  0.2071
  453TMC3    C4 6746   0.488   3.279  11.976 -0.1903  0.2704  0.1587
  453TMC3    C5 6747   0.429   3.259  11.851 -0.6314  0.3837  1.0379
  453TMC3    C6 6748   0.356   3.147  11.845 -0.8601 -0.1329 -0.3374
  453TMC3     C 6749   0.628   3.184  12.149  0.5863 -0.1838 -0.0383
  453TMC3     O 6750   0.656   3.292  12.194 -0.1094  0.1340  0.3381
  453TMC3     H 6751   0.490   2.963  12.102  2.3575 -0.6119 -2.3235
  453TMC3    H1 6752   0.529   3.378  11.991  1.9458 -0.2142 -2.4656
  453TMC3    H2 6753   0.294   3.133  11.757 -1.0049  0.0290 -0.2626
  453TMC3    C7 6754   0.421   3.369  11.756  0.6630 -0.1475  0.5520
  453TMC3    C8 6755   0.268   2.937  11.932 -0.4356  0.1035  0.4093
  453TMC3    O1 6756   0.463   3.480  11.785 -0.0553  0.4666 -0.8168
  453TMC3    O2 6757   0.151   2.977  11.913  0.3343  0.2327 -0.5733
  454MPD2     C 6758   3.491   3.336  16.772  0.1638 -0.4483  0.6974
  454MPD2    C1 6759   3.450   3.458  16.717  0.0246  0.1663 -0.4375
  454MPD2    C2 6760   3.388   3.551  16.805 -0.1023 -0.1753 -0.2016
  454MPD2    C3 6761   3.377   3.523  16.937 -0.2519  0.7961  0.3873
  454MPD2    C4 6762   3.430   3.419  16.992 -0.0740  0.5380 -0.1744
  454MPD2    C5 6763   3.482   3.321  16.907 -0.3635  0.3337 -0.3723
  454MPD2     H 6764   3.357   3.646  16.762 -0.7554 -0.5526 -0.5581
  454MPD2    H1 6765   3.423   3.399  17.098 -0.3847  0.8751 -0.1350
  454MPD2    H2 6766   3.534   3.253  16.717 -0.8866 -1.5015  1.4878
  454MPD2    H3 6767   3.529   3.237  16.958 -0.0060 -0.0848 -1.4011
  454MPD2     N 6768   3.316   3.613  17.024 -0.3016 -0.2346 -0.3883
  454MPD2    H5 6769   3.345   3.600  17.120  1.0463 -0.3774 -0.8031
  454MPD2    N1 6770   3.443   3.476  16.582  0.6941 -0.1529 -0.4885
  454MPD2    H7 6771   3.411   3.566  16.547 -1.2456 -1.1994 -1.3931
  455TMC3    C1 6772   3.151   3.738  16.879 -0.1498 -0.3637 -0.0195
  455TMC3    C2 6773   3.091   3.859  16.855  0.1077  0.0343  0.6260
  455TMC3    C3 6774   2.965   3.857  16.801  0.3727  0.7542 -0.7507
  455TMC3    C4 6775   3.096   3.616  16.835 -0.0204  0.1512  0.2854
  455TMC3    C5 6776   2.978   3.619  16.764  0.3636 -0.4969  0.1606
  455TMC3    C6 6777   2.910   3.745  16.751 -0.0468 -0.0115  0.4705
  455TMC3     C 6778   3.250   3.730  16.997  0.2975  0.4699 -1.0105
  455TMC3     O 6779   3.264   3.832  17.063  0.1808 -0.0011 -0.0969
  455TMC3     H 6780   3.140   3.948  16.894 -1.4465  0.3930  1.7717
  455TMC3    H1 6781   3.139   3.525  16.875  2.0912  1.2373  0.4695
  455TMC3    H2 6782   2.810   3.750  16.709  0.3214 -1.7053 -0.6136
  455TMC3    C7 6783   2.954   3.502  16.679  0.3691 -0.0627 -0.1776
  455TMC3    C8 6784   2.891   3.979  16.817  0.0407 -0.2649 -1.0925
  455TMC3    O1 6785   2.846   3.499  16.618 -0.3594 -0.7205 -0.2092
  455TMC3    O2 6786   2.787   3.997  16.756  0.0041  0.0707  0.1911
  456MPD2     C 6787   0.810   3.246  16.219  0.3783  0.3452  0.6659
  456MPD2    C1 6788   0.873   3.312  16.315 -0.0611  0.1288 -0.1024
  456MPD2    C2 6789   0.807   3.399  16.399 -0.2682 -0.1400 -0.0804
  456MPD2    C3 6790   0.669   3.421  16.370  0.2140  0.4466  0.0425
  456MPD2    C4 6791   0.602   3.357  16.272 -0.2464  0.1106 -0.3620
  456MPD2    C5 6792   0.679   3.271  16.193 -0.2091  0.5466  0.0168
  456MPD2     H 6793   0.851   3.447  16.485 -2.0882  3.8027 -1.3213
  456MPD2    H1 6794   0.499   3.376  16.240  0.0144 -0.0409 -1.3124
  456MPD2    H2 6795   0.871   3.182  16.157 -1.1286  0.3213 -0.7837
  456MPD2    H3 6796   0.627   3.230  16.107 -0.6372  0.7155  0.1926
  456MPD2     N 6797   0.610   3.529  16.440  0.5266 -0.8411  1.0336
  456MPD2    H5 6798   0.678   3.575  16.500 -1.3265  2.8236  0.2824
  456MPD2    N1 6799   1.010   3.283  16.336 -0.4659 -0.2116  0.0022
  456MPD2    H7 6800   1.067   3.237  16.265  1.4260  1.4758  0.4339
  457TMC3    C1 6801   0.474   3.696  16.517 -0.3029  0.1125  0.6232
  457TMC3    C2 6802   0.394   3.801  16.475  0.0329  0.0714  0.4662
  457TMC3    C3 6803   0.392   3.905  16.561  0.1777  0.6638 -0.1498
  457TMC3    C4 6804   0.544   3.687  16.635  0.1729  0.1663  0.0644
  457TMC3    C5 6805   0.540   3.801  16.714  0.0369 -0.6106 -0.5087
  457TMC3    C6 6806   0.465   3.908  16.672 -0.3085  0.7272 -0.3560
  457TMC3     C 6807   0.485   3.581  16.424  0.1953  0.9538 -0.0420
  457TMC3     O 6808   0.397   3.560  16.342  0.5577 -0.7361 -0.1339
  457TMC3     H 6809   0.331   3.781  16.389 -0.8191  1.0635  0.8496
  457TMC3    H1 6810   0.589   3.592  16.663 -0.4124  0.0107  0.4610
  457TMC3    H2 6811   0.460   3.993  16.739 -0.5285 -0.2480  0.8649
  457TMC3    C7 6812   0.611   3.793  16.840  0.8760  0.0363 -0.1608
  457TMC3    C8 6813   0.330   4.032  16.522 -0.0651 -0.0523 -0.1465
  457TMC3    O1 6814   0.649   3.684  16.871  0.1619  0.6593 -0.7125
  457TMC3    O2 6815   0.290   4.097  16.620 -0.4541 -0.7132 -0.1611
  458MPD2     C 6816   4.285   2.665  12.240  0.5878  0.5307  1.1904
  458MPD2    C1 6817   4.239   2.586  12.342 -0.1340 -0.1680 -0.1569
  458MPD2    C2 6818   4.106   2.584  12.372  0.2361  0.3056 -0.1307
  458MPD2    C3 6819   4.020   2.667  12.304  0.0507 -0.5613 -0.5656
  458MPD2    C4 6820   4.067   2.754  12.207  0.2589  1.1077  0.1885
  458MPD2    C5 6821   4.202   2.758  12.180  0.4019  0.6865  0.7016
  458MPD2     H 6822   4.077   2.534  12.463  0.6925  1.6469  0.7445
  458MPD2    H1 6823   4.014   2.822  12.141  0.4813  0.3385 -0.7847
  458MPD2    H2 6824   4.387   2.665  12.205  0.4054  2.6085  0.6114
  458MPD2    H3 6825   4.227   2.806  12.086 -1.3224  1.3316  0.5557
  458MPD2     N 6826   3.881   2.662  12.336  0.3731  0.1894 -0.3739
  458MPD2    H5 6827   3.857   2.595  12.408 -0.9159 -1.4990 -2.3659
  458MPD2    N1 6828   4.341   2.527  12.416  0.5859  0.3008 -0.4023
  458MPD2    H7 6829   4.436   2.562  12.406 -0.2708  2.6170 -0.5711
  459TMC3    C1 6830   4.417   2.390  12.593 -0.2317  0.6954 -0.0194
  459TMC3    C2 6831   4.536   2.348  12.532 -0.3745  0.0606  0.1939
  459TMC3    C3 6832   4.612   2.260  12.601  0.6915  0.2602  0.2202
  459TMC3    C4 6833   4.389   2.358  12.719 -0.5664  0.3482 -0.0986
  459TMC3    C5 6834   4.479   2.283  12.790 -0.1848 -0.5998 -0.1785
  459TMC3    C6 6835   4.587   2.228  12.729  0.3141 -0.5628 -0.5779
  459TMC3     C 6836   4.308   2.424  12.504  0.4040  0.5360 -0.3471
  459TMC3     O 6837   4.204   2.362  12.527 -0.1220  0.3771 -0.7215
  459TMC3     H 6838   4.555   2.380  12.430 -1.7360  0.0186 -0.0711
  459TMC3    H1 6839   4.293   2.386  12.760 -0.2114  1.4591 -0.0325
  459TMC3    H2 6840   4.658   2.174  12.791  0.5506  1.1246  0.6513
  459TMC3    C7 6841   4.437   2.223  12.921  0.7215  0.3277  0.1723
  459TMC3    C8 6842   0.008   2.193  12.539 -0.4159  0.6308 -0.2710
  459TMC3    O1 6843   4.492   2.125  12.967 -0.8522 -0.0475 -0.3524
  459TMC3    O2 6844   0.081   2.253  12.458  0.6761 -0.2098 -0.1516
  460MPD2     C 6845   3.372   4.477  10.494 -0.1492 -0.3164 -0.9800
  460MPD2    C1 6846   3.285   4.551  10.576 -0.6196  0.0763 -0.1296
  460MPD2    C2 6847   3.202   4.650  10.520 -0.3153 -0.3213 -0.6491
  460MPD2    C3 6848   3.194   4.664  10.382  0.2023  0.8696 -0.3911
  460MPD2    C4 6849   3.273   4.585  10.307  0.3426 -0.2481  0.6319
  460MPD2    C5 6850   3.357   4.489  10.359 -0.5653  0.0131 -0.1924
  460MPD2     H 6851   3.145   4.718  10.582 -2.7239 -3.5877  0.7189
  460MPD2    H1 6852   3.283   4.601  10.200 -2.1663 -0.6728  0.3421
  460MPD2    H2 6853   3.463   4.434  10.535  0.2299 -0.2050 -1.6986
  460MPD2    H3 6854   3.426   4.452  10.284 -0.5587  1.0137 -0.6807
  460MPD2     N 6855   3.109   0.038  10.324  0.2462  0.5773  0.0033
  460MPD2    H5 6856   3.058   0.105  10.379 -1.4209 -1.6629  1.1672
  460MPD2    N1 6857   3.312   4.555  10.713  0.7283 -0.6532  0.1165
  460MPD2    H7 6858   3.374   4.481  10.743  3.0159  1.0115 -0.5185
  461TMC3    C1 6859   2.948   0.107  10.165 -0.4530 -0.3484 -0.0269
  461TMC3    C2 6860   2.842   0.043  10.111  0.1673  0.3852 -0.2627
  461TMC3    C3 6861   2.748   0.123  10.044  0.3155  0.2102 -0.3560
  461TMC3    C4 6862   2.971   0.240  10.160 -0.0494 -0.1021 -0.6790
  461TMC3    C5 6863   2.871   0.314  10.095 -0.1342  0.4905 -0.3379
  461TMC3    C6 6864   2.757   0.256  10.040 -0.1233 -0.0779 -0.7573
  461TMC3     C 6865   3.060   0.021  10.194 -0.4435 -0.3236  0.0761
  461TMC3     O 6866   3.067   4.642  10.124 -0.7215 -0.2586  0.2555
  461TMC3     H 6867   2.850   4.658  10.087  2.1905  0.5168 -0.1232
  461TMC3    H1 6868   3.068   0.280  10.188  0.3104 -1.1220 -0.4834
  461TMC3    H2 6869   2.680   0.321   9.999  0.1925 -0.1537 -1.4692
  461TMC3    C7 6870   2.898   0.452  10.052 -0.0030 -0.3152 -0.3537
  461TMC3    C8 6871   2.649   0.065   9.951  0.0981 -0.2996 -0.0246
  461TMC3    O1 6872   2.820   0.494   9.964 -0.2718 -0.5708  0.2339
  461TMC3    O2 6873   2.649   0.117   9.843 -0.1407  0.6585  0.1417
  462TMC3    C1 6874   2.720   0.903   0.120  0.4004 -0.0145  0.5340
  462TMC3    C2 6875   2.776   0.809   0.037  0.3675 -0.7830  0.6523
  462TMC3    C3 6876   2.854   0.715   0.099 -0.0928  0.4000  0.5898
  462TMC3    C4 6877   2.743   0.911   0.255 -0.0211 -0.0924  0.6827
  462TMC3    C5 6878   2.796   0.799   0.313 -0.8552 -0.7232 -0.7215
  462TMC3    C6 6879   2.871   0.713   0.235  0.3587  0.4650 -0.7410
  462TMC3     C 6880   2.640   1.011   0.072  0.2637 -0.3501  0.2795
  462TMC3     O 6881   2.602   1.089   0.160  0.0672  0.2205  0.4012
  462TMC3     H 6882   2.777   0.808  17.613 -0.5592  0.0046  0.6315
  462TMC3    H1 6883   2.707   0.986   0.324  1.4584  2.3362 -1.1687
  462TMC3    H2 6884   2.915   0.620   0.270  2.3687  1.2743 -1.1255
  462TMC3    C7 6885   2.758   0.774   0.446 -0.5032  0.0546  0.0489
  462TMC3    C8 6886   2.939   0.628   0.022  0.3757  1.1628  0.0446
  462TMC3    O1 6887   2.656   0.830   0.485 -0.1874  0.2195  0.2122
  462TMC3    O2 6888   2.987   0.532   0.081  0.5568  0.0731 -0.2732
  463MPD2     C 6889   3.271   0.315   2.611  0.3936  0.4975  0.4782
  463MPD2    C1 6890   3.194   0.318   2.494 -0.0352 -0.3019  1.9378
  463MPD2    C2 6891   3.240   0.389   2.387 -0.3990 -0.8829 -0.1039
  463MPD2    C3 6892   3.365   0.439   2.379  0.2208 -1.1493  0.7075
  463MPD2    C4 6893   3.446   0.432   2.494 -0.0276  0.1102  0.3865
  463MPD2    C5 6894   3.394   0.376   2.606  0.7151  0.0108 -0.6571
  463MPD2     H 6895   3.159   0.416   2.320  0.5133 -0.1230 -0.8972
  463MPD2    H1 6896   3.546   0.472   2.504  0.9854 -1.1965 -4.3918
  463MPD2    H2 6897   3.245   0.265   2.704 -0.8950 -0.2406 -0.2888
  463MPD2    H3 6898   3.456   0.373   2.695 -0.0329  1.3839 -0.1009
  463MPD2     N 6899   3.413   0.507   2.265  0.4752  0.2390 -1.0999
  463MPD2    H5 6900   3.509   0.541   2.271  1.3793 -2.3211 -0.9905
  463MPD2    N1 6901   3.058   0.274   2.491  0.6370  0.6232  0.3811
  463MPD2    H7 6902   3.008   0.301   2.407  1.4206 -0.0850 -0.3115
  464TMC3    C1 6903   2.864   0.174   2.537 -0.3524  0.0382 -0.1304
  464TMC3    C2 6904   2.843   0.201   2.400 -0.4530  0.4845  0.7911
  464TMC3    C3 6905   2.781   0.098   2.322 -0.2895  0.1258 -1.0704
  464TMC3    C4 6906   2.802   0.069   2.599  0.3757 -0.1603 -0.0180
  464TMC3    C5 6907   2.728   4.708   2.522 -0.4795 -0.0302  0.0758
  464TMC3    C6 6908   2.720   4.712   2.381 -0.1214 -0.1968  0.6512
  464TMC3     C 6909   2.982   0.231   2.597  0.0824  0.4975 -0.4981
  464TMC3     O 6910   3.020   0.202   2.708 -0.0684  0.3814 -0.2581
  464TMC3     H 6911   2.886   0.287   2.348 -1.4415  0.4758 -0.0441
  464TMC3    H1 6912   2.808   0.054   2.706  1.9174  2.0646  0.2176
  464TMC3    H2 6913   2.686   4.637   2.311 -1.7627 -0.7172  1.9993
  464TMC3    C7 6914   2.670   4.594   2.583  0.0059 -0.1019 -0.8567
  464TMC3    C8 6915   2.787   0.119   2.185  0.4509 -0.8011  0.1939
  464TMC3    O1 6916   2.686   4.577   2.704 -0.4622 -0.3426 -0.1558
  464TMC3    O2 6917   2.884   0.182   2.143  0.5400  0.6031  0.0506
  465MPD2     C 6918   0.393   3.701  17.239 -0.1864 -0.2022  0.1679
  465MPD2    C1 6919   0.259   3.724  17.281 -0.0123 -0.7669  0.3384
  465MPD2    C2 6920   0.157   3.737  17.188 -0.4597 -0.1267 -0.9043
  465MPD2    C3 6921   0.188   3.730  17.052  0.2316  0.2473  0.3502
  465MPD2    C4 6922   0.320   3.703  17.012  0.4783  0.6630  0.7492
  465MPD2    C5 6923   0.420   3.689  17.104  0.8773 -0.6669 -0.8845
  465MPD2     H 6924   0.056   3.759  17.222 -0.8564 -2.9735 -0.2313
  465MPD2    H1 6925   0.344   3.692  16.906  1.6968 -0.2460  1.1227
  465MPD2    H2 6926   0.471   3.674  17.310  1.8511 -0.2851 -2.1026
  465MPD2    H3 6927   0.522   3.681  17.068  1.1316  1.1901 -0.5638
  465MPD2     N 6928   0.080   3.739  16.968 -0.5364  0.2970 -0.6448
  465MPD2    H5 6929   4.710   3.736  17.015 -0.4813 -2.0201 -0.6787
  465MPD2    N1 6930   0.214   3.737  17.413 -0.5371  0.2149  0.0551
  465MPD2    H7 6931   0.113   3.743  17.422 -0.0090  0.2546  5.8909
  466TMC3    C1 6932   4.443   3.766  16.783 -0.4258  0.5011 -0.7518
  466TMC3    C2 6933   4.443   3.899  16.729 -0.2858 -0.1309 -0.0782
  466TMC3    C3 6934   4.561   3.942  16.677  0.4988 -0.9170  0.8503
  466TMC3    C4 6935   4.561   3.714  16.818  0.4872  0.0561 -0.4322
  466TMC3    C5 6936   4.680   3.772  16.770 -0.0325  0.4972  0.3486
  466TMC3    C6 6937   4.675   3.878  16.691  0.4367 -0.3729  0.5574
  466TMC3     C 6938   4.325   3.739  16.859  0.7097 -0.2938 -0.2312
  466TMC3     O 6939   4.256   3.830  16.900  0.1498  0.0231 -1.3528
  466TMC3     H 6940   4.350   3.946  16.701 -1.3386 -1.0717  1.8671
  466TMC3    H1 6941   4.569   3.630  16.887  1.4161 -0.9975 -1.8143
  466TMC3    H2 6942   0.040   3.934  16.655 -0.1907  0.5670  0.5276
  466TMC3    C7 6943   0.089   3.763  16.832  0.0688 -0.7255 -0.2332
  466TMC3    C8 6944   4.565   4.073  16.615 -0.3732 -0.2635  0.0066
  466TMC3    O1 6945   0.183   3.810  16.775 -0.4882 -0.4344  0.2908
  466TMC3    O2 6946   4.673   4.107  16.568 -0.4409 -0.3405 -0.3088
  467TMC3    C1 6947   1.490   1.928  13.801 -0.4463 -0.2521  0.2581
  467TMC3    C2 6948   1.424   1.860  13.706 -0.5020  0.8397  0.4222
  467TMC3    C3 6949   1.293   1.836  13.731 -0.4254 -0.0958 -0.3675
  467TMC3    C4 6950   1.429   1.976  13.910  0.1344  0.1900 -0.4859
  467TMC3    C5 6951   1.294   1.948  13.932  0.4685 -0.6450 -0.0794
  467TMC3    C6 6952   1.221   1.880  13.841 -0.0985  0.6717  1.0114
  467TMC3     C 6953   1.637   1.949  13.796 -0.1423 -0.3153  0.0314
  467TMC3     O 6954   1.673   2.055  13.844  0.5051 -0.1991 -0.2268
  467TMC3     H 6955   1.473   1.821  13.617 -1.5571  1.8072 -0.5743
  467TMC3    H1 6956   1.485   2.025  13.989 -1.2230  3.1364 -1.3596
  467TMC3    H2 6957   1.113   1.883  13.848 -0.1112 -0.9929  1.6325
  467TMC3    C7 6958   1.249   1.965  14.065  0.3881  0.5330 -0.5193
  467TMC3    C8 6959   1.219   1.851  13.608 -0.1615 -0.0575 -0.5005
  467TMC3    O1 6960   1.336   2.004  14.143  0.2520 -0.3522 -0.2334
  467TMC3    O2 6961   1.169   1.962  13.600 -0.3702 -0.4110 -0.0652
  468MPD2     C 6962   0.350   4.526  10.051  0.3052  0.4921  0.3858
  468MPD2    C1 6963   0.417   4.502  10.171 -0.3461  1.1235  0.0849
  468MPD2    C2 6964   0.421   4.371  10.222 -0.1043  0.4137 -0.1571
  468MPD2    C3 6965   0.331   4.278  10.174  0.4851  0.1730  0.2758
  468MPD2    C4 6966   0.246   4.320  10.079  0.3086 -0.2693 -0.6676
  468MPD2    C5 6967   0.263   4.431  10.010 -0.4334 -0.1130  0.4054
  468MPD2     H 6968   0.494   4.349  10.299 -1.1620 -1.1321  0.3963
  468MPD2    H1 6969   0.183   4.242  10.037  0.0056 -0.0244 -0.6604
  468MPD2    H2 6970   0.337   4.624  10.008  1.5428 -0.3036 -1.7651
  468MPD2    H3 6971   0.190   4.435   9.930  1.1536  3.3157 -0.8550
  468MPD2     N 6972   0.328   4.140  10.224 -0.5053  0.5897 -0.4076
  468MPD2    H5 6973   0.267   4.073  10.178  1.0836 -0.7257 -0.5800
  468MPD2    N1 6974   0.481   4.607  10.242 -0.1041 -0.5467 -0.3530
  468MPD2    H7 6975   0.528   4.581  10.328 -2.5410 -0.2528  1.0694
  469TMC3    C1 6976   0.548   0.112  10.305  0.1669  0.1601  0.7698
  469TMC3    C2 6977   0.658   0.065  10.372  0.0862  0.5706 -0.3625
  469TMC3    C3 6978   0.692   0.137  10.482 -0.5953 -0.1027 -0.5933
  469TMC3    C4 6979   0.472   0.219  10.354 -0.6906 -0.0049  0.3566
  469TMC3    C5 6980   0.525   0.294  10.457  0.2830 -0.0935 -0.2055
  469TMC3    C6 6981   0.631   0.253  10.528 -1.1338  0.1011  0.6571
  469TMC3     C 6982   0.460   0.022  10.230  0.0084  0.1587 -0.0364
  469TMC3     O 6983   0.362   0.070  10.170  0.2252  0.3602 -0.5533
  469TMC3     H 6984   0.705   4.696  10.336 -0.4841 -0.2740  0.9848
  469TMC3    H1 6985   0.379   0.258  10.314 -0.7316 -0.0774  0.3811
  469TMC3    H2 6986   0.665   0.315  10.611 -0.4182 -0.3024  0.6688
  469TMC3    C7 6987   0.433   0.396  10.508  0.3122  0.5059 -0.1013
  469TMC3    C8 6988   0.813   0.094  10.551  0.0870 -0.1712  0.5439
  469TMC3    O1 6989   0.394   0.488  10.434  0.0708 -0.2614  0.1136
  469TMC3    O2 6990   0.891   0.012  10.500  0.2490 -0.0849 -0.0409
  470TMC3    C1 6991   3.140   1.462   1.642  0.3033 -0.1450  0.0043
  470TMC3    C2 6992   3.113   1.593   1.600  0.6669 -0.0204 -0.0762
  470TMC3    C3 6993   3.181   1.696   1.661 -0.2285 -0.4364  0.3630
  470TMC3    C4 6994   3.200   1.442   1.760  0.7123  0.2545  0.3175
  470TMC3    C5 6995   3.242   1.541   1.832  0.2312  0.3912 -0.2415
  470TMC3    C6 6996   3.242   1.674   1.783 -0.1236 -0.1387  0.1777
  470TMC3     C 6997   3.069   1.351   1.583  0.1986  0.2521  0.1719
  470TMC3     O 6998   3.069   1.251   1.654  0.1639 -0.2129 -0.1106
  470TMC3     H 6999   3.060   1.622   1.510 -0.2188 -2.0659 -0.2147
  470TMC3    H1 7000   3.215   1.339   1.792 -0.7629  0.1000  0.5033
  470TMC3    H2 7001   3.267   1.748   1.858  0.0227  0.8383 -0.8497
  470TMC3    C7 7002   3.308   1.524   1.960 -0.3677 -0.5474 -0.3198
  470TMC3    C8 7003   3.159   1.829   1.612  0.4016  0.1558 -0.0508
  470TMC3    O1 7004   3.394   1.606   1.996 -0.3310 -0.5300  0.6694
  470TMC3    O2 7005   3.087   1.844   1.512 -0.4834  0.0089 -0.0205
  471MPD2     C 7006   2.313   3.216  16.958  0.0988 -0.2831  0.4025
  471MPD2    C1 7007   2.379   3.099  16.957 -0.1006  0.4801 -0.0817
  471MPD2    C2 7008   2.466   3.070  17.065 -0.7955 -0.2098  0.2313
  471MPD2    C3 7009   2.491   3.160  17.168 -0.1533  0.3100  0.1557
  471MPD2    C4 7010   2.415   3.278  17.167 -0.3848 -0.5902  0.2641
  471MPD2    C5 7011   2.326   3.304  17.065  0.4810  0.5172  0.1206
  471MPD2     H 7012   2.516   2.974  17.058 -1.8889 -0.9626  2.6766
  471MPD2    H1 7013   2.420   3.356  17.242 -1.4262 -0.3353  0.0774
  471MPD2    H2 7014   2.241   3.243  16.881  1.2048 -2.4911 -1.3935
  471MPD2    H3 7015   2.268   3.396  17.062 -0.7068 -0.3290 -3.2035
  471MPD2     N 7016   2.586   3.132  17.269  0.5229 -0.1558  0.4642
  471MPD2    H5 7017   2.594   3.197  17.347  1.2816  0.3145 -0.0069
  471MPD2    N1 7018   2.368   3.000  16.858 -0.4355 -0.5434 -0.7409
  471MPD2    H7 7019   2.411   2.908  16.866 -2.0001 -1.1317  0.9817
  472TMC3    C1 7020   2.268   2.889  16.670  0.5857  0.5784  0.1758
  472TMC3    C2 7021   2.172   2.889  16.572  0.4952  0.0086  0.6711
  472TMC3    C3 7022   2.151   2.771  16.507 -0.5498 -0.1652 -0.3092
  472TMC3    C4 7023   2.332   2.773  16.716  0.5137  0.6405 -0.1519
  472TMC3    C5 7024   2.312   2.666  16.639 -0.6724 -0.3325  0.3672
  472TMC3    C6 7025   2.225   2.659  16.538  0.2695  0.4704  0.5874
  472TMC3     C 7026   2.279   3.011  16.744  0.7277  0.1241 -0.3544
  472TMC3     O 7027   2.203   3.103  16.714  0.2374 -0.3171 -0.1971
  472TMC3     H 7028   2.105   2.973  16.558 -0.2864 -0.4541  1.5830
  472TMC3    H1 7029   2.407   2.757  16.793  0.2509  4.1679  0.8355
  472TMC3    H2 7030   2.217   2.575  16.470  1.2727  0.7880  0.0764
  472TMC3    C7 7031   2.348   2.538  16.699 -0.4105  0.7019 -0.4638
  472TMC3    C8 7032   2.055   2.753  16.397  0.0567 -0.4850  0.1375
  472TMC3    O1 7033   2.381   2.545  16.823 -0.8287  0.2855  0.0225
  472TMC3    O2 7034   2.054   2.836  16.305 -0.2883 -0.6217 -0.1667
  473MPD2     C 7035   2.730   4.342  14.101 -0.5718 -0.4222  1.0364
  473MPD2    C1 7036   2.817   4.440  14.058 -0.4149  0.6032 -0.0277
  473MPD2    C2 7037   2.871   4.532  14.146 -0.9262 -0.0748 -0.4282
  473MPD2    C3 7038   2.851   4.511  14.284 -0.0480  1.2917 -0.2821
  473MPD2    C4 7039   2.772   4.404  14.334 -0.0541 -0.1920 -0.0786
  473MPD2    C5 7040   2.715   4.324  14.240  0.7392 -0.0933 -0.5050
  473MPD2     H 7041   2.942   4.603  14.106 -2.7299  2.1257  0.2086
  473MPD2    H1 7042   2.751   4.402  14.440 -1.5077  0.0911 -0.3513
  473MPD2    H2 7043   2.684   4.270  14.035 -0.1801  2.1073 -1.9602
  473MPD2    H3 7044   2.650   4.243  14.270 -0.3075  1.8795  2.5530
  473MPD2     N 7045   2.902   4.601  14.376  0.1359  0.6672 -0.2881
  473MPD2    H5 7046   2.864   4.589  14.470  1.3772 -2.1007 -0.1480
  473MPD2    N1 7047   2.841   4.462  13.926  0.5019  0.3169  0.3857
  473MPD2    H7 7048   2.900   4.542  13.906  1.1763 -1.0857 -3.1782
  474TMC3    C1 7049   2.979   0.083  14.460  0.1519 -0.6340  0.4887
  474TMC3    C2 7050   2.860   0.143  14.477  0.7048 -0.0262 -0.2505
  474TMC3    C3 7051   2.844   0.278  14.518  0.6212  0.1549 -0.5394
  474TMC3    C4 7052   3.088   0.151  14.509  0.7672  0.3919 -0.1426
  474TMC3    C5 7053   3.068   0.275  14.564  0.0655  0.2340  0.6669
  474TMC3    C6 7054   2.957   0.344  14.550  0.2786  0.1015 -0.0090
  474TMC3     C 7055   2.986   4.701  14.358 -0.0455 -0.0254  1.0358
  474TMC3     O 7056   3.066   4.715  14.267  0.2341 -0.0045 -0.9460
  474TMC3     H 7057   2.777   0.087  14.436  2.3587  0.5024 -4.3819
  474TMC3    H1 7058   3.187   0.112  14.489  1.3481  2.2241 -0.8515
  474TMC3    H2 7059   2.965   0.452  14.557 -0.7110  0.2311 -0.8502
  474TMC3    C7 7060   3.182   0.352  14.605 -0.6115 -0.1185  0.1412
  474TMC3    C8 7061   2.749   0.349  14.442  0.0167 -0.5133 -0.6882
  474TMC3    O1 7062   3.291   0.321  14.559 -0.8063  0.1488  0.4947
  474TMC3    O2 7063   2.687   0.291  14.356 -0.2375  0.0246 -0.3730
  475MPD2     C 7064   1.391   2.311   9.867  0.1558  0.1575 -0.1076
  475MPD2    C1 7065   1.423   2.414   9.952  0.1311  0.2379  0.8673
  475MPD2    C2 7066   1.408   2.398  10.088 -0.1224 -0.0043 -0.4639
  475MPD2    C3 7067   1.357   2.281  10.139  0.0102  0.7520  0.1934
  475MPD2    C4 7068   1.324   2.180  10.056  0.0496  0.3813  0.5426
  475MPD2    C5 7069   1.347   2.196   9.918  0.4565  0.1181  0.6428
  475MPD2     H 7070   1.443   2.477  10.152 -0.8854 -0.9237  1.0824
  475MPD2    H1 7071   1.296   2.079  10.084  1.2895 -0.3062 -0.6942
  475MPD2    H2 7072   1.391   2.328   9.760  0.2442  3.7600  0.4744
  475MPD2    H3 7073   1.334   2.117   9.845 -1.7489 -0.6450  1.8495
  475MPD2     N 7074   1.325   2.279  10.274  0.9184  0.4067  0.6895
  475MPD2    H5 7075   1.309   2.370  10.317  0.9682 -0.1688  1.9377
  475MPD2    N1 7076   1.484   2.526   9.897 -0.4024  0.0383 -0.3843
  475MPD2    H7 7077   1.496   2.512   9.797 -0.4477 -0.1683 -0.3615
  476TMC3    C1 7078   1.634   2.700   9.860 -0.4277 -0.1181 -0.4504
  476TMC3    C2 7079   1.613   2.703   9.733 -0.3902 -0.3558 -0.3468
  476TMC3    C3 7080   1.694   2.785   9.663 -0.9619 -0.3226  0.0735
  476TMC3    C4 7081   1.739   2.764   9.916  0.7798  1.2352 -0.3181
  476TMC3    C5 7082   1.838   2.820   9.841 -0.1238  0.1102 -1.1813
  476TMC3    C6 7083   1.807   2.839   9.712  1.0285 -0.3739  0.0601
  476TMC3     C 7084   1.541   2.636   9.957  0.6072 -0.6483 -1.2468
  476TMC3     O 7085   1.541   2.677  10.072  0.3859 -0.2425 -0.6693
  476TMC3     H 7086   1.508   2.687   9.713 -0.4607 -0.8278  0.3643
  476TMC3    H1 7087   1.755   2.736  10.020  0.3615 -1.3351 -0.9291
  476TMC3    H2 7088   1.875   2.895   9.648  1.8746  0.4406  1.6887
  476TMC3    C7 7089   1.964   2.873   9.900  0.2662  0.2061 -0.6616
  476TMC3    C8 7090   1.678   2.789   9.523  0.5544 -0.2027 -0.8716
  476TMC3    O1 7091   2.036   2.936   9.826  0.0962  0.4273 -0.6224
  476TMC3    O2 7092   1.716   2.888   9.463  0.3849  0.7533 -0.2684
  477MPD2     C 7093   3.637   3.465  11.426 -0.4994  0.0765 -0.5660
  477MPD2    C1 7094   3.550   3.546  11.497  0.5665  0.4515 -0.0690
  477MPD2    C2 7095   3.584   3.588  11.629 -0.2559  0.6840 -0.1168
  477MPD2    C3 7096   3.708   3.555  11.679  0.8841 -0.0269 -0.2168
  477MPD2    C4 7097   3.797   3.476  11.604 -0.2695 -0.2656  0.0880
  477MPD2    C5 7098   3.754   3.424  11.482 -0.3673 -0.1030 -0.2953
  477MPD2     H 7099   3.510   3.640  11.690  0.0721 -1.0743  1.8148
  477MPD2    H1 7100   3.902   3.467  11.628  0.2318 -0.8180 -2.2796
  477MPD2    H2 7101   3.607   3.429  11.328 -1.9955 -0.7964  0.2144
  477MPD2    H3 7102   3.817   3.370  11.412 -2.3930  0.8965 -2.8944
  477MPD2     N 7103   3.763   3.601  11.802  0.2526 -0.4079 -0.3999
  477MPD2    H5 7104   3.854   3.563  11.825  0.1567  0.0033  0.6874
  477MPD2    N1 7105   3.423   3.585  11.443 -0.1140  0.3731 -0.0864
  477MPD2    H7 7106   3.421   3.563  11.344  2.3023  2.6886 -0.6453
  478TMC3    C1 7107   3.224   3.707  11.420  0.0434  0.0336 -0.8380
  478TMC3    C2 7108   3.159   3.807  11.478  0.4841  0.1384 -0.5019
  478TMC3    C3 7109   3.126   3.922  11.401 -0.2246  0.4130  0.1468
  478TMC3    C4 7110   3.257   3.715  11.286  0.1679 -0.1841  0.3632
  478TMC3    C5 7111   3.223   3.825  11.213 -0.1367  0.5322 -0.5858
  478TMC3    C6 7112   3.155   3.935  11.272 -0.1633  0.1942 -0.6637
  478TMC3     C 7113   3.317   3.648  11.510 -1.3702  0.5164 -0.6602
  478TMC3     O 7114   3.305   3.654  11.633  0.8130 -0.9516 -0.4311
  478TMC3     H 7115   3.140   3.792  11.583  2.6889 -0.6638 -0.2170
  478TMC3    H1 7116   3.300   3.631  11.232  1.2670  0.3742  0.3617
  478TMC3    H2 7117   3.150   4.034  11.227 -1.8386  0.3578 -0.1143
  478TMC3    C7 7118   3.270   3.852  11.077  0.3653  0.9700 -0.2739
  478TMC3    C8 7119   3.113   4.047  11.469  0.5047  0.2415 -0.4489
  478TMC3    O1 7120   3.334   3.762  11.020  0.4284 -0.1653 -0.5756
  478TMC3    O2 7121   3.153   4.148  11.415 -0.0386 -0.3787  0.2177
  479MPD2     C 7122   2.455   2.129  15.577  0.1897 -0.8492  0.3658
  479MPD2    C1 7123   2.369   2.069  15.675  0.0192  0.1092  0.0599
  479MPD2    C2 7124   2.389   2.077  15.811 -0.1162  1.2890 -0.3551
  479MPD2    C3 7125   2.477   2.173  15.855 -0.0027 -0.2858 -0.3624
  479MPD2    C4 7126   2.560   2.235  15.764  0.3021  0.1034  0.2254
  479MPD2    C5 7127   2.552   2.210  15.629  0.2359  0.3907  0.1896
  479MPD2     H 7128   2.336   2.015  15.882  2.6281 -0.0858  0.5199
  479MPD2    H1 7129   2.642   2.299  15.795  1.8489 -1.4985 -0.5162
  479MPD2    H2 7130   2.448   2.129  15.469  3.0340  0.4932  0.1926
  479MPD2    H3 7131   2.624   2.262  15.568  1.6545  0.1281  1.6481
  479MPD2     N 7132   2.494   2.208  15.991  0.3434 -0.0921 -0.0379
  479MPD2    H5 7133   2.566   2.277  16.010 -0.9869  1.9336 -2.4525
  479MPD2    N1 7134   2.266   1.985  15.629  0.0101  0.4232  0.0865
  479MPD2    H7 7135   2.257   1.978  15.528  0.8816 -1.1232  0.1209
  480TMC3    C1 7136   2.072   2.045  16.159  0.1009 -0.0542 -0.1360
  480TMC3    C2 7137   1.998   2.126  16.069 -0.0612  0.1416  0.2014
  480TMC3    C3 7138   2.065   2.211  15.987 -0.2588  0.3888  0.9182
  480TMC3    C4 7139   2.212   2.064  16.175 -0.7803  0.1150 -0.4240
  480TMC3    C5 7140   2.273   2.150  16.089 -0.9456 -0.0231 -0.2029
  480TMC3    C6 7141   2.201   2.232  16.002 -0.3955 -0.3255 -0.1329
  480TMC3     C 7142   2.027   1.909  16.203 -0.5741 -0.5724 -0.4006
  480TMC3     O 7143   2.097   1.849  16.281 -0.4195  0.4218 -0.8930
  480TMC3     H 7144   1.891   2.110  16.060 -0.4768  2.5309  1.0954
  480TMC3    H1 7145   2.273   1.990  16.226 -0.4598  0.6813  0.0159
  480TMC3    H2 7146   2.259   2.305  15.945 -1.8942  1.3566  0.5054
  480TMC3    C7 7147   2.423   2.163  16.103 -0.1731 -0.2410  0.1809
  480TMC3    C8 7148   2.001   2.223  15.855  0.5581 -0.0750 -0.2366
  480TMC3    O1 7149   2.452   2.173  16.222  0.3204 -0.1385 -0.5072
  480TMC3    O2 7150   1.883   2.189  15.857  0.6889 -0.4505  0.1957
  481MPD2     C 7151   4.392   1.264  14.526  0.6148 -1.5238 -0.6543
  481MPD2    C1 7152   4.279   1.185  14.530  0.8225  0.1205 -0.2256
  481MPD2    C2 7153   4.170   1.238  14.595  0.2174  0.5948 -0.8586
  481MPD2    C3 7154   4.172   1.365  14.652 -0.6929 -0.6954 -0.2418
  481MPD2    C4 7155   4.293   1.438  14.657  0.2098 -0.5836 -0.0206
  481MPD2    C5 7156   4.397   1.385  14.590  0.2249  0.1011 -0.1820
  481MPD2     H 7157   4.082   1.175  14.593  0.5316  0.1683 -1.1019
  481MPD2    H1 7158   4.301   1.538  14.700 -0.2176 -0.0226 -1.2650
  481MPD2    H2 7159   4.481   1.231  14.474  0.2621 -1.2277 -1.4458
  481MPD2    H3 7160   4.490   1.442  14.583  1.3818 -1.6605  0.8910
  481MPD2     N 7161   4.059   1.415  14.717  0.9912 -0.2072 -0.5778
  481MPD2    H5 7162   4.074   1.506  14.760  3.1430 -1.3716  1.1489
  481MPD2    N1 7163   4.276   1.061  14.462 -0.2017  0.5671 -0.0401
  481MPD2    H7 7164   4.365   1.040  14.418 -0.2913 -0.9496  0.5038
  482TMC3    C1 7165   4.198   0.913  14.309  0.3682  0.4605 -0.3665
  482TMC3    C2 7166   4.099   0.825  14.259 -0.8852  0.4841 -0.3404
  482TMC3    C3 7167   4.107   0.792  14.127 -0.7195  0.5138 -0.0423
  482TMC3    C4 7168   4.317   0.939  14.247  0.0278 -0.5924 -0.0280
  482TMC3    C5 7169   4.321   0.881  14.124  0.0901 -0.5420  0.3801
  482TMC3    C6 7170   4.220   0.809  14.061  0.3199 -0.3514 -0.8568
  482TMC3     C 7171   4.168   0.983  14.436  0.4958  0.0185 -0.1168
  482TMC3     O 7172   4.060   0.971  14.489  0.1824 -0.4512 -0.4072
  482TMC3     H 7173   4.003   0.813  14.307 -0.8299 -0.6617 -0.5217
  482TMC3    H1 7174   4.414   0.976  14.278  0.0525  0.9799 -1.9860
  482TMC3    H2 7175   4.248   0.747  13.977  0.2764 -1.4196 -0.0801
  482TMC3    C7 7176   4.425   0.929  14.039 -0.2401 -0.4787 -0.6395
  482TMC3    C8 7177   4.008   0.713  14.063 -0.7477  0.5894  0.2245
  482TMC3    O1 7178   4.537   0.942  14.090  0.1572  0.0336  0.1492
  482TMC3    O2 7179   3.933   0.641  14.133  0.2825 -0.4795  0.3298
  483TMC3    C1 7180   1.232   0.364   1.314 -0.8740 -0.4164  0.4015
  483TMC3    C2 7181   1.311   0.465   1.352 -0.3788  0.2291  0.0376
  483TMC3    C3 7182   1.421   0.445   1.438 -0.6000 -0.3807 -0.2566
  483TMC3    C4 7183   1.265   0.237   1.352 -0.1566  0.0326  0.1209
  483TMC3    C5 7184   1.378   0.215   1.430 -0.4049 -0.1843 -0.2173
  483TMC3    C6 7185   1.455   0.318   1.477 -0.3359 -1.6382 -0.1209
  483TMC3     C 7186   1.163   0.388   1.189 -0.2553  0.8324 -0.0637
  483TMC3     O 7187   1.153   0.503   1.152 -0.8247  0.2472 -0.0448
  483TMC3     H 7188   1.291   0.567   1.324 -1.2140  0.1690  0.4148
  483TMC3    H1 7189   1.212   0.147   1.323  1.2987 -0.7505 -0.1036
  483TMC3    H2 7190   1.530   0.299   1.553  0.2256 -0.2428 -0.3153
  483TMC3    C7 7191   1.419   0.077   1.459 -0.2288 -0.4044 -0.2379
  483TMC3    C8 7192   1.527   0.534   1.418 -0.5346  0.1173 -0.1078
  483TMC3    O1 7193   1.498   0.066   1.554  0.0913  0.4118  0.2825
  483TMC3    O2 7194   1.531   0.574   1.306 -0.2103  0.3834 -0.0464
  484MPD2     C 7195   0.113   1.867  12.657 -0.2913  0.2359  0.3188
  484MPD2    C1 7196   0.136   1.987  12.599  0.6024 -0.3210 -0.4973
  484MPD2    C2 7197   0.265   2.026  12.565  0.5381 -1.6326 -0.1463
  484MPD2    C3 7198   0.369   1.953  12.605 -0.3081 -0.3989 -0.8779
  484MPD2    C4 7199   0.352   1.833  12.674  0.4232 -0.0716 -0.2719
  484MPD2    C5 7200   0.221   1.793  12.701  0.8852  0.0725  0.2985
  484MPD2     H 7201   0.283   2.118  12.509 -1.3079 -1.6843 -0.8218
  484MPD2    H1 7202   0.437   1.775  12.709 -0.3880 -2.3156 -1.9397
  484MPD2    H2 7203   0.012   1.846  12.689  0.3846 -0.9108  1.6632
  484MPD2    H3 7204   0.201   1.704  12.761  1.8104 -1.6022 -1.8761
  484MPD2     N 7205   0.503   1.997  12.584 -0.4618  0.3679  0.6244
  484MPD2    H5 7206   0.563   1.920  12.614 -0.9812 -0.7415 -1.1964
  484MPD2    N1 7207   0.025   2.069  12.598  0.2870 -0.8524  0.6805
  484MPD2    H7 7208   4.658   2.028  12.630 -1.7455  1.2018 -2.2814
  485TMC3    C1 7209   0.708   2.099  12.529  0.4129  0.3277  0.0887
  485TMC3    C2 7210   0.773   2.065  12.650 -0.3428 -0.0660  0.5184
  485TMC3    C3 7211   0.905   2.091  12.666  0.1002  0.5151 -0.0964
  485TMC3    C4 7212   0.782   2.157  12.433 -0.0488  0.1142 -0.5058
  485TMC3    C5 7213   0.908   2.187  12.451  0.1532 -0.6171  0.2479
  485TMC3    C6 7214   0.968   2.161  12.569  0.5707 -0.4651  0.0596
  485TMC3     C 7215   0.561   2.105  12.521 -0.2273  0.7542  0.2598
  485TMC3     O 7216   0.516   2.205  12.466  0.0345 -0.6927  0.3335
  485TMC3     H 7217   0.730   1.988  12.712 -0.4087 -1.0209 -0.6999
  485TMC3    H1 7218   0.730   2.174  12.339  1.3913  3.2018 -0.7465
  485TMC3    H2 7219   1.064   2.208  12.586  0.1665  0.2636  0.3346
  485TMC3    C7 7220   1.005   2.168  12.338  0.2538  0.3033  0.8877
  485TMC3    C8 7221   0.984   1.985  12.720 -0.1139  0.3800  0.3649
  485TMC3    O1 7222   1.098   2.097  12.369  0.0753  0.3711 -0.4042
  485TMC3    O2 7223   0.947   1.927  12.823 -0.0944  0.5564 -0.3032
  486MPD2     C 7224   2.025   1.810  12.962 -0.0766  0.0142  0.1820
  486MPD2    C1 7225   2.059   1.706  12.872 -0.7793 -0.4192  0.2312
  486MPD2    C2 7226   2.058   1.734  12.735 -0.3359  0.0772 -0.4153
  486MPD2    C3 7227   2.017   1.865  12.685  0.1031  0.3466  0.2721
  486MPD2    C4 7228   1.961   1.954  12.777  0.0424 -0.2523  0.5427
  486MPD2    C5 7229   1.979   1.924  12.910 -0.1738 -0.0243 -0.0345
  486MPD2     H 7230   2.083   1.657  12.663  1.8682  1.1759 -0.8308
  486MPD2    H1 7231   1.941   2.055  12.743  0.3655 -0.3543  0.0506
  486MPD2    H2 7232   2.022   1.799  13.070  1.4169 -0.1252  0.2098
  486MPD2    H3 7233   1.962   2.001  12.984 -0.5810 -0.7075  0.5850
  486MPD2     N 7234   2.019   1.892  12.546  0.1502  0.1134  0.4976
  486MPD2    H5 7235   2.044   1.807  12.497  0.7520  0.0211  0.9678
  486MPD2    N1 7236   2.108   1.587  12.933  0.6861 -0.0268 -0.2307
  486MPD2    H7 7237   2.140   1.591  13.029 -0.0574  1.2564 -0.0310
  487TMC3    C1 7238   2.131   1.349  12.957 -0.0879  0.4425  0.0526
  487TMC3    C2 7239   2.104   1.225  12.910  0.2089  0.1290 -0.6178
  487TMC3    C3 7240   2.105   1.113  12.984 -0.0749 -0.6415  0.0408
  487TMC3    C4 7241   2.179   1.362  13.083 -0.1099  0.5599  0.4087
  487TMC3    C5 7242   2.187   1.253  13.160 -0.0404  0.3434 -0.1817
  487TMC3    C6 7243   2.141   1.130  13.116  1.1624 -0.2733 -0.1716
  487TMC3     C 7244   2.106   1.463  12.871  0.2849 -0.1659 -0.0839
  487TMC3     O 7245   2.054   1.436  12.763 -0.3912 -0.4471 -0.1708
  487TMC3     H 7246   2.060   1.211  12.812  0.6954 -0.7594 -0.7165
  487TMC3    H1 7247   2.209   1.457  13.127 -0.8009  1.2332 -0.5885
  487TMC3    H2 7248   2.180   1.043  13.167 -0.3482  0.0350  1.5012
  487TMC3    C7 7249   2.157   1.277  13.297  0.4066 -0.6060 -0.0628
  487TMC3    C8 7250   1.972   1.053  12.978  0.3603 -0.5671 -0.8209
  487TMC3    O1 7251   2.192   1.383  13.351  0.3793 -0.6066 -0.0517
  487TMC3    O2 7252   1.880   1.100  12.908  0.0432 -0.2066  0.7981
  488MPD2     C 7253   1.757   3.974  16.649 -0.4646  1.0621 -0.5542
  488MPD2    C1 7254   1.729   4.104  16.614  0.1302  0.6565 -0.9225
  488MPD2    C2 7255   1.687   4.189  16.715 -0.0214 -0.6658  0.5247
  488MPD2    C3 7256   1.678   4.150  16.851 -0.1640 -0.1218 -0.4012
  488MPD2    C4 7257   1.712   4.018  16.879  1.0398  0.0410  0.2521
  488MPD2    C5 7258   1.745   3.931  16.775 -0.3620 -0.3776  0.1443
  488MPD2     H 7259   1.663   4.294  16.698  1.8559 -0.1017  1.4047
  488MPD2    H1 7260   1.718   3.986  16.982  1.5522 -3.0888 -0.7652
  488MPD2    H2 7261   1.816   3.909  16.585  1.6356 -0.0649  2.5298
  488MPD2    H3 7262   1.785   3.838  16.812 -0.3085 -0.6671 -0.6398
  488MPD2     N 7263   1.639   4.250  16.944 -0.6437  0.3429 -0.1342
  488MPD2    H5 7264   1.595   4.333  16.906  0.6325  0.1227 -2.1204
  488MPD2    N1 7265   1.762   4.161  16.491 -0.0102  0.7868  0.3698
  488MPD2    H7 7266   1.745   4.257  16.463  0.0079  1.1048  1.4582
  489TMC3    C1 7267   1.620   4.353  17.141 -0.3449 -0.4603 -0.0720
  489TMC3    C2 7268   1.663   4.470  17.084  1.2089 -0.1514  0.0022
  489TMC3    C3 7269   1.627   4.588  17.139  0.1319  0.4241  0.5276
  489TMC3    C4 7270   1.573   4.353  17.268 -0.6991 -0.6917  0.0177
  489TMC3    C5 7271   1.557   4.477  17.327  0.9321 -0.9584 -0.4654
  489TMC3    C6 7272   1.572   4.597  17.266  0.4893  0.0189  0.0933
  489TMC3     C 7273   1.660   4.234  17.079 -0.5847  0.0875 -0.1448
  489TMC3     O 7274   1.700   4.146  17.149  0.3979  0.1726 -0.0995
  489TMC3     H 7275   1.720   4.476  16.992  1.2963 -0.7377  0.0151
  489TMC3    H1 7276   1.532   4.258  17.302 -2.2433 -0.3043 -0.7843
  489TMC3    H2 7277   1.552   4.691  17.316  0.1283 -0.5405  0.9815
  489TMC3    C7 7278   1.524   4.484  17.465 -0.0153  0.6815  0.5743
  489TMC3    C8 7279   1.644   4.706  17.054 -0.8276  0.3100 -0.4745
  489TMC3    O1 7280   1.473   4.592  17.502  0.1731 -0.3607 -0.5817
  489TMC3    O2 7281   1.734   4.701  16.971 -0.2784  0.1899  0.1070
  490MPD2     C 7282   2.481   3.900  17.304 -0.7784 -0.4571  1.0914
  490MPD2    C1 7283   2.498   3.822  17.416 -0.4816  0.1141 -0.5143
  490MPD2    C2 7284   2.607   3.853  17.495 -0.2747  0.1458 -0.7412
  490MPD2    C3 7285   2.712   3.930  17.447 -0.4387  0.1737 -0.1554
  490MPD2    C4 7286   2.698   3.984  17.323 -1.1493 -0.3706  0.7034
  490MPD2    C5 7287   2.582   3.985  17.256 -0.0843  0.6483 -0.8934
  490MPD2     H 7288   2.611   3.805  17.592 -0.5308  0.4814 -0.5654
  490MPD2    H1 7289   2.775   4.050  17.285  0.1553 -0.6638  2.8212
  490MPD2    H2 7290   2.394   3.900  17.239  1.8612  1.9076 -2.4500
  490MPD2    H3 7291   2.576   4.048  17.168  1.5536 -1.2524 -2.3705
  490MPD2     N 7292   2.836   3.949  17.514 -0.1019  0.7594 -0.2178
  490MPD2    H5 7293   2.916   3.986  17.463  1.2382 -0.6146  0.8576
  490MPD2    N1 7294   2.398   3.735  17.464  0.1011 -0.6115  0.2186
  490MPD2    H7 7295   2.398   3.708  17.562 -0.8014 -1.8326 -0.1240
  491TMC3    C1 7296   2.220   3.589  17.454 -0.0233  0.0516 -0.3363
  491TMC3    C2 7297   2.225   3.576  17.593 -0.2949 -0.0038  0.3683
  491TMC3    C3 7298   2.155   3.469  17.643  0.2584 -0.8783 -0.1311
  491TMC3    C4 7299   2.159   3.505  17.369  0.4524  0.7117 -0.1687
  491TMC3    C5 7300   2.087   3.399  17.428  0.3852  0.0075  0.0535
  491TMC3    C6 7301   2.093   3.376  17.559 -0.2287  0.0296 -0.2849
  491TMC3     C 7302   2.299   3.693  17.390  0.0410 -0.0211 -0.5276
  491TMC3     O 7303   2.287   3.703  17.267  0.5401  0.7645  0.0801
  491TMC3     H 7304   2.256   3.655  17.661 -0.0017  0.4855 -0.3337
  491TMC3    H1 7305   2.145   3.533  17.265 -0.2965 -0.1531 -0.3062
  491TMC3    H2 7306   2.025   3.303  17.602  1.3963 -1.4176 -0.1816
  491TMC3    C7 7307   2.001   3.310  17.355  0.0513 -0.0276  0.2915
  491TMC3    C8 7308   2.167   3.439   0.104 -0.4665  0.3286 -0.4458
  491TMC3    O1 7309   1.999   3.194  17.390 -0.0589  0.0273  0.2729
  491TMC3    O2 7310   2.094   3.351   0.148 -0.0841 -0.3912  0.3162
  492MPD2     C 7311   3.758   2.813  10.873  0.1806  0.1151 -0.4497
  492MPD2    C1 7312   3.623   2.810  10.854  0.5254  0.5808 -0.1905
  492MPD2    C2 7313   3.544   2.759  10.954  0.6390 -0.4152  0.5610
  492MPD2    C3 7314   3.605   2.723  11.076  0.6165 -1.3149  0.3745
  492MPD2    C4 7315   3.739   2.749  11.097  0.8959 -0.3161  0.0619
  492MPD2    C5 7316   3.818   2.797  10.997  0.1530  0.3929  0.3402
  492MPD2     H 7317   3.437   2.744  10.946  0.6847 -0.4700  0.0543
  492MPD2    H1 7318   3.778   2.720  11.194  3.8198  0.1155 -0.9855
  492MPD2    H2 7319   3.824   2.853  10.797 -1.3377  1.9299 -0.8384
  492MPD2    H3 7320   3.924   2.816  11.007  0.2253  0.6451 -0.9827
  492MPD2     N 7321   3.542   2.652  11.180 -0.2936  0.4002 -0.2653
  492MPD2    H5 7322   3.592   2.641  11.268 -4.3366  1.3878  2.1689
  492MPD2    N1 7323   3.574   2.866  10.733 -0.1998  0.2811 -0.0948
  492MPD2    H7 7324   3.640   2.902  10.664 -1.1783  1.2846 -0.5038
  493TMC3    C1 7325   3.420   2.902  10.550  0.0972 -0.2072 -0.0000
  493TMC3    C2 7326   3.527   2.935  10.468  0.2148  0.2007  0.3702
  493TMC3    C3 7327   3.487   2.975  10.343 -0.3544 -0.0810  0.1898
  493TMC3    C4 7328   3.291   2.903  10.505 -0.8106  0.0986  0.3951
  493TMC3    C5 7329   3.263   2.927  10.379 -0.3384  0.1772  0.6768
  493TMC3    C6 7330   3.361   2.964  10.292  0.1623 -0.2698 -0.1353
  493TMC3     C 7331   3.440   2.854  10.692  0.3935 -0.6424 -0.5299
  493TMC3     O 7332   3.342   2.815  10.757 -0.5427 -0.1214 -0.3168
  493TMC3     H 7333   3.623   2.975  10.497 -0.5097  0.1530  2.8344
  493TMC3    H1 7334   3.212   2.854  10.562 -2.0525  2.8155  0.9983
  493TMC3    H2 7335   3.337   2.972  10.187 -2.7904  1.6743  0.6968
  493TMC3    C7 7336   3.142   2.864  10.315 -0.0209  0.1031 -0.2148
  493TMC3    C8 7337   3.595   3.006  10.254  0.0153 -1.0029 -0.1304
  493TMC3    O1 7338   3.096   2.904  10.208 -0.3657  0.3533 -0.7791
  493TMC3    O2 7339   3.702   2.954  10.276 -0.3225 -0.2017  0.3078
  494TMC3    C1 7340   3.549   0.511   0.675 -0.0860  0.3600 -0.2798
  494TMC3    C2 7341   3.682   0.476   0.694 -0.9416 -0.3971  0.1397
  494TMC3    C3 7342   3.765   0.480   0.590  0.6308 -0.2065 -0.0983
  494TMC3    C4 7343   3.503   0.556   0.549  0.1346 -0.0055 -0.1419
  494TMC3    C5 7344   3.595   0.557   0.447 -0.6627 -0.1991  0.0178
  494TMC3    C6 7345   3.728   0.531   0.466 -0.4264  0.0768 -0.4616
  494TMC3     C 7346   3.461   0.460   0.770 -0.2489 -0.7089 -0.2588
  494TMC3     O 7347   3.500   0.441   0.885  0.8651  0.1440 -0.8167
  494TMC3     H 7348   3.729   0.454   0.790  1.7712  1.8250 -0.6656
  494TMC3    H1 7349   3.400   0.573   0.521  0.6682  1.5850 -1.0775
  494TMC3    H2 7350   3.797   0.536   0.383 -0.5992  1.4203 -0.5254
  494TMC3    C7 7351   3.553   0.597   0.315 -0.1299  0.0810 -0.3343
  494TMC3    C8 7352   3.879   0.397   0.602 -0.5882  0.8869 -0.7313
  494TMC3    O1 7353   3.634   0.579   0.224  0.3807 -0.1852  0.8735
  494TMC3    O2 7354   3.877   0.294   0.662  0.4791 -0.3426  0.3098
  495TMC3    C1 7355   2.608   2.319  15.116 -0.0976  0.2547 -0.1542
  495TMC3    C2 7356   2.568   2.366  14.994  0.3721  0.0075  0.4433
  495TMC3    C3 7357   2.442   2.425  14.987  0.3595  0.3323  0.6176
  495TMC3    C4 7358   2.542   2.349  15.229  0.0449 -0.2889  0.0250
  495TMC3    C5 7359   2.417   2.398  15.214 -0.4299 -0.2072  0.2558
  495TMC3    C6 7360   2.368   2.440  15.094 -0.1004  0.5979  0.8558
  495TMC3     C 7361   2.632   2.175  15.110 -0.2478  0.2142 -0.4183
  495TMC3     O 7362   2.581   2.105  15.198  0.9240  0.0264  0.1966
  495TMC3     H 7363   2.627   2.350  14.904 -1.4973 -2.2538 -0.3678
  495TMC3    H1 7364   2.577   2.304  15.321 -2.3403  0.0836  1.1109
  495TMC3    H2 7365   2.264   2.471  15.091 -0.6955 -1.2916  1.7342
  495TMC3    C7 7366   2.336   2.415  15.330  0.4552 -0.1549 -0.1859
  495TMC3    C8 7367   2.360   2.372  14.879  0.0155 -0.5533 -0.3459
  495TMC3    O1 7368   2.387   2.439  15.435 -0.7646  0.4446 -0.1816
  495TMC3    O2 7369   2.249   2.425  14.873  0.4255  0.3449  0.0871
  496MPD2     C 7370   4.375   2.385  15.536  0.5658 -0.2160 -0.2121
  496MPD2    C1 7371   4.308   2.274  15.506  0.1086  0.1683  1.1725
  496MPD2    C2 7372   4.244   2.209  15.610  0.0875 -0.3245  0.6099
  496MPD2    C3 7373   4.231   2.267  15.737  0.4745 -0.2162  0.0766
  496MPD2    C4 7374   4.299   2.388  15.761 -0.6799  0.0859  0.3784
  496MPD2    C5 7375   4.365   2.448  15.657  0.4745 -0.3087 -0.3098
  496MPD2     H 7376   4.189   2.120  15.583  0.4083  0.0890 -1.4242
  496MPD2    H1 7377   4.271   2.437  15.854  1.2818  3.1531 -0.6464
  496MPD2    H2 7378   4.443   2.433  15.466  1.3761  0.6345  1.1670
  496MPD2    H3 7379   4.402   2.549  15.673 -0.9396 -0.0244  1.2252
  496MPD2     N 7380   4.147   2.211  15.841 -0.0599  0.1926 -0.2721
  496MPD2    H5 7381   4.153   2.258  15.931  1.8581  1.8596 -1.2906
  496MPD2    N1 7382   4.346   2.205  15.390  0.5574  0.2235 -0.8329
  496MPD2    H7 7383   4.414   2.253  15.332  1.7749 -0.2144  0.2354
  497TMC3    C1 7384   3.970   2.080  15.940 -0.1046  0.3258 -0.0923
  497TMC3    C2 7385   3.844   2.012  15.931 -0.5279 -0.2639 -0.0626
  497TMC3    C3 7386   3.789   1.945  16.032 -0.4745 -0.8735  0.4341
  497TMC3    C4 7387   4.040   2.074  16.058  0.1952 -0.2827  0.9850
  497TMC3    C5 7388   3.977   2.007  16.165  0.4130  0.6104 -0.2516
  497TMC3    C6 7389   3.852   1.949  16.155 -0.4913  0.1842 -0.5046
  497TMC3     C 7390   4.049   2.109  15.819  0.3200  0.5085  0.0572
  497TMC3     O 7391   4.021   2.042  15.721  0.1975  0.0296  0.4471
  497TMC3     H 7392   3.804   2.010  15.831  0.6783 -0.9999 -0.5312
  497TMC3    H1 7393   4.146   2.086  16.073  0.2917 -0.7346  0.6722
  497TMC3    H2 7394   3.804   1.923  16.249  0.1135  1.6661  0.2051
  497TMC3    C7 7395   4.026   2.013  16.305 -0.7613 -1.1197  0.5210
  497TMC3    C8 7396   3.640   1.944  16.044  0.5315  0.4197 -0.2629
  497TMC3    O1 7397   3.980   1.936  16.386  0.4524 -0.7694  0.2208
  497TMC3    O2 7398   3.598   1.910  16.151 -0.3410  0.3144  0.3990
  498MPD2     C 7399   0.383   2.468   9.114 -0.2218 -0.7296 -0.0783
  498MPD2    C1 7400   0.451   2.478   9.235 -0.3606 -0.5072 -0.6504
  498MPD2    C2 7401   0.373   2.486   9.349 -0.2976 -0.4561 -0.5678
  498MPD2    C3 7402   0.235   2.505   9.347  0.1837  0.5754  0.3043
  498MPD2    C4 7403   0.174   2.516   9.222  0.0717 -0.9526 -0.1424
  498MPD2    C5 7404   0.249   2.489   9.110 -0.6514  0.1639 -0.1690
  498MPD2     H 7405   0.421   2.485   9.446 -0.4544  0.7326 -0.4788
  498MPD2    H1 7406   0.068   2.534   9.206  0.0993 -0.2243  0.5462
  498MPD2    H2 7407   0.436   2.448   9.021  0.2986 -2.5027  0.5987
  498MPD2    H3 7408   0.200   2.486   9.014  0.8456  2.9561 -1.0246
  498MPD2     N 7409   0.160   2.491   9.464 -0.2946  0.1389  0.2610
  498MPD2    H5 7410   0.215   2.447   9.538  0.1728 -2.2834 -1.5470
  498MPD2    N1 7411   0.586   2.476   9.236 -0.4652 -0.1419 -0.2289
  498MPD2    H7 7412   0.626   2.489   9.328  0.9341  0.2596 -0.8977
  499TMC3    C1 7413   0.814   2.470   9.154  0.1618  0.8835 -0.0386
  499TMC3    C2 7414   0.857   2.393   9.251  0.1168 -0.1513  0.1340
  499TMC3    C3 7415   0.987   2.402   9.295 -0.2478 -0.5740 -0.1473
  499TMC3    C4 7416   0.906   2.544   9.080 -0.4210 -0.1256 -0.5134
  499TMC3    C5 7417   1.035   2.552   9.116 -0.7102 -0.0517 -0.0131
  499TMC3    C6 7418   1.074   2.483   9.223  0.5533  0.6404 -0.3924
  499TMC3     C 7419   0.672   2.489   9.128  0.2746 -0.4515 -0.3084
  499TMC3     O 7420   0.648   2.544   9.017  0.9630 -0.0419 -0.0266
  499TMC3     H 7421   0.786   2.333   9.306 -1.1656  0.2158 -1.1121
  499TMC3    H1 7422   0.868   2.605   8.999  0.5642 -0.5884 -1.3269
  499TMC3    H2 7423   1.183   2.488   9.226  0.5318  1.2577 -0.6528
  499TMC3    C7 7424   1.101   2.675   9.117 -0.2263  0.0383  0.1605
  499TMC3    C8 7425   1.034   2.295   9.372  1.0068 -0.1217 -0.5776
  499TMC3    O1 7426   1.155   2.712   9.222 -0.1524  0.0317  0.4045
  499TMC3    O2 7427   0.956   2.218   9.428 -0.1165 -0.2671 -0.6799
  500MPD2     C 7428   2.450   3.600  10.614 -0.1176 -0.1568  0.4250
  500MPD2    C1 7429   2.455   3.678  10.502 -0.0570  0.2130  0.3035
  500MPD2    C2 7430   2.331   3.728  10.448  0.4877 -0.0135  0.1749
  500MPD2    C3 7431   2.219   3.715  10.527  0.5263  0.3450 -0.5540
  500MPD2    C4 7432   2.219   3.647  10.647  0.5979 -0.0096 -0.2865
  500MPD2    C5 7433   2.338   3.588  10.688  0.1483 -0.7481  0.1453
  500MPD2     H 7434   2.331   3.776  10.351  0.4520 -2.4641 -1.0210
  500MPD2    H1 7435   2.130   3.629  10.707 -0.1721 -1.2357 -1.7958
  500MPD2    H2 7436   2.537   3.549  10.655 -0.2362  0.7945  1.8560
  500MPD2    H3 7437   2.346   3.524  10.776  0.7891  0.2763  0.8266
  500MPD2     N 7438   2.096   3.775  10.496 -0.9513  0.2509  0.1319
  500MPD2    H5 7439   2.024   3.770  10.568  0.6413 -2.2851  1.5486
  500MPD2    N1 7440   2.569   3.704  10.425 -0.6902 -0.0020  0.7374
  500MPD2    H7 7441   2.559   3.740  10.331  1.1738  1.9921  1.3124
  501TMC3    C1 7442   2.800   3.681  10.365  0.3622  1.0729  0.3295
  501TMC3    C2 7443   2.769   3.729  10.240 -0.4286  0.7891  0.9411
  501TMC3    C3 7444   2.870   3.750  10.151  0.0234 -0.2029 -0.2635
  501TMC3    C4 7445   2.924   3.643  10.411 -0.3341  0.1709  0.1554
  501TMC3    C5 7446   3.017   3.649  10.313 -0.1479 -0.5682  0.3820
  501TMC3    C6 7447   2.990   3.705  10.190  0.3671 -0.2864  0.2879
  501TMC3     C 7448   2.697   3.679  10.467 -0.2463  0.3667 -0.0646
  501TMC3     O 7449   2.734   3.640  10.577  1.1001  0.2483 -0.0110
  501TMC3     H 7450   2.669   3.750  10.204 -0.4921 -2.5304 -0.7811
  501TMC3    H1 7451   2.949   3.613  10.512 -1.4981 -0.0045  0.3933
  501TMC3    H2 7452   3.069   3.701  10.116  0.5521  1.8539  0.3474
  501TMC3    C7 7453   3.147   3.665  10.364 -0.2578 -0.0167  0.2977
  501TMC3    C8 7454   2.896   3.880  10.100 -0.1985 -0.1879  0.4783
  501TMC3    O1 7455   3.166   3.617  10.475 -0.3594 -0.8415 -0.3384
  501TMC3    O2 7456   3.006   3.921  10.141 -0.2917 -0.2869  0.1480
  502TMC3    C1 7457   0.892   3.388  15.491 -0.1193  0.3825  0.3009
  502TMC3    C2 7458   0.873   3.512  15.451 -0.3982 -0.1156  0.3274
  502TMC3    C3 7459   0.752   3.541  15.396 -0.3905  0.0451  0.1017
  502TMC3    C4 7460   0.796   3.287  15.481  0.8788  0.3638 -0.2595
  502TMC3    C5 7461   0.683   3.322  15.413 -0.7070  0.3664 -0.2521
  502TMC3    C6 7462   0.657   3.448  15.363 -0.4672 -0.1183 -0.3884
  502TMC3     C 7463   1.023   3.357  15.541  0.5029  0.3239  0.6029
  502TMC3     O 7464   1.114   3.441  15.568  0.0792 -0.0989  0.0306
  502TMC3     H 7465   0.953   3.585  15.463 -1.2621  1.2991 -2.5447
  502TMC3    H1 7466   0.814   3.185  15.513 -0.7321  0.0693 -0.2934
  502TMC3    H2 7467   0.571   3.466  15.299  0.5565 -0.5852 -1.8976
  502TMC3    C7 7468   0.573   3.234  15.435 -0.0078  0.0169  0.0943
  502TMC3    C8 7469   0.772   3.648  15.302  0.3230  1.0344 -0.1914
  502TMC3    O1 7470   0.583   3.167  15.535  0.4484  0.3493  0.0827
  502TMC3    O2 7471   0.891   3.676  15.277 -0.5808  0.1757 -0.2771
  503MPD2     C 7472   3.653   3.825   0.021 -0.6198 -0.0868  0.0703
  503MPD2    C1 7473   3.719   3.885   0.123  0.5600 -0.1649 -0.0042
  503MPD2    C2 7474   3.826   3.819   0.189 -0.0473  0.7026 -0.6439
  503MPD2    C3 7475   3.880   3.698   0.140  0.4937  0.0855  0.0861
  503MPD2    C4 7476   3.811   3.646   0.029 -0.1150  0.0156 -0.6753
  503MPD2    C5 7477   3.698   3.709  17.662 -0.1165  0.1622  0.5092
  503MPD2     H 7478   3.879   3.862   0.272  0.6205  1.7799 -1.6333
  503MPD2    H1 7479   3.838   3.548  17.675 -4.2990 -1.2754 -0.2889
  503MPD2    H2 7480   3.567   3.868  17.653 -2.7040 -1.1629  2.5900
  503MPD2    H3 7481   3.628   3.660  17.595 -0.1814  2.5492 -1.1670
  503MPD2     N 7482   3.994   3.648   0.205  0.2414  0.0296 -0.6042
  503MPD2    H5 7483   4.018   3.682   0.297  1.4144 -0.1231 -0.8512
  503MPD2    N1 7484   3.682   4.011   0.181 -0.1013  0.0345 -0.3378
  503MPD2    H7 7485   3.738   4.047   0.257 -1.8902  0.2079  0.9050
  504TMC3    C1 7486   4.180   3.507   0.253  0.6864  0.8665 -0.4766
  504TMC3    C2 7487   4.170   3.541   0.390  0.6524 -0.1057 -0.0325
  504TMC3    C3 7488   4.251   3.464   0.472 -0.6954  0.2303  0.5133
  504TMC3    C4 7489   4.270   3.414   0.211  0.9551 -0.0323 -0.5279
  504TMC3    C5 7490   4.355   3.360   0.303  0.2364 -0.6303 -0.4140
  504TMC3    C6 7491   4.343   3.371   0.435  0.0373  0.2573 -0.3222
  504TMC3     C 7492   4.080   3.551   0.156 -0.1839 -0.2994  0.0217
  504TMC3     O 7493   4.065   3.480   0.057  0.0180 -0.5001 -0.5465
  504TMC3     H 7494   4.084   3.593   0.431 -1.3659 -5.4013  2.4055
  504TMC3    H1 7495   4.271   3.381   0.108 -1.7115  0.7431 -0.8066
  504TMC3    H2 7496   4.422   3.330   0.497  0.3078  3.3950  1.3971
  504TMC3    C7 7497   4.439   3.251   0.252 -0.3516 -0.1062 -0.6165
  504TMC3    C8 7498   4.254   3.523   0.605 -0.0177  0.1456  0.1904
  504TMC3    O1 7499   4.457   3.163   0.331 -0.9839  0.1377  0.0800
  504TMC3    O2 7500   4.208   3.636   0.618 -0.2076  0.4710  0.2069
  505MPD2     C 7501   4.209   2.079  10.364 -0.0431  0.8163  0.1801
  505MPD2    C1 7502   4.217   1.944  10.356 -0.3733  0.6871  0.3973
  505MPD2    C2 7503   4.342   1.881  10.383  0.0775 -0.4103  0.1232
  505MPD2    C3 7504   4.451   1.947  10.431 -0.5879 -0.4040 -0.8365
  505MPD2    C4 7505   4.438   2.087  10.452 -0.4583 -0.8444  0.8437
  505MPD2    C5 7506   4.315   2.150  10.416 -0.6036 -0.1316  0.4392
  505MPD2     H 7507   4.353   1.776  10.362  0.4436 -0.4560  0.5357
  505MPD2    H1 7508   4.515   2.151  10.493  0.5529 -1.7933  0.4280
  505MPD2    H2 7509   4.116   2.134  10.350 -1.1686 -0.8498  1.1566
  505MPD2    H3 7510   4.303   2.256  10.433  1.9906 -0.1007  2.0744
  505MPD2     N 7511   4.574   1.881  10.463  0.2773 -0.5120 -0.3950
  505MPD2    H5 7512   4.649   1.936  10.501 -0.6492  0.0284  0.6533
  505MPD2    N1 7513   4.110   1.867  10.308 -0.6467 -0.4783 -0.4741
  505MPD2    H7 7514   4.038   1.913  10.252 -0.3003  1.0867  0.3537
  506TMC3    C1 7515   3.974   1.687  10.247 -0.6385 -0.2944 -0.2360
  506TMC3    C2 7516   3.941   1.768  10.142 -0.3329  0.1807 -0.5729
  506TMC3    C3 7517   3.934   1.710  10.020  0.0433  0.2677 -0.8583
  506TMC3    C4 7518   3.973   1.548  10.242  0.3490  0.5343  0.3808
  506TMC3    C5 7519   3.964   1.492  10.116  0.6538  0.4867 -0.1732
  506TMC3    C6 7520   3.945   1.575  10.006  0.4784 -0.6156 -0.1483
  506TMC3     C 7521   4.090   1.737  10.326 -0.0505  0.7853 -0.1034
  506TMC3     O 7522   4.149   1.666  10.409  0.4153  0.1374  0.0088
  506TMC3     H 7523   3.919   1.873  10.159  1.3321  0.5126 -0.4243
  506TMC3    H1 7524   3.999   1.499  10.335 -2.9747 -2.8033 -0.4705
  506TMC3    H2 7525   3.966   1.530   9.909  1.0934 -0.8232  0.0782
  506TMC3    C7 7526   4.069   1.396  10.087 -0.0059 -0.1094  0.2064
  506TMC3    C8 7527   3.936   1.784   9.895 -0.8237 -0.2653 -0.2502
  506TMC3    O1 7528   4.052   1.305  10.007  0.6643 -0.1106  0.0036
  506TMC3    O2 7529   3.877   1.729   9.800 -0.0514 -0.3982 -0.1072
  507TMC3    C1 7530   0.429   2.513  13.821 -0.6449 -0.2149 -0.2477
  507TMC3    C2 7531   0.354   2.591  13.747  0.2251  0.1615  0.2047
  507TMC3    C3 7532   0.352   2.724  13.789 -0.5565  0.0392 -0.7072
  507TMC3    C4 7533   0.480   2.542  13.945 -0.6100 -1.4190  0.5947
  507TMC3    C5 7534   0.470   2.670  13.988  0.1427  0.1507 -0.7351
  507TMC3    C6 7535   0.416   2.766  13.904  0.5532  0.1067 -0.3274
  507TMC3     C 7536   0.460   2.381  13.766 -0.0427 -0.6678 -0.1792
  507TMC3     O 7537   0.399   2.341  13.668 -0.2745 -0.4221  0.3609
  507TMC3     H 7538   0.335   2.569  13.642  2.0517 -0.3068 -0.0207
  507TMC3    H1 7539   0.524   2.472  14.015  0.5347  0.1154  1.4063
  507TMC3    H2 7540   0.426   2.869  13.933 -0.6095  0.4010 -0.9683
  507TMC3    C7 7541   0.419   2.682  14.123  0.3109  0.3665  0.0005
  507TMC3    C8 7542   0.232   2.798  13.762  0.2995  0.5602  0.9550
  507TMC3    O1 7543   0.447   2.592  14.199  0.4133 -0.8339  0.6605
  507TMC3    O2 7544   0.212   2.887  13.843  0.2671 -0.3625  0.3271
  508MPD2     C 7545   1.065   0.485  16.351 -0.3989  0.3368 -0.0441
  508MPD2    C1 7546   1.045   0.622  16.386 -0.6972 -0.2151 -0.8059
  508MPD2    C2 7547   1.026   0.706  16.282 -0.8091  0.5500 -0.5206
  508MPD2    C3 7548   1.022   0.666  16.149 -0.0158 -0.0486 -1.0417
  508MPD2    C4 7549   1.038   0.533  16.114 -0.1227  0.1914 -0.6893
  508MPD2    C5 7550   1.061   0.446  16.218 -0.2479 -0.0921  0.6182
  508MPD2     H 7551   1.008   0.812  16.296  1.9462  0.7340  1.8231
  508MPD2    H1 7552   1.060   0.499  16.013 -1.0791 -0.3850 -0.7023
  508MPD2    H2 7553   1.089   0.410  16.425  0.9051 -0.2364 -1.0705
  508MPD2    H3 7554   1.084   0.342  16.201  0.5411  0.2595 -0.5116
  508MPD2     N 7555   1.018   0.773  16.061 -0.9725  0.4584  0.2136
  508MPD2    H5 7556   1.004   0.863  16.106  1.3857  0.1765  1.5129
  508MPD2    N1 7557   1.047   0.656  16.519 -0.6064 -0.4002 -0.0167
  508MPD2    H7 7558   1.055   0.581  16.586  0.3863  0.0281  0.3380
  509TMC3    C1 7559   0.989   1.037  15.687 -0.2154 -0.6106 -0.3660
  509TMC3    C2 7560   1.092   1.118  15.727  0.1770 -0.9034  0.7584
  509TMC3    C3 7561   1.142   1.091  15.851  0.2318  0.0559 -1.1711
  509TMC3    C4 7562   0.951   0.924  15.759  0.1199 -0.6636 -0.5622
  509TMC3    C5 7563   1.020   0.896  15.876  1.3910 -0.1808  0.1120
  509TMC3    C6 7564   1.119   0.974  15.922 -0.1945 -0.0390  0.4313
  509TMC3     C 7565   0.931   1.047  15.556 -0.7347  0.0187  0.2997
  509TMC3     O 7566   0.930   0.943  15.497 -0.0697 -0.3885  0.6973
  509TMC3     H 7567   1.124   1.204  15.670 -1.8509 -0.2230  0.6721
  509TMC3    H1 7568   0.883   0.849  15.721 -0.2770 -0.2023 -0.7575
  509TMC3    H2 7569   1.159   0.961  16.022 -1.6939 -1.0190  0.8980
  509TMC3    C7 7570   1.000   0.765  15.927  0.7561  0.0970 -0.0470
  509TMC3    C8 7571   1.239   1.194  15.900 -0.5037  0.3222 -0.6709
  509TMC3    O1 7572   0.981   0.666  15.854 -0.3553  0.2024  0.0917
  509TMC3    O2 7573   1.334   1.151  15.967 -0.2364  0.0072 -0.6789
  510MPD2     C 7574   3.807   2.690  14.923 -0.3688  0.3101 -0.4163
  510MPD2    C1 7575   3.775   2.554  14.933  0.1909  0.1742 -0.0415
  510MPD2    C2 7576   3.827   2.463  14.849  0.2075  0.4201  0.4142
  510MPD2    C3 7577   3.929   2.502  14.764  0.0318  0.0128  0.4870
  510MPD2    C4 7578   3.975   2.631  14.766  0.0558  0.0220  0.2753
  510MPD2    C5 7579   3.916   2.723  14.846 -0.5672  0.1519 -0.4980
  510MPD2     H 7580   3.806   2.357  14.857 -0.0134  0.5226  1.1759
  510MPD2    H1 7581   4.048   2.671  14.696  0.0666  3.0047  1.9936
  510MPD2    H2 7582   3.761   2.753  14.999 -0.1183  0.0540 -0.0512
  510MPD2    H3 7583   3.942   2.827  14.835 -2.8715  0.9483  1.6806
  510MPD2     N 7584   3.986   2.400  14.687 -0.4005 -0.1308 -0.0492
  510MPD2    H5 7585   3.940   2.310  14.698 -0.8672  0.1546  0.3209
  510MPD2    N1 7586   3.691   2.500  15.029 -0.0046  0.4986 -0.7819
  510MPD2    H7 7587   3.681   2.399  15.027 -1.2403  0.5541  2.3289
  511TMC3    C1 7588   3.541   2.481  15.213  0.0441  0.1944 -0.2584
  511TMC3    C2 7589   3.429   2.531  15.273  0.4617 -0.9090 -0.5027
  511TMC3    C3 7590   3.358   2.446  15.351  0.3442 -0.2584  0.1359
  511TMC3    C4 7591   3.573   2.350  15.221 -0.8148  0.0149 -0.2934
  511TMC3    C5 7592   3.503   2.267  15.299  0.1179  0.8902  0.7074
  511TMC3    C6 7593   3.393   2.313  15.364 -0.0875 -0.4255 -0.7059
  511TMC3     C 7594   3.604   2.567  15.112  0.9281 -0.0256 -0.4171
  511TMC3     O 7595   3.566   2.683  15.112 -0.0623 -0.6771 -0.2775
  511TMC3     H 7596   3.396   2.631  15.247  0.4311 -0.9244 -0.5232
  511TMC3    H1 7597   3.647   2.299  15.159  0.9469  1.8618  0.2944
  511TMC3    H2 7598   3.360   2.254  15.450 -1.7808  1.7571  0.1354
  511TMC3    C7 7599   3.514   2.120  15.261 -0.1918 -0.0961 -0.7598
  511TMC3    C8 7600   3.247   2.505  15.423 -0.0429 -0.0947  0.3961
  511TMC3    O1 7601   3.616   2.088  15.198  0.3605  0.7156 -0.1880
  511TMC3    O2 7602   3.254   2.625  15.441 -0.3521 -0.4458  0.1153
  512TMC3    C1 7603   3.532   1.184  13.089 -0.1882  0.1806 -0.5025
  512TMC3    C2 7604   3.473   1.183  13.212 -0.5408 -0.1651  0.3542
  512TMC3    C3 7605   3.341   1.184  13.230  0.4341 -0.2793 -0.6023
  512TMC3    C4 7606   3.449   1.174  12.983 -0.6459  0.5270  0.4403
  512TMC3    C5 7607   3.312   1.172  13.004  0.5026  0.3290  0.5405
  512TMC3    C6 7608   3.253   1.179  13.128  0.2407 -0.2983 -0.5958
  512TMC3     C 7609   3.674   1.139  13.086  1.3119 -0.0067  0.2460
  512TMC3     O 7610   3.721   1.097  13.191  0.7001 -0.0656 -0.3062
  512TMC3     H 7611   3.542   1.178  13.296  0.8211 -0.2309 -0.7639
  512TMC3    H1 7612   3.492   1.151  12.886 -0.6958 -1.4212  0.8638
  512TMC3    H2 7613   3.144   1.179  13.137  0.6301 -3.1051  4.0674
  512TMC3    C7 7614   3.240   1.099  12.901  0.1452 -0.6651 -1.1074
  512TMC3    C8 7615   3.286   1.216  13.359  0.0475 -0.1070  0.1809
  512TMC3    O1 7616   3.283   1.109  12.787  0.0495  0.3388  0.0817
  512TMC3    O2 7617   3.167   1.196  13.374  0.6318 -0.0267 -0.3543
  513MPD2     C 7618   0.139   1.208  13.137  0.0210  1.1968  0.4548
  513MPD2    C1 7619   0.191   1.091  13.092  0.1351 -0.5515 -0.5079
  513MPD2    C2 7620   0.313   1.051  13.147 -0.3502  0.2001 -0.2417
  513MPD2    C3 7621   0.386   1.130  13.245  0.1660  1.2587  0.3332
  513MPD2    C4 7622   0.333   1.251  13.273  0.0175  0.2675  0.2127
  513MPD2    C5 7623   0.206   1.286  13.233  0.3157 -0.5572 -0.2221
  513MPD2     H 7624   0.368   0.965  13.111 -1.3740 -0.1823 -0.8826
  513MPD2    H1 7625   0.378   1.320  13.344 -1.6865 -0.2650  1.8104
  513MPD2    H2 7626   0.044   1.236  13.093 -0.5091  1.2307  1.6286
  513MPD2    H3 7627   0.167   1.380  13.269 -1.9639 -1.3635 -0.5815
  513MPD2     N 7628   0.508   1.075  13.288 -0.1495 -0.3586  0.1821
  513MPD2    H5 7629   0.534   0.988  13.242  0.6605  0.7286 -1.4044
  513MPD2    N1 7630   0.140   1.029  12.973 -0.0949 -0.4670 -0.0794
  513MPD2    H7 7631   0.056   1.061  12.927 -0.2019  0.1061  0.5145
  514TMC3    C1 7632   0.107   0.862  12.819 -0.6967  0.2033 -0.7660
  514TMC3    C2 7633   0.127   0.943  12.717 -0.0350 -0.3667 -0.0630
  514TMC3    C3 7634   0.187   0.885  12.613  0.2146 -0.7420 -0.2222
  514TMC3    C4 7635   0.133   0.728  12.812 -0.3380  0.2979  0.2087
  514TMC3    C5 7636   0.183   0.675  12.704 -0.0216 -0.6195 -0.0617
  514TMC3    C6 7637   0.209   0.747  12.593 -0.6194 -0.6235  0.3652
  514TMC3     C 7638   0.170   0.903  12.939  0.3299 -0.3147  0.4632
  514TMC3     O 7639   0.235   0.817  12.997  0.0991  0.1865 -0.0680
  514TMC3     H 7640   0.124   1.051  12.728 -0.8905 -0.4365  0.3705
  514TMC3    H1 7641   0.122   0.660  12.896 -0.6108 -1.8687 -1.5875
  514TMC3    H2 7642   0.275   0.715  12.514  0.4323 -2.4068  1.9954
  514TMC3    C7 7643   0.275   0.570  12.723 -0.1814  0.0639  0.0629
  514TMC3    C8 7644   0.308   0.964  12.590 -0.1787  0.9248  0.5661
  514TMC3    O1 7645   0.310   0.496  12.633  0.6478  0.6402 -0.3261
  514TMC3    O2 7646   0.340   1.042  12.679  0.0573 -0.3199  0.1430
  515MPD2     C 7647   2.288   3.971  14.948  0.2142  0.0859  0.1782
  515MPD2    C1 7648   2.380   3.869  14.936 -0.9853 -0.1407  1.0666
  515MPD2    C2 7649   2.500   3.877  15.010  0.3363 -0.2767 -0.2683
  515MPD2    C3 7650   2.523   3.988  15.085  0.0043  0.3707  0.0761
  515MPD2    C4 7651   2.429   4.092  15.090  0.5015 -0.1740 -0.6795
  515MPD2    C5 7652   2.310   4.079  15.026  1.2342 -0.1724  0.7356
  515MPD2     H 7653   2.568   3.793  15.004  1.3432  0.4147  1.6452
  515MPD2    H1 7654   2.447   4.180  15.151 -0.3810  1.4277 -2.7272
  515MPD2    H2 7655   2.185   3.971  14.912 -0.6510  1.5307  2.6260
  515MPD2    H3 7656   2.238   4.159  15.033  0.1943 -0.9752 -0.6612
  515MPD2     N 7657   2.642   4.008  15.163 -0.3646 -0.2485  0.0705
  515MPD2    H5 7658   2.657   4.096  15.210  1.6436 -0.9309  0.7341
  515MPD2    N1 7659   2.356   3.752  14.856  0.3432  0.0948 -0.4074
  515MPD2    H7 7660   2.421   3.674  14.865  1.4366  1.1734  0.9544
  516TMC3    C1 7661   2.239   3.593  14.717 -0.3669 -0.2557  0.3659
  516TMC3    C2 7662   2.165   3.571  14.599 -0.4906  0.8190  0.5531
  516TMC3    C3 7663   2.132   3.440  14.573 -0.2279 -0.1438  0.7892
  516TMC3    C4 7664   2.269   3.492  14.803 -0.9823 -0.3836 -0.4802
  516TMC3    C5 7665   2.237   3.367  14.772 -0.0160 -0.6989 -0.5046
  516TMC3    C6 7666   2.167   3.340  14.655  0.0067 -1.0580 -0.9464
  516TMC3     C 7667   2.243   3.723  14.776 -0.2201  0.5269  0.4565
  516TMC3     O 7668   2.149   3.798  14.757  0.1625 -0.2382  0.5175
  516TMC3     H 7669   2.141   3.647  14.526  1.9471 -0.1320 -1.2691
  516TMC3    H1 7670   2.313   3.506  14.901 -0.8514  0.6030 -0.6784
  516TMC3    H2 7671   2.130   3.239  14.659  1.8034 -1.6859 -0.2405
  516TMC3    C7 7672   2.258   3.260  14.870 -0.2423  0.7830  0.0092
  516TMC3    C8 7673   2.062   3.412  14.444 -0.2387  0.2451  0.2599
  516TMC3    O1 7674   2.189   3.160  14.848  0.2903 -0.4466  0.3027
  516TMC3    O2 7675   2.023   3.508  14.376 -0.0581 -0.2054 -0.3305
  517MPD2     C 7676   1.705   0.411   0.508 -0.0489 -0.7588  0.0179
  517MPD2    C1 7677   1.795   0.313   0.528  0.1280  0.5226 -0.4216
  517MPD2    C2 7678   1.882   0.324   0.637  0.3182 -0.0849  0.2140
  517MPD2    C3 7679   1.867   0.434   0.730 -0.1700 -0.3347 -0.9168
  517MPD2    C4 7680   1.771   0.525   0.706  0.7924  0.2272 -0.5560
  517MPD2    C5 7681   1.687   0.511   0.596 -0.2599  0.0183 -0.5865
  517MPD2     H 7682   1.962   0.255   0.661 -0.7403 -1.0692  0.8955
  517MPD2    H1 7683   1.777   0.615   0.768 -0.7558 -0.9877  1.3642
  517MPD2    H2 7684   1.634   0.402   0.426 -1.3912 -1.0855  1.2353
  517MPD2    H3 7685   1.615   0.592   0.585 -0.0204  0.2166 -0.7071
  517MPD2     N 7686   1.959   0.463   0.829  0.4160 -0.7010  0.4476
  517MPD2    H5 7687   1.933   0.546   0.881 -0.2591 -0.0508 -0.9283
  517MPD2    N1 7688   1.817   0.200   0.441 -0.4122  0.2328  0.1257
  517MPD2    H7 7689   1.887   0.133   0.471 -1.4086 -1.7684 -1.9999
  518TMC3    C1 7690   1.831   0.067   0.243 -0.0446 -0.1130  0.3951
  518TMC3    C2 7691   1.810   0.058   0.109  0.4476 -0.4568  0.7222
  518TMC3    C3 7692   1.825   4.656   0.048 -0.4539  0.2113  1.0192
  518TMC3    C4 7693   1.856   4.677   0.320 -0.3883  0.4508 -0.0912
  518TMC3    C5 7694   1.890   4.559   0.251  0.5631  0.1293 -0.2106
  518TMC3    C6 7695   1.874   4.540   0.116 -0.6002 -0.6314  0.3108
  518TMC3     C 7696   1.783   0.189   0.309 -0.3374 -0.1980 -0.1007
  518TMC3     O 7697   1.721   0.270   0.244  0.2762 -0.1762 -0.1457
  518TMC3     H 7698   1.775   0.141   0.049 -0.1964 -1.0905  0.2135
  518TMC3    H1 7699   1.856   4.674   0.428 -1.5816 -0.8681 -0.1343
  518TMC3    H2 7700   1.898   4.444   0.072  1.0358 -0.2780  0.4427
  518TMC3    C7 7701   1.958   4.457   0.315  0.8710  0.6139  0.0822
  518TMC3    C8 7702   1.825   4.669  17.585  0.6647 -0.2779  0.7713
  518TMC3    O1 7703   1.923   4.440   0.433 -0.5112 -0.4880 -0.0255
  518TMC3    O2 7704   1.779   0.053  17.542  0.6062  0.5910  0.3514
  519MPD2     C 7705   3.974   3.068  14.490  0.4564  0.3694 -0.0925
  519MPD2    C1 7706   3.901   3.092  14.379  0.2602  0.1731 -0.7370
  519MPD2    C2 7707   3.942   3.030  14.264 -0.4950 -0.4382  0.0368
  519MPD2    C3 7708   4.056   2.948  14.262  0.2319 -0.3359 -0.3761
  519MPD2    C4 7709   4.132   2.925  14.378 -0.1289  0.0756 -0.4563
  519MPD2    C5 7710   4.087   2.991  14.487 -1.0625 -0.7120 -0.1210
  519MPD2     H 7711   3.886   3.039  14.172 -0.0123 -0.4619 -0.2567
  519MPD2    H1 7712   4.221   2.863  14.376 -0.7065 -0.7285 -1.1846
  519MPD2    H2 7713   3.955   3.112  14.588 -1.5720  2.5512 -1.4588
  519MPD2    H3 7714   4.151   2.988  14.575  0.1500 -0.1093 -0.9702
  519MPD2     N 7715   4.109   2.883  14.155  1.2717 -0.2938 -0.6970
  519MPD2    H5 7716   4.187   2.823  14.179  1.0530 -0.9160 -1.5130
  519MPD2    N1 7717   3.783   3.173  14.377  0.0333 -0.4300  0.2102
  519MPD2    H7 7718   3.755   3.186  14.473 -2.0282  0.5693 -0.5177
  520TMC3    C1 7719   4.120   2.773  13.947  0.2309 -0.1428 -0.3395
  520TMC3    C2 7720   4.062   2.736  13.824  0.3744  0.1808  0.4303
  520TMC3    C3 7721   4.133   2.646  13.750 -0.3536  0.9198 -0.0538
  520TMC3    C4 7722   4.250   2.734  13.985  0.2194  0.9252  0.6208
  520TMC3    C5 7723   4.314   2.653  13.896 -0.4510  0.7180 -0.0561
  520TMC3    C6 7724   4.261   2.607  13.779  0.1148 -0.0653  0.5326
  520TMC3     C 7725   4.048   2.869  14.031 -0.2726 -0.4923 -0.5001
  520TMC3     O 7726   3.942   2.910  13.989  0.1548  0.5330  0.0704
  520TMC3     H 7727   3.958   2.756  13.800  0.9080  0.9938 -1.2481
  520TMC3    H1 7728   4.295   2.775  14.075 -1.7839  3.0365  0.6787
  520TMC3    H2 7729   4.320   2.562  13.700 -1.2045  1.0547 -1.0930
  520TMC3    C7 7730   4.438   2.602  13.947 -0.7059 -0.5912  0.5716
  520TMC3    C8 7731   4.089   2.633  13.608  0.0675 -0.2873  0.2962
  520TMC3    O1 7732   4.452   2.605  14.070 -0.4655 -0.3048  0.0174
  520TMC3    O2 7733   4.175   2.621  13.520  0.0538 -0.0677 -0.3101
  521MPD2     C 7734   4.571   1.771   0.026 -0.1578 -0.3288  0.0821
  521MPD2    C1 7735   4.543   1.680  17.613 -0.5026  0.5101 -0.0653
  521MPD2    C2 7736   4.649   1.617  17.540 -0.4470  0.0319 -0.1036
  521MPD2    C3 7737   0.060   1.638  17.576 -0.3825 -0.8897 -0.0554
  521MPD2    C4 7738   0.088   1.736  17.675  0.3830  0.3395 -0.1009
  521MPD2    C5 7739   4.705   1.803   0.049 -0.0987  0.5280 -0.3508
  521MPD2     H 7740   4.630   1.553  17.454 -1.2492 -0.3832  0.3851
  521MPD2    H1 7741   0.187   1.764   0.024  1.7242 -0.4870 -3.4010
  521MPD2    H2 7742   4.500   1.823   0.088 -0.4364 -0.7526  0.1156
  521MPD2    H3 7743   0.014   1.884   0.115 -0.1164  0.7329 -0.5965
  521MPD2     N 7744   0.155   1.574  17.496 -0.2114  0.4099 -0.2386
  521MPD2    H5 7745   0.121   1.492  17.447  0.6017 -0.5231  0.7975
  521MPD2    N1 7746   4.403   1.649  17.591  0.4118  0.2258 -0.2562
  521MPD2    H7 7747   4.343   1.712  17.643  0.3259  0.5510 -0.7503
  522TMC3    C1 7748   0.365   1.503  17.405  0.4787  0.1878  0.1667
  522TMC3    C2 7749   0.484   1.470  17.451  0.2181 -0.3206  0.1576
  522TMC3    C3 7750   0.564   1.399  17.367 -0.1682 -0.2327  0.0986
  522TMC3    C4 7751   0.318   1.478  17.280  0.1780  0.0617 -0.7552
  522TMC3    C5 7752   0.394   1.400  17.200  0.1179 -0.0937 -0.0232
  522TMC3    C6 7753   0.520   1.364  17.239  0.4254 -0.6873 -0.1792
  522TMC3     C 7754   0.291   1.583  17.498  1.0157  0.5360 -0.6749
  522TMC3     O 7755   0.357   1.639  17.578 -0.0510 -0.2026 -0.2420
  522TMC3     H 7756   0.522   1.488  17.551  0.9467  0.1831 -0.2090
  522TMC3    H1 7757   0.215   1.501  17.255 -0.1446  0.2999  0.8253
  522TMC3    H2 7758   0.581   1.304  17.171  0.0945 -3.1482  1.6951
  522TMC3    C7 7759   0.353   1.350  17.074 -0.2107 -0.3672  0.0828
  522TMC3    C8 7760   0.666   1.315  17.428 -0.0377  0.1081 -0.4927
  522TMC3    O1 7761   0.435   1.276  17.017  0.0883 -0.9909  0.4341
  522TMC3    O2 7762   0.656   1.281  17.546  0.4556  0.4527 -0.3522
  523MPD2     C 7763   3.203   0.665  10.105  0.2688 -0.4679 -0.2035
  523MPD2    C1 7764   3.074   0.630  10.061  0.7053  0.0256 -0.1147
  523MPD2    C2 7765   3.014   0.720   9.979 -0.3836  0.0866  0.0514
  523MPD2    C3 7766   3.077   0.842   9.938 -0.4980  0.9208  0.9523
  523MPD2    C4 7767   3.200   0.872   9.978  0.1546 -0.3891 -0.0878
  523MPD2    C5 7768   3.256   0.784  10.066  0.2705  0.4393  0.1181
  523MPD2     H 7769   2.910   0.697   9.962 -0.5080  1.7277 -1.3640
  523MPD2    H1 7770   3.248   0.967   9.957  1.1511 -0.3744  2.2763
  523MPD2    H2 7771   3.263   0.589  10.154  0.9530  0.1489 -0.0846
  523MPD2    H3 7772   3.353   0.803  10.110  0.2628 -3.2357  1.7285
  523MPD2     N 7773   3.026   0.933   9.843  0.9378 -0.7486  0.5947
  523MPD2    H5 7774   3.090   1.011   9.830 -3.1210  2.6491  0.8767
  523MPD2    N1 7775   3.016   0.507  10.100  0.3463 -0.2423 -0.2296
  523MPD2    H7 7776   3.064   0.457  10.175  0.6204  0.6058  0.1590
  524TMC3    C1 7777   2.880   1.028   9.688 -0.2408 -0.1370  0.2974
  524TMC3    C2 7778   2.765   1.018   9.620 -0.9437 -0.7102 -0.3637
  524TMC3    C3 7779   2.717   1.131   9.548 -0.6527  0.5496  0.4257
  524TMC3    C4 7780   2.954   1.144   9.681  1.3009  0.1613 -0.2653
  524TMC3    C5 7781   2.906   1.257   9.623 -0.6416  0.8177 -0.1621
  524TMC3    C6 7782   2.781   1.251   9.567 -0.1632 -0.4426 -0.1245
  524TMC3     C 7783   2.924   0.905   9.754 -0.8207 -0.0666  0.8781
  524TMC3     O 7784   2.850   0.803   9.749 -0.6510  0.4424 -0.3939
  524TMC3     H 7785   2.693   0.938   9.637 -0.8228 -0.4649  1.3131
  524TMC3    H1 7786   3.050   1.142   9.731 -0.6393  0.2782  3.5176
  524TMC3    H2 7787   2.739   1.337   9.515 -1.3123 -0.8563  0.1237
  524TMC3    C7 7788   2.991   1.375   9.604  0.2444 -0.1851  0.0028
  524TMC3    C8 7789   2.587   1.131   9.480  1.2037  0.0876 -0.1202
  524TMC3    O1 7790   3.105   1.368   9.647 -0.1459  0.4949 -0.5317
  524TMC3    O2 7791   2.532   1.237   9.451 -0.0891  0.0672 -0.3822
  525MPD2     C 7792   1.036   2.635  14.419 -0.5391  0.0308  0.4756
  525MPD2    C1 7793   0.908   2.651  14.466 -0.2298 -0.0595 -0.3426
  525MPD2    C2 7794   0.822   2.734  14.390 -0.0782 -0.1497  0.1600
  525MPD2    C3 7795   0.873   2.812  14.284 -0.3705  0.1186 -0.2641
  525MPD2    C4 7796   1.005   2.793  14.246  0.1014  0.8043  0.2868
  525MPD2    C5 7797   1.087   2.705  14.317 -0.0170  0.2434  0.1545
  525MPD2     H 7798   0.716   2.737  14.410 -0.3926 -0.4752 -1.4187
  525MPD2    H1 7799   1.051   2.836  14.158 -0.9452 -0.4632 -0.9005
  525MPD2    H2 7800   1.099   2.560  14.465 -1.4453 -0.5843  0.7394
  525MPD2    H3 7801   1.177   2.670  14.268  0.8437 -0.5862  2.3252
  525MPD2     N 7802   0.806   2.901  14.208  0.0524  0.0986 -0.6619
  525MPD2    H5 7803   0.854   2.949  14.133  1.3724 -1.7962 -1.0246
  525MPD2    N1 7804   0.874   2.582  14.583 -0.0438 -0.4042 -0.3084
  525MPD2    H7 7805   0.949   2.537  14.634 -0.6017 -0.7120  0.2342
  526TMC3    C1 7806   0.739   2.515  14.774  0.4093  0.6493  0.3432
  526TMC3    C2 7807   0.649   2.559  14.869  0.1037 -0.5641  0.3363
  526TMC3    C3 7808   0.645   2.490  14.986  0.8947 -0.1641  0.3712
  526TMC3    C4 7809   0.839   2.426  14.807 -0.1253 -0.4171 -0.3405
  526TMC3    C5 7810   0.833   2.364  14.933 -0.1815 -0.2721  0.4436
  526TMC3    C6 7811   0.735   2.396  15.021 -0.1984  0.0048  0.8199
  526TMC3     C 7812   0.746   2.586  14.644  0.1692  0.3931 -0.2425
  526TMC3     O 7813   0.648   2.644  14.604  0.0923  0.0028  0.0922
  526TMC3     H 7814   0.574   2.631  14.840  0.2595 -0.4523  0.2161
  526TMC3    H1 7815   0.913   2.398  14.733 -1.2270 -0.5823 -1.3738
  526TMC3    H2 7816   0.742   2.355  15.121 -2.3370 -1.0488  0.5478
  526TMC3    C7 7817   0.952   2.306  14.994 -0.1504  0.5010  0.4471
  526TMC3    C8 7818   0.537   2.522  15.089  0.1340  0.3055 -0.6723
  526TMC3    O1 7819   0.947   2.267  15.109  0.0826 -0.6373  0.0308
  526TMC3    O2 7820   0.561   2.481  15.202 -0.5385 -0.0023  0.1973
  527MPD2     C 7821   2.915   0.468   1.383 -0.0748  0.7705  0.3231
  527MPD2    C1 7822   3.019   0.515   1.465 -0.2762  0.3632 -0.7216
  527MPD2    C2 7823   3.132   0.549   1.398  0.1639  0.0450  0.4743
  527MPD2    C3 7824   3.150   0.549   1.266  0.4622  0.2091 -0.3353
  527MPD2    C4 7825   3.046   0.508   1.189 -0.2606  0.3127 -0.1606
  527MPD2    C5 7826   2.934   0.460   1.244 -0.1158  0.3275 -0.6011
  527MPD2     H 7827   3.223   0.575   1.452 -1.1773  1.9769  1.8106
  527MPD2    H1 7828   3.060   0.474   1.087  1.0068 -1.2390  0.5479
  527MPD2    H2 7829   2.815   0.442   1.416  1.1419 -3.4515  0.7446
  527MPD2    H3 7830   2.860   0.411   1.183  1.1025 -2.2177 -0.0088
  527MPD2     N 7831   3.276   0.600   1.213  0.0156 -0.1311  0.0744
  527MPD2    H5 7832   3.360   0.601   1.271  0.4922 -0.1826 -0.6114
  527MPD2    N1 7833   3.018   0.521   1.604  0.8865  0.3971  0.4026
  527MPD2    H7 7834   3.099   0.553   1.656 -0.0710  1.2768  1.3766
  528TMC3    C1 7835   2.909   0.555   1.819  1.1496 -0.3279 -0.5855
  528TMC3    C2 7836   2.987   0.665   1.846  0.2057 -0.2943  0.2385
  528TMC3    C3 7837   2.980   0.722   1.969  0.4454 -0.6862 -0.2788
  528TMC3    C4 7838   2.821   0.504   1.905 -0.0980  0.3766 -0.6043
  528TMC3    C5 7839   2.816   0.565   2.027 -0.5692 -0.3970 -0.1353
  528TMC3    C6 7840   2.892   0.674   2.061 -0.3625 -1.3729 -0.1932
  528TMC3     C 7841   2.897   0.508   1.681 -0.4691  0.1483 -0.0836
  528TMC3     O 7842   2.790   0.467   1.641 -0.1643 -0.6166 -0.5983
  528TMC3     H 7843   3.051   0.718   1.776 -0.9501 -0.3011 -0.8117
  528TMC3    H1 7844   2.759   0.420   1.874  1.3615 -0.6137 -0.8246
  528TMC3    H2 7845   2.885   0.712   2.162  0.1548 -2.1679  0.1476
  528TMC3    C7 7846   2.733   0.500   2.127 -0.1235  0.5372 -0.2951
  528TMC3    C8 7847   3.090   0.808   2.018  1.2958  0.5454  0.0903
  528TMC3    O1 7848   2.778   0.493   2.239  0.2130  0.1606 -0.1266
  528TMC3    O2 7849   3.143   0.877   1.935  0.1689 -1.1160 -0.4333
  529MPD2     C 7850   0.096   4.426   0.724 -0.1292  0.4492 -0.4583
  529MPD2    C1 7851   0.211   4.362   0.665 -0.3946  0.0150 -0.0081
  529MPD2    C2 7852   0.236   4.385   0.526 -0.7360  0.6658 -0.0960
  529MPD2    C3 7853   0.138   4.444   0.453  0.4835 -0.3819 -0.3611
  529MPD2    C4 7854   0.031   4.499   0.514 -0.2592  0.1840  1.0041
  529MPD2    C5 7855   0.009   4.489   0.653  0.9130  0.8349 -0.6023
  529MPD2     H 7856   0.323   4.341   0.478 -0.3159 -0.1489  1.4253
  529MPD2    H1 7857   4.666   4.543   0.464  0.1073 -1.4948 -1.0917
  529MPD2    H2 7858   0.074   4.423   0.830  1.9803 -2.1146 -0.0909
  529MPD2    H3 7859   4.644   4.534   0.702  1.2152  2.0903 -1.2300
  529MPD2     N 7860   0.135   4.447   0.312 -0.0147 -0.1200  0.6114
  529MPD2    H5 7861   0.054   4.493   0.270 -0.9419  0.8633  3.4974
  529MPD2    N1 7862   0.303   4.292   0.746 -0.7144  0.1502 -1.0390
  529MPD2    H7 7863   0.384   4.252   0.701 -1.3925  1.2064 -3.1629
  530TMC3    C1 7864   0.411   4.205   0.940 -0.2667  0.6260  0.9398
  530TMC3    C2 7865   0.462   4.239   1.062  0.2486 -0.2454 -0.2624
  530TMC3    C3 7866   0.539   4.146   1.127  0.2457 -0.6041 -0.1692
  530TMC3    C4 7867   0.462   4.102   0.869  0.6921  0.7654  0.5613
  530TMC3    C5 7868   0.544   4.009   0.927 -0.2611 -0.8737  0.3552
  530TMC3    C6 7869   0.567   4.022   1.064  0.3108 -0.2540  0.8352
  530TMC3     C 7870   0.298   4.281   0.886  0.0518 -0.6288 -0.8086
  530TMC3     O 7871   0.217   4.326   0.966  0.0611  0.1554 -0.0759
  530TMC3     H 7872   0.443   4.337   1.105  0.3233 -0.5023  0.3493
  530TMC3    H1 7873   0.420   4.074   0.773  2.2792 -1.0070  0.3868
  530TMC3    H2 7874   0.614   3.943   1.121  0.5223 -0.7019  0.0411
  530TMC3    C7 7875   0.590   3.893   0.850  0.1117  1.1289 -0.1486
  530TMC3    C8 7876   0.546   4.158   1.271  0.8173  0.4502  0.1594
  530TMC3    O1 7877   0.565   3.887   0.731  0.0752  0.1137 -0.3455
  530TMC3    O2 7878   0.454   4.224   1.322 -0.1689 -0.8379  0.2043
  531MPD2     C 7879   0.717   0.478  12.981 -0.4801 -0.3310 -0.7550
  531MPD2    C1 7880   0.648   0.576  13.044 -0.4368  0.2707  0.4634
  531MPD2    C2 7881   0.522   0.605  13.004  0.4369  0.5783  1.2190
  531MPD2    C3 7882   0.471   0.549  12.882 -0.5267  0.1472 -0.6231
  531MPD2    C4 7883   0.541   0.454  12.818 -0.5400  0.1620 -0.6863
  531MPD2    C5 7884   0.670   0.420  12.863 -0.2362  0.3135 -0.3548
  531MPD2     H 7885   0.469   0.689  13.046 -0.5407  1.2737 -1.3895
  531MPD2    H1 7886   0.506   0.410  12.725  1.2756 -0.3092 -1.1355
  531MPD2    H2 7887   0.810   0.436  13.018 -0.6476  1.0996  1.3301
  531MPD2    H3 7888   0.730   0.347  12.810 -0.0106 -0.1789  0.5788
  531MPD2     N 7889   0.346   0.599  12.840 -0.2871  0.6851  0.6819
  531MPD2    H5 7890   0.300   0.666  12.901  2.0351  0.2842  2.8713
  531MPD2    N1 7891   0.713   0.645  13.147 -0.1061  0.4866 -0.0238
  531MPD2    H7 7892   0.801   0.608  13.182 -0.3780 -1.1622 -1.0741
  532TMC3    C1 7893   0.758   0.839  13.283 -0.3711 -0.1829  0.3233
  532TMC3    C2 7894   0.731   0.975  13.266  0.1197  0.5343 -0.0852
  532TMC3    C3 7895   0.711   1.043  13.384  0.2333  0.4125  0.0381
  532TMC3    C4 7896   0.765   0.780  13.398 -0.0979  0.4070  0.0735
  532TMC3    C5 7897   0.739   0.846  13.514 -0.0182  0.1806  0.2263
  532TMC3    C6 7898   0.726   0.980  13.509  0.0225 -0.1027  0.2001
  532TMC3     C 7899   0.677   0.772  13.192  0.0107 -0.1501  0.5614
  532TMC3     O 7900   0.571   0.828  13.179  0.3989  0.5772 -0.2200
  532TMC3     H 7901   0.712   1.015  13.167  2.3200 -2.1915 -1.6155
  532TMC3    H1 7902   0.771   0.672  13.406 -1.3797  0.2662 -1.0694
  532TMC3    H2 7903   0.693   1.043  13.592 -0.9066  0.0370 -0.2747
  532TMC3    C7 7904   0.733   0.788  13.649  0.2215  0.2464 -0.1967
  532TMC3    C8 7905   0.600   1.123  13.378  0.3532  0.5513 -0.3728
  532TMC3    O1 7906   0.703   0.856  13.743 -0.0789 -0.6004  0.4269
  532TMC3    O2 7907   0.605   1.231  13.437  0.1693 -0.2256 -0.3562
  533TMC3    C1 7908   0.641   3.051  14.155 -0.2389 -0.4939 -0.2818
  533TMC3    C2 7909   0.726   3.156  14.166  1.0972  0.1861 -0.5405
  533TMC3    C3 7910   0.679   3.281  14.139  0.3647  0.3082 -0.7425
  533TMC3    C4 7911   0.507   3.076  14.120 -0.6634 -0.3546 -0.4447
  533TMC3    C5 7912   0.461   3.206  14.112  0.3808  0.1852  0.5362
  533TMC3    C6 7913   0.547   3.307  14.116  0.2994  0.1399 -0.0136
  533TMC3     C 7914   0.681   2.938  14.229 -0.2183  0.5892 -0.5481
  533TMC3     O 7915   0.598   2.899  14.309 -0.5001  0.4608  0.2284
  533TMC3     H 7916   0.808   3.140  14.235  0.5667  0.4880  0.1708
  533TMC3    H1 7917   0.436   2.995  14.127 -0.7922 -0.1154  1.1208
  533TMC3    H2 7918   0.517   3.411  14.127  0.8346  0.4305 -1.2610
  533TMC3    C7 7919   0.346   3.219  14.198  0.5405  0.2180 -0.4795
  533TMC3    C8 7920   0.772   3.394  14.168  0.4192 -0.0886 -0.7042
  533TMC3    O1 7921   0.326   3.128  14.281  0.5558  0.3591  0.3955
  533TMC3    O2 7922   0.728   3.508  14.161  0.3774  0.4622 -0.0357
  534MPD2     C 7923   2.537   4.331   2.643 -0.1837 -0.0787  0.7619
  534MPD2    C1 7924   2.546   4.394   2.522  0.7131  0.3658  0.2228
  534MPD2    C2 7925   2.502   4.325   2.413  0.3516 -0.6084  0.1839
  534MPD2    C3 7926   2.451   4.200   2.418  0.3945  0.8267  0.2824
  534MPD2    C4 7927   2.439   4.144   2.545 -0.7210  0.0718 -0.6270
  534MPD2    C5 7928   2.489   4.201   2.658 -0.4009  0.2702 -0.1599
  534MPD2     H 7929   2.498   4.375   2.317  2.2646  0.6630  0.7569
  534MPD2    H1 7930   2.399   4.046   2.570  1.3629 -0.6447 -0.0732
  534MPD2    H2 7931   2.577   4.378   2.732  0.0577  0.4820  0.3524
  534MPD2    H3 7932   2.473   4.154   2.754  1.1035 -0.9529 -0.5026
  534MPD2     N 7933   2.421   4.130   2.300 -0.0138 -0.3077  0.0009
  534MPD2    H5 7934   2.374   4.040   2.303  2.2230 -1.4301  1.3507
  534MPD2    N1 7935   2.605   4.516   2.494  0.5561  0.2972  0.4155
  534MPD2    H7 7936   2.598   4.531   2.394  0.3978  0.9587  0.5247
  535TMC3    C1 7937   2.408   4.097   2.076 -0.5441 -0.0199 -0.4502
  535TMC3    C2 7938   2.270   4.081   2.090  0.2588  0.6008  0.4856
  535TMC3    C3 7939   2.205   4.038   1.975 -0.9263 -0.8058 -0.3752
  535TMC3    C4 7940   2.474   4.074   1.959  0.0821 -0.2888  0.0425
  535TMC3    C5 7941   2.403   4.023   1.850 -0.2381  0.1740  0.5234
  535TMC3    C6 7942   2.266   4.007   1.853 -0.4522  0.6349 -0.1023
  535TMC3     C 7943   2.482   4.163   2.179 -0.0161  0.4381 -0.0269
  535TMC3     O 7944   2.577   4.239   2.150 -0.6066 -0.2082 -0.7616
  535TMC3     H 7945   2.216   4.088   2.184  0.5406 -0.4183  0.7282
  535TMC3    H1 7946   2.582   4.071   1.949 -0.0436 -1.4070 -1.0332
  535TMC3    H2 7947   2.203   4.008   1.765 -0.3663 -0.9317 -0.1747
  535TMC3    C7 7948   2.480   3.994   1.730 -1.1656  0.4446  0.1555
  535TMC3    C8 7949   2.058   4.019   1.979 -0.6791  0.2257  0.4130
  535TMC3    O1 7950   2.605   3.987   1.732 -0.1186 -0.3999 -0.3361
  535TMC3    O2 7951   2.020   3.960   1.877  0.1551 -0.3925 -0.5314
  536MPD2     C 7952   1.739   2.816  16.525  0.0102  0.0490  0.0803
  536MPD2    C1 7953   1.657   2.722  16.571 -0.0665  0.0026 -0.3560
  536MPD2    C2 7954   1.549   2.686  16.485 -0.1311 -0.1629  0.0623
  536MPD2    C3 7955   1.535   2.731  16.357 -0.5426 -0.8110 -0.2737
  536MPD2    C4 7956   1.627   2.821  16.316 -0.0742  0.2658  0.1631
  536MPD2    C5 7957   1.728   2.860  16.395  0.2427  0.4527  0.2582
  536MPD2     H 7958   1.467   2.622  16.516 -2.2382  1.7756 -1.5180
  536MPD2    H1 7959   1.622   2.865  16.217 -0.7905  3.2334  1.5287
  536MPD2    H2 7960   1.815   2.866  16.584  0.0836 -0.1463  0.1520
  536MPD2    H3 7961   1.800   2.934  16.360  0.2539  1.0521  1.5471
  536MPD2     N 7962   1.421   2.706  16.270  0.0238  0.1262  0.3768
  536MPD2    H5 7963   1.416   2.760  16.184  0.9703  0.1031  0.3014
  536MPD2    N1 7964   1.667   2.695  16.709  0.4723  0.5651 -0.4397
  536MPD2    H7 7965   1.739   2.739  16.764 -0.8224  1.4955  0.5053
  537TMC3    C1 7966   1.576   2.654  16.933 -0.2806  0.6485  0.2266
  537TMC3    C2 7967   1.606   2.780  16.980 -0.8777 -0.2469  1.2349
  537TMC3    C3 7968   1.625   2.791  17.112 -0.0743  0.2530 -0.5538
  537TMC3    C4 7969   1.555   2.551  17.018 -0.1978 -0.2263 -1.3051
  537TMC3    C5 7970   1.579   2.570  17.158  0.4907  0.0668  0.0517
  537TMC3    C6 7971   1.610   2.693  17.209 -0.5761  0.0195 -1.0202
  537TMC3     C 7972   1.575   2.624  16.786  0.0806 -0.0011  0.1983
  537TMC3     O 7973   1.495   2.544  16.745  0.0531 -0.2586 -0.2282
  537TMC3     H 7974   1.622   2.868  16.919  2.1978  1.5171  4.5944
  537TMC3    H1 7975   1.544   2.451  16.977  0.3222 -0.2841 -1.3086
  537TMC3    H2 7976   1.636   2.709  17.313  1.2054 -0.3400 -1.4077
  537TMC3    C7 7977   1.599   2.445  17.239 -0.2977 -0.0640 -0.2691
  537TMC3    C8 7978   1.682   2.908  17.166 -0.7546  0.1728 -0.9378
  537TMC3    O1 7979   1.615   2.341  17.177  0.4313 -0.2198  0.4644
  537TMC3    O2 7980   1.765   2.893  17.252 -0.8125  0.3132 -0.3943
  538TMC3    C1 7981   3.529   0.155  10.786 -0.1913  0.1365  0.2387
  538TMC3    C2 7982   3.558   0.100  10.664 -0.2601 -0.1289 -0.0831
  538TMC3    C3 7983   3.476   0.124  10.563 -1.1722  0.3015 -0.1441
  538TMC3    C4 7984   3.440   0.256  10.805  0.2453  0.5563 -0.3167
  538TMC3    C5 7985   3.355   0.280  10.701  0.5653 -0.5406 -0.0318
  538TMC3    C6 7986   3.371   0.212  10.577  0.9061  0.1513 -0.2732
  538TMC3     C 7987   3.612   0.123  10.904 -0.7974  0.2164 -0.4000
  538TMC3     O 7988   3.700   0.042  10.886 -0.5358 -0.2719  0.0311
  538TMC3     H 7989   3.637   0.027  10.651 -0.2268 -0.1557  0.2494
  538TMC3    H1 7990   3.430   0.307  10.900 -0.9815 -1.7377  0.7806
  538TMC3    H2 7991   3.306   0.220  10.491  0.2160 -2.3553  0.0083
  538TMC3    C7 7992   3.252   0.377  10.694 -0.8454 -0.0830  0.6181
  538TMC3    C8 7993   3.536   0.096  10.431  1.2452  0.0432  0.2401
  538TMC3    O1 7994   3.157   0.354  10.621 -0.9943 -0.3251 -0.1637
  538TMC3    O2 7995   3.618   0.007  10.420  0.1030  0.0944  0.7161
  539MPD2     C 7996   3.093   4.091  11.832 -0.3809  0.5981  0.4237
  539MPD2    C1 7997   3.086   4.135  11.703  0.5282  1.1957 -0.0557
  539MPD2    C2 7998   3.081   4.270  11.668 -0.5270  0.5615  0.6680
  539MPD2    C3 7999   3.084   4.364  11.769  0.4503  0.0260  0.3216
  539MPD2    C4 8000   3.077   4.318  11.897 -1.2716 -0.4352 -0.3102
  539MPD2    C5 8001   3.088   4.186  11.929  0.3242  1.0157 -0.1467
  539MPD2     H 8002   3.068   4.293  11.562  0.4022  2.1497  0.9024
  539MPD2    H1 8003   3.056   4.389  11.977  1.3837 -0.1258  0.0884
  539MPD2    H2 8004   3.108   3.987  11.857  1.9512  0.7160 -0.4421
  539MPD2    H3 8005   3.076   4.158  12.033  0.4592  1.9606  0.1240
  539MPD2     N 8006   3.073   4.502  11.741 -0.1715 -0.0959 -0.1865
  539MPD2    H5 8007   3.052   4.560  11.821 -0.3495  0.8282 -0.9001
  539MPD2    N1 8008   3.087   4.029  11.603 -0.0719  0.3665  0.1821
  539MPD2    H7 8009   3.077   3.936  11.643  1.0171  0.6085  1.0306
  540TMC3    C1 8010   3.039   4.700  11.623 -0.0705 -0.3379  0.4625
  540TMC3    C2 8011   2.987   0.036  11.507  0.0020  0.3508 -0.6201
  540TMC3    C3 8012   2.918   0.152  11.514  0.9545  0.5740 -0.4437
  540TMC3    C4 8013   3.014   0.042  11.743  0.4118  0.2581  0.5208
  540TMC3    C5 8014   2.940   0.161  11.743  0.5229 -0.9343  0.0769
  540TMC3    C6 8015   2.893   0.220  11.630 -0.0629  0.0291 -0.5191
  540TMC3     C 8016   3.085   4.562  11.616 -0.6003  0.2666  0.0396
  540TMC3     O 8017   3.111   4.516  11.505 -0.3704  0.2520  0.1458
  540TMC3     H 8018   3.007   4.701  11.416  1.2337  0.3466 -0.3388
  540TMC3    H1 8019   3.062   0.008  11.834 -0.9056 -1.3626  0.5980
  540TMC3    H2 8020   2.826   0.305  11.636 -2.2019 -1.6365 -0.8633
  540TMC3    C7 8021   2.865   0.186  11.857  0.3265  0.6430  0.1805
  540TMC3    C8 8022   2.911   0.239  11.403 -0.0721 -0.6755  0.2277
  540TMC3    O1 8023   2.745   0.192  11.837  0.2656  0.2108 -0.1487
  540TMC3    O2 8024   2.902   0.361  11.418  0.4876  0.2785  0.3752
  541MPD2     C 8025   1.655   1.777  13.395 -0.0864  0.3112 -0.1897
  541MPD2    C1 8026   1.634   1.658  13.336  0.1533  0.4665  0.7904
  541MPD2    C2 8027   1.647   1.655  13.194 -0.2451 -0.1313 -0.1381
  541MPD2    C3 8028   1.678   1.766  13.115 -0.1010  0.2509  0.3941
  541MPD2    C4 8029   1.678   1.886  13.186 -1.0581 -0.2533  0.0638
  541MPD2    C5 8030   1.666   1.891  13.319 -0.1254  0.2476 -0.7477
  541MPD2     H 8031   1.625   1.563  13.141  0.1345  1.1330 -2.4901
  541MPD2    H1 8032   1.686   1.980  13.132 -0.6282 -0.1697  0.2759
  541MPD2    H2 8033   1.663   1.793  13.502  0.5741  0.4254 -0.2579
  541MPD2    H3 8034   1.688   1.985  13.368 -0.7163 -0.4362  0.8691
  541MPD2     N 8035   1.703   1.768  12.974  0.0903  0.5835 -0.1428
  541MPD2    H5 8036   1.706   1.857  12.925 -0.7474  0.7937  0.1984
  541MPD2    N1 8037   1.595   1.535  13.405  0.2467  0.1274 -0.8824
  541MPD2    H7 8038   1.579   1.461  13.337 -1.1816  0.3006 -0.7502
  542TMC3    C1 8039   1.701   1.673  12.751  0.5608 -0.0776  0.4561
  542TMC3    C2 8040   1.748   1.570  12.675 -0.3810 -0.3141  0.5222
  542TMC3    C3 8041   1.733   1.577  12.542 -0.2335 -0.6175  0.3995
  542TMC3    C4 8042   1.633   1.783  12.691  0.5637 -0.3354  0.2283
  542TMC3    C5 8043   1.625   1.787  12.553 -1.3082  0.4940  0.1953
  542TMC3    C6 8044   1.682   1.687  12.478 -0.9699  0.0065  0.0256
  542TMC3     C 8045   1.709   1.659  12.896  1.0548 -0.7020 -0.1643
  542TMC3     O 8046   1.719   1.542  12.929 -0.6637 -0.2459 -0.6244
  542TMC3     H 8047   1.779   1.477  12.721 -1.5251 -1.1201 -0.3508
  542TMC3    H1 8048   1.589   1.858  12.755  0.1775  0.0500 -0.4884
  542TMC3    H2 8049   1.689   1.704  12.371 -1.6090 -0.6141 -0.1187
  542TMC3    C7 8050   1.614   1.914  12.484  0.3763  0.2933 -0.1295
  542TMC3    C8 8051   1.785   1.485  12.452 -0.8917 -0.5555  0.0622
  542TMC3    O1 8052   1.602   1.918  12.362  0.2825  0.0604  0.0144
  542TMC3    O2 8053   1.740   1.487  12.340 -0.5523  0.0147 -0.1264
  543TMC3    C1 8054   0.430   3.024   0.007  0.0034  0.3523 -0.3334
  543TMC3    C2 8055   0.453   2.890   0.009 -0.6582 -0.9666 -0.3982
  543TMC3    C3 8056   0.448   2.823   0.129 -0.5664 -0.3349  0.4430
  543TMC3    C4 8057   0.418   3.102   0.117 -0.1103 -0.4115  0.4398
  543TMC3    C5 8058   0.429   3.032   0.234 -0.7198  0.3118  0.4412
  543TMC3    C6 8059   0.428   2.898   0.240  0.2092  0.0746  0.3622
  543TMC3     C 8060   0.418   3.076  17.561  0.8090 -0.4953  0.4656
  543TMC3     O 8061   0.490   3.033  17.470  0.1077 -0.7482 -0.3510
  543TMC3     H 8062   0.486   2.834  17.607 -1.0936  1.3655 -2.0472
  543TMC3    H1 8063   0.404   3.208   0.099  0.2692 -0.4856 -0.3054
  543TMC3    H2 8064   0.445   2.856   0.339 -1.4656 -0.9788  0.1940
  543TMC3    C7 8065   0.409   3.111   0.358  0.3620  0.0114 -0.9091
  543TMC3    C8 8066   0.485   2.683   0.121  0.0153 -0.1670 -0.2409
  543TMC3    O1 8067   0.384   3.046   0.463  0.3971  0.5032 -0.1406
  543TMC3    O2 8068   0.552   2.657   0.020 -0.3486 -0.6782 -0.1795
  544MPD2     C 8069   0.529   2.191   0.253 -0.1142  0.5091  0.2922
  544MPD2    C1 8070   0.562   2.250   0.141 -0.1843  0.3800  0.1090
  544MPD2    C2 8071   0.540   2.385   0.130  0.0022  0.5392  0.2986
  544MPD2    C3 8072   0.486   2.459   0.233  0.0863 -0.0032  0.5876
  544MPD2    C4 8073   0.460   2.397   0.353 -0.1337  0.9414 -0.4820
  544MPD2    C5 8074   0.482   2.261   0.360  0.0598  0.4064  0.0651
  544MPD2     H 8075   0.564   2.436   0.037  2.0849 -1.4449 -0.2362
  544MPD2    H1 8076   0.425   2.449   0.441 -1.6495  0.9068 -1.0777
  544MPD2    H2 8077   0.548   2.084   0.254 -0.2587  0.4832  0.0507
  544MPD2    H3 8078   0.455   2.227   0.459  3.0459 -1.9383  0.0801
  544MPD2     N 8079   0.449   2.599   0.230  0.3113 -0.0186 -0.1925
  544MPD2    H5 8080   0.398   2.641   0.307 -1.1671  1.2869 -1.8571
  544MPD2    N1 8081   0.609   2.165   0.037 -0.0783 -0.1702  0.0649
  544MPD2    H7 8082   0.614   2.067   0.062 -0.6469 -0.0051  0.8397
  545TMC3    C1 8083   0.697   2.112  17.497 -0.4328  0.4017 -0.3760
  545TMC3    C2 8084   0.654   2.125  17.367  0.8224 -0.0102  0.2188
  545TMC3    C3 8085   0.702   2.019  17.280  0.4114 -0.3013 -1.2276
  545TMC3    C4 8086   0.771   2.015  17.545 -0.2498 -0.0503  0.0972
  545TMC3    C5 8087   0.823   1.930  17.454 -0.6194  0.0003  0.6597
  545TMC3    C6 8088   0.777   1.918  17.326  0.7335  0.4403  0.0066
  545TMC3     C 8089   0.630   2.203  17.593 -0.5290  0.3504  0.1558
  545TMC3     O 8090   0.597   2.305  17.535 -0.0890  0.6462 -0.1838
  545TMC3     H 8091   0.567   2.186  17.342 -0.6711 -1.1275  2.7096
  545TMC3    H1 8092   0.805   2.010  17.648 -2.3508 -2.2470  0.7081
  545TMC3    H2 8093   0.798   1.831  17.265 -0.4514  0.3860 -0.3233
  545TMC3    C7 8094   0.868   1.804  17.504 -0.4806  0.0305  0.4310
  545TMC3    C8 8095   0.702   2.032  17.134  0.8234 -0.5020  0.4853
  545TMC3    O1 8096   0.822   1.702  17.451  0.0559 -0.5508  0.5141
  545TMC3    O2 8097   0.758   1.940  17.076  0.0878  0.4207  0.1959
  546MPD2     C 8098   1.872   3.674  17.665  0.4440  0.0142 -0.4067
  546MPD2    C1 8099   1.826   3.622  17.544  0.8728 -0.1544 -0.0946
  546MPD2    C2 8100   1.857   3.687  17.421 -0.4321 -0.0890 -0.5638
  546MPD2    C3 8101   1.946   3.792  17.420  0.2127 -0.7278 -0.0587
  546MPD2    C4 8102   1.995   3.837  17.540 -0.1496  0.3316 -0.1034
  546MPD2    C5 8103   1.957   3.779  17.657  0.0753  0.1577  0.6970
  546MPD2     H 8104   1.813   3.650  17.329  0.2925  1.3839 -1.4938
  546MPD2    H1 8105   2.062   3.922  17.549 -1.2254  1.2123 -0.4375
  546MPD2    H2 8106   1.857   3.614   0.069 -0.3906  0.1204 -0.4789
  546MPD2    H3 8107   2.000   3.812   0.066 -1.4747  1.0562  1.1087
  546MPD2     N 8108   1.999   3.862  17.311  0.4580 -0.2443 -0.4372
  546MPD2    H5 8109   2.057   3.942  17.334  0.3645 -0.1038 -0.6916
  546MPD2    N1 8110   1.737   3.508  17.550  0.0115  0.2720  0.0573
  546MPD2    H7 8111   1.760   3.442  17.624  1.3184 -1.3206 -1.7712
  547TMC3    C1 8112   1.591   3.336  17.482  0.0497  0.3207  0.3241
  547TMC3    C2 8113   1.484   3.287  17.414  0.1588 -0.0919  0.0877
  547TMC3    C3 8114   1.468   3.151  17.409  0.3520 -0.2892  0.2654
  547TMC3    C4 8115   1.683   3.250  17.542 -0.4634 -0.6587  0.1708
  547TMC3    C5 8116   1.669   3.116  17.536  0.2533 -0.6352 -0.1153
  547TMC3    C6 8117   1.554   3.068  17.483  0.6118 -0.3896  0.0629
  547TMC3     C 8118   1.628   3.476  17.470  0.8945 -0.4325  0.2894
  547TMC3     O 8119   1.567   3.552  17.390  0.0801  0.2302  0.2245
  547TMC3     H 8120   1.415   3.352  17.362  1.1502  0.3578 -0.6655
  547TMC3    H1 8121   1.771   3.282  17.597  0.7692  0.2837 -2.3252
  547TMC3    H2 8122   1.523   2.964  17.493  0.9388 -0.3306  1.7594
  547TMC3    C7 8123   1.739   3.024  17.617  0.5027 -0.3521 -0.3681
  547TMC3    C8 8124   1.382   3.079  17.318 -0.2770  0.5659 -0.3536
  547TMC3    O1 8125   1.759   3.050   0.053 -0.2969  0.1339  0.0092
  547TMC3    O2 8126   1.389   2.956  17.317  0.1103 -0.0907  0.4412
  548MPD2     C 8127   2.547   3.467  11.903  0.1759  0.1504 -0.4273
  548MPD2    C1 8128   2.544   3.347  11.973  0.6491 -1.5204  0.4481
  548MPD2    C2 8129   2.664   3.293  12.020  0.6034 -0.0736  0.7246
  548MPD2    C3 8130   2.786   3.346  11.989 -0.5805 -0.2475  0.2532
  548MPD2    C4 8131   2.790   3.466  11.922 -0.2452  1.0428  0.7921
  548MPD2    C5 8132   2.672   3.525  11.882 -0.1157 -0.2029 -0.2015
  548MPD2     H 8133   2.662   3.203  12.080  1.3708 -0.2630  0.4570
  548MPD2    H1 8134   2.880   3.524  11.903  0.1075  1.2339  3.1131
  548MPD2    H2 8135   2.460   3.525  11.875 -0.6475 -0.7437  0.2859
  548MPD2    H3 8136   2.666   3.611  11.817  0.1946 -0.4137 -0.5035
  548MPD2     N 8137   2.903   3.297  12.048  0.5285 -0.6887  0.5319
  548MPD2    H5 8138   2.895   3.209  12.096  3.3260 -0.0925  2.0940
  548MPD2    N1 8139   2.422   3.286  11.986  0.0887  0.0105  0.0661
  548MPD2    H7 8140   2.343   3.342  11.956  0.4379 -2.2461 -5.0026
  549TMC3    C1 8141   2.254   3.116  12.033  0.3924 -0.0555 -0.0481
  549TMC3    C2 8142   2.169   3.206  12.101  0.1158 -0.1684 -0.5640
  549TMC3    C3 8143   2.053   3.161  12.164  0.6327  0.0393 -0.0155
  549TMC3    C4 8144   2.218   2.981  12.030  0.3491  0.4848  0.7436
  549TMC3    C5 8145   2.096   2.949  12.075 -0.1793  0.1921 -0.0202
  549TMC3    C6 8146   2.014   3.034  12.150 -0.2140  0.2260  0.2488
  549TMC3     C 8147   2.398   3.157  12.025  0.0542 -0.1369  0.2579
  549TMC3     O 8148   2.482   3.063  12.046  0.0960 -0.0946  0.3272
  549TMC3     H 8149   2.192   3.311  12.113  0.1571 -0.2983  0.4897
  549TMC3    H1 8150   2.289   2.915  11.982  0.8563  1.9497 -0.5129
  549TMC3    H2 8151   1.919   2.995  12.186 -0.3443  1.2603  1.0049
  549TMC3    C7 8152   2.043   2.821  12.042 -0.0492 -0.0246  0.2739
  549TMC3    C8 8153   1.952   3.255  12.204  0.8473 -0.2669 -0.5975
  549TMC3    O1 8154   2.126   2.733  12.024  0.7354 -0.7241  0.1937
  549TMC3    O2 8155   1.838   3.209  12.202 -0.2932  0.0022 -0.0750
  550TMC3    C1 8156   1.287   0.906  12.522 -0.1626  0.6635  0.1008
  550TMC3    C2 8157   1.258   0.952  12.650 -0.4479  0.6912 -0.3741
  550TMC3    C3 8158   1.220   1.084  12.664 -0.1371 -0.1739  0.6155
  550TMC3    C4 8159   1.266   0.989  12.414  0.1371 -0.3361  0.3022
  550TMC3    C5 8160   1.233   1.118  12.437  0.1729 -0.0498  0.1887
  550TMC3    C6 8161   1.207   1.168  12.558 -0.0978 -0.4330 -0.3878
  550TMC3     C 8162   1.257   0.765  12.505  0.4053  0.3281 -0.8500
  550TMC3     O 8163   1.282   0.695  12.600  0.4736  0.7435 -0.6340
  550TMC3     H 8164   1.289   0.896  12.738  1.2425  1.4647 -0.4730
  550TMC3    H1 8165   1.293   0.956  12.315 -0.5616 -0.6371  0.2129
  550TMC3    H2 8166   1.157   1.263  12.572 -1.6200 -1.3171  0.2192
  550TMC3    C7 8167   1.150   1.169  12.333 -0.7826 -0.3397 -0.4942
  550TMC3    C8 8168   1.096   1.091  12.737 -0.6116 -0.6824  0.6720
  550TMC3    O1 8169   1.088   1.087  12.267  0.3781 -0.1257 -0.3274
  550TMC3    O2 8170   1.035   1.198  12.739 -0.1729 -0.3600  0.7141
  551TMC3    C1 8171   3.152   3.782  13.536  0.6566  0.2606 -0.2869
  551TMC3    C2 8172   3.238   3.826  13.443  0.7311  0.0915 -1.3767
  551TMC3    C3 8173   3.290   3.951  13.456  0.3401  0.0383  0.2061
  551TMC3    C4 8174   3.137   3.850  13.654 -1.1733  0.3951 -0.4831
  551TMC3    C5 8175   3.198   3.973  13.668  0.7048  0.1386 -0.2450
  551TMC3    C6 8176   3.269   4.030  13.567 -0.9862  0.3999 -0.0252
  551TMC3     C 8177   3.048   3.692  13.480 -0.1324  0.3654 -0.2579
  551TMC3     O 8178   3.084   3.618  13.390 -0.1916  0.0538 -0.0911
  551TMC3     H 8179   3.264   3.761  13.360  3.5578  1.6289 -1.6943
  551TMC3    H1 8180   3.068   3.816  13.730 -1.4040  0.1250 -0.8121
  551TMC3    H2 8181   3.334   4.112  13.595 -0.1180 -0.9916  2.0706
  551TMC3    C7 8182   3.174   4.045  13.792 -0.4169  0.4493 -0.2310
  551TMC3    C8 8183   3.377   3.982  13.350 -0.1525 -0.9397  0.6181
  551TMC3    O1 8184   3.153   3.972  13.887  0.6579 -0.0768 -0.0076
  551TMC3    O2 8185   3.434   3.888  13.292 -0.0381  0.3333 -0.1101
  552MPD2     C 8186   0.546   1.268  13.706 -0.3745  0.0270  0.2544
  552MPD2    C1 8187   0.564   1.198  13.822 -0.3265  0.5310 -0.7361
  552MPD2    C2 8188   0.630   1.253  13.924  0.4123  0.1289  0.2010
  552MPD2    C3 8189   0.685   1.382  13.923  1.1439 -1.2177  0.1404
  552MPD2    C4 8190   0.660   1.458  13.807 -0.0801 -0.2486 -0.0773
  552MPD2    C5 8191   0.597   1.392  13.701  0.8052 -0.5172 -0.5427
  552MPD2     H 8192   0.644   1.189  14.010 -2.6556 -0.2296  0.4061
  552MPD2    H1 8193   0.683   1.564  13.812 -0.4569 -0.2737  2.3155
  552MPD2    H2 8194   0.487   1.240  13.620  1.8184 -0.6429 -1.0247
  552MPD2    H3 8195   0.574   1.439  13.606  1.0026 -0.9129 -0.7892
  552MPD2     N 8196   0.764   1.437  14.029 -0.1525 -0.4330 -0.2320
  552MPD2    H5 8197   0.811   1.525  14.012  0.6877 -1.1354 -1.4762
  552MPD2    N1 8198   0.501   1.075  13.841  0.2935  0.3459 -0.3346
  552MPD2    H7 8199   0.526   1.039  13.933  0.3436 -0.5735 -0.7123
  553TMC3    C1 8200   0.377   0.873  13.808 -0.1535  0.0221  0.7032
  553TMC3    C2 8201   0.356   0.771  13.722  1.0002 -0.4433  0.6349
  553TMC3    C3 8202   0.329   0.648  13.776  0.0822  0.1530 -0.2794
  553TMC3    C4 8203   0.388   0.853  13.941  0.5210  1.0427 -0.5475
  553TMC3    C5 8204   0.350   0.738  13.993  0.0039 -0.3051  0.7921
  553TMC3    C6 8205   0.312   0.636  13.916  0.1882  0.3557  0.0118
  553TMC3     C 8206   0.420   1.003  13.753 -0.6629  0.6168 -0.4049
  553TMC3     O 8207   0.382   1.021  13.637  0.4245 -0.1842  0.0479
  553TMC3     H 8208   0.385   0.789  13.619 -0.3999 -2.3094 -0.0877
  553TMC3    H1 8209   0.390   0.940  14.006 -2.8679  0.3647  0.4631
  553TMC3    H2 8210   0.280   0.545  13.964 -1.6124  0.1218 -1.6061
  553TMC3    C7 8211   0.370   0.718  14.132 -0.4076 -0.3223  0.4426
  553TMC3    C8 8212   0.390   0.523  13.731  0.0862 -0.1821  0.0586
  553TMC3    O1 8213   0.310   0.623  14.186 -0.0200 -0.1158  0.0982
  553TMC3    O2 8214   0.400   0.437  13.814 -0.2157  0.2902 -0.5289
  554TMC3    C1 8215   2.157   4.614  11.556  0.0476 -0.0972 -0.1934
  554TMC3    C2 8216   2.126   4.525  11.465  0.9053 -0.1241 -0.5071
  554TMC3    C3 8217   2.218   4.486  11.371  0.5717 -0.4761 -0.4964
  554TMC3    C4 8218   2.270   4.687  11.547  0.2379  0.4728 -0.4979
  554TMC3    C5 8219   2.359   4.647  11.451  0.1537 -0.2195 -0.2306
  554TMC3    C6 8220   2.335   4.552  11.357 -0.8474 -0.1018 -0.1421
  554TMC3     C 8221   2.093   4.591  11.679  0.1505 -0.0694 -0.1250
  554TMC3     O 8222   1.977   4.557  11.684 -0.1733  0.2071  0.1137
  554TMC3     H 8223   2.040   4.464  11.494  0.8033 -0.4285 -1.4558
  554TMC3    H1 8224   2.291   0.039  11.625  3.1291 -0.0830 -0.7696
  554TMC3    H2 8225   2.410   4.522  11.285  0.3154  0.6485  0.7613
  554TMC3    C7 8226   2.442   0.034  11.396 -0.0491  0.0121  0.1686
  554TMC3    C8 8227   2.158   4.433  11.251  0.2122 -0.3838  0.2753
  554TMC3    O1 8228   2.494   0.026  11.287  0.0831 -0.0518 -0.2237
  554TMC3    O2 8229   2.218   4.459  11.146 -0.2912 -0.6344 -0.6760
  555TMC3    C1 8230   1.150   0.037  15.236  0.1383  0.2513 -0.2374
  555TMC3    C2 8231   1.205   0.116  15.331 -0.3629 -0.4146 -0.9044
  555TMC3    C3 8232   1.182   0.079  15.462 -0.5342 -0.2229 -0.3733
  555TMC3    C4 8233   1.074   4.647  15.258 -0.0316  0.6900 -0.5092
  555TMC3    C5 8234   1.072   4.608  15.393  0.4750  0.0823 -0.0967
  555TMC3    C6 8235   1.112   4.687  15.501 -0.8176  0.5482  0.0641
  555TMC3     C 8236   1.169   0.091  15.100 -0.1699 -0.5775  0.2133
  555TMC3     O 8237   1.260   0.166  15.078  0.0088 -0.4222  0.2675
  555TMC3     H 8238   1.274   0.196  15.306 -1.0027  0.3449 -0.2466
  555TMC3    H1 8239   1.026   4.587  15.182  2.5052  1.2114 -2.5316
  555TMC3    H2 8240   1.088   4.658  15.603  0.5062 -1.6064 -0.2404
  555TMC3    C7 8241   1.033   4.475  15.424 -0.1166 -1.1877  0.2944
  555TMC3    C8 8242   1.244   0.164  15.566  0.9234 -0.2075  0.6263
  555TMC3    O1 8243   0.969   4.455  15.527  0.1861  0.3092 -0.8140
  555TMC3    O2 8244   1.288   0.268  15.520 -0.5013 -0.2658 -0.4257
  556MPD2     C 8245   3.698   1.415  10.406 -0.3488  0.2751  0.5474
  556MPD2    C1 8246   3.757   1.292  10.438 -0.3862 -0.1970  0.1057
  556MPD2    C2 8247   3.744   1.187  10.347 -0.3120 -0.2081 -0.7644
  556MPD2    C3 8248   3.676   1.209  10.226  0.0529 -0.1019  0.3847
  556MPD2    C4 8249   3.618   1.335  10.196 -0.0742 -0.1930 -0.7021
  556MPD2    C5 8250   3.636   1.435  10.289  0.4055  0.3490 -0.6136
  556MPD2     H 8251   3.774   1.088  10.376  2.1084  0.8277  0.2795
  556MPD2    H1 8252   3.559   1.365  10.110  0.4959  2.0828 -0.2976
  556MPD2    H2 8253   3.701   1.498  10.476 -2.0875 -0.7560  1.8382
  556MPD2    H3 8254   3.582   1.526  10.266 -0.4401 -0.2150 -0.8603
  556MPD2     N 8255   3.656   1.102  10.143  0.3382  0.0491  0.1070
  556MPD2    H5 8256   3.713   1.023  10.172  0.6601  0.5840  0.9127
  556MPD2    N1 8257   3.815   1.268  10.561 -0.3181  0.0401 -0.0320
  556MPD2    H7 8258   3.830   1.172  10.589  2.4570  0.6959  0.7374
  557TMC3    C1 8259   3.588   0.973   9.965 -0.0281  0.7475 -0.5599
  557TMC3    C2 8260   3.591   0.966   9.829  0.0132 -0.7686 -0.3480
  557TMC3    C3 8261   3.584   0.839   9.766 -0.0109  0.0271  0.2567
  557TMC3    C4 8262   3.584   0.860  10.040  0.4988  0.4642  0.4667
  557TMC3    C5 8263   3.589   0.738   9.976 -0.9720 -0.1590  0.0373
  557TMC3    C6 8264   3.597   0.728   9.838  0.3952  0.6341  0.2602
  557TMC3     C 8265   3.600   1.106  10.018  0.1950  0.6934  0.4358
  557TMC3     O 8266   3.580   1.207   9.949  0.4543 -0.4388  0.4962
  557TMC3     H 8267   3.602   1.061   9.777  1.3540 -0.5564  0.3069
  557TMC3    H1 8268   3.574   0.861  10.148 -0.0583  0.0753  0.4151
  557TMC3    H2 8269   3.604   0.633   9.786  0.2820  0.0248  1.3554
  557TMC3    C7 8270   3.580   0.616  10.054  0.0491  0.1943  0.7026
  557TMC3    C8 8271   3.611   0.839   9.625  0.3748 -0.0002 -0.2771
  557TMC3    O1 8272   3.554   0.631  10.174  0.4785  0.4267  0.0468
  557TMC3    O2 8273   3.692   0.925   9.591 -0.1964  0.3922  0.3892
  558TMC3    C1 8274   1.925   3.853  10.347 -0.2040  0.2525  0.0717
  558TMC3    C2 8275   1.836   3.773  10.413  0.5259  0.4724 -0.1200
  558TMC3    C3 8276   1.710   3.757  10.361 -1.1145  0.6880 -0.3887
  558TMC3    C4 8277   1.895   3.897  10.226 -0.3327  0.0494  0.0307
  558TMC3    C5 8278   1.772   3.884  10.176 -0.3204 -0.4923 -0.6281
  558TMC3    C6 8279   1.678   3.812  10.241  0.5171  0.5397 -0.2605
  558TMC3     C 8280   2.065   3.822  10.370  0.0608 -0.5082 -0.6815
  558TMC3     O 8281   2.133   3.836  10.270  0.4761  0.3941  0.2520
  558TMC3     H 8282   1.849   3.757  10.520  0.4301 -1.9649 -0.4673
  558TMC3    H1 8283   1.965   3.953  10.164  1.3822 -0.8852  1.1411
  558TMC3    H2 8284   1.574   3.811  10.210  0.6839 -1.4574 -0.7848
  558TMC3    C7 8285   1.740   3.941  10.050 -0.2686  0.6413  0.1100
  558TMC3    C8 8286   1.617   3.650  10.405 -0.1480  0.2727  0.1514
  558TMC3    O1 8287   1.817   4.034  10.013  0.3173 -0.1705  0.1228
  558TMC3    O2 8288   1.497   3.663  10.381 -0.0908  0.1472  0.6226
  559MPD2     C 8289   1.785   4.076  10.566 -0.4241 -0.2591 -0.0704
  559MPD2    C1 8290   1.749   3.990  10.672 -0.3346  0.5681 -0.3449
  559MPD2    C2 8291   1.837   3.974  10.778 -0.0049  0.3201 -0.2864
  559MPD2    C3 8292   1.956   4.038  10.779 -0.0149 -0.3642 -0.0933
  559MPD2    C4 8293   1.996   4.113  10.672 -0.4346 -0.8417  0.5517
  559MPD2    C5 8294   1.905   4.133  10.573  0.2044 -0.8469  0.1268
  559MPD2     H 8295   1.800   3.912  10.859  1.4106 -0.6946 -0.4251
  559MPD2    H1 8296   2.094   4.158  10.660 -0.7146 -0.0607  1.1346
  559MPD2    H2 8297   1.728   4.086  10.475 -1.4627 -4.2015  0.1373
  559MPD2    H3 8298   1.940   4.193  10.489 -2.1728 -0.4196 -0.5395
  559MPD2     N 8299   2.043   4.015  10.885 -0.2284 -0.1470 -0.3964
  559MPD2    H5 8300   2.007   3.950  10.954 -2.6520  0.6657 -0.8802
  559MPD2    N1 8301   1.620   3.944  10.673  0.0007 -0.1805  0.0481
  559MPD2    H7 8302   1.562   3.973  10.595 -0.5795 -1.7119 -0.0767
  560TMC3    C1 8303   2.229   4.003  11.014  0.6606  0.0659 -0.4668
  560TMC3    C2 8304   2.207   3.872  11.034 -0.1838 -0.4496 -0.3212
  560TMC3    C3 8305   2.243   3.819  11.156 -0.0911 -0.0513 -0.1173
  560TMC3    C4 8306   2.300   4.086  11.104 -0.5057 -0.6921  0.0700
  560TMC3    C5 8307   2.339   4.022  11.218  0.1383 -0.6235 -0.1385
  560TMC3    C6 8308   2.313   3.893  11.247 -0.0323  0.2072  0.4396
  560TMC3     C 8309   2.164   4.077  10.908  0.0044  0.3150 -0.1527
  560TMC3     O 8310   2.217   4.179  10.868 -0.2222  0.2084  0.2717
  560TMC3     H 8311   2.161   3.807  10.961 -0.2433  0.3593 -0.9989
  560TMC3    H1 8312   2.307   4.193  11.090  1.4895 -0.6875  1.1314
  560TMC3    H2 8313   2.356   3.836  11.328  0.0582 -2.4570 -1.4526
  560TMC3    C7 8314   2.435   4.081  11.297 -0.6431  0.6923  0.6073
  560TMC3    C8 8315   2.234   3.676  11.165  0.2573 -0.2310  0.0486
  560TMC3    O1 8316   2.435   4.064  11.418  0.0065 -0.3823 -0.3797
  560TMC3    O2 8317   2.263   3.614  11.063 -0.2103 -0.4817 -0.3402
  561TMC3    C1 8318   4.626   3.444  11.182 -0.3910  0.1124  0.4471
  561TMC3    C2 8319   4.652   3.474  11.317 -0.0664 -0.1165 -0.6519
  561TMC3    C3 8320   4.596   3.588  11.374 -0.2469 -0.5555 -0.5088
  561TMC3    C4 8321   4.556   3.525  11.105 -0.0019 -0.2216  0.1886
  561TMC3    C5 8322   4.508   3.637  11.165 -0.5667  0.0124 -0.2333
  561TMC3    C6 8323   4.517   3.672  11.294  0.2068 -0.2382 -0.5157
  561TMC3     C 8324   4.692   3.328  11.129  0.4817 -0.3412 -0.1654
  561TMC3     O 8325   4.686   3.332  11.006 -0.3423 -0.1754  0.3100
  561TMC3     H 8326   4.699   3.406  11.388 -0.0945  0.0788 -0.4454
  561TMC3    H1 8327   4.538   3.494  11.002  3.5796  0.7386 -0.7132
  561TMC3    H2 8328   4.478   3.765  11.334  2.0080  0.0687  0.5288
  561TMC3    C7 8329   4.475   3.746  11.083 -0.5496 -0.5276 -0.0124
  561TMC3    C8 8330   4.602   3.604  11.514 -0.6708  0.1362 -0.3304
  561TMC3    O1 8331   4.405   3.836  11.125 -0.2361  0.1511  0.8214
  561TMC3    O2 8332   4.665   3.518  11.581  0.3113 -0.5805 -0.1359
  562TMC3    C1 8333   0.690   0.540  16.233 -0.7533  0.0337 -0.1587
  562TMC3    C2 8334   0.677   0.667  16.174  0.5872 -0.5242 -0.4112
  562TMC3    C3 8335   0.658   0.674  16.037 -0.0821  0.2742  0.0265
  562TMC3    C4 8336   0.696   0.423  16.157 -0.4052 -0.6728 -0.0093
  562TMC3    C5 8337   0.674   0.437  16.021 -0.4765 -0.2737 -0.3552
  562TMC3    C6 8338   0.647   0.554  15.962  0.1775 -0.2920  0.5733
  562TMC3     C 8339   0.710   0.519  16.376 -0.0084 -0.6320  0.3749
  562TMC3     O 8340   0.755   0.411  16.409  0.3806 -0.3230 -0.1382
  562TMC3     H 8341   0.668   0.757  16.234  0.4604 -0.0412 -1.1528
  562TMC3    H1 8342   0.704   0.328  16.209 -1.8149  0.7362  2.7632
  562TMC3    H2 8343   0.613   0.557  15.859  1.4233  2.6930  0.2364
  562TMC3    C7 8344   0.642   0.320  15.944  0.1478  0.6529  0.2992
  562TMC3    C8 8345   0.593   0.797  15.985 -0.5942 -0.3326 -0.5815
  562TMC3    O1 8346   0.579   0.332  15.836 -0.6734  0.7996  0.1104
  562TMC3    O2 8347   0.567   0.878  16.072  0.1155  1.2188 -0.1295
  563MPD2     C 8348   2.777   2.002  15.981 -0.0906  0.0664 -0.0738
  563MPD2    C1 8349   2.812   1.982  16.112  0.5567 -0.1955 -0.0219
  563MPD2    C2 8350   2.914   1.888  16.137 -0.7072  0.0766  0.5639
  563MPD2    C3 8351   2.992   1.829  16.041  0.5063  0.6141 -0.2273
  563MPD2    C4 8352   2.968   1.860  15.906  0.0682 -0.0445  0.2865
  563MPD2    C5 8353   2.854   1.940  15.879  0.0268 -0.4122  0.1712
  563MPD2     H 8354   2.946   1.876  16.240  2.7079  0.1226 -0.4992
  563MPD2    H1 8355   3.013   1.815  15.819  0.2566 -0.5056  0.6241
  563MPD2    H2 8356   2.697   2.071  15.957  0.1273 -0.1160 -1.3343
  563MPD2    H3 8357   2.831   1.966  15.776  2.3753  1.2205  0.0593
  563MPD2     N 8358   3.109   1.760  16.085  0.1828 -0.1053 -0.5258
  563MPD2    H5 8359   3.130   1.760  16.185  1.4656 -0.2231 -0.7964
  563MPD2    N1 8360   2.753   2.057  16.218 -0.7758  0.9080  0.2661
  563MPD2    H7 8361   2.666   2.107  16.199 -0.8961  0.2359 -0.9436
  564TMC3    C1 8362   2.694   2.090  16.437  0.4009 -0.2532 -0.1680
  564TMC3    C2 8363   2.581   2.009  16.415 -0.2900 -0.1557  0.3365
  564TMC3    C3 8364   2.511   1.960  16.523  0.6528  0.0155 -0.2678
  564TMC3    C4 8365   2.740   2.102  16.566 -0.6109  0.2042 -0.5497
  564TMC3    C5 8366   2.676   2.041  16.668 -0.3165 -0.0154  0.3641
  564TMC3    C6 8367   2.552   1.995  16.655 -0.2503  0.2109 -0.5549
  564TMC3     C 8368   2.802   2.068  16.345 -0.4646 -0.3030 -0.0648
  564TMC3     O 8369   2.916   2.061  16.389  0.6302  0.1817  0.4979
  564TMC3     H 8370   2.543   2.003  16.313  1.4120  2.2513 -0.4216
  564TMC3    H1 8371   2.842   2.135  16.583 -0.1374 -2.7879  2.6255
  564TMC3    H2 8372   2.485   1.970  16.736 -0.5158  2.2917 -0.1476
  564TMC3    C7 8373   2.762   1.939  16.727 -0.3904 -0.4232  0.1412
  564TMC3    C8 8374   2.458   1.822  16.511 -0.3607 -0.0979  0.0575
  564TMC3    O1 8375   2.877   1.965  16.747 -0.6988  0.0141 -0.6170
  564TMC3    O2 8376   2.423   1.770  16.616 -0.8080 -0.3574 -0.0572
  565TMC3    C1 8377   3.742   2.604  10.101 -0.0239  0.0529 -0.3140
  565TMC3    C2 8378   3.777   2.532  10.212  0.2821  0.1066  0.1441
  565TMC3    C3 8379   3.715   2.405  10.222 -0.1074 -0.5477 -0.0605
  565TMC3    C4 8380   3.651   2.558  10.011  0.3728  0.1151 -0.2879
  565TMC3    C5 8381   3.594   2.441  10.032  0.7224 -0.1799 -0.8424
  565TMC3    C6 8382   3.625   2.357  10.127 -0.6445  0.0675 -0.3791
  565TMC3     C 8383   3.840   2.706  10.058 -0.3540 -0.0499 -0.2038
  565TMC3     O 8384   3.819   2.758   9.947  0.3294 -0.4754  0.3581
  565TMC3     H 8385   3.851   2.560  10.287  0.9803  0.2562 -0.5941
  565TMC3    H1 8386   3.620   2.614   9.923  1.4875  2.2107  0.6396
  565TMC3    H2 8387   3.621   2.250  10.115 -1.9385  0.4337 -3.0558
  565TMC3    C7 8388   3.513   2.400   9.925 -0.2615  0.3992  0.9414
  565TMC3    C8 8389   3.781   2.319  10.317  0.1139 -0.0074 -0.3509
  565TMC3    O1 8390   3.521   2.456   9.817 -0.5391  0.3394 -0.1783
  565TMC3    O2 8391   3.888   2.358  10.363  0.2233  0.2650  0.5323
  566MPD2     C 8392   0.363   3.982  14.259  0.2303 -0.0275  0.2824
  566MPD2    C1 8393   0.429   4.075  14.176 -0.1124  0.7044  0.7405
  566MPD2    C2 8394   0.348   4.146  14.088 -0.5625  0.5880 -0.2149
  566MPD2    C3 8395   0.215   4.124  14.086  0.5395  0.3903 -0.8954
  566MPD2    C4 8396   0.155   4.024  14.165 -0.2280 -0.2254 -0.0896
  566MPD2    C5 8397   0.235   3.949  14.246  0.3978 -0.1764 -0.1021
  566MPD2     H 8398   0.392   4.234  14.041  0.6724  0.6236  1.0045
  566MPD2    H1 8399   0.052   3.996  14.148 -0.7884  0.7259  1.7075
  566MPD2    H2 8400   0.421   3.919  14.326 -1.7301 -1.8355  0.2835
  566MPD2    H3 8401   0.189   3.872  14.307 -0.8746  1.5769  1.1458
  566MPD2     N 8402   0.128   4.201  14.008 -0.1714 -0.3091 -0.5346
  566MPD2    H5 8403   0.030   4.175  14.016 -0.3508 -0.1762 -2.1623
  566MPD2    N1 8404   0.565   4.109  14.199 -0.2367 -0.4402  0.3658
  566MPD2    H7 8405   0.600   4.066  14.285  0.1865  0.8631  0.8476
  567TMC3    C1 8406   0.778   4.198  14.171 -0.3181 -0.0275 -0.4091
  567TMC3    C2 8407   0.869   4.240  14.080 -0.3502 -0.1611  0.4736
  567TMC3    C3 8408   0.975   4.311  14.119  0.0393 -0.1725  0.6079
  567TMC3    C4 8409   0.793   4.218  14.302 -0.2985 -0.5166  0.1311
  567TMC3    C5 8410   0.904   4.289  14.346 -0.0283  0.2727  0.5699
  567TMC3    C6 8411   0.996   4.335  14.255  1.2158  0.6926  0.0094
  567TMC3     C 8412   0.645   4.173  14.111 -0.4093 -0.2995  0.1237
  567TMC3     O 8413   0.635   4.174  13.992 -0.3554 -0.0969 -0.3332
  567TMC3     H 8414   0.857   4.213  13.976 -0.0033 -0.4127  0.4982
  567TMC3    H1 8415   0.726   4.172  14.373 -2.3284  0.2923 -1.2629
  567TMC3    H2 8416   1.081   4.389  14.295  1.5018 -1.2095  1.9855
  567TMC3    C7 8417   0.924   4.293  14.489 -0.1976  0.4846 -0.0496
  567TMC3    C8 8418   1.085   4.325  14.028  0.0491 -0.1271  0.7163
  567TMC3    O1 8419   1.038   4.320  14.526  0.3065 -0.0088 -0.4679
  567TMC3    O2 8420   1.090   4.246  13.936 -0.7469  0.0451 -0.5571
  568MPD2     C 8421   2.918   0.543  16.930 -0.8341 -0.1248 -0.3015
  568MPD2    C1 8422   2.828   0.570  17.031 -0.3624  0.2795  0.0604
  568MPD2    C2 8423   2.744   0.679  17.018 -0.4436  0.5080 -0.1516
  568MPD2    C3 8424   2.745   0.761  16.898  0.0777 -0.3044 -0.2437
  568MPD2    C4 8425   2.853   0.739  16.812 -0.1421 -0.2398  0.1820
  568MPD2    C5 8426   2.931   0.631  16.827  0.0561 -0.0851  0.4647
  568MPD2     H 8427   2.676   0.702  17.099 -0.3850  0.9793 -0.2377
  568MPD2    H1 8428   2.887   0.808  16.736  1.7319  0.4964  1.6870
  568MPD2    H2 8429   2.983   0.459  16.953 -0.6813  0.4253  1.3097
  568MPD2    H3 8430   3.018   0.617  16.764  1.2316 -1.5264  2.3944
  568MPD2     N 8431   2.659   0.868  16.868  0.7183 -0.1201 -0.0573
  568MPD2    H5 8432   2.688   0.909  16.780 -1.9538  1.6614 -0.0780
  568MPD2    N1 8433   2.830   0.471  17.139 -0.0111 -0.0192  0.1186
  568MPD2    H7 8434   2.881   0.384  17.126 -0.3619  0.0380 -1.6300
  569TMC3    C1 8435   2.491   1.024  16.861  0.3555  0.4391  0.1034
  569TMC3    C2 8436   2.394   1.094  16.921  0.2810  0.0809 -0.2924
  569TMC3    C3 8437   2.305   1.167  16.849  0.1371  0.2920 -0.0581
  569TMC3    C4 8438   2.504   1.035  16.724  0.8255  0.0373  0.1923
  569TMC3    C5 8439   2.412   1.107  16.650  0.7832  0.0560 -0.6054
  569TMC3    C6 8440   2.312   1.181  16.707  0.0121 -0.4254  0.1460
  569TMC3     C 8441   2.552   0.920  16.936  0.0621  0.3058  0.5146
  569TMC3     O 8442   2.516   0.891  17.050 -0.2358 -0.3981 -0.5327
  569TMC3     H 8443   2.390   1.109  17.028  2.9756  1.5250 -0.3956
  569TMC3    H1 8444   2.576   0.977  16.666 -0.4610 -1.4493  0.0769
  569TMC3    H2 8445   2.245   1.233  16.641  1.3234 -0.0119 -0.8674
  569TMC3    C7 8446   2.467   1.161  16.530 -0.0415  0.6151  0.8265
  569TMC3    C8 8447   2.260   1.301  16.895 -0.3275 -0.0981 -0.9245
  569TMC3    O1 8448   2.513   1.089  16.443 -0.9741 -0.1303 -1.0297
  569TMC3    O2 8449   2.158   1.332  16.837 -0.1785  0.0108 -0.5353
  570TMC3    C1 8450   1.828   4.153  16.261 -0.2886  0.6710 -0.0601
  570TMC3    C2 8451   1.929   4.106  16.186 -0.4679 -0.3188 -0.4357
  570TMC3    C3 8452   1.955   4.173  16.065  0.2743  0.8698  0.5163
  570TMC3    C4 8453   1.756   4.262  16.234  0.0225 -0.3141 -0.2815
  570TMC3    C5 8454   1.773   4.324  16.113  0.0685 -0.1386  0.1829
  570TMC3    C6 8455   1.883   4.287  16.032 -0.6766  0.1913 -0.1620
  570TMC3     C 8456   1.804   4.084  16.382 -0.2497  0.7351  0.7859
  570TMC3     O 8457   1.803   3.963  16.367 -0.1663 -0.3357  0.6084
  570TMC3     H 8458   2.002   4.033  16.219 -0.2730 -0.0193 -0.1962
  570TMC3    H1 8459   1.686   4.308  16.302 -1.8232 -0.2193 -2.2186
  570TMC3    H2 8460   1.906   4.337  15.938 -1.4346 -2.6082 -1.8305
  570TMC3    C7 8461   1.711   4.455  16.086  0.7158  0.2316  0.6300
  570TMC3    C8 8462   2.095   4.179  16.024 -0.3398  0.1708 -0.3280
  570TMC3    O1 8463   1.634   4.508  16.165  0.0222  0.4993 -0.2681
  570TMC3    O2 8464   2.115   4.287  15.973 -0.5049 -0.4270  0.0547
  571MPD2     C 8465   0.292   1.192  17.481  0.4787  0.6232  0.0888
  571MPD2    C1 8466   0.159   1.198  17.440 -0.0231 -0.0350  0.3643
  571MPD2    C2 8467   0.060   1.245  17.528  0.4573  0.1504  0.2216
  571MPD2    C3 8468   0.096   1.279  17.655  0.1884  0.3483  0.5160
  571MPD2    C4 8469   0.227   1.285   0.011 -0.1830  0.9066  0.3441
  571MPD2    C5 8470   0.322   1.233  17.610 -0.4196 -0.2852  0.5382
  571MPD2     H 8471   4.676   1.238  17.501  0.3850 -1.8726  0.9786
  571MPD2    H1 8472   0.244   1.330   0.108  1.1584  0.8633  0.1335
  571MPD2    H2 8473   0.372   1.175  17.411 -0.9068  2.1923 -1.8810
  571MPD2    H3 8474   0.425   1.236  17.644 -0.7298 -0.2560  1.4730
  571MPD2     N 8475   4.720   1.322   0.065 -0.3882 -0.1853  0.0356
  571MPD2    H5 8476   0.037   1.359   0.151  1.9019 -0.2684 -0.9160
  571MPD2    N1 8477   0.132   1.147  17.309  0.0115 -0.3900 -0.0745
  571MPD2    H7 8478   0.205   1.090  17.266 -0.1755  1.0746 -2.3678
  572TMC3    C1 8479   4.514   1.400   0.154 -0.2206 -0.1480  0.0609
  572TMC3    C2 8480   4.377   1.379   0.175  0.1629 -0.9769  0.1771
  572TMC3    C3 8481   4.313   1.440   0.280 -0.0262  0.2039 -0.7289
  572TMC3    C4 8482   4.581   1.491   0.224 -0.2891  0.0190 -0.2107
  572TMC3    C5 8483   4.511   1.558   0.326 -0.2595 -0.4191  0.8247
  572TMC3    C6 8484   4.377   1.537   0.356  0.8487 -0.4036  0.3171
  572TMC3     C 8485   4.584   1.325   0.052 -0.6907 -0.0436 -0.4120
  572TMC3     O 8486   4.514   1.278  17.646 -0.2703 -0.3475  0.6321
  572TMC3     H 8487   4.344   1.279   0.152 -0.2416 -0.1312 -2.9182
  572TMC3    H1 8488   4.680   1.527   0.195  0.1810  0.1220  1.4689
  572TMC3    H2 8489   4.319   1.582   0.435  1.1363 -0.8960  0.8043
  572TMC3    C7 8490   4.551   1.685   0.376  0.2203  0.9237  0.7894
  572TMC3    C8 8491   4.172   1.396   0.307  0.4881  0.7329  0.5332
  572TMC3    O1 8492   4.469   1.737   0.453 -0.2727 -0.4161 -0.2852
  572TMC3    O2 8493   4.111   1.356   0.207 -0.1519 -0.1318  0.3216
  573MPD2     C 8494   1.768   1.309   1.033  0.1279 -0.4506 -0.1525
  573MPD2    C1 8495   1.861   1.403   0.997  0.2257  0.3733 -0.0019
  573MPD2    C2 8496   1.842   1.462   0.865 -0.0891  0.2000  0.6422
  573MPD2    C3 8497   1.746   1.417   0.775  0.4256  0.2231  0.1215
  573MPD2    C4 8498   1.659   1.324   0.822 -0.2593 -0.4468  0.2930
  573MPD2    C5 8499   1.670   1.268   0.948  0.5182 -0.4679  0.6403
  573MPD2     H 8500   1.916   1.533   0.833 -1.0289  0.7106 -0.3850
  573MPD2    H1 8501   1.597   1.274   0.748 -0.4380 -0.3037  0.3470
  573MPD2    H2 8502   1.779   1.260   1.129  0.1971 -0.7688 -0.3241
  573MPD2    H3 8503   1.602   1.188   0.974 -0.3738  0.0196 -0.1554
  573MPD2     N 8504   1.722   1.478   0.646 -0.2319 -0.5528 -0.2686
  573MPD2    H5 8505   1.641   1.447   0.594 -1.6249  1.1783  0.8734
  573MPD2    N1 8506   1.955   1.438   1.093 -0.3283 -0.1435  0.1995
  573MPD2    H7 8507   1.956   1.392   1.183 -0.6109  1.4570  1.0259
  574TMC3    C1 8508   1.741   1.627   0.465  0.0987 -0.1950 -0.1840
  574TMC3    C2 8509   1.625   1.580   0.414 -0.0271 -0.0889 -0.2925
  574TMC3    C3 8510   1.572   1.652   0.302 -0.0277  0.2273  0.2098
  574TMC3    C4 8511   1.796   1.744   0.419  0.2574  0.5921  0.1359
  574TMC3    C5 8512   1.741   1.811   0.310 -0.0304 -0.1009 -0.7870
  574TMC3    C6 8513   1.626   1.769   0.253  0.7818  0.7153 -0.4267
  574TMC3     C 8514   1.801   1.569   0.583 -0.1516 -0.3500  0.3818
  574TMC3     O 8515   1.904   1.625   0.628 -0.0498  0.0870  0.2244
  574TMC3     H 8516   1.561   1.510   0.467  0.3056  0.9309  1.4617
  574TMC3    H1 8517   1.889   1.777   0.466  0.0306 -0.2948  1.2113
  574TMC3    H2 8518   1.580   1.818   0.167 -2.3559  0.3043  1.0068
  574TMC3    C7 8519   1.801   1.925   0.243  0.1115 -0.1935 -0.8684
  574TMC3    C8 8520   1.441   1.596   0.245  0.1891  0.6436 -0.4234
  574TMC3    O1 8521   1.788   1.925   0.121 -0.2671 -0.1811  0.2362
  574TMC3    O2 8522   1.412   1.483   0.275  0.0482  0.5489 -0.2175
  575TMC3    C1 8523   4.335   2.060  10.963 -0.1578 -0.5149 -0.1730
  575TMC3    C2 8524   4.313   1.946  11.040 -0.0448 -0.4036  0.0304
  575TMC3    C3 8525   4.201   1.881  11.014 -0.3010  0.5670  1.0228
  575TMC3    C4 8526   4.264   2.091  10.856  0.3132 -0.1898  0.0039
  575TMC3    C5 8527   4.159   2.012  10.820 -0.0643  0.8040 -0.4234
  575TMC3    C6 8528   4.121   1.910  10.906  0.5662 -0.6710 -0.4948
  575TMC3     C 8529   4.471   2.103  10.964 -0.1999 -0.0864 -0.2725
  575TMC3     O 8530   4.519   2.136  10.859  0.4518  0.1404  0.5462
  575TMC3     H 8531   4.379   1.911  11.118 -0.0033 -1.1433 -0.3325
  575TMC3    H1 8532   4.286   2.179  10.796  1.4213 -1.8966 -2.0877
  575TMC3    H2 8533   4.037   1.843  10.893  0.1058  0.0608 -1.2949
  575TMC3    C7 8534   4.070   2.069  10.721  0.1632 -0.0221  0.2735
  575TMC3    C8 8535   4.151   1.781  11.113 -0.4485  0.1477 -0.0471
  575TMC3    O1 8536   4.081   2.187  10.690 -0.7222 -0.6030 -0.1392
  575TMC3    O2 8537   4.071   1.698  11.071 -0.7512  0.3718  0.0131
  576MPD2     C 8538   3.562   3.712  12.517  0.1740 -0.4522  0.5828
  576MPD2    C1 8539   3.561   3.841  12.463 -0.4238  0.8286  0.2032
  576MPD2    C2 8540   3.484   3.938  12.527 -0.0514 -0.0587 -0.1683
  576MPD2    C3 8541   3.404   3.904  12.638 -0.3213 -0.0707 -0.5406
  576MPD2    C4 8542   3.396   3.768  12.678 -0.0933 -0.1327  0.3159
  576MPD2    C5 8543   3.476   3.675  12.623  0.2919  0.1383  0.1894
  576MPD2     H 8544   3.497   4.041  12.497 -2.0482  0.5167  0.9250
  576MPD2    H1 8545   3.329   3.734  12.756  1.0390 -0.5544  1.1138
  576MPD2    H2 8546   3.637   3.641  12.486 -0.5426 -0.5839 -0.8513
  576MPD2    H3 8547   3.480   3.573  12.662 -0.5668 -0.1447 -0.4723
  576MPD2     N 8548   3.335   4.009  12.708 -0.0902 -0.0355 -0.4167
  576MPD2    H5 8549   3.356   4.100  12.668 -1.1572  1.0070  1.3595
  576MPD2    N1 8550   3.644   3.879  12.361 -0.6452  0.5760  0.5941
  576MPD2    H7 8551   3.628   3.971  12.322  2.6423  0.4635 -1.0320
  577TMC3    C1 8552   3.817   3.847  12.199  0.4922 -0.1807  0.5691
  577TMC3    C2 8553   3.952   3.836  12.186  0.2252  0.0516 -0.1043
  577TMC3    C3 8554   4.010   3.795  12.066 -0.2478 -0.6768 -0.0712
  577TMC3    C4 8555   3.735   3.814  12.094  0.0283 -0.1253 -0.0395
  577TMC3    C5 8556   3.797   3.743  11.995 -0.8058 -0.1321 -0.6139
  577TMC3    C6 8557   3.930   3.738  11.963  0.5553 -0.2819 -0.2215
  577TMC3     C 8558   3.761   3.814  12.329  0.3711 -0.1493  0.3399
  577TMC3     O 8559   3.828   3.729  12.393  0.4751 -0.1646 -0.2489
  577TMC3     H 8560   4.019   3.874  12.262  3.2982 -1.4155 -2.0641
  577TMC3    H1 8561   3.627   3.815  12.106 -0.0296  4.0798 -0.9807
  577TMC3    H2 8562   3.976   3.662  11.901 -0.6510 -0.8780 -0.3915
  577TMC3    C7 8563   3.705   3.683  11.897 -0.0502 -0.0796 -0.2051
  577TMC3    C8 8564   4.157   3.812  12.055 -0.3855  0.0733 -0.0590
  577TMC3    O1 8565   3.595   3.745  11.892 -0.2596 -0.6779 -0.1214
  577TMC3    O2 8566   4.217   3.808  12.160 -0.5844  0.5172  0.6044
  578MPD2     C 8567   0.742   4.437   1.239  0.3395  0.8494  0.5003
  578MPD2    C1 8568   0.824   4.358   1.167  0.6678  0.5933 -0.2972
  578MPD2    C2 8569   0.929   4.294   1.229  0.8055  0.1548  0.3161
  578MPD2    C3 8570   0.956   4.317   1.365  0.4663  0.5194  0.2822
  578MPD2    C4 8571   0.866   4.396   1.437  0.4178  0.6457 -0.5794
  578MPD2    C5 8572   0.763   4.462   1.371  0.9956  0.1906 -0.4936
  578MPD2     H 8573   0.998   4.233   1.172  0.2704  0.6715 -0.8837
  578MPD2    H1 8574   0.865   4.410   1.545 -2.3694 -0.0124 -0.5351
  578MPD2    H2 8575   0.660   4.490   1.192  0.4021 -0.0874 -0.6634
  578MPD2    H3 8576   0.689   4.519   1.427  1.1829  0.9975 -1.0783
  578MPD2     N 8577   1.068   4.250   1.422 -0.3904  0.4938 -0.0701
  578MPD2    H5 8578   1.129   4.194   1.362 -0.9555  0.6246 -0.7619
  578MPD2    N1 8579   0.805   4.358   1.028  0.1463  0.5664 -0.3416
  578MPD2    H7 8580   0.740   4.423   0.986  1.6740  0.7927 -2.3689
  579TMC3    C1 8581   1.221   4.191   1.590  1.2148 -0.3891 -0.4091
  579TMC3    C2 8582   1.275   4.217   1.713 -0.1548 -0.3637 -0.4500
  579TMC3    C3 8583   1.361   4.128   1.773 -0.0572  0.2480  0.0521
  579TMC3    C4 8584   1.243   4.070   1.530  0.1753  0.4251  0.8075
  579TMC3    C5 8585   1.325   3.980   1.599  0.0456  0.3278 -0.1761
  579TMC3    C6 8586   1.387   4.005   1.717  0.1421  0.5735  0.8968
  579TMC3     C 8587   1.113   4.281   1.545 -0.3764  0.2211  0.1623
  579TMC3     O 8588   1.078   4.374   1.617 -0.6702  0.1642  0.2541
  579TMC3     H 8589   1.264   4.315   1.758  1.1386 -0.2428 -0.4036
  579TMC3    H1 8590   1.196   4.048   1.435  1.1055  1.1575  0.1702
  579TMC3    H2 8591   1.447   3.933   1.773 -0.1620  0.1522  0.6755
  579TMC3    C7 8592   1.360   3.854   1.541  0.2621  0.1755 -0.3875
  579TMC3    C8 8593   1.424   4.171   1.895  0.1033 -0.8632 -0.0561
  579TMC3    O1 8594   1.385   3.769   1.624  0.2136 -0.3501  0.3289
  579TMC3    O2 8595   1.368   4.271   1.945  0.2397 -0.1084  0.5383
  580TMC3    C1 8596   1.486   2.389  11.362 -0.7735  0.1634 -0.2742
  580TMC3    C2 8597   1.559   2.355  11.250  0.2053 -0.3281 -0.2115
  580TMC3    C3 8598   1.581   2.219  11.220 -0.9429  0.7007  0.1577
  580TMC3    C4 8599   1.449   2.287  11.449 -0.6910 -0.5548  0.1384
  580TMC3    C5 8600   1.478   2.154  11.428 -0.7575  0.1845  0.1038
  580TMC3    C6 8601   1.556   2.118  11.317  0.0221  0.3361 -0.2078
  580TMC3     C 8602   1.478   2.527  11.410  0.0590  0.4812 -0.6505
  580TMC3     O 8603   1.369   2.557  11.454  0.2075  0.3209  0.2781
  580TMC3     H 8604   1.584   2.439  11.185  0.0760 -1.8814 -2.2483
  580TMC3    H1 8605   1.386   2.317  11.532 -1.1633 -0.5652 -0.2180
  580TMC3    H2 8606   1.574   2.015  11.291  2.4399  0.9058 -0.8070
  580TMC3    C7 8607   1.508   2.078  11.555 -0.3893 -0.4064  0.2746
  580TMC3    C8 8608   1.657   2.185  11.103  0.7183 -0.5763 -0.2292
  580TMC3    O1 8609   1.503   2.151  11.650  0.9500  0.0438 -0.1051
  580TMC3    O2 8610   1.639   2.080  11.045 -0.0561 -0.1412 -0.0676
  581MPD2     C 8611   3.656   2.733  15.530  0.3118  0.1402  0.3423
  581MPD2    C1 8612   3.788   2.753  15.497 -0.1449  0.1503 -0.2806
  581MPD2    C2 8613   3.819   2.850  15.401 -0.3334 -0.2625  0.3414
  581MPD2    C3 8614   3.716   2.930  15.351 -0.2370  0.0298 -0.7916
  581MPD2    C4 8615   3.587   2.914  15.398  0.3197 -0.3577  0.1756
  581MPD2    C5 8616   3.560   2.819  15.490  0.1179  0.3084 -0.3257
  581MPD2     H 8617   3.921   2.852  15.363 -0.1228  0.3205  0.9352
  581MPD2    H1 8618   3.502   2.967  15.357  0.6290  1.0936  1.4266
  581MPD2    H2 8619   3.642   2.656  15.604 -1.2218 -0.8065 -0.9419
  581MPD2    H3 8620   3.463   2.804  15.538  1.0367 -1.2799  1.0076
  581MPD2     N 8621   3.745   3.029  15.249  0.1271 -0.3704  0.0763
  581MPD2    H5 8622   3.826   3.015  15.190 -0.4427 -0.0688 -0.7851
  581MPD2    N1 8623   3.883   2.679  15.576 -0.6981  0.6807 -0.6688
  581MPD2    H7 8624   3.849   2.605  15.637 -1.3313  0.8516 -0.8058
  582TMC3    C1 8625   4.070   2.598  15.679  0.3768 -0.1290  0.2645
  582TMC3    C2 8626   4.127   2.675  15.776 -0.2715  0.4592 -0.3327
  582TMC3    C3 8627   4.085   2.639  15.901  0.1448 -1.0484 -0.5436
  582TMC3    C4 8628   3.987   2.494  15.706  0.9270 -0.6141 -0.1675
  582TMC3    C5 8629   3.955   2.459  15.836 -0.0805 -0.9795 -0.5860
  582TMC3    C6 8630   4.004   2.533  15.934  0.1229 -0.2957 -0.2558
  582TMC3     C 8631   4.023   2.684  15.580  0.4186 -0.0636 -0.0697
  582TMC3     O 8632   4.098   2.761  15.530 -0.1913 -0.5742 -0.3269
  582TMC3     H 8633   4.194   2.758  15.757 -0.1221  0.5344  0.5284
  582TMC3    H1 8634   3.934   2.449  15.623  0.6458  1.2652 -1.0120
  582TMC3    H2 8635   3.970   2.514  16.035 -2.4852  0.2760 -1.0256
  582TMC3    C7 8636   3.816   2.434  15.853  0.1513  0.2799  0.2791
  582TMC3    C8 8637   4.102   2.740  16.010 -0.7532 -0.2004  0.2062
  582TMC3    O1 8638   3.779   2.325  15.809  0.5462  0.4499  0.0106
  582TMC3    O2 8639   4.023   2.717  16.099  0.5417  0.0220  0.0788
  583MPD2     C 8640   3.688   4.631  16.833 -0.0635 -0.1838  0.6251
  583MPD2    C1 8641   3.739   0.018  16.756  0.7809  0.9793  0.2518
  583MPD2    C2 8642   3.693   0.144  16.793 -0.1892 -0.1477 -0.0929
  583MPD2    C3 8643   3.616   0.170  16.911  0.3006 -0.1329  0.1069
  583MPD2    C4 8644   3.553   0.059  16.972  0.3671  0.0921  0.1855
  583MPD2    C5 8645   3.599   4.657  16.931 -0.1746  0.2144 -0.6828
  583MPD2     H 8646   3.722   0.238  16.748 -2.2099  0.7026  0.3711
  583MPD2    H1 8647   3.486   0.052  17.058 -0.5650 -0.7501 -0.6047
  583MPD2    H2 8648   3.710   4.526  16.813 -1.2712 -0.5070  1.0082
  583MPD2    H3 8649   3.555   4.579  16.992  0.6968 -0.0866 -0.4307
  583MPD2     N 8650   3.602   0.302  16.971 -0.1293 -0.3666 -0.7621
  583MPD2    H5 8651   3.647   0.382  16.927  0.4732 -1.2031 -1.6539
  583MPD2    N1 8652   3.827   4.719  16.644 -0.4872  0.1409 -0.3941
  583MPD2    H7 8653   3.834   0.078  16.581  0.4001  0.8257  0.5726
  584TMC3    C1 8654   3.557   0.458  17.157 -0.0391 -0.5287 -0.9350
  584TMC3    C2 8655   3.594   0.567  17.082  0.6159 -0.4650  0.1381
  584TMC3    C3 8656   3.573   0.687  17.142 -0.6144  0.5170 -0.0846
  584TMC3    C4 8657   3.512   0.473  17.287  0.1799  0.8161 -0.5156
  584TMC3    C5 8658   3.494   0.596  17.341 -0.2274  0.2740  0.5449
  584TMC3    C6 8659   3.522   0.703  17.268 -0.6120 -0.4040  0.5262
  584TMC3     C 8660   3.541   0.322  17.097  0.4058  0.0296  0.2575
  584TMC3     O 8661   3.481   0.242  17.172 -0.1835 -0.3320  0.4649
  584TMC3     H 8662   3.613   0.555  16.976 -2.2055 -0.1256 -0.4126
  584TMC3    H1 8663   3.489   0.383  17.342 -1.1830  1.5086  0.0584
  584TMC3    H2 8664   3.500   0.799  17.314  0.1578  2.1449 -4.3372
  584TMC3    C7 8665   3.456   0.597  17.480 -0.3682 -0.3700  0.3381
  584TMC3    C8 8666   3.606   0.807  17.060 -0.0369  0.7490  0.5015
  584TMC3    O1 8667   3.477   0.497  17.547  0.2036  0.2452 -0.5102
  584TMC3    O2 8668   3.610   0.800  16.936  0.7262  0.1483  0.4838
  585MPD2     C 8669   3.467   3.967   0.736  0.8272 -0.1110  0.1064
  585MPD2    C1 8670   3.328   3.950   0.724 -0.7239 -0.6475 -0.6296
  585MPD2    C2 8671   3.278   3.922   0.599  0.6729  0.0180 -0.2305
  585MPD2    C3 8672   3.354   3.910   0.488  0.3255 -0.5130  0.6958
  585MPD2    C4 8673   3.490   3.930   0.502  0.4064  0.4839  0.1489
  585MPD2    C5 8674   3.553   3.963   0.626  0.5750  0.4950  0.8445
  585MPD2     H 8675   3.173   3.897   0.592  0.7896 -0.8434  1.2014
  585MPD2    H1 8676   3.563   3.915   0.423 -0.7753  1.4549 -1.1198
  585MPD2    H2 8677   3.511   3.993   0.832  0.6954 -1.8854  0.6417
  585MPD2    H3 8678   3.662   3.969   0.624  0.5968 -1.0068 -3.3775
  585MPD2     N 8679   3.301   3.901   0.356 -0.5660  0.4359 -0.1464
  585MPD2    H5 8680   3.373   3.903   0.285  0.8559 -1.5587  1.2427
  585MPD2    N1 8681   3.259   3.935   0.847  0.7393 -0.6981 -0.5273
  585MPD2    H7 8682   3.315   3.961   0.928 -0.5265  0.2188  0.0641
  586TMC3    C1 8683   3.153   3.919   0.175 -0.4564  0.4257 -0.2043
  586TMC3    C2 8684   3.250   3.900   0.087  0.3472  0.5909 -0.1905
  586TMC3    C3 8685   3.222   3.886  17.640  0.6009  0.2337  0.1066
  586TMC3    C4 8686   3.022   3.918   0.135  0.0349 -0.0736 -0.4896
  586TMC3    C5 8687   2.999   3.914  17.685  0.0151  0.4251 -1.4601
  586TMC3    C6 8688   3.093   3.900  17.592 -0.8476 -0.7226  0.2066
  586TMC3     C 8689   3.169   3.903   0.320 -0.0549 -0.1884 -0.0092
  586TMC3     O 8690   3.065   3.904   0.387  0.0392  0.6333 -0.0302
  586TMC3     H 8691   3.355   3.888   0.108  0.4826 -0.6329 -1.5819
  586TMC3    H1 8692   2.936   3.935   0.199 -0.2322 -1.0612 -0.5931
  586TMC3    H2 8693   3.082   3.898  17.484  0.6239  0.9137  0.0169
  586TMC3    C7 8694   2.856   3.910  17.640  0.2388 -0.0162 -0.1986
  586TMC3    C8 8695   3.317   3.814  17.557 -0.1557 -0.1974 -0.1795
  586TMC3    O1 8696   2.770   3.884   0.041  0.4314 -0.0539  0.4323
  586TMC3    O2 8697   3.359   3.713  17.616  0.2412  0.1511 -0.4024
  587TMC3    C1 8698   0.782   2.479  16.523  0.0920  0.7044 -0.1463
  587TMC3    C2 8699   0.802   2.581  16.613  0.2344  0.6068 -0.2536
  587TMC3    C3 8700   0.915   2.582  16.690  0.8350 -0.0829  0.5400
  587TMC3    C4 8701   0.872   2.368  16.522  0.0994 -0.2504  0.9347
  587TMC3    C5 8702   0.975   2.367  16.614  0.5402 -0.2098  0.0091
  587TMC3    C6 8703   1.002   2.475  16.689  0.2055 -0.6457 -0.4501
  587TMC3     C 8704   0.672   2.485  16.428  0.2195  0.0270  0.5919
  587TMC3     O 8705   0.705   2.437  16.319  0.1123  1.2663  0.7355
  587TMC3     H 8706   0.749   2.675  16.602 -0.2193  0.3674 -0.1221
  587TMC3    H1 8707   0.853   2.280  16.462 -0.1137  1.0371 -0.8775
  587TMC3    H2 8708   1.092   2.477  16.750 -0.5492  1.5548  0.5872
  587TMC3    C7 8709   1.074   2.262  16.605 -0.4450  0.4669 -0.0338
  587TMC3    C8 8710   0.906   2.665  16.808  0.0064 -0.6713 -0.1283
  587TMC3    O1 8711   1.192   2.295  16.620 -0.1776 -0.9563 -0.5212
  587TMC3    O2 8712   1.001   2.652  16.883  0.0717 -0.1431 -0.8946
  588TMC3    C1 8713   2.735   4.611   9.565 -0.0183  0.3747 -0.2698
  588TMC3    C2 8714   2.727   4.480   9.546 -0.1437  0.0666  0.5829
  588TMC3    C3 8715   2.817   4.401   9.614 -0.0913  0.0303 -0.0731
  588TMC3    C4 8716   2.823   4.667   9.652  0.3498  0.3886 -0.3161
  588TMC3    C5 8717   2.920   4.591   9.707  0.0861 -0.9002 -0.1305
  588TMC3    C6 8718   2.922   4.452   9.688  1.0353 -0.6655 -0.1868
  588TMC3     C 8719   2.665   4.697   9.471 -0.2357 -0.1871 -0.5989
  588TMC3     O 8720   2.555   4.657   9.437 -0.0610  0.9146 -0.2794
  588TMC3     H 8721   2.658   4.445   9.470  1.1252  1.1196 -1.0485
  588TMC3    H1 8722   2.794   0.048   9.675  3.9846  1.6611 -1.3425
  588TMC3    H2 8723   2.983   4.388   9.752  0.8283 -0.5355  0.1429
  588TMC3    C7 8724   3.029   4.653   9.779  0.2390  0.3875  0.6143
  588TMC3    C8 8725   2.800   4.255   9.608  0.1987 -0.3477 -0.3735
  588TMC3    O1 8726   3.116   4.576   9.821  0.3977  0.8765  0.5140
  588TMC3    O2 8727   2.689   4.211   9.582  0.4655  0.7652 -0.4589
  589TMC3    C1 8728   2.547   2.449   1.399  0.6253  0.4381  0.1905
  589TMC3    C2 8729   2.547   2.562   1.477  0.7208  0.7298 -0.3094
  589TMC3    C3 8730   2.656   2.589   1.545 -0.4520 -0.7619 -0.3507
  589TMC3    C4 8731   2.643   2.356   1.401 -0.4766  1.1228  0.3619
  589TMC3    C5 8732   2.758   2.389   1.473  0.1198 -0.2303 -0.6173
  589TMC3    C6 8733   2.762   2.501   1.550  0.7616  0.0866  1.1357
  589TMC3     C 8734   2.431   2.415   1.326 -0.1102  0.5915 -0.7303
  589TMC3     O 8735   2.442   2.315   1.248 -0.0574 -0.4836 -0.1209
  589TMC3     H 8736   2.470   2.637   1.467 -0.1077 -0.0172  0.4946
  589TMC3    H1 8737   2.643   2.276   1.328 -1.4618  1.0800  0.4037
  589TMC3    H2 8738   2.849   2.524   1.610  0.0938 -0.9589  2.4935
  589TMC3    C7 8739   2.864   2.283   1.500 -0.3908  0.2688  0.3215
  589TMC3    C8 8740   2.692   2.728   1.564  0.0944 -0.6459 -0.6098
  589TMC3    O1 8741   2.844   2.175   1.452  0.0423 -0.5627  0.3330
  589TMC3    O2 8742   2.593   2.807   1.570 -0.3549 -0.1796 -0.1248
  590MPD2     C 8743   1.701   0.634  16.875  0.1081  0.1249  0.2780
  590MPD2    C1 8744   1.625   0.705  16.784 -0.6946 -0.4748  0.5163
  590MPD2    C2 8745   1.688   0.779  16.684 -0.5167  0.1603  0.3236
  590MPD2    C3 8746   1.833   0.780  16.681 -0.5938  0.1721 -1.1658
  590MPD2    C4 8747   1.908   0.717  16.786 -0.0949 -0.1686  1.0243
  590MPD2    C5 8748   1.841   0.638  16.876  0.0834  0.3593 -0.1081
  590MPD2     H 8749   1.632   0.819  16.600 -0.6769 -0.1439  0.2842
  590MPD2    H1 8750   2.016   0.713  16.793 -0.0235  1.4076  0.8403
  590MPD2    H2 8751   1.654   0.587  16.961  0.8176  1.1503  1.2302
  590MPD2    H3 8752   1.895   0.581  16.951 -0.0888  1.9996  1.2658
  590MPD2     N 8753   1.894   0.869  16.593 -0.2387  0.8496 -0.2485
  590MPD2    H5 8754   1.835   0.921  16.529 -0.7117  0.4261 -0.1584
  590MPD2    N1 8755   1.482   0.700  16.782 -0.2533 -0.7900 -0.2458
  590MPD2    H7 8756   1.447   0.748  16.700  1.1880  1.8737  0.6791
  591TMC3    C1 8757   2.067   1.009  16.505  0.1750 -0.5376  0.3651
  591TMC3    C2 8758   2.173   0.999  16.426  0.0709  0.8720  1.0708
  591TMC3    C3 8759   2.191   1.081  16.323 -0.3560 -0.5673  0.0205
  591TMC3    C4 8760   1.973   1.111  16.492  0.0703  0.1198 -0.4396
  591TMC3    C5 8761   2.005   1.201  16.396  0.4683  0.3243 -0.1380
  591TMC3    C6 8762   2.105   1.184  16.307  0.4129  0.7165 -0.4710
  591TMC3     C 8763   2.034   0.889  16.577 -0.7897  0.0386  0.5606
  591TMC3     O 8764   2.124   0.826  16.625  0.5078  0.4512 -0.5219
  591TMC3     H 8765   2.246   0.921  16.443 -1.1897 -0.1336  1.8584
  591TMC3    H1 8766   1.888   1.125  16.558 -0.2207 -1.0519 -0.5499
  591TMC3    H2 8767   2.115   1.242  16.215  2.3482 -0.3483 -0.9385
  591TMC3    C7 8768   1.889   1.285  16.353 -0.3683 -1.0166 -1.1412
  591TMC3    C8 8769   2.253   1.037  16.200  0.4326  0.2636  0.1949
  591TMC3    O1 8770   1.775   1.243  16.368 -0.0207 -0.4289  0.7554
  591TMC3    O2 8771   2.240   0.921  16.168 -0.2771  0.2535  0.2124
  592MPD2     C 8772   3.024   2.683  11.252  0.5575  0.3987  0.1966
  592MPD2    C1 8773   3.053   2.705  11.386 -0.0403 -0.2358 -0.6601
  592MPD2    C2 8774   2.993   2.627  11.485 -0.3669  0.3126 -0.2170
  592MPD2    C3 8775   2.897   2.533  11.447 -0.7285 -0.2222 -0.7962
  592MPD2    C4 8776   2.859   2.517  11.314  0.4489 -0.0177 -0.3096
  592MPD2    C5 8777   2.936   2.584  11.218  0.2331  0.0167 -0.0771
  592MPD2     H 8778   3.017   2.638  11.590  0.2675 -0.7582 -0.2409
  592MPD2    H1 8779   2.782   2.450  11.279  1.3094 -0.3068 -1.6379
  592MPD2    H2 8780   3.078   2.736  11.175 -1.5103  0.4249 -1.2095
  592MPD2    H3 8781   2.913   2.560  11.115 -1.8515  0.5477  0.2593
  592MPD2     N 8782   2.829   2.459  11.551 -0.0972  0.4508 -0.2886
  592MPD2    H5 8783   2.858   2.476  11.646  1.6428 -2.2144 -0.3403
  592MPD2    N1 8784   3.141   2.809  11.413  0.3445  0.1771 -0.4491
  592MPD2    H7 8785   3.200   2.851  11.342  1.8216 -1.9746 -0.4946
  593TMC3    C1 8786   3.242   2.978  11.540 -0.3675  0.2720 -0.6191
  593TMC3    C2 8787   3.233   3.075  11.628 -0.9106 -0.5293  0.0586
  593TMC3    C3 8788   3.345   3.157  11.641 -0.0153  0.1037  0.4040
  593TMC3    C4 8789   3.349   2.971  11.451 -0.3053  0.0890 -0.4779
  593TMC3    C5 8790   3.463   3.042  11.475 -0.1569  0.1243 -0.1105
  593TMC3    C6 8791   3.459   3.138  11.575  0.4083 -0.3502  0.2814
  593TMC3     C 8792   3.144   2.879  11.534 -0.7578 -0.0796 -0.2946
  593TMC3     O 8793   3.058   2.865  11.621  0.6912  0.0439 -0.0061
  593TMC3     H 8794   3.145   3.086  11.690 -0.5294 -0.5113  0.6002
  593TMC3    H1 8795   3.359   2.900  11.370  1.5142  1.5056 -1.5093
  593TMC3    H2 8796   3.533   3.216  11.560 -1.5265  1.0815 -1.6669
  593TMC3    C7 8797   3.549   3.069  11.364 -0.0301 -0.3666 -0.9222
  593TMC3    C8 8798   3.339   3.243  11.760  0.0079  0.8673 -0.5527
  593TMC3    O1 8799   3.483   3.089  11.260 -0.3065  0.4405 -0.3811
  593TMC3    O2 8800   3.229   3.276  11.808  0.6631 -0.5053 -0.1739
  594MPD2     C 8801   1.397   1.601  14.014  0.2215 -0.0341 -0.3000
  594MPD2    C1 8802   1.357   1.606  14.141 -0.3543 -0.6628  0.0068
  594MPD2    C2 8803   1.406   1.703  14.224  0.2717 -0.4497 -0.6998
  594MPD2    C3 8804   1.520   1.778  14.186 -0.6065 -0.6528 -0.1577
  594MPD2    C4 8805   1.582   1.746  14.065 -0.0547 -0.4080  0.0570
  594MPD2    C5 8806   1.522   1.657  13.985  0.2039 -0.2204 -0.0516
  594MPD2     H 8807   1.345   1.712  14.313  0.7696 -0.6129 -0.3433
  594MPD2    H1 8808   1.678   1.781  14.030  0.3690 -1.6501 -0.0225
  594MPD2    H2 8809   1.352   1.534  13.942  0.8112  1.1768 -1.7863
  594MPD2    H3 8810   1.561   1.645  13.885  2.2061 -0.0339  0.7001
  594MPD2     N 8811   1.560   1.885  14.274 -0.1129  0.3334 -0.8441
  594MPD2    H5 8812   1.506   1.900  14.358  1.3100  0.5779  0.0110
  594MPD2    N1 8813   1.234   1.547  14.173 -0.3412 -0.1750  0.5201
  594MPD2    H7 8814   1.179   1.498  14.102 -2.5524  0.8681  1.5182
  595TMC3    C1 8815   1.817   2.177  14.516  0.1383  0.2028 -0.3287
  595TMC3    C2 8816   1.805   2.082  14.415 -0.0988  0.2119 -0.0900
  595TMC3    C3 8817   1.681   2.048  14.371 -0.3977 -0.2936  0.3254
  595TMC3    C4 8818   1.705   2.237  14.569 -0.1537  0.5895 -0.0848
  595TMC3    C5 8819   1.587   2.209  14.520 -0.3700  1.1011  0.2238
  595TMC3    C6 8820   1.569   2.108  14.426 -0.1402 -0.2758  0.6742
  595TMC3     C 8821   1.939   2.192  14.584  0.2201  0.3886 -0.6016
  595TMC3     O 8822   1.934   2.256  14.692 -0.8104 -0.4006 -0.1980
  595TMC3     H 8823   1.893   2.039  14.369 -1.1536 -0.6075 -1.3193
  595TMC3    H1 8824   1.716   2.309  14.649  1.5303 -1.3064  1.3984
  595TMC3    H2 8825   1.468   2.088  14.392  0.1320 -0.1011 -0.2678
  595TMC3    C7 8826   1.475   2.223  14.614  0.2842  0.2897 -1.1518
  595TMC3    C8 8827   1.669   1.967  14.255  0.1125  0.6369 -0.7668
  595TMC3    O1 8828   1.368   2.218  14.559 -0.0036 -0.2352 -0.0739
  595TMC3    O2 8829   1.758   1.941  14.175 -0.4942 -0.4726  0.0736
  596MPD2     C 8830   0.065   0.071  16.658  0.2234 -0.7750 -0.0765
  596MPD2    C1 8831   0.051   0.175  16.570 -0.1667 -0.2034  0.4870
  596MPD2    C2 8832   0.046   0.131  16.439  0.8535  0.4215 -0.1901
  596MPD2    C3 8833   0.062   0.001  16.393 -0.0584  0.2962  0.0346
  596MPD2    C4 8834   0.074   4.620  16.480 -0.4476  0.1596  0.1894
  596MPD2    C5 8835   0.077   4.661  16.612  0.5736  0.2648  0.1014
  596MPD2     H 8836   0.032   0.212  16.368 -0.7543  0.0956 -0.2363
  596MPD2    H1 8837   0.085   4.519  16.443 -2.4369  0.4025 -1.1269
  596MPD2    H2 8838   0.047   0.080  16.765 -0.9358  4.4971 -0.6995
  596MPD2    H3 8839   0.074   4.586  16.690  0.0107  1.4421  1.2205
  596MPD2     N 8840   0.033   4.679  16.263  0.4933  0.5707 -0.3139
  596MPD2    H5 8841   0.003   4.583  16.249  1.5437 -0.3765  3.8859
  596MPD2    N1 8842   0.025   0.312  16.599 -0.9207  0.1256  0.2891
  596MPD2    H7 8843   0.011   0.375  16.520  1.1422 -1.1074 -1.0568
  597TMC3    C1 8844   4.625   0.486  16.707 -0.5185 -0.6341  0.2015
  597TMC3    C2 8845   4.614   0.565  16.594 -0.4610  0.7459 -0.3712
  597TMC3    C3 8846   4.522   0.662  16.580  0.2577 -0.1835 -0.4004
  597TMC3    C4 8847   4.526   0.499  16.803 -0.0349 -0.0794  0.1923
  597TMC3    C5 8848   4.426   0.594  16.788  0.7584  0.1719  0.1283
  597TMC3    C6 8849   4.424   0.678  16.677 -0.3054 -0.1555 -0.4816
  597TMC3     C 8850   4.702   0.364  16.715  0.1623  0.3922  1.0024
  597TMC3     O 8851   4.697   0.309  16.829  0.5361 -0.0397 -1.0448
  597TMC3     H 8852   4.703   0.570  16.533 -0.3687  0.3226 -0.2672
  597TMC3    H1 8853   4.524   0.442  16.895  1.7640  1.7212  1.3724
  597TMC3    H2 8854   4.347   0.751  16.656 -1.3359 -1.3954 -0.9609
  597TMC3    C7 8855   4.356   0.627  16.911  0.0535  1.2911  0.1473
  597TMC3    C8 8856   4.530   0.757  16.472 -0.0289 -0.7775  0.3343
  597TMC3    O1 8857   4.358   0.550  17.005 -0.0133 -0.0485 -0.6131
  597TMC3    O2 8858   4.446   0.844  16.469  0.5694 -0.0560  0.0264
  598TMC3    C1 8859   2.918   1.418  15.628 -0.4554 -0.6973  0.9028
  598TMC3    C2 8860   2.805   1.354  15.575 -0.2692 -0.2014 -0.0578
  598TMC3    C3 8861   2.793   1.354  15.439 -0.3618 -0.2263  0.1712
  598TMC3    C4 8862   3.014   1.471  15.551 -0.6117  1.2700 -0.2222
  598TMC3    C5 8863   2.995   1.474  15.418  0.5501  0.3034 -0.3502
  598TMC3    C6 8864   2.886   1.415  15.364 -0.1523  0.5749  0.1868
  598TMC3     C 8865   2.941   1.433  15.771  0.3703  0.1766  0.2435
  598TMC3     O 8866   3.029   1.508  15.804 -0.4965  0.0530  0.4158
  598TMC3     H 8867   2.727   1.318  15.641  0.3598  0.0748  0.8278
  598TMC3    H1 8868   3.091   1.533  15.593 -1.2199  2.1776 -0.4486
  598TMC3    H2 8869   2.867   1.417  15.257 -3.0580  1.8055  0.7262
  598TMC3    C7 8870   3.103   1.519  15.326  0.4003 -0.1235  0.2973
  598TMC3    C8 8871   2.660   1.349  15.391  0.8348  0.3450 -0.3918
  598TMC3    O1 8872   3.106   1.463  15.217  0.6259  0.5668 -0.3904
  598TMC3    O2 8873   2.650   1.393  15.278 -0.2260  0.1755 -0.1515
  599MPD2     C 8874   3.106   3.938  16.459 -0.1990  0.3325 -0.2216
  599MPD2    C1 8875   3.038   3.826  16.423 -0.2746 -0.5124  0.2247
  599MPD2    C2 8876   2.901   3.825  16.414  0.1672  0.7682 -0.5906
  599MPD2    C3 8877   2.828   3.944  16.437 -0.2376  0.9343 -0.2720
  599MPD2    C4 8878   2.898   4.052  16.469  0.7991  0.4286  0.1231
  599MPD2    C5 8879   3.032   4.048  16.488 -0.2439 -0.3801 -0.4273
  599MPD2     H 8880   2.848   3.731  16.403  1.1127  0.1988 -0.3239
  599MPD2    H1 8881   2.851   4.139  16.515  1.8080  0.8524  0.3510
  599MPD2    H2 8882   3.210   3.936  16.492  0.2773  0.2692 -1.7289
  599MPD2    H3 8883   3.086   4.136  16.520  1.5673 -2.1955  1.5405
  599MPD2     N 8884   2.684   3.947  16.443 -0.0421  0.1806  0.0839
  599MPD2    H5 8885   2.652   4.040  16.469 -0.9060  0.2088 -1.0743
  599MPD2    N1 8886   3.117   3.712  16.411 -0.2603 -0.0311 -0.0147
  599MPD2    H7 8887   3.217   3.728  16.420  0.0695 -1.2666 -1.4264
  600TMC3    C1 8888   2.459   3.872  16.472 -0.4093  0.5876  0.1146
  600TMC3    C2 8889   2.381   3.781  16.541 -0.0462 -0.7383  0.0387
  600TMC3    C3 8890   2.255   3.805  16.571  0.2013 -0.8828 -0.6553
  600TMC3    C4 8891   2.411   3.985  16.420 -0.3042 -0.1369 -0.3291
  600TMC3    C5 8892   2.277   4.010  16.449 -0.4359  0.1173  0.2007
  600TMC3    C6 8893   2.198   3.924  16.521 -0.3910  0.4849  0.0030
  600TMC3     C 8894   2.596   3.837  16.441  0.1816  0.0903  0.0301
  600TMC3     O 8895   2.609   3.715  16.433 -0.8709  0.2309 -0.3295
  600TMC3     H 8896   2.421   3.685  16.574  3.6502  0.9281  0.3935
  600TMC3    H1 8897   2.473   4.060  16.373  0.3743  0.5402  1.6435
  600TMC3    H2 8898   2.093   3.942  16.539 -0.6888 -0.3171 -0.9085
  600TMC3    C7 8899   2.223   4.141  16.418  0.4561  0.0218 -0.3816
  600TMC3    C8 8900   2.175   3.713  16.663 -0.5434 -0.1930  0.0805
  600TMC3    O1 8901   2.111   4.166  16.462 -0.2447 -0.0879 -0.4155
  600TMC3    O2 8902   2.248   3.649  16.742 -0.1976  0.0443  0.1034
  601MPD2     C 8903   0.136   2.084   0.441 -0.0257 -0.3208  0.3366
  601MPD2    C1 8904   0.005   2.065   0.454  0.5803  0.1405 -0.2061
  601MPD2    C2 8905   4.664   1.945   0.445  0.5832  0.4845 -0.1382
  601MPD2    C3 8906   0.019   1.838   0.406  0.2810  0.0169  0.1600
  601MPD2    C4 8907   0.153   1.859   0.399  0.9334 -0.0462 -0.0836
  601MPD2    C5 8908   0.217   1.979   0.420  0.1295  0.0127 -0.3600
  601MPD2     H 8909   4.556   1.938   0.454  0.5263  0.8404 -0.5713
  601MPD2    H1 8910   0.220   1.779   0.368  1.2072  0.9532 -2.1215
  601MPD2    H2 8911   0.195   2.173   0.458  1.5412 -1.2035 -0.4792
  601MPD2    H3 8912   0.325   1.984   0.409  0.2520  0.6023  1.0572
  601MPD2     N 8913   4.687   1.711   0.373 -0.2695 -0.3944 -0.4158
  601MPD2    H5 8914   0.026   1.633   0.346 -1.4459 -1.3523 -0.2471
  601MPD2    N1 8915   4.628   2.163   0.487  0.1529 -0.4540 -0.4811
  601MPD2    H7 8916   4.530   2.136   0.481 -0.7336  2.2220  2.0316
  602TMC3    C1 8917   4.536   2.381   0.528 -0.7096 -0.5280 -0.0812
  602TMC3    C2 8918   4.526   2.503   0.458 -0.5081  0.4600 -0.5237
  602TMC3    C3 8919   4.402   2.551   0.425 -0.0793 -0.8278  0.5013
  602TMC3    C4 8920   4.422   2.306   0.553 -0.0230 -0.4056 -0.2531
  602TMC3    C5 8921   4.296   2.354   0.516  0.4269 -0.1674  0.3965
  602TMC3    C6 8922   4.288   2.482   0.460  0.1730  0.8711 -0.0583
  602TMC3     C 8923   4.652   2.300   0.489 -0.5372  0.3350  0.9675
  602TMC3     O 8924   0.035   2.361   0.472 -0.0638 -0.4726 -0.1451
  602TMC3     H 8925   4.610   2.551   0.410 -0.1681  1.5610  1.1939
  602TMC3    H1 8926   4.434   2.207   0.596  1.0555 -0.1390  0.0826
  602TMC3    H2 8927   4.189   2.526   0.461 -0.5709 -0.7533 -0.5454
  602TMC3    C7 8928   4.214   2.262   0.443 -0.0080  0.1771  0.2240
  602TMC3    C8 8929   4.381   2.676   0.348 -0.2917 -0.0201 -0.4074
  602TMC3    O1 8930   4.248   2.145   0.434  0.6218 -0.0570 -0.8292
  602TMC3    O2 8931   4.479   2.748   0.314  0.2358 -0.0521 -0.1581
  603TMC3    C1 8932   3.660   1.846  10.872 -0.1225  0.4603 -0.7860
  603TMC3    C2 8933   3.702   1.828  11.000  0.7542 -0.4138  0.4030
  603TMC3    C3 8934   3.769   1.935  11.060  0.0620 -0.2127 -0.2213
  603TMC3    C4 8935   3.674   1.966  10.808 -0.2528  0.5771 -0.5835
  603TMC3    C5 8936   3.733   2.068  10.872  0.2752 -0.0910 -0.5000
  603TMC3    C6 8937   3.790   2.052  10.998 -0.5376 -0.1932  0.5094
  603TMC3     C 8938   3.588   1.744  10.807  0.3797 -0.5384 -0.0757
  603TMC3     O 8939   3.504   1.776  10.725 -0.1821 -0.1235  0.7794
  603TMC3     H 8940   3.687   1.739  11.060 -1.6872  1.4560  2.5722
  603TMC3    H1 8941   3.646   1.967  10.703  0.0585 -1.7860 -0.7019
  603TMC3    H2 8942   3.813   2.134  11.065  0.6050 -0.0437 -0.0676
  603TMC3    C7 8943   3.723   2.203  10.829 -0.2231 -0.4838  1.3212
  603TMC3    C8 8944   3.815   1.916  11.195  0.6715  0.3436  0.2600
  603TMC3    O1 8945   3.774   2.289  10.895  0.1966 -0.1808  0.5486
  603TMC3    O2 8946   3.779   1.812  11.247  0.0241  0.3047 -0.4491
  604MPD2     C 8947   3.828   1.389  16.518 -0.0593 -0.2497 -0.3109
  604MPD2    C1 8948   3.708   1.326  16.518  0.1872  0.4847 -0.5815
  604MPD2    C2 8949   3.666   1.252  16.408 -0.0608 -0.0708  0.0571
  604MPD2    C3 8950   3.752   1.239  16.305 -0.4797 -0.4270  0.5589
  604MPD2    C4 8951   3.872   1.301  16.310  0.1923  0.1762 -0.1070
  604MPD2    C5 8952   3.917   1.363  16.423  0.0829  0.0808 -0.1485
  604MPD2     H 8953   3.564   1.217  16.393 -0.2524  0.8062 -0.7150
  604MPD2    H1 8954   3.940   1.300  16.225  1.0987 -1.4673  0.6260
  604MPD2    H2 8955   3.871   1.443  16.602  1.2543 -1.7830 -0.0034
  604MPD2    H3 8956   4.011   1.415  16.431  0.4771 -0.8041  0.8816
  604MPD2     N 8957   3.699   1.170  16.188 -0.1056 -0.0886 -0.1976
  604MPD2    H5 8958   3.606   1.131  16.197  0.5216 -1.4694  0.3814
  604MPD2    N1 8959   3.627   1.360  16.625  0.3527 -0.4620  0.1593
  604MPD2    H7 8960   3.662   1.428  16.692 -0.1554  0.5207 -0.5760
  605TMC3    C1 8961   3.450   1.364  16.778 -0.3223  0.3641  0.2745
  605TMC3    C2 8962   3.544   1.413  16.863  0.4170  0.0644 -0.1753
  605TMC3    C3 8963   3.538   1.543  16.901  0.2096  0.3107 -0.1865
  605TMC3    C4 8964   3.327   1.418  16.774  0.4047  0.1137 -0.5400
  605TMC3    C5 8965   3.317   1.546  16.824  0.4121 -0.0064 -0.4591
  605TMC3    C6 8966   3.429   1.615  16.877 -0.9320 -0.7945 -0.4000
  605TMC3     C 8967   3.506   1.299  16.657 -0.8160 -0.6508 -0.2004
  605TMC3     O 8968   3.453   1.193  16.633 -0.0642 -0.4849 -0.2156
  605TMC3     H 8969   3.633   1.362  16.898  0.5425  0.3397 -0.0983
  605TMC3    H1 8970   3.261   1.387  16.694 -1.1458 -1.0269  1.1613
  605TMC3    H2 8971   3.419   1.714  16.920  0.1626 -0.4690 -0.8902
  605TMC3    C7 8972   3.190   1.617  16.826 -0.2547  0.0133  0.1483
  605TMC3    C8 8973   3.660   1.609  16.935 -0.3067 -0.3294  0.4073
  605TMC3    O1 8974   3.189   1.735  16.848  0.4768 -0.1556 -0.0854
  605TMC3    O2 8975   3.753   1.556  16.876 -0.1975  0.0701 -0.1630
  606TMC3    C1 8976   4.612   0.026  17.144  0.1456 -0.1514 -0.4595
  606TMC3    C2 8977   4.510   0.083  17.203 -0.4530 -0.2146 -0.6254
  606TMC3    C3 8978   4.398   0.001  17.228  0.0379  0.3253  0.8674
  606TMC3    C4 8979   4.619   4.620  17.097  0.3250  0.1958 -0.3232
  606TMC3    C5 8980   4.512   4.544  17.127  0.8142  0.2814  0.1782
  606TMC3    C6 8981   4.393   4.597  17.180 -0.5141  0.6126  0.0565
  606TMC3     C 8982   0.018   0.086  17.182 -0.2389  0.8092  0.0520
  606TMC3     O 8983   0.098   0.075  17.091  0.3130 -0.4316  0.6974
  606TMC3     H 8984   4.516   0.184  17.240  1.6894 -1.4093  2.2713
  606TMC3    H1 8985   4.713   4.573  17.069  1.0421  0.8377  0.9975
  606TMC3    H2 8986   4.303   4.539  17.191 -1.5159  1.8134 -1.8604
  606TMC3    C7 8987   4.536   4.400  17.149  0.6168 -0.5701 -0.6607
  606TMC3    C8 8988   4.286   0.065  17.290 -0.5813  0.8793  0.1561
  606TMC3    O1 8989   4.654   4.366  17.142 -0.0951  0.2730  0.2732
  606TMC3    O2 8990   4.250   0.175  17.253  0.1677 -0.3863  0.1413
  607MPD2     C 8991   2.953   2.041  11.484  0.2736 -0.0120  0.2464
  607MPD2    C1 8992   3.011   2.126  11.571  0.3533  0.1089 -0.7504
  607MPD2    C2 8993   3.003   2.106  11.705 -0.2527 -0.2624 -0.3266
  607MPD2    C3 8994   2.926   2.012  11.762  0.1390 -0.5553  0.2367
  607MPD2    C4 8995   2.864   1.925  11.670  0.3317  0.3745  0.0571
  607MPD2    C5 8996   2.876   1.937  11.536  0.3554  0.0109 -0.0041
  607MPD2     H 8997   3.065   2.170  11.767 -0.4918 -0.5808  0.2424
  607MPD2    H1 8998   2.805   1.838  11.700  0.3776  0.2994 -0.0739
  607MPD2    H2 8999   2.963   2.053  11.376 -2.1384 -2.7621 -0.2879
  607MPD2    H3 9000   2.828   1.866  11.470 -1.3798  1.0558  0.1430
  607MPD2     N 9001   2.927   2.005  11.905 -0.9473 -0.1970  0.4585
  607MPD2    H5 9002   2.954   2.089  11.955 -2.4592  0.4656  0.1716
  607MPD2    N1 9003   3.096   2.230  11.537  0.0099  0.2665  0.2352
  607MPD2    H7 9004   3.119   2.293  11.613  1.1894  1.1527 -0.8504
  608TMC3    C1 9005   3.252   2.367  11.414  0.9280  1.0706 -0.4495
  608TMC3    C2 9006   3.288   2.417  11.534  0.4266 -0.5289  0.0012
  608TMC3    C3 9007   3.360   2.533  11.538 -0.3122 -0.3856 -0.3959
  608TMC3    C4 9008   3.289   2.432  11.296  0.3457  0.6023  0.3749
  608TMC3    C5 9009   3.365   2.551  11.306 -0.4786  0.3170  0.2814
  608TMC3    C6 9010   3.401   2.602  11.429 -0.0711  0.4586  0.2369
  608TMC3     C 9011   3.149   2.254  11.413  0.1298  0.0170  0.1492
  608TMC3     O 9012   3.117   2.211  11.303 -0.0894 -0.0645  0.0929
  608TMC3     H 9013   3.258   2.370  11.628 -0.4389 -3.5337 -1.7760
  608TMC3    H1 9014   3.254   2.405  11.197  0.7312  1.3993  0.0110
  608TMC3    H2 9015   3.436   2.705  11.435 -0.0103  0.3413  2.0816
  608TMC3    C7 9016   3.408   2.618  11.187  1.3155  0.2656  0.7288
  608TMC3    C8 9017   3.393   2.597  11.667  0.0202 -0.1474 -0.2497
  608TMC3    O1 9018   3.340   2.590  11.092 -0.1587 -0.3623  0.3249
  608TMC3    O2 9019   3.442   2.712  11.671  0.4809  0.3604 -0.1239
  609TMC3    C1 9020   1.995   0.858   9.358  0.4223 -0.3800  0.2039
  609TMC3    C2 9021   1.971   0.726   9.345  0.5033 -0.5525  0.4956
  609TMC3    C3 9022   2.048   0.639   9.412 -0.4998  0.2582  0.6629
  609TMC3    C4 9023   2.096   0.895   9.445  0.0134  0.3631  0.5376
  609TMC3    C5 9024   2.163   0.807   9.520 -0.8562 -0.7126 -0.0189
  609TMC3    C6 9025   2.143   0.673   9.507 -0.3395 -0.8897  0.2577
  609TMC3     C 9026   1.875   0.940   9.363  0.0079  0.0046 -0.1820
  609TMC3     O 9027   1.828   0.956   9.475 -0.0616  0.5767 -0.3271
  609TMC3     H 9028   1.889   0.697   9.281  0.2735 -0.3372  0.6915
  609TMC3    H1 9029   2.097   1.000   9.470 -0.2639  0.5788 -0.3843
  609TMC3    H2 9030   2.180   0.602   9.580 -4.1516 -1.4479  1.6425
  609TMC3    C7 9031   2.269   0.870   9.607  0.3990 -0.2041  0.1988
  609TMC3    C8 9032   2.001   0.503   9.416 -0.3393 -0.4393  0.1285
  609TMC3    O1 9033   2.262   0.989   9.631 -0.3531 -1.0990 -0.5316
  609TMC3    O2 9034   1.881   0.479   9.396  0.4235 -0.2265 -0.5991
  610TMC3    C1 9035   3.452   1.706  12.637 -0.1417  0.4550  0.6131
  610TMC3    C2 9036   3.496   1.790  12.543 -0.6761 -0.7158 -0.4230
  610TMC3    C3 9037   3.628   1.781  12.524 -0.4700  0.0832 -0.4835
  610TMC3    C4 9038   3.535   1.618  12.709  0.8598  1.0902  0.3075
  610TMC3    C5 9039   3.667   1.615  12.677 -1.1252  0.6105  0.2466
  610TMC3    C6 9040   3.718   1.702  12.584 -0.2619  0.6644  0.5944
  610TMC3     C 9041   3.311   1.695  12.669 -0.5197  0.2404 -0.2927
  610TMC3     O 9042   3.283   1.600  12.739  0.3422 -0.0980  0.1052
  610TMC3     H 9043   3.428   1.864  12.501  0.0226 -0.7497 -1.6230
  610TMC3    H1 9044   3.506   1.579  12.805 -0.2747  1.5498  0.1485
  610TMC3    H2 9045   3.822   1.717  12.557 -0.3438 -1.4129 -0.8967
  610TMC3    C7 9046   3.763   1.558  12.767 -0.7970  0.3556 -0.2082
  610TMC3    C8 9047   3.695   1.869  12.426  0.5059  0.0944  0.2230
  610TMC3    O1 9048   3.870   1.517  12.731  0.3636  0.0686  0.4144
  610TMC3    O2 9049   3.806   1.827  12.388 -0.0350  0.0900  0.0183
  611MPD2     C 9050   2.835   1.794  10.230 -0.2045  0.0770  0.3356
  611MPD2    C1 9051   2.762   1.900  10.201  0.2187 -0.2076  0.1995
  611MPD2    C2 9052   2.831   2.025  10.178 -0.5853 -0.4152  0.4451
  611MPD2    C3 9053   2.968   2.032  10.189  0.4954 -0.0280 -0.1366
  611MPD2    C4 9054   3.040   1.918  10.223  0.0557 -0.1398  0.2035
  611MPD2    C5 9055   2.968   1.803  10.242  0.2320  0.3011 -0.4703
  611MPD2     H 9056   2.774   2.111  10.145  2.7046  2.3910  2.0323
  611MPD2    H1 9057   3.148   1.911  10.231 -0.0340 -1.5879  0.1008
  611MPD2    H2 9058   2.794   1.694  10.240  0.1917 -0.1955 -0.7499
  611MPD2    H3 9059   3.025   1.714  10.268 -2.1286 -0.2937  2.7514
  611MPD2     N 9060   3.036   2.152  10.178 -0.1489 -0.3929 -0.0080
  611MPD2    H5 9061   3.124   2.166  10.227 -0.1973  1.4163 -0.4275
  611MPD2    N1 9062   2.619   1.889  10.200 -0.8554  1.3968  0.2150
  611MPD2    H7 9063   2.585   1.799  10.232  0.4681  0.4684 -1.0004
  612TMC3    C1 9064   3.083   2.376  10.090 -0.2889 -0.3523 -0.2488
  612TMC3    C2 9065   3.174   2.395  10.191 -0.7187  0.1834 -0.1342
  612TMC3    C3 9066   3.250   2.508  10.185  0.0733 -0.1004  0.4382
  612TMC3    C4 9067   3.053   2.473   9.995 -0.8466  0.2734  0.3014
  612TMC3    C5 9068   3.113   2.599  10.012  0.2582  0.3409  0.3844
  612TMC3    C6 9069   3.213   2.611  10.108  0.4990  0.1118  0.4942
  612TMC3     C 9070   2.997   2.257  10.094 -0.4820  0.6816 -0.1501
  612TMC3     O 9071   2.899   2.256  10.019 -0.3603 -0.6115  0.2669
  612TMC3     H 9072   3.181   2.320  10.269 -1.2131  0.3281  0.0466
  612TMC3    H1 9073   2.979   2.463   9.916 -0.4853 -1.9768  0.2692
  612TMC3    H2 9074   3.257   2.709  10.122  0.3751  0.3392 -0.6689
  612TMC3    C7 9075   3.106   2.688   9.896  1.0165  0.3135  0.3093
  612TMC3    C8 9076   3.358   2.535  10.281 -0.2865 -0.2098 -0.2516
  612TMC3    O1 9077   3.073   2.643   9.788  0.2210  0.4451  0.2235
  612TMC3    O2 9078   3.402   2.647  10.267 -0.2719 -0.0675 -0.2032
  613MPD2     C 9079   1.003   4.547  17.000 -0.2106 -0.6207 -0.2099
  613MPD2    C1 9080   0.987   4.623  16.887 -0.6915  0.1557 -0.4154
  613MPD2    C2 9081   0.876   4.592  16.806  0.3394  0.0036 -0.0009
  613MPD2    C3 9082   0.795   4.480  16.829 -0.3090  0.1261 -0.0557
  613MPD2    C4 9083   0.814   4.418  16.943  0.5968  1.0877  0.1905
  613MPD2    C5 9084   0.912   4.454  17.033  0.6289  0.8606  0.4072
  613MPD2     H 9085   0.875   4.637  16.708 -2.3977 -1.9758 -0.8797
  613MPD2    H1 9086   0.747   4.339  16.978  2.5198  0.3699  2.2354
  613MPD2    H2 9087   1.093   4.543  17.061  0.3488  1.1967 -0.9275
  613MPD2    H3 9088   0.932   4.396  17.123 -0.5592  0.9937  0.7519
  613MPD2     N 9089   0.716   4.407  16.730 -0.4766 -0.0033  0.0164
  613MPD2    H5 9090   0.662   4.327  16.762 -0.6599 -0.2069 -0.8182
  613MPD2    N1 9091   1.093   4.706  16.844  0.2552 -0.6303  0.4217
  613MPD2    H7 9092   1.180   4.671  16.880 -0.3640 -2.2043  0.3822
  614TMC3    C1 9093   1.169   0.012  16.621  0.3550  0.6430  0.5032
  614TMC3    C2 9094   1.161   4.596  16.585 -1.0975 -0.3429 -0.1719
  614TMC3    C3 9095   1.189   4.550  16.463 -0.3382  0.0004 -1.3276
  614TMC3    C4 9096   1.200   0.100  16.526 -0.5774  0.0602  0.5275
  614TMC3    C5 9097   1.237   0.057  16.402  0.4708 -0.2496  0.3583
  614TMC3    C6 9098   1.235   4.644  16.370 -0.4040 -0.1136 -0.3967
  614TMC3     C 9099   1.081   0.060  16.728  0.2027  0.2816 -0.4759
  614TMC3     O 9100   1.014   0.159  16.709  0.5420 -0.3224  0.5115
  614TMC3     H 9101   1.134   4.528  16.665  0.5503  0.2547  0.9087
  614TMC3    H1 9102   1.209   0.206  16.548  0.8996  0.2726 -1.1215
  614TMC3    H2 9103   1.256   4.607  16.270  1.0516 -1.2279  0.3218
  614TMC3    C7 9104   1.271   0.156  16.296  0.4836  0.0770  0.1127
  614TMC3    C8 9105   1.123   4.430  16.431 -0.3397 -0.0409 -1.0941
  614TMC3    O1 9106   1.304   0.266  16.334 -0.7434 -0.8324  0.3597
  614TMC3    O2 9107   1.062   4.376  16.524  0.2857 -0.0438  0.0437
  615MPD2     C 9108   0.628   1.284  16.013 -0.9962 -0.1088  0.0608
  615MPD2    C1 9109   0.590   1.412  15.970 -0.4183 -0.3354 -0.1790
  615MPD2    C2 9110   0.585   1.433  15.831 -0.6399  0.2902 -0.0494
  615MPD2    C3 9111   0.627   1.326  15.744  1.0730 -0.1605 -0.9830
  615MPD2    C4 9112   0.670   1.206  15.792 -0.2191  0.2806  0.0335
  615MPD2    C5 9113   0.658   1.182  15.927 -0.2124 -0.3538 -0.3233
  615MPD2     H 9114   0.544   1.530  15.807 -2.5684 -0.0929  1.6638
  615MPD2    H1 9115   0.688   1.118  15.731  0.2426  1.0166 -0.8839
  615MPD2    H2 9116   0.625   1.251  16.116  1.5004 -0.3215  0.0786
  615MPD2    H3 9117   0.680   1.085  15.970 -0.4180 -0.1780  0.1797
  615MPD2     N 9118   0.623   1.335  15.610  0.6690 -0.3539 -0.3112
  615MPD2    H5 9119   0.650   1.255  15.555 -0.6821 -0.0135 -1.4953
  615MPD2    N1 9120   0.557   1.518  16.057  0.0491  0.0250 -0.2895
  615MPD2    H7 9121   0.532   1.608  16.017  0.2909  0.4438  0.5023
  616TMC3    C1 9122   0.530   1.624  16.270 -0.0713 -0.2487  0.5919
  616TMC3    C2 9123   0.598   1.738  16.236 -0.8450 -0.0435  0.7585
  616TMC3    C3 9124   0.578   1.855  16.311  0.7200  0.1443 -1.2927
  616TMC3    C4 9125   0.450   1.615  16.380 -0.4143 -0.3802  0.7230
  616TMC3    C5 9126   0.439   1.726  16.459 -0.3530 -0.0714  0.8864
  616TMC3    C6 9127   0.489   1.853  16.423 -0.3243  0.1664  0.6602
  616TMC3     C 9128   0.541   1.507  16.190  0.5710  0.4997 -0.7374
  616TMC3     O 9129   0.531   1.404  16.253 -0.3067  0.6267  0.4982
  616TMC3     H 9130   0.661   1.735  16.148 -0.8474  0.7190  0.7313
  616TMC3    H1 9131   0.392   1.526  16.401 -1.3123  0.3068  1.1934
  616TMC3    H2 9132   0.473   1.935  16.493  1.0803 -0.7772  2.0712
  616TMC3    C7 9133   0.349   1.716  16.574  0.3446 -0.7023 -1.1195
  616TMC3    C8 9134   0.661   1.971  16.298  0.2425 -0.1638  0.0042
  616TMC3    O1 9135   0.242   1.657  16.565 -0.3821 -0.0183 -0.2626
  616TMC3    O2 9136   0.607   2.070  16.347 -0.2005  0.4252  0.4390
  617MPD2     C 9137   3.770   4.017  14.163  0.0027  0.0329 -0.1059
  617MPD2    C1 9138   3.734   3.902  14.092 -0.4262  0.2556 -0.2262
  617MPD2    C2 9139   3.598   3.867  14.091  0.3787 -0.3402  0.5809
  617MPD2    C3 9140   3.494   3.941  14.148 -0.4537 -0.1160 -0.6636
  617MPD2    C4 9141   3.537   4.054  14.209  0.0736 -0.2345 -0.0409
  617MPD2    C5 9142   3.672   4.092  14.221  0.0173 -0.2047  0.0152
  617MPD2     H 9143   3.573   3.774  14.040  1.5368 -0.2324 -0.1762
  617MPD2    H1 9144   3.467   4.129  14.244 -0.6535  0.3924 -2.8546
  617MPD2    H2 9145   3.875   4.046  14.162 -0.0762  0.3114 -0.2901
  617MPD2    H3 9146   3.694   4.184  14.273  0.8721 -0.0286 -0.6643
  617MPD2     N 9147   3.361   3.898  14.144 -0.3373  0.6445  0.2153
  617MPD2    H5 9148   3.286   3.950  14.189 -1.5844 -0.3362 -0.7266
  617MPD2    N1 9149   3.832   3.821  14.034  0.3918  0.3056  0.1873
  617MPD2    H7 9150   3.928   3.855  14.032  0.0005  1.4559  0.5750
  618TMC3    C1 9151   3.942   3.648  13.928  0.6037  0.2737 -0.3840
  618TMC3    C2 9152   3.937   3.555  13.830 -0.2342  0.3954  0.8704
  618TMC3    C3 9153   4.050   3.515  13.768 -0.9025 -0.6855  0.4642
  618TMC3    C4 9154   4.061   3.684  13.982 -0.3201 -0.1153 -0.3258
  618TMC3    C5 9155   4.172   3.634  13.921  0.7611  0.0327  0.3931
  618TMC3    C6 9156   4.170   3.542  13.817  0.0488 -0.5233  0.6115
  618TMC3     C 9157   3.816   3.699  13.977 -0.6385 -0.6351  0.0184
  618TMC3     O 9158   3.715   3.632  13.980 -0.2780 -0.4094 -0.0501
  618TMC3     H 9159   3.840   3.528  13.790  1.3158 -4.3744  0.3212
  618TMC3    H1 9160   4.071   3.752  14.066  1.8682  0.6788 -1.2230
  618TMC3    H2 9161   4.260   3.503  13.770  0.2978 -0.5126  1.0827
  618TMC3    C7 9162   4.302   3.691  13.958  0.1785  0.5201  0.4324
  618TMC3    C8 9163   4.035   3.444  13.639  0.0530 -0.0883 -0.4940
  618TMC3    O1 9164   4.310   3.700  14.083  0.0165  0.4100 -0.1636
  618TMC3    O2 9165   3.925   3.394  13.629  0.0560 -0.4988 -0.5777
  619MPD2     C 9166   0.567   4.505  14.153  0.1996  0.2496 -0.3096
  619MPD2    C1 9167   0.560   4.601  14.052  0.7901 -0.2831  0.5903
  619MPD2    C2 9168   0.432   4.639  14.013 -0.1555  0.2444 -0.1334
  619MPD2    C3 9169   0.314   4.589  14.063  0.2810  0.3327  0.2701
  619MPD2    C4 9170   0.324   4.498  14.173  0.2231 -0.4036 -0.3139
  619MPD2    C5 9171   0.449   4.459  14.207  0.0420  0.2851 -0.4183
  619MPD2     H 9172   0.436   4.694  13.920 -1.1103  1.4916  0.5764
  619MPD2    H1 9173   0.236   4.447  14.211 -0.0607 -0.5988 -1.2391
  619MPD2    H2 9174   0.658   4.473  14.203 -0.2170  0.2887  0.4879
  619MPD2    H3 9175   0.465   4.400  14.297  4.1159  0.9472 -0.6927
  619MPD2     N 9176   0.183   4.618  14.015 -0.0022 -0.6400  0.1355
  619MPD2    H5 9177   0.104   4.570  14.057  0.2481 -0.3619  0.9229
  619MPD2    N1 9178   0.663   4.667  13.976  0.4639 -0.4076 -0.4052
  619MPD2    H7 9179   0.634   0.025  13.920 -0.5334 -1.0447 -0.7840
  620TMC3    C1 9180   0.877   0.003  13.902  0.3028 -0.2007  0.7023
  620TMC3    C2 9181   0.830   4.708  13.772  0.0747 -0.0121  0.5274
  620TMC3    C3 9182   0.918   0.031  13.674  0.5918 -0.0900 -0.3676
  620TMC3    C4 9183   0.992   0.070  13.934 -0.5969  0.6892  0.4280
  620TMC3    C5 9184   1.068   0.123  13.835  0.4696  0.3514 -0.3372
  620TMC3    C6 9185   1.027   0.101  13.705 -0.2734  0.4566  0.1594
  620TMC3     C 9186   0.797   4.657  14.004 -0.6785  0.8769 -0.5095
  620TMC3     O 9187   0.850   4.603  14.104  0.0482 -0.4482 -0.1451
  620TMC3     H 9188   0.743   4.647  13.752  0.1030  0.1704 -0.1281
  620TMC3    H1 9189   1.015   0.083  14.039  0.0260  0.5896  0.2978
  620TMC3    H2 9190   1.085   0.142  13.623 -1.4446  0.9396 -0.4259
  620TMC3    C7 9191   1.083   0.267  13.842  0.0418  0.0277 -0.1555
  620TMC3    C8 9192   0.846   0.095  13.569  0.0094 -0.0246  0.5229
  620TMC3    O1 9193   1.133   0.333  13.746 -0.0847  0.5127 -0.1165
  620TMC3    O2 9194   0.901   0.103  13.460  0.0146  0.2910  0.0696
  621MPD2     C 9195   0.688   4.331  10.004 -0.9076 -0.7051 -0.2887
  621MPD2    C1 9196   0.705   4.448   9.938  0.0747 -0.2056  0.6324
  621MPD2    C2 9197   0.800   4.533   9.995  0.0332  0.0123  0.9165
  621MPD2    C3 9198   0.861   4.505  10.115  0.0688  0.1207 -0.5461
  621MPD2    C4 9199   0.831   4.397  10.185 -0.0109 -0.1168 -0.2270
  621MPD2    C5 9200   0.750   4.304  10.125  0.2588 -0.3935 -0.2160
  621MPD2     H 9201   0.820   4.622   9.938 -0.7005 -1.0696 -1.0206
  621MPD2    H1 9202   0.870   4.374  10.284  0.0573  0.7085 -0.0634
  621MPD2    H2 9203   0.630   4.248   9.966  1.7469 -2.0614 -1.3494
  621MPD2    H3 9204   0.728   4.212  10.177  0.3840 -1.0639 -1.3579
  621MPD2     N 9205   0.952   4.602  10.158  0.0020  0.1252 -0.7721
  621MPD2    H5 9206   0.961   4.685  10.101 -0.3555  0.8679  0.2515
  621MPD2    N1 9207   0.647   4.477   9.814 -0.0419  0.2500 -0.3465
  621MPD2    H7 9208   0.645   4.574   9.787  1.6219  0.2766 -0.4011
  622TMC3    C1 9209   0.542   4.450   9.614 -0.1848 -0.5590  0.4734
  622TMC3    C2 9210   0.433   4.400   9.552 -0.3314 -0.3150  0.1138
  622TMC3    C3 9211   0.393   4.436   9.430 -0.0670 -0.7160 -0.4203
  622TMC3    C4 9212   0.616   4.542   9.547  0.5947  0.7176  0.7995
  622TMC3    C5 9213   0.582   4.579   9.415 -0.5163  0.1784  0.0382
  622TMC3    C6 9214   0.469   4.522   9.359  0.7190 -0.2153 -0.2076
  622TMC3     C 9215   0.577   4.392   9.740 -0.1044  0.1696 -0.3257
  622TMC3     O 9216   0.560   4.274   9.752  0.7677  0.3755  0.1602
  622TMC3     H 9217   0.382   4.322   9.608 -0.3663  0.2811  0.9042
  622TMC3    H1 9218   0.695   4.591   9.602  0.6461  0.9914  0.4807
  622TMC3    H2 9219   0.427   4.551   9.263  3.1042  1.0882 -0.8814
  622TMC3    C7 9220   0.653   4.694   9.349 -0.1404  0.6806 -0.5064
  622TMC3    C8 9221   0.261   4.413   9.385  0.1556  0.3510  0.0578
  622TMC3    O1 9222   0.592   0.039   9.263 -0.4576 -0.6618  0.1668
  622TMC3    O2 9223   0.239   4.407   9.264 -0.5118 -0.2855 -0.6545
  623MPD2     C 9224   3.965   1.610  16.000 -0.1377  0.2639 -0.0983
  623MPD2    C1 9225   3.909   1.623  16.125  0.2359 -0.1043 -0.0813
  623MPD2    C2 9226   3.987   1.653  16.234  0.0792 -0.1605  0.2295
  623MPD2    C3 9227   4.121   1.679  16.226 -0.0261  1.0081  0.1206
  623MPD2    C4 9228   4.183   1.663  16.108 -0.3846  0.1297  0.5802
  623MPD2    C5 9229   4.105   1.620  15.998  0.5825 -0.0336 -0.4914
  623MPD2     H 9230   3.920   1.665  16.318  2.0067  0.0006  1.7551
  623MPD2    H1 9231   4.287   1.682  16.082 -0.0410 -2.1312  0.2835
  623MPD2    H2 9232   3.914   1.601  15.904  0.8566 -2.5068 -0.3589
  623MPD2    H3 9233   4.149   1.607  15.899  0.5143  0.6051 -0.6020
  623MPD2     N 9234   4.189   1.708  16.343 -0.0625  0.1232 -0.2042
  623MPD2    H5 9235   4.132   1.714  16.427  1.6680 -0.1239  0.9984
  623MPD2    N1 9236   3.770   1.614  16.147 -0.2377  0.0832  0.0203
  623MPD2    H7 9237   3.739   1.633  16.241  0.1001 -0.7975  0.3080
  624TMC3    C1 9238   4.451   1.689  16.686 -0.0872  0.2625 -0.2701
  624TMC3    C2 9239   4.357   1.760  16.755  0.6830  0.6799  0.7075
  624TMC3    C3 9240   4.260   1.836  16.688  0.4798  0.1340  0.3437
  624TMC3    C4 9241   4.450   1.688  16.547  0.4910 -0.1544  0.3635
  624TMC3    C5 9242   4.353   1.767  16.489  0.0586 -0.3470 -0.4278
  624TMC3    C6 9243   4.254   1.838  16.552  0.2281 -0.0721 -0.5681
  624TMC3     C 9244   4.536   1.607  16.771 -0.3737 -0.1950  0.1822
  624TMC3     O 9245   4.543   1.637  16.890  0.3904 -0.8806 -0.1689
  624TMC3     H 9246   4.352   1.752  16.863  0.6578 -0.6710  0.6125
  624TMC3    H1 9247   4.523   1.632  16.488  0.5036 -0.9382  1.1119
  624TMC3    H2 9248   4.170   1.881  16.498  1.6151 -0.1292 -2.7998
  624TMC3    C7 9249   4.325   1.721  16.353 -0.7322  0.4152 -0.6380
  624TMC3    C8 9250   4.123   1.830  16.743 -0.1429  0.5945 -0.2623
  624TMC3    O1 9251   4.419   1.688  16.278  0.2770  0.4251  0.1365
  624TMC3    O2 9252   4.042   1.779  16.667 -0.1517  0.1669 -0.5202
  625MPD2     C 9253   4.426   2.542   1.221 -0.3996 -0.7512  0.6830
  625MPD2    C1 9254   4.550   2.597   1.235  0.6195 -0.2848  0.1543
  625MPD2    C2 9255   4.661   2.514   1.227 -0.8258 -0.3141 -0.8823
  625MPD2    C3 9256   4.644   2.379   1.199  0.0050 -0.0792 -0.0154
  625MPD2    C4 9257   4.513   2.323   1.205 -0.0055  0.0920 -0.6143
  625MPD2    C5 9258   4.407   2.411   1.212 -1.1304 -0.3097 -0.5722
  625MPD2     H 9259   0.041   2.554   1.228 -1.4096  1.1373 -0.5217
  625MPD2    H1 9260   4.491   2.217   1.203  0.4238 -0.0127  0.3477
  625MPD2    H2 9261   4.334   2.599   1.216 -0.0108 -0.6445 -4.5789
  625MPD2    H3 9262   4.308   2.369   1.198 -0.5485 -1.6542 -0.7186
  625MPD2     N 9263   0.044   2.305   1.191  0.1389 -0.3213 -0.6062
  625MPD2    H5 9264   0.130   2.356   1.203  0.5916 -0.9646 -1.1769
  625MPD2    N1 9265   4.573   2.734   1.246  0.3338 -0.0870 -0.6688
  625MPD2    H7 9266   4.669   2.761   1.263  0.1022 -0.0703  0.6631
  626TMC3    C1 9267   4.518   2.958   1.299 -0.7901  0.0761 -0.4050
  626TMC3    C2 9268   4.453   3.069   1.263  0.0897 -0.0973 -0.2688
  626TMC3    C3 9269   4.458   3.178   1.338 -0.0543  0.1345 -0.3130
  626TMC3    C4 9270   4.583   2.955   1.423 -0.6208 -0.0696  0.3394
  626TMC3    C5 9271   4.555   3.054   1.510 -0.2235 -0.5057 -0.5636
  626TMC3    C6 9272   4.507   3.175   1.462  0.3194 -0.3558 -0.5846
  626TMC3     C 9273   4.471   2.832   1.258  0.0794 -0.4260 -0.1126
  626TMC3     O 9274   4.361   2.822   1.211  0.2479 -0.2722  0.3766
  626TMC3     H 9275   4.395   3.074   1.171  1.3903 -0.3202 -1.0926
  626TMC3    H1 9276   4.616   2.858   1.460 -2.7280 -0.9069  0.0085
  626TMC3    H2 9277   4.494   3.264   1.522 -1.0253 -1.1593  0.3401
  626TMC3    C7 9278   4.603   3.062   1.651 -0.4201  0.1143  0.4231
  626TMC3    C8 9279   4.446   3.314   1.277 -0.1426  0.1701 -0.1086
  626TMC3    O1 9280   4.674   2.972   1.682 -0.3299 -0.7641 -0.2651
  626TMC3    O2 9281   4.441   3.409   1.353  0.2309  0.0618  0.1207
  627MPD2     C 9282   3.703   2.861  14.562 -0.3084 -0.1750  0.4451
  627MPD2    C1 9283   3.620   2.862  14.677 -0.5145 -0.2627 -0.4492
  627MPD2    C2 9284   3.526   2.766  14.704  0.6047 -0.0937 -0.6601
  627MPD2    C3 9285   3.517   2.655  14.618  0.1123 -0.9757 -0.3951
  627MPD2    C4 9286   3.604   2.652  14.512  0.6248  0.0206 -0.5465
  627MPD2    C5 9287   3.693   2.751  14.484  0.1667 -0.3220  0.2663
  627MPD2     H 9288   3.463   2.767  14.792  0.9396  2.5291 -0.4500
  627MPD2    H1 9289   3.613   2.571  14.441 -0.3833 -0.4559 -0.1349
  627MPD2    H2 9290   3.776   2.937  14.535 -0.3552 -0.9353 -1.8237
  627MPD2    H3 9291   3.758   2.752  14.398 -1.1912 -0.3270 -0.7629
  627MPD2     N 9292   3.421   2.555  14.642 -0.9513 -0.3805 -0.7111
  627MPD2    H5 9293   3.372   2.557  14.731  0.4292 -1.8610  0.0733
  627MPD2    N1 9294   3.635   2.969  14.770 -0.0044  0.1190  0.0695
  627MPD2    H7 9295   3.584   2.950  14.856 -0.0848 -1.5941 -0.3547
  628TMC3    C1 9296   3.674   3.172  14.865  0.1885  0.0006  0.1420
  628TMC3    C2 9297   3.705   3.115  14.983 -0.2101 -0.2396 -0.0675
  628TMC3    C3 9298   3.682   3.201  15.094 -0.1355  0.7571  0.3303
  628TMC3    C4 9299   3.603   3.293  14.845  0.7242  0.7981  0.7873
  628TMC3    C5 9300   3.575   3.365  14.954  0.7806  0.0178  0.5393
  628TMC3    C6 9301   3.616   3.325  15.083  0.1785 -0.1885  0.2257
  628TMC3     C 9302   3.694   3.093  14.749  0.8222  0.4137 -0.3723
  628TMC3     O 9303   3.739   3.156  14.652  0.0159  0.2579  0.2367
  628TMC3     H 9304   3.760   3.022  14.984 -0.4810 -0.3563  2.7630
  628TMC3    H1 9305   3.589   3.337  14.747 -3.7490  0.6856  1.3848
  628TMC3    H2 9306   3.583   3.381  15.170  0.2778 -2.5474  1.7780
  628TMC3    C7 9307   3.519   3.504  14.946 -0.5068 -0.2389  0.2375
  628TMC3    C8 9308   3.666   3.137  15.222 -0.2661 -0.1746 -0.5339
  628TMC3    O1 9309   3.549   3.588  15.033 -0.4787  0.0769 -0.4304
  628TMC3    O2 9310   3.588   3.193  15.296  0.2998  0.3525 -0.7198
  629MPD2     C 9311   1.089   2.226  16.250 -1.0878  0.0440  0.4158
  629MPD2    C1 9312   1.124   2.097  16.273  0.7057 -0.1545 -0.6031
  629MPD2    C2 9313   1.023   2.000  16.284 -0.3368 -0.4798  0.2732
  629MPD2    C3 9314   0.892   2.040  16.262 -0.0721 -0.0718 -0.0793
  629MPD2    C4 9315   0.858   2.169  16.240  0.2742 -0.2141  0.1792
  629MPD2    C5 9316   0.958   2.264  16.232 -0.3878  0.1598 -0.1578
  629MPD2     H 9317   1.039   1.895  16.303  0.3798 -0.4806 -0.3613
  629MPD2    H1 9318   0.757   2.204  16.220  0.7511  0.5597 -0.8323
  629MPD2    H2 9319   1.153   2.312  16.263  0.5342 -0.9846 -0.7564
  629MPD2    H3 9320   0.926   2.368  16.228  2.7949  1.1950  1.6815
  629MPD2     N 9321   0.793   1.940  16.272 -0.4835 -0.2859  0.7701
  629MPD2    H5 9322   0.823   1.844  16.269  0.5926  0.0816 -0.2513
  629MPD2    N1 9323   1.258   2.063  16.314 -0.4068 -0.2034 -0.3637
  629MPD2    H7 9324   1.325   2.135  16.339  2.0716 -2.5791 -0.2893
  630TMC3    C1 9325   1.454   1.941  16.356  0.1715 -0.4306 -0.1054
  630TMC3    C2 9326   1.546   2.038  16.326  0.5029  0.0888 -0.0421
  630TMC3    C3 9327   1.676   2.025  16.376 -0.1026  0.6412 -0.0700
  630TMC3    C4 9328   1.497   1.830  16.419 -0.2721 -0.0081  0.2293
  630TMC3    C5 9329   1.621   1.825  16.469 -0.6311  0.4425  0.6833
  630TMC3    C6 9330   1.719   1.923  16.450 -0.1069  0.9895 -0.2704
  630TMC3     C 9331   1.309   1.939  16.321 -0.2002  0.2320  0.0601
  630TMC3     O 9332   1.256   1.828  16.313  0.3480  0.2072  0.5521
  630TMC3     H 9333   1.515   2.119  16.261 -0.7265  0.6273  1.2030
  630TMC3    H1 9334   1.415   1.782  16.471 -1.7563  0.9203 -1.2647
  630TMC3    H2 9335   1.813   1.933  16.504 -0.6532 -2.0309  1.2427
  630TMC3    C7 9336   1.654   1.746  16.592 -0.4697  0.7152  0.4755
  630TMC3    C8 9337   1.752   2.145  16.383  0.1806 -0.0828  0.4879
  630TMC3    O1 9338   1.730   1.800  16.666  0.3068 -0.5297 -0.0342
  630TMC3    O2 9339   1.846   2.156  16.463 -0.1704  0.1873 -0.4177
  631MPD2     C 9340   4.528   1.420  15.384  0.8394  0.0597  0.7430
  631MPD2    C1 9341   4.585   1.512  15.304  0.6845 -0.2492 -0.0881
  631MPD2    C2 9342   4.712   1.489  15.267 -0.4549 -0.5750 -0.2602
  631MPD2    C3 9343   0.067   1.383  15.301 -0.0968 -0.2648  0.0712
  631MPD2    C4 9344   0.014   1.297  15.391  0.0986  0.4587 -0.4570
  631MPD2    C5 9345   4.606   1.320  15.431  0.9378  0.1333 -0.2169
  631MPD2     H 9346   0.041   1.564  15.208  0.2249  0.7538  2.0195
  631MPD2    H1 9347   0.071   1.217  15.437 -1.4968 -0.9076 -0.8419
  631MPD2    H2 9348   4.434   1.435  15.436  0.6994 -0.4094  0.6280
  631MPD2    H3 9349   4.555   1.254  15.501  1.3028  0.9480  0.8206
  631MPD2     N 9350   0.194   1.373  15.250 -0.5614 -0.3229  0.0301
  631MPD2    H5 9351   0.221   1.458  15.202 -0.1424 -0.1702  0.5415
  631MPD2    N1 9352   4.509   1.628  15.268 -0.0796 -0.5981 -0.0048
  631MPD2    H7 9353   4.417   1.634  15.311  0.1533  1.1814  0.2467
  632TMC3    C1 9354   4.432   1.820  15.149 -0.0753 -0.0242 -0.5547
  632TMC3    C2 9355   4.389   1.881  15.255  0.2617 -0.2021 -0.3596
  632TMC3    C3 9356   4.374   2.017  15.248 -0.4973 -0.8199  0.5249
  632TMC3    C4 9357   4.460   1.889  15.030  0.1484 -0.2391  0.3219
  632TMC3    C5 9358   4.455   2.028  15.028 -0.0306 -0.3645 -0.5118
  632TMC3    C6 9359   4.407   2.098  15.145  1.1323 -0.4907 -0.2163
  632TMC3     C 9360   4.537   1.722  15.169  0.1409 -0.5247 -0.0243
  632TMC3     O 9361   4.626   1.713  15.084 -0.5155 -0.0337  0.2126
  632TMC3     H 9362   4.372   1.833  15.351  0.2254  1.4369  0.4459
  632TMC3    H1 9363   4.494   1.844  14.937 -0.4468 -0.0737  0.0222
  632TMC3    H2 9364   4.394   2.206  15.144 -1.8137 -0.8292  0.4759
  632TMC3    C7 9365   4.544   2.090  14.931  0.0407 -0.1004 -0.2018
  632TMC3    C8 9366   4.309   2.076  15.358  0.5043 -0.2236  0.0042
  632TMC3    O1 9367   4.544   2.038  14.819  0.4191  0.0474  0.1039
  632TMC3    O2 9368   4.216   2.008  15.401  0.8678  0.5212  0.0648
  633MPD2     C 9369   3.707   4.540  17.422  0.1788 -0.3897 -0.5091
  633MPD2    C1 9370   3.816   4.481  17.360  0.2644 -0.5352 -0.3666
  633MPD2    C2 9371   3.851   4.351  17.391  0.5375  0.1807  0.5241
  633MPD2    C3 9372   3.768   4.273  17.473  0.2626  0.9612  0.6222
  633MPD2    C4 9373   3.654   4.330  17.523  1.2328  0.3977 -0.0564
  633MPD2    C5 9374   3.631   4.463  17.500  1.1358 -0.0243  0.3368
  633MPD2     H 9375   3.931   4.306  17.334  1.0828  2.5080 -0.5662
  633MPD2    H1 9376   3.579   4.280  17.583  1.1206  0.3636 -0.2252
  633MPD2    H2 9377   3.680   4.644  17.410 -1.8696 -0.6381  1.8759
  633MPD2    H3 9378   3.544   4.511  17.543 -0.7035 -2.0264 -1.1644
  633MPD2     N 9379   3.797   4.135  17.499 -0.5956  0.4632 -0.6091
  633MPD2    H5 9380   3.726   4.085  17.551 -0.0024  0.2334 -0.0192
  633MPD2    N1 9381   3.892   4.548  17.261 -0.1719  0.3059 -0.5858
  633MPD2    H7 9382   3.942   4.483  17.202  0.5671  1.9604 -1.7914
  634TMC3    C1 9383   3.957   4.707  17.106 -0.7630 -0.2149 -0.1886
  634TMC3    C2 9384   4.031   4.606  17.049  0.3022  0.6825  0.1562
  634TMC3    C3 9385   4.093   4.640  16.933  0.2417  0.1344  0.0383
  634TMC3    C4 9386   3.961   0.117  17.051 -0.2909 -0.1377 -0.1897
  634TMC3    C5 9387   4.038   0.150  16.946 -0.1768 -0.7157 -0.2696
  634TMC3    C6 9388   4.102   0.051  16.881  0.6714 -0.0363  0.1159
  634TMC3     C 9389   3.878   4.679  17.222  0.5261 -0.1464  0.1169
  634TMC3     O 9390   3.829   0.043  17.293 -0.3753 -1.0878 -0.6037
  634TMC3     H 9391   4.037   4.503  17.080 -0.3453  0.5142 -0.2865
  634TMC3    H1 9392   3.888   0.188  17.088  0.8519 -0.0915  1.9846
  634TMC3    H2 9393   4.149   0.083  16.788  1.0108 -3.3063 -0.8269
  634TMC3    C7 9394   4.007   0.269  16.878  0.7028  0.0675  0.3146
  634TMC3    C8 9395   4.158   4.534  16.857  0.6404 -0.3801  0.4803
  634TMC3    O1 9396   4.039   0.272  16.758  0.0119 -0.0132 -1.1631
  634TMC3    O2 9397   4.131   4.419  16.886  0.1675 -0.3759  0.0299
  635TMC3    C1 9398   0.008   1.109  17.115 -0.1224 -0.2886 -0.4676
  635TMC3    C2 9399   0.053   0.986  17.085 -0.4486 -0.5396  0.1241
  635TMC3    C3 9400   0.006   0.923  16.972 -0.0396  0.4646  0.0057
  635TMC3    C4 9401   4.630   1.164  17.034  1.0826  0.0448 -0.2904
  635TMC3    C5 9402   4.594   1.100  16.916  0.3774 -0.1375 -0.9980
  635TMC3    C6 9403   4.638   0.978  16.882  0.2069  0.4948  0.1074
  635TMC3     C 9404   0.015   1.165  17.243  0.5873 -0.0701 -0.4345
  635TMC3     O 9405   4.652   1.250  17.266 -0.7788 -0.1461  0.1695
  635TMC3     H 9406   0.114   0.937  17.160  0.5062  1.0985  0.4091
  635TMC3    H1 9407   4.592   1.264  17.053  0.4339 -0.2843  0.1402
  635TMC3    H2 9408   4.610   0.929  16.789 -0.7632 -0.1153  0.7184
  635TMC3    C7 9409   4.510   1.168  16.818  0.5739  0.0704  0.9224
  635TMC3    C8 9410   0.065   0.789  16.940  0.1589 -0.1214 -0.5494
  635TMC3    O1 9411   4.510   1.115  16.706  0.2941  0.1955 -0.5120
  635TMC3    O2 9412   0.023   0.733  16.839  0.6436  0.1912 -0.5781
  636MPD2     C 9413   0.555   0.042  15.865  0.1054 -0.3720  0.2550
  636MPD2    C1 9414   0.639   0.077  15.972 -0.2509  0.7720 -0.3521
  636MPD2    C2 9415   0.684   4.700  16.050 -0.2823  0.0766  0.4220
  636MPD2    C3 9416   0.659   4.565  16.035 -0.2862  0.0306  0.1226
  636MPD2    C4 9417   0.588   4.529  15.924  0.1617  0.1336 -0.4905
  636MPD2    C5 9418   0.538   4.628  15.844 -0.6525 -0.0382  0.2465
  636MPD2     H 9419   0.752   0.002  16.132  1.9684 -0.7943 -1.1962
  636MPD2    H1 9420   0.568   4.425  15.901  1.4249 -0.6142  1.7696
  636MPD2    H2 9421   0.515   0.109  15.790 -1.1085 -1.5594 -0.1634
  636MPD2    H3 9422   0.480   4.589  15.762 -1.0610 -0.1362  0.5860
  636MPD2     N 9423   0.701   4.477  16.136 -0.3684 -0.7078 -0.2984
  636MPD2    H5 9424   0.761   4.525  16.203  0.1051 -0.9399 -0.5533
  636MPD2    N1 9425   0.684   0.202  16.005 -0.5150  0.8926 -0.3877
  636MPD2    H7 9426   0.748   0.207  16.085 -0.8750 -0.7052 -0.0121
  637TMC3    C1 9427   0.672   4.301  16.275  0.0256  0.8766 -0.0715
  637TMC3    C2 9428   0.663   4.390  16.379 -0.0995  0.1586 -0.3608
  637TMC3    C3 9429   0.675   4.344  16.505  0.1026  0.0456 -0.0537
  637TMC3    C4 9430   0.698   4.170  16.293 -0.0405  0.6399 -0.7967
  637TMC3    C5 9431   0.730   4.136  16.422 -0.2563  0.3799 -0.0316
  637TMC3    C6 9432   0.708   4.207  16.538 -0.5706 -0.6908  0.1823
  637TMC3     C 9433   0.667   4.350  16.143 -0.3449 -0.2911 -0.4441
  637TMC3     O 9434   0.634   4.275  16.050  0.0047 -0.3555 -0.0291
  637TMC3     H 9435   0.619   4.487  16.360  2.4938  1.4983  0.4556
  637TMC3    H1 9436   0.709   4.103  16.208  0.3353  0.9581 -0.9936
  637TMC3    H2 9437   0.736   4.175  16.637 -0.2887  0.9446  0.6357
  637TMC3    C7 9438   0.799   4.006  16.443 -0.0260  0.1361 -0.5530
  637TMC3    C8 9439   0.730   4.439  16.593  0.0264  0.0522 -0.7081
  637TMC3    O1 9440   0.759   3.935  16.537 -0.2497 -0.0458 -0.0057
  637TMC3    O2 9441   0.774   4.540  16.544 -0.6182 -0.1321  0.0804
  638MPD2     C 9442   0.170   3.535  14.285 -0.5295 -0.2660 -0.1640
  638MPD2    C1 9443   0.206   3.405  14.294 -0.3435  0.0497  0.3842
  638MPD2    C2 9444   0.163   3.331  14.402 -0.2042 -1.0175  0.3593
  638MPD2    C3 9445   0.087   3.386  14.498 -0.4080 -0.2870 -0.3309
  638MPD2    C4 9446   0.051   3.521  14.493 -0.4514 -0.5463 -0.7428
  638MPD2    C5 9447   0.093   3.594  14.385 -0.1997 -0.2310  0.3569
  638MPD2     H 9448   0.176   3.225  14.419  0.2064 -1.2002 -1.1809
  638MPD2    H1 9449   4.717   3.573  14.571 -0.7618  1.3312 -2.2068
  638MPD2    H2 9450   0.220   3.599  14.213  0.6585  0.5295  1.3536
  638MPD2    H3 9451   0.068   3.700  14.390  0.7712  0.0882 -1.5510
  638MPD2     N 9452   0.039   3.299  14.603  0.6342 -0.0002  0.9236
  638MPD2    H5 9453   0.072   3.204  14.595  0.7939  0.0887  0.5388
  638MPD2    N1 9454   0.297   3.349  14.196  0.4191 -0.3415 -0.0606
  638MPD2    H7 9455   0.328   3.399  14.113  0.7941  0.4934  0.5787
  639TMC3    C1 9456   4.669   3.213  14.804  0.0840 -0.8066 -0.0137
  639TMC3    C2 9457   4.661   3.088  14.749 -0.4448 -0.4136 -0.3844
  639TMC3    C3 9458   4.617   2.988  14.835 -0.1489  0.4996  1.2944
  639TMC3    C4 9459   4.634   3.239  14.934  0.2728  0.2959  0.5176
  639TMC3    C5 9460   4.594   3.131  15.013  0.3163 -0.2414 -0.4286
  639TMC3    C6 9461   4.598   3.001  14.975 -0.8417 -0.1575 -0.2313
  639TMC3     C 9462   4.688   3.329  14.719 -0.6494 -0.8221 -0.4341
  639TMC3     O 9463   4.644   3.437  14.755  0.2874 -0.0749  0.7971
  639TMC3     H 9464   4.689   3.060  14.648  0.4385 -0.0239 -0.2490
  639TMC3    H1 9465   4.628   3.343  14.965  1.3113  0.3710  0.4401
  639TMC3    H2 9466   4.581   2.911  15.033  0.2986  0.5318  1.1761
  639TMC3    C7 9467   4.624   3.152  15.153  0.3012 -0.1737 -0.2121
  639TMC3    C8 9468   4.662   2.852  14.795  0.6179  0.4880 -0.1158
  639TMC3    O1 9469   4.583   3.072  15.235 -0.5247  0.2233  0.4683
  639TMC3    O2 9470   0.050   2.844  14.735  0.1263  0.2742  0.1931
  640MPD2     C 9471   1.796   1.659   9.475 -0.1979 -0.2587  0.8129
  640MPD2    C1 9472   1.793   1.795   9.481 -0.0731  0.2118 -0.1794
  640MPD2    C2 9473   1.702   1.861   9.396 -0.4138 -0.2160  0.2616
  640MPD2    C3 9474   1.610   1.795   9.321 -0.4516  1.1740  0.0638
  640MPD2    C4 9475   1.613   1.654   9.321 -0.6041  1.0116 -0.3289
  640MPD2    C5 9476   1.712   1.589   9.388  0.3422  0.6742  0.1049
  640MPD2     H 9477   1.708   1.969   9.397 -2.7908 -0.0689 -0.7292
  640MPD2    H1 9478   1.553   1.590   9.257  1.9011 -0.6576 -1.0199
  640MPD2    H2 9479   1.867   1.602   9.534 -2.1493 -0.1075  3.3314
  640MPD2    H3 9480   1.717   1.482   9.378 -1.1354  0.5307  0.9559
  640MPD2     N 9481   1.522   1.861   9.235 -0.4042 -0.1086  0.3525
  640MPD2    H5 9482   1.449   1.802   9.195  0.8402 -0.6118 -1.1589
  640MPD2    N1 9483   1.881   1.856   9.576 -0.3015  0.2138  0.0206
  640MPD2    H7 9484   1.951   1.794   9.615 -2.1184 -1.7889  0.0338
  641TMC3    C1 9485   1.999   2.039   9.659  0.5562 -0.2416 -0.1281
  641TMC3    C2 9486   2.099   1.958   9.712  0.2632  0.0917 -0.3511
  641TMC3    C3 9487   2.208   2.028   9.769  0.3047  0.5590 -0.7979
  641TMC3    C4 9488   2.005   2.178   9.650 -0.2871 -0.1477  0.3662
  641TMC3    C5 9489   2.115   2.237   9.702 -0.4941  0.3891  0.5579
  641TMC3    C6 9490   2.216   2.165   9.770 -0.4869  0.4014  0.5524
  641TMC3     C 9491   1.875   1.985   9.609 -0.2754 -0.3580  0.4660
  641TMC3     O 9492   1.780   2.060   9.596 -0.2813 -0.2614  0.1784
  641TMC3     H 9493   2.090   1.851   9.721 -1.3986  0.0407 -2.8152
  641TMC3    H1 9494   1.918   2.230   9.610 -0.2495  0.6521  1.3258
  641TMC3    H2 9495   2.294   2.227   9.813 -0.4605  0.4355  0.4535
  641TMC3    C7 9496   2.144   2.370   9.659 -0.1244 -0.1338 -1.0714
  641TMC3    C8 9497   2.316   1.947   9.807 -0.2405  0.2127 -0.0170
  641TMC3    O1 9498   2.239   2.430   9.710 -0.0232  0.0734 -0.3342
  641TMC3    O2 9499   2.295   1.826   9.827 -0.0993  0.2352 -0.0973
  642TMC3    C1 9500   3.117   3.259  12.109 -0.3001 -0.5674 -0.1196
  642TMC3    C2 9501   3.143   3.296  12.238 -0.1091  0.8992 -0.1140
  642TMC3    C3 9502   3.170   3.192  12.324  0.8289 -0.6944 -0.1931
  642TMC3    C4 9503   3.114   3.133  12.064  0.1376 -0.0279  0.5578
  642TMC3    C5 9504   3.158   3.035  12.146  0.2410  0.1345  0.4508
  642TMC3    C6 9505   3.180   3.063  12.281 -0.4571 -0.8252  0.0367
  642TMC3     C 9506   3.026   3.357  12.042  0.3913 -0.4416 -0.3138
  642TMC3     O 9507   3.055   3.475  12.043  0.4480  0.0753 -0.1016
  642TMC3     H 9508   3.125   3.398  12.272  1.8833  2.1058 -2.6262
  642TMC3    H1 9509   3.082   3.114  11.962  0.4451 -0.0435  0.4631
  642TMC3    H2 9510   3.215   2.986  12.349  1.6181 -1.1046 -1.3532
  642TMC3    C7 9511   3.104   2.904  12.120 -0.2977  0.4766  0.3917
  642TMC3    C8 9512   3.142   3.204  12.469 -0.1647 -0.6466 -0.0524
  642TMC3    O1 9513   3.076   2.880  12.004  0.1304 -0.2069 -0.6764
  642TMC3    O2 9514   3.096   3.102  12.517  0.4959  0.1755 -0.2693
  643TMC3    C1 9515   1.527   2.882   0.417  0.2289  0.3100  0.6619
  643TMC3    C2 9516   1.437   2.862   0.316  0.3512 -0.8658  0.1906
  643TMC3    C3 9517   1.464   2.776   0.219  0.7086  0.2984 -0.2209
  643TMC3    C4 9518   1.646   2.812   0.414  0.5347  0.2126 -0.0860
  643TMC3    C5 9519   1.674   2.728   0.307 -0.1739 -0.2494  0.3526
  643TMC3    C6 9520   1.574   2.696   0.217 -0.3761  0.6673 -0.0573
  643TMC3     C 9521   1.499   2.994   0.496  0.0874  0.2087  0.3146
  643TMC3     O 9522   1.468   3.091   0.433 -0.0124  0.3836  0.0667
  643TMC3     H 9523   1.335   2.899   0.318  0.6965 -0.0210  1.6350
  643TMC3    H1 9524   1.727   2.840   0.480  0.0094 -1.0185  1.0915
  643TMC3    H2 9525   1.584   2.625   0.136 -0.3112 -1.0511  1.4668
  643TMC3    C7 9526   1.792   2.640   0.334  1.1042  0.2449  0.2897
  643TMC3    C8 9527   1.386   2.801   0.099  0.5369  0.1209  0.3735
  643TMC3    O1 9528   1.804   2.598   0.448 -0.2438 -0.0423  0.3208
  643TMC3    O2 9529   1.384   2.714   0.012 -0.3688 -0.1301  0.2968
  644MPD2     C 9530   2.824   2.746   9.569 -0.1548  0.6113 -0.3277
  644MPD2    C1 9531   2.710   2.699   9.512  0.0856 -0.2219  0.1713
  644MPD2    C2 9532   2.614   2.785   9.467 -0.8097 -0.1886  0.6254
  644MPD2    C3 9533   2.634   2.921   9.486 -0.4011  0.9953  0.1614
  644MPD2    C4 9534   2.751   2.967   9.543  0.1036 -0.0954 -0.7970
  644MPD2    C5 9535   2.843   2.877   9.583 -0.3958  0.0858  0.2144
  644MPD2     H 9536   2.521   2.756   9.420  0.4833 -0.3458 -1.8189
  644MPD2    H1 9537   2.761   3.070   9.577 -2.3193  0.5625 -2.0382
  644MPD2    H2 9538   2.893   2.674   9.613  0.9714  3.7823  3.1154
  644MPD2    H3 9539   2.931   2.916   9.631  0.3603 -3.6113  1.8542
  644MPD2     N 9540   2.534   3.007   9.442 -0.4004 -0.3739 -0.3579
  644MPD2    H5 9541   2.468   2.960   9.380  0.1985 -1.9515  0.1927
  644MPD2    N1 9542   2.693   2.558   9.514 -0.2450  0.3802  0.3958
  644MPD2    H7 9543   2.772   2.512   9.557  0.1290 -1.4104 -2.1781
  645TMC3    C1 9544   2.386   3.189   9.423 -0.0956 -0.4605 -0.2119
  645TMC3    C2 9545   2.315   3.286   9.492 -0.5260  0.0597  0.2662
  645TMC3    C3 9546   2.200   3.331   9.437 -0.5737  0.0447  0.5530
  645TMC3    C4 9547   2.348   3.147   9.294 -0.3698  0.2966 -0.3895
  645TMC3    C5 9548   2.225   3.191   9.252  0.5626  0.0338 -0.4117
  645TMC3    C6 9549   2.148   3.278   9.324 -0.0893  0.4043  0.0509
  645TMC3     C 9550   2.501   3.134   9.486 -0.2738 -0.0957  0.4530
  645TMC3     O 9551   2.562   3.198   9.569  0.0042  0.2899  0.5123
  645TMC3     H 9552   2.353   3.315   9.589 -1.5431 -1.6214  1.1781
  645TMC3    H1 9553   2.414   3.086   9.234  1.2094  0.5143  1.1135
  645TMC3    H2 9554   2.052   3.315   9.290 -0.3011 -1.3358 -1.2836
  645TMC3    C7 9555   2.173   3.145   9.126  0.0332 -0.0189  0.5141
  645TMC3    C8 9556   2.115   3.398   9.532  0.0238 -0.5785 -0.2149
  645TMC3    O1 9557   2.255   3.106   9.045 -0.1998 -0.2689 -0.4402
  645TMC3    O2 9558   1.993   3.388   9.513 -0.1380 -0.5397 -0.2946
  646MPD2     C 9559   1.064   2.136  14.621  0.2009 -0.2878 -0.9443
  646MPD2    C1 9560   0.964   2.076  14.694  0.0716 -0.2071  0.5069
  646MPD2    C2 9561   0.833   2.113  14.669  0.0131 -0.1206 -0.3355
  646MPD2    C3 9562   0.798   2.203  14.572  0.2493 -0.1829 -0.2638
  646MPD2    C4 9563   0.904   2.265  14.506 -0.4441  0.4806  0.1510
  646MPD2    C5 9564   1.034   2.228  14.525 -1.0899 -0.1614  0.2272
  646MPD2     H 9565   0.753   2.063  14.722  1.3684 -2.5045 -0.5429
  646MPD2    H1 9566   0.891   2.336  14.426 -1.5085 -0.7868 -0.8137
  646MPD2    H2 9567   1.170   2.116  14.630 -0.4257 -3.1722 -0.0493
  646MPD2    H3 9568   1.107   2.278  14.463 -0.9208 -1.1585 -0.3761
  646MPD2     N 9569   0.661   2.247  14.553  0.3016  0.0861 -0.0615
  646MPD2    H5 9570   0.590   2.201  14.609  0.5498  0.2614  0.3984
  646MPD2    N1 9571   1.006   1.989  14.795  0.1622  0.0308  0.5419
  646MPD2    H7 9572   1.107   1.977  14.796  0.1777  0.0632 -0.8057
  647TMC3    C1 9573   0.990   1.887  15.001 -0.8238  0.1763 -0.5649
  647TMC3    C2 9574   0.915   1.805  15.090  0.2501  0.6040  0.5093
  647TMC3    C3 9575   0.967   1.769  15.206 -0.7723 -0.4016  0.3417
  647TMC3    C4 9576   1.119   1.929  15.029  1.0401 -0.5605 -0.4099
  647TMC3    C5 9577   1.156   1.903  15.156 -0.2662  0.2002  0.2367
  647TMC3    C6 9578   1.086   1.826  15.243  0.0991  0.1609 -0.6545
  647TMC3     C 9579   0.924   1.919  14.880  0.0778 -0.4534 -1.1570
  647TMC3     O 9580   0.805   1.907  14.869  0.3604 -0.3963  0.1338
  647TMC3     H 9581   0.812   1.788  15.060  0.5385  1.7694 -1.1499
  647TMC3    H1 9582   1.177   1.992  14.963 -2.2984  0.3952 -2.3849
  647TMC3    H2 9583   1.125   1.790  15.338 -0.2882  0.7109 -0.2830
  647TMC3    C7 9584   1.293   1.901  15.180 -0.6080 -0.3525 -0.2800
  647TMC3    C8 9585   0.924   1.647  15.279 -0.6873  0.1508  0.2952
  647TMC3    O1 9586   1.334   1.874  15.290 -0.0525 -0.2533  0.2463
  647TMC3    O2 9587   0.959   1.636  15.397  0.6013  0.1453  0.9156
  648TMC3    C1 9588   4.671   4.704  16.045 -0.3109 -0.1883 -0.1635
  648TMC3    C2 9589   4.682   4.571  16.016  0.0945 -0.2602 -0.1627
  648TMC3    C3 9590   4.580   4.515  15.942  0.3113  0.2764  0.2394
  648TMC3    C4 9591   4.552   0.042  16.033  0.2126  0.3520  0.0484
  648TMC3    C5 9592   4.442   4.700  15.978  0.2640 -0.6569  0.8932
  648TMC3    C6 9593   4.455   4.575  15.931  0.6196 -0.8898 -0.3920
  648TMC3     C 9594   0.013   0.047  16.157  0.1138  0.3411  0.7277
  648TMC3     O 9595   0.067   0.153  16.144 -0.3414 -0.5711  0.2153
  648TMC3     H 9596   0.063   4.534  16.024  0.0421  0.1000  2.1390
  648TMC3    H1 9597   4.545   0.139  16.082  0.2096  0.1020  0.5418
  648TMC3    H2 9598   4.366   4.538  15.882 -0.9122  0.7296  1.1600
  648TMC3    C7 9599   4.361   0.063  15.898  0.2522  0.4834  0.2105
  648TMC3    C8 9600   4.577   4.378  15.923  0.1384  0.3022 -0.2647
  648TMC3    O1 9601   4.346   0.038  15.781 -0.2677  0.0487 -0.1205
  648TMC3    O2 9602   4.470   4.325  15.894  0.0978  0.1312  0.1767
  649TMC3    C1 9603   4.321   0.316  12.825 -0.7807  0.2348  0.5875
  649TMC3    C2 9604   4.441   0.344  12.874  0.3126 -0.1324  0.1867
  649TMC3    C3 9605   4.457   0.309  13.008 -0.1238 -0.0769  0.2624
  649TMC3    C4 9606   4.221   0.248  12.893  0.8240 -0.2560 -0.6749
  649TMC3    C5 9607   4.243   0.225  13.029  0.1525 -0.2711 -0.8814
  649TMC3    C6 9608   4.360   0.251  13.089  0.4283 -0.0610 -0.3859
  649TMC3     C 9609   4.301   0.344  12.685 -0.3185  0.3810 -0.3516
  649TMC3     O 9610   4.189   0.312  12.640 -0.3235 -0.0443  0.2005
  649TMC3     H 9611   4.526   0.394  12.829 -2.2610  3.9424 -0.1124
  649TMC3    H1 9612   4.119   0.243  12.857  0.7042  0.5632 -0.4522
  649TMC3    H2 9613   4.373   0.229  13.195  0.2158 -2.2881 -0.8293
  649TMC3    C7 9614   4.134   0.156  13.108 -0.7956  0.3729 -0.4778
  649TMC3    C8 9615   4.590   0.348  13.071  0.7711 -0.5333  0.3442
  649TMC3    O1 9616   4.154   0.160  13.227 -0.4036  0.8359  0.1291
  649TMC3    O2 9617   4.673   0.374  12.982 -0.4779  0.0426  0.3063
  650TMC3    C1 9618   1.991   2.011  12.337 -0.1802 -0.0008  0.1848
  650TMC3    C2 9619   1.991   2.144  12.300  0.3254  0.1564  0.5913
  650TMC3    C3 9620   1.931   2.175  12.176  0.3226 -0.1522 -0.4233
  650TMC3    C4 9621   1.904   1.921  12.280  0.3573  0.2048 -0.0126
  650TMC3    C5 9622   1.839   1.964  12.164 -0.0398  0.4834  0.5006
  650TMC3    C6 9623   1.849   2.090  12.118  0.5682 -0.0265 -0.5744
  650TMC3     C 9624   2.000   2.009  12.482 -0.7572  0.5172  0.3088
  650TMC3     O 9625   2.009   2.116  12.534 -0.0535 -0.7681 -0.0522
  650TMC3     H 9626   2.060   2.216  12.344  1.9600 -1.0249 -0.0585
  650TMC3    H1 9627   1.891   1.821  12.319  0.4277  0.2036  0.0071
  650TMC3    H2 9628   1.809   2.115  12.021 -0.4130  0.2665 -0.0992
  650TMC3    C7 9629   1.775   1.860  12.087  0.2960 -0.3159 -0.6513
  650TMC3    C8 9630   1.914   2.324  12.157 -0.1280 -0.6604 -0.2721
  650TMC3    O1 9631   1.805   1.748  12.122  0.7706  0.3700 -0.2799
  650TMC3    O2 9632   1.993   2.397  12.210  0.0490  0.2357  0.1733
  651MPD2     C 9633   0.751   3.455  10.507  0.4282 -0.1781 -0.5665
  651MPD2    C1 9634   0.739   3.591  10.533  0.0334 -0.7133 -0.1525
  651MPD2    C2 9635   0.836   3.651  10.611  0.1068  0.8208  1.0280
  651MPD2    C3 9636   0.941   3.581  10.659  0.3867  0.4689  0.3157
  651MPD2    C4 9637   0.947   3.442  10.647 -0.3650  0.5727  0.2428
  651MPD2    C5 9638   0.858   3.387  10.560  0.8192  0.6255 -0.0917
  651MPD2     H 9639   0.829   3.758  10.626  0.4173  1.0275 -0.2576
  651MPD2    H1 9640   1.014   3.374  10.699 -1.3233 -0.2969  0.3388
  651MPD2    H2 9641   0.673   3.401  10.455  0.9245 -0.2475 -1.2393
  651MPD2    H3 9642   0.879   3.282  10.541 -0.7421  0.6442 -2.0312
  651MPD2     N 9643   1.043   3.651  10.732  0.0055  0.1747  0.2394
  651MPD2    H5 9644   1.033   3.752  10.739 -1.7011  0.2116 -2.4326
  651MPD2    N1 9645   0.634   3.671  10.481  0.1354  0.3120 -0.3178
  651MPD2    H7 9646   0.624   3.766  10.516 -1.8431 -0.8241  2.1646
  652TMC3    C1 9647   1.433   3.836  10.755  0.0033  0.1620 -0.6994
  652TMC3    C2 9648   1.378   3.708  10.743 -0.5215  0.1366  1.2878
  652TMC3    C3 9649   1.258   3.697  10.816  0.1478 -0.0747 -0.1960
  652TMC3    C4 9650   1.379   3.935  10.834 -0.1388  0.8089 -0.3389
  652TMC3    C5 9651   1.257   3.921  10.897 -0.4094 -0.3129 -0.2320
  652TMC3    C6 9652   1.198   3.800  10.889  0.5102  0.0301  0.5413
  652TMC3     C 9653   1.573   3.842  10.752  0.7772 -0.8067  0.2806
  652TMC3     O 9654   1.635   3.756  10.812 -0.2919  0.0901 -0.1117
  652TMC3     H 9655   1.421   3.636  10.675 -0.3343  1.3083  0.1653
  652TMC3    H1 9656   1.447   4.016  10.855  0.9626 -0.0976 -0.4038
  652TMC3    H2 9657   1.111   3.779  10.950  1.2346 -1.7673  0.9660
  652TMC3    C7 9658   1.233   3.993  11.023  1.0122  0.6766  0.2247
  652TMC3    C8 9659   1.163   3.591  10.782  0.3916  0.4346  0.6103
  652TMC3    O1 9660   1.158   3.943  11.105 -0.2155  0.4538 -0.8197
  652TMC3    O2 9661   1.204   3.474  10.777  0.3928 -1.0959  0.0452
  653MPD2     C 9662   4.189   0.098   0.079 -0.0741  0.4759 -0.7733
  653MPD2    C1 9663   4.069   0.167   0.112 -0.5329  0.2696 -0.0803
  653MPD2    C2 9664   3.961   0.092   0.156  0.2359 -0.0655  0.7670
  653MPD2    C3 9665   3.962   4.677   0.164 -0.0859  0.5360  0.2320
  653MPD2    C4 9666   4.082   4.612   0.133  0.1464  0.2990 -0.5520
  653MPD2    C5 9667   4.190   4.688   0.108  0.2344 -0.0258  0.1775
  653MPD2     H 9668   3.868   0.144   0.176  0.9962  1.7979 -0.5763
  653MPD2    H1 9669   4.088   4.504   0.133  0.1858  0.3101  1.2110
  653MPD2    H2 9670   4.280   0.144   0.043  0.4444 -0.2241 -0.3715
  653MPD2    H3 9671   4.278   4.640   0.069  0.4078  1.1004 -0.8484
  653MPD2     N 9672   3.838   4.611   0.179 -0.0431 -0.3984  0.1134
  653MPD2    H5 9673   3.753   4.663   0.164  0.5140 -0.2495 -2.5069
  653MPD2    N1 9674   4.064   0.303   0.099  0.4524 -0.4274 -0.8570
  653MPD2    H7 9675   3.983   0.342   0.146  0.4754 -0.1582 -1.0404
  654TMC3    C1 9676   3.703   4.422   0.219 -0.7136  0.9473 -0.2677
  654TMC3    C2 9677   3.585   4.498   0.225  0.1272 -0.2742 -0.2450
  654TMC3    C3 9678   3.470   4.429   0.204 -0.1420  0.8384 -0.8935
  654TMC3    C4 9679   3.704   4.284   0.206 -0.3013  0.5256 -0.4365
  654TMC3    C5 9680   3.586   4.224   0.188 -0.4715  0.3634  0.4295
  654TMC3    C6 9681   3.466   4.291   0.189  0.5741 -0.1394  0.5339
  654TMC3     C 9682   3.836   4.480   0.207 -0.2284 -0.0106 -0.5280
  654TMC3     O 9683   3.929   4.403   0.233 -0.2661  0.5810 -0.1022
  654TMC3     H 9684   3.578   4.605   0.242 -0.6847 -0.5561  1.1928
  654TMC3    H1 9685   3.798   4.232   0.193 -0.2051  0.6922 -0.4048
  654TMC3    H2 9686   3.372   4.236   0.180  0.5059 -0.0218  0.5245
  654TMC3    C7 9687   3.581   4.095   0.130 -0.1822  0.8616  0.6823
  654TMC3    C8 9688   3.369   4.502   0.130 -0.6080 -0.4515 -0.4050
  654TMC3    O1 9689   3.505   4.084   0.035 -0.1264 -0.2852  0.0609
  654TMC3    O2 9690   3.395   4.623   0.138  0.1703 -0.5241 -0.0978
  655MPD2     C 9691   0.331   0.187  15.603 -0.1621 -0.3046 -0.8410
  655MPD2    C1 9692   0.204   0.135  15.581 -0.1605  0.2448 -0.5979
  655MPD2    C2 9693   0.183   0.033  15.482  0.6812  0.0448  0.2377
  655MPD2    C3 9694   0.298   4.706  15.416  0.3631  1.0107 -0.3238
  655MPD2    C4 9695   0.422   0.047  15.445 -0.2983  0.9413  0.0695
  655MPD2    C5 9696   0.432   0.152  15.529  0.2832  0.2156  0.5480
  655MPD2     H 9697   0.084   4.709  15.475 -1.0288  3.5523  1.6928
  655MPD2    H1 9698   0.515   0.006  15.406 -0.7236 -0.8432  0.9462
  655MPD2    H2 9699   0.348   0.257  15.684  1.5476 -1.3268 -0.3226
  655MPD2    H3 9700   0.532   0.181  15.560 -0.1805  2.6454 -0.1624
  655MPD2     N 9701   0.293   4.597  15.321  0.0899 -0.5081  0.0027
  655MPD2    H5 9702   0.373   4.565  15.266  0.2427 -0.5471  0.2491
  655MPD2    N1 9703   0.086   0.188  15.645 -0.2618  0.0570 -0.2013
  655MPD2    H7 9704   4.714   0.170  15.607 -0.7103  1.6329  0.1195
  656TMC3    C1 9705   4.689   0.336  15.801  0.1615 -0.3884 -1.1016
  656TMC3    C2 9706   4.677   0.387  15.927  0.0373 -0.1298 -0.1116
  656TMC3    C3 9707   4.573   0.473  15.954 -0.3155 -0.0137  0.6064
  656TMC3    C4 9708   4.608   0.376  15.694  0.1505  0.3836 -0.0070
  656TMC3    C5 9709   4.504   0.468  15.726  0.2636  0.1308  0.3559
  656TMC3    C6 9710   4.493   0.520  15.852 -0.6701  0.3301 -0.7151
  656TMC3     C 9711   0.088   0.249  15.772 -0.0912  0.2839 -0.8631
  656TMC3     O 9712   0.182   0.264  15.846  0.1532 -0.3690  0.6478
  656TMC3     H 9713   0.023   0.355  16.006 -2.1466 -1.1136  1.3517
  656TMC3    H1 9714   4.616   0.351  15.589  0.5747  1.1706 -0.1610
  656TMC3    H2 9715   4.418   0.596  15.875  1.1483  2.2856 -1.2586
  656TMC3    C7 9716   4.453   0.546  15.617 -0.9219 -0.1234  0.0170
  656TMC3    C8 9717   4.539   0.469  16.097 -0.5250 -0.4145  0.5439
  656TMC3    O1 9718   4.484   0.525  15.503  0.0950 -0.2266 -0.1145
  656TMC3    O2 9719   4.594   0.378  16.156 -0.7012  0.2138  0.0510
  657TMC3    C1 9720   3.920   4.160  14.963 -0.3026 -0.8566 -0.1972
  657TMC3    C2 9721   3.954   4.205  15.092  0.8220  0.8162  0.3216
  657TMC3    C3 9722   3.908   4.330  15.135 -0.3049  0.3211  0.6151
  657TMC3    C4 9723   3.853   4.240  14.871 -0.0637 -0.3864 -0.1702
  657TMC3    C5 9724   3.796   4.357  14.921 -0.3100 -0.3666 -0.2014
  657TMC3    C6 9725   3.825   4.408  15.046 -0.2860 -0.5375  0.0036
  657TMC3     C 9726   3.994   4.054  14.900 -0.0135 -0.4500 -0.2621
  657TMC3     O 9727   3.977   4.043  14.777  0.6674 -0.6454 -0.2629
  657TMC3     H 9728   4.013   4.147  15.162 -0.2151 -0.2257  0.3523
  657TMC3    H1 9729   3.815   4.195  14.780  2.9252 -1.4088 -0.8826
  657TMC3    H2 9730   3.779   4.500  15.081  1.4868  0.1158  0.6389
  657TMC3    C7 9731   3.700   4.429  14.832  0.4021  0.2486 -0.1315
  657TMC3    C8 9732   3.934   4.373  15.274  0.3491  0.4505 -0.5219
  657TMC3    O1 9733   3.628   4.509  14.887 -0.4855 -0.4234 -0.0601
  657TMC3    O2 9734   3.953   4.280  15.344  0.8985 -0.0933  0.1782
  658MPD2     C 9735   0.781   4.340  14.992  0.3810  0.3492 -0.4343
  658MPD2    C1 9736   0.673   4.320  14.915 -0.3778 -0.0947  0.5032
  658MPD2    C2 9737   0.692   4.291  14.779  0.6117 -0.1124  0.0553
  658MPD2    C3 9738   0.812   4.289  14.713 -0.4770  0.3689 -0.4103
  658MPD2    C4 9739   0.918   4.307  14.792  0.3235 -0.1913 -0.4503
  658MPD2    C5 9740   0.907   4.333  14.932  0.2206 -0.1222 -0.1768
  658MPD2     H 9741   0.603   4.287  14.718  1.2715 -3.5880 -0.6294
  658MPD2    H1 9742   1.019   4.301  14.752  0.4570 -0.1540 -0.1190
  658MPD2    H2 9743   0.773   4.356  15.098  3.4741 -0.2066 -0.1172
  658MPD2    H3 9744   0.995   4.355  14.991  0.8025  1.5146 -1.6773
  658MPD2     N 9745   0.818   4.269  14.571  0.0066  0.8275 -0.1980
  658MPD2    H5 9746   0.726   4.258  14.528  0.6833  0.0811 -1.4543
  658MPD2    N1 9747   0.541   4.349  14.975  0.2215 -0.3351 -0.0016
  658MPD2    H7 9748   0.545   4.391  15.067 -1.0814  0.0502 -0.1251
  659TMC3    C1 9749   0.314   4.386  14.968  0.7452  0.3967  0.6168
  659TMC3    C2 9750   0.306   4.416  15.103  0.2547 -0.5045  0.4258
  659TMC3    C3 9751   0.186   4.459  15.152  0.3253 -0.1377 -0.4326
  659TMC3    C4 9752   0.198   4.384  14.889 -0.1716  0.2317 -0.1860
  659TMC3    C5 9753   0.080   4.440  14.941 -0.4930  0.3969 -0.0138
  659TMC3    C6 9754   0.079   4.474  15.072 -0.8990 -0.1424  0.5490
  659TMC3     C 9755   0.426   4.332  14.905  0.3294 -0.3816  0.0951
  659TMC3     O 9756   0.399   4.262  14.811 -0.2076 -0.3285 -0.0257
  659TMC3     H 9757   0.387   4.415  15.176 -0.1529 -1.4324  0.8664
  659TMC3    H1 9758   0.209   4.361  14.783  2.7251 -1.6140  0.5315
  659TMC3    H2 9759   4.707   4.523  15.101 -0.0821  2.2794 -0.9821
  659TMC3    C7 9760   4.680   4.441  14.865  0.2692  0.0188  0.3092
  659TMC3    C8 9761   0.176   4.530  15.281  0.0100  0.4181  0.0356
  659TMC3    O1 9762   4.603   4.529  14.899  0.6411  0.0532  0.0060
  659TMC3    O2 9763   0.065   4.532  15.325  0.5780 -0.2735 -0.1209
  660MPD2     C 9764   4.038   2.701  12.681  0.1207  0.5510 -0.0161
  660MPD2    C1 9765   3.925   2.774  12.661 -0.7614  0.2742  0.3509
  660MPD2    C2 9766   3.802   2.727  12.718 -1.1393 -0.3623  0.3063
  660MPD2    C3 9767   3.798   2.613  12.792  0.5282  0.7016  0.4256
  660MPD2    C4 9768   3.912   2.538  12.803 -1.2118 -0.3271 -0.6700
  660MPD2    C5 9769   4.030   2.576  12.745  0.5440 -0.1328  0.0299
  660MPD2     H 9770   3.718   2.794  12.725 -0.6781  0.0588  1.8976
  660MPD2    H1 9771   3.905   2.442  12.853  2.5978  0.4392  1.3602
  660MPD2    H2 9772   4.137   2.734  12.654  0.6531 -0.6187  0.4910
  660MPD2    H3 9773   4.110   2.506  12.766  1.6218  1.7052  2.0430
  660MPD2     N 9774   3.687   2.570  12.865  0.1051 -0.1876 -0.3345
  660MPD2    H5 9775   3.701   2.487  12.922  1.4888  2.2858  2.9410
  660MPD2    N1 9776   3.950   2.901  12.604  0.3678  0.1977 -0.5113
  660MPD2    H7 9777   4.047   2.923  12.587  0.8754 -0.9946  0.8198
  661TMC3    C1 9778   3.907   3.108  12.510 -0.3631  1.0610 -0.7200
  661TMC3    C2 9779   4.012   3.079  12.419  0.0973 -0.7154 -0.2440
  661TMC3    C3 9780   4.051   3.175  12.333 -0.0744  0.0652  0.1824
  661TMC3    C4 9781   3.823   3.214  12.484  0.4988  0.0642  0.1285
  661TMC3    C5 9782   3.862   3.307  12.387 -0.4290  0.4244 -0.0022
  661TMC3    C6 9783   3.979   3.292  12.321  0.0761 -0.8051 -0.5593
  661TMC3     C 9784   3.856   2.999  12.587 -0.3205 -0.8716  0.0531
  661TMC3     O 9785   3.746   3.008  12.635  0.1870  0.1121 -0.4746
  661TMC3     H 9786   4.059   2.983  12.406  1.5226 -0.0202 -0.2629
  661TMC3    H1 9787   3.726   3.221  12.533 -0.1937  0.2415 -1.2728
  661TMC3    H2 9788   4.006   3.367  12.248  0.6816  1.3345  1.8764
  661TMC3    C7 9789   3.745   3.373  12.330  0.0485 -0.3284 -0.1967
  661TMC3    C8 9790   4.132   3.146  12.220  0.3891 -0.2234  0.1439
  661TMC3    O1 9791   3.661   3.410  12.409 -0.0869  0.2087  0.3494
  661TMC3    O2 9792   4.108   3.046  12.158  0.3697  0.0843 -0.2723
  662MPD2     C 9793   3.645   3.760  17.164  0.1290 -0.3595 -0.2541
  662MPD2    C1 9794   3.599   3.669  17.257  0.9928  0.2330 -0.6959
  662MPD2    C2 9795   3.502   3.708  17.351 -0.8600 -0.2232  0.2695
  662MPD2    C3 9796   3.457   3.841  17.349 -0.5032  0.3739  0.6048
  662MPD2    C4 9797   3.502   3.931  17.258 -0.6393 -0.4609  0.2465
  662MPD2    C5 9798   3.588   3.885  17.164  0.3455 -0.0807 -0.1705
  662MPD2     H 9799   3.456   3.641  17.422  0.8078 -1.5379  0.1017
  662MPD2    H1 9800   3.467   4.034  17.259 -2.3510 -1.0712  2.1858
  662MPD2    H2 9801   3.707   3.725  17.082  1.5150 -0.5483  0.8841
  662MPD2    H3 9802   3.626   3.942  17.079 -0.2009 -1.3328 -1.2457
  662MPD2     N 9803   3.363   3.884  17.443  0.0077  0.2425  0.0436
  662MPD2    H5 9804   3.305   3.963  17.415  1.9797  2.3231  1.9040
  662MPD2    N1 9805   3.629   3.536  17.272 -0.6117 -0.1528 -0.1538
  662MPD2    H7 9806   3.574   3.479  17.335  0.0783  0.2111  0.8034
  663TMC3    C1 9807   3.726   3.333  17.264 -1.0318  0.4102 -0.4654
  663TMC3    C2 9808   3.680   3.339  17.395 -0.0478  0.4209  0.0292
  663TMC3    C3 9809   3.638   3.227  17.453 -0.2956 -0.2785  0.0981
  663TMC3    C4 9810   3.709   3.229  17.183  0.1795  0.6391  0.4006
  663TMC3    C5 9811   3.650   3.122  17.239 -0.0016 -0.0186  1.0066
  663TMC3    C6 9812   3.644   3.112  17.377 -0.2231  0.0998 -0.4722
  663TMC3     C 9813   3.705   3.454  17.182 -0.3332  0.2982  0.3904
  663TMC3     O 9814   3.766   3.470  17.074  0.5494  0.3148  0.5358
  663TMC3     H 9815   3.716   3.418  17.461  0.7232  0.0136  0.0913
  663TMC3    H1 9816   3.731   3.239  17.078 -1.6130 -0.1648 -0.0477
  663TMC3    H2 9817   3.603   3.026  17.428  0.3653  1.6805  2.6142
  663TMC3    C7 9818   3.612   3.015  17.164 -0.3608  0.7318  0.4890
  663TMC3    C8 9819   3.698   3.199  17.581 -0.1196 -0.6469 -0.3335
  663TMC3    O1 9820   3.645   3.019  17.045 -0.1720  0.4991 -0.1601
  663TMC3    O2 9821   3.750   3.094  17.603  0.6500 -0.5273 -0.1420
  664MPD2     C 9822   1.690   1.382   0.141 -0.2231  0.1658  0.2828
  664MPD2    C1 9823   1.785   1.476   0.123  0.0672  0.4848 -0.8549
  664MPD2    C2 9824   1.895   1.476   0.210  0.1731 -0.2383 -0.2099
  664MPD2    C3 9825   1.899   1.392   0.318  0.0457  0.4026  0.1931
  664MPD2    C4 9826   1.799   1.295   0.340 -0.2197 -0.0421  0.4309
  664MPD2    C5 9827   1.699   1.299   0.252  0.4526  0.1469  0.0740
  664MPD2     H 9828   1.969   1.554   0.196 -1.3897  0.9568 -1.8462
  664MPD2    H1 9829   1.791   1.219   0.417 -0.9703 -0.6982 -0.3082
  664MPD2    H2 9830   1.596   1.393   0.088  0.8606 -1.0512 -1.9072
  664MPD2    H3 9831   1.616   1.237   0.283  1.1913 -1.0381 -0.3039
  664MPD2     N 9832   2.012   1.398   0.402 -0.0666 -0.1570 -0.7874
  664MPD2    H5 9833   2.089   1.459   0.376  1.1707 -1.6483 -0.5824
  664MPD2    N1 9834   1.781   1.569   0.010 -0.0799  0.3260  0.0090
  664MPD2    H7 9835   1.862   1.630   0.002  1.7774 -2.5691 -3.5445
  665TMC3    C1 9836   2.144   1.357   0.585  0.3177  0.2531 -0.1273
  665TMC3    C2 9837   2.188   1.269   0.678 -0.2996 -0.2191 -0.2584
  665TMC3    C3 9838   2.278   1.307   0.768 -0.5760  0.0753 -0.1213
  665TMC3    C4 9839   2.192   1.492   0.575  0.0267 -0.6508 -0.0906
  665TMC3    C5 9840   2.282   1.521   0.676  0.2653  0.1462  0.5548
  665TMC3    C6 9841   2.335   1.432   0.763  0.5767 -0.0907 -0.1839
  665TMC3     C 9842   2.042   1.308   0.498 -0.4854 -0.0876 -0.0701
  665TMC3     O 9843   1.988   1.207   0.530 -0.1671 -0.4392 -0.2302
  665TMC3     H 9844   2.165   1.164   0.669 -2.4978  0.2575 -0.0957
  665TMC3    H1 9845   2.157   1.570   0.509 -3.2616 -1.4339  0.6973
  665TMC3    H2 9846   2.422   1.456   0.822  0.2638 -0.2154  0.3346
  665TMC3    C7 9847   2.328   1.660   0.679  0.2533  0.3675  0.4516
  665TMC3    C8 9848   2.312   1.231   0.887 -0.2089  0.5914 -0.4412
  665TMC3    O1 9849   2.340   1.718   0.574 -0.2148  0.0093 -0.5552
  665TMC3    O2 9850   2.419   1.254   0.939 -1.3625 -0.5263  1.1535
  666TMC3    C1 9851   1.125   4.707  10.277 -0.4378  0.0287 -0.1339
  666TMC3    C2 9852   1.239   4.689  10.351 -0.1499 -0.0346  0.6156
  666TMC3    C3 9853   1.319   0.068  10.357 -1.2911  0.1867 -1.4180
  666TMC3    C4 9854   1.084   0.103  10.218 -0.3824 -0.3331  0.4480
  666TMC3    C5 9855   1.167   0.207  10.242 -0.0156  1.0079  0.2086
  666TMC3    C6 9856   1.290   0.194  10.303  0.2308 -0.0334  0.4674
  666TMC3     C 9857   1.036   4.593  10.265 -0.2090 -0.1413 -0.0204
  666TMC3     O 9858   1.052   4.505  10.351 -0.0143 -0.2664  0.4101
  666TMC3     H 9859   1.284   4.592  10.366  1.8902  0.7981 -0.1111
  666TMC3    H1 9860   0.998   0.114  10.152  0.2870 -0.1145 -0.3748
  666TMC3    H2 9861   1.347   0.285  10.312  1.3000 -0.5326 -1.2622
  666TMC3    C7 9862   1.112   0.340  10.213 -0.2534  0.2148  0.3087
  666TMC3    C8 9863   1.431   0.061  10.444  0.0520  0.4529 -0.0861
  666TMC3    O1 9864   0.992   0.349  10.223 -0.1571 -0.9016  0.9525
  666TMC3    O2 9865   1.441   4.684  10.515  0.0666 -0.3084  0.3609
  667MPD2     C 9866   2.612   1.424  14.802  0.3364  0.4411  0.2006
  667MPD2    C1 9867   2.626   1.391  14.938  0.2614 -0.0434 -0.1978
  667MPD2    C2 9868   2.566   1.275  14.983 -0.0543 -0.2420  0.8757
  667MPD2    C3 9869   2.507   1.181  14.903  0.4383  0.0809 -0.1264
  667MPD2    C4 9870   2.495   1.205  14.769  0.2232 -0.3744 -0.3364
  667MPD2    C5 9871   2.534   1.330  14.724 -0.3819  0.1135  0.3210
  667MPD2     H 9872   2.574   1.261  15.090  0.4151  1.1883  1.0300
  667MPD2    H1 9873   2.454   1.137  14.696  2.8469 -1.4963 -0.7574
  667MPD2    H2 9874   2.651   1.516  14.760  3.9591 -0.8334  0.7730
  667MPD2    H3 9875   2.509   1.364  14.624 -2.8308 -0.3032  0.8037
  667MPD2     N 9876   2.448   1.061  14.949  0.3355 -0.0114 -0.0917
  667MPD2    H5 9877   2.412   0.992  14.884 -0.4580  0.3105 -0.0052
  667MPD2    N1 9878   2.682   1.479  15.032  0.5194 -0.3216 -0.1673
  667MPD2    H7 9879   2.664   1.467  15.131  1.4150 -1.5038 -0.1494
  668TMC3    C1 9880   2.793   1.682  15.103 -0.0184  0.7964  0.0040
  668TMC3    C2 9881   2.899   1.759  15.088  0.0691 -0.3972 -0.0885
  668TMC3    C3 9882   2.916   1.867  15.171 -0.9707  0.7008 -0.4728
  668TMC3    C4 9883   2.704   1.711  15.205 -0.2491  0.0684 -0.7320
  668TMC3    C5 9884   2.730   1.811  15.295 -0.6529 -0.2283  0.5414
  668TMC3    C6 9885   2.829   1.903  15.273  0.1448  0.6175 -0.9975
  668TMC3     C 9886   2.757   1.586  14.996 -0.2426  0.4390 -0.6572
  668TMC3     O 9887   2.819   1.598  14.891 -0.0336  0.2399 -0.5964
  668TMC3     H 9888   2.969   1.728  15.010 -0.2267 -1.2379 -0.0254
  668TMC3    H1 9889   2.634   1.635  15.238  1.2656  0.0905  2.5520
  668TMC3    H2 9890   2.851   1.990  15.334  0.1240  1.1622 -1.7717
  668TMC3    C7 9891   2.723   1.779  15.436  0.6662 -0.4294  0.4545
  668TMC3    C8 9892   3.005   1.975  15.133 -0.2194  0.5220 -0.2485
  668TMC3    O1 9893   2.806   1.828  15.508 -0.7813  0.1183 -0.0994
  668TMC3    O2 9894   3.008   2.074  15.208  0.3126 -0.8702  0.4868
  669TMC3    C1 9895   0.914   1.374  14.469  0.4652  0.4674  0.2179
  669TMC3    C2 9896   0.807   1.408  14.389  0.1657  0.0308  0.0710
  669TMC3    C3 9897   0.833   1.453  14.260 -0.0316 -0.4602 -0.8510
  669TMC3    C4 9898   1.040   1.397  14.432  0.1671  0.3104 -0.4165
  669TMC3    C5 9899   1.060   1.459  14.315  0.2786 -0.1715  0.2420
  669TMC3    C6 9900   0.963   1.486  14.222 -0.2699 -0.2446  0.1231
  669TMC3     C 9901   0.888   1.303  14.594  0.4540 -0.3823  0.6037
  669TMC3     O 9902   0.769   1.295  14.627 -0.3531 -0.3867  0.1311
  669TMC3     H 9903   0.705   1.397  14.424  0.4408 -0.9929  0.5391
  669TMC3    H1 9904   1.127   1.371  14.490  2.1448  2.4998 -2.3759
  669TMC3    H2 9905   0.981   1.539  14.130  2.9528  0.1173  0.9794
  669TMC3    C7 9906   1.197   1.522  14.304  0.1808 -0.6553  0.0458
  669TMC3    C8 9907   0.756   1.385  14.158 -0.2000  1.1062  0.3965
  669TMC3    O1 9908   1.263   1.534  14.405  0.0395 -0.1816  0.2454
  669TMC3    O2 9909   0.690   1.293  14.201 -0.6817 -0.2796  0.0598
  670MPD2     C 9910   3.429   3.430  13.535 -0.2092 -0.2758  0.2497
  670MPD2    C1 9911   3.517   3.517  13.596  0.1858 -0.1302  0.8317
  670MPD2    C2 9912   3.535   3.514  13.729 -0.1098  0.1807  0.2975
  670MPD2    C3 9913   3.461   3.428  13.811  0.3889  1.0113  0.2092
  670MPD2    C4 9914   3.374   3.347  13.749 -0.6112  0.4243 -0.1948
  670MPD2    C5 9915   3.357   3.342  13.613 -0.3970  0.3666  0.5197
  670MPD2     H 9916   3.592   3.584  13.788 -1.3854  0.8345  0.7648
  670MPD2    H1 9917   3.299   3.291  13.804  0.2331 -0.6191 -0.0934
  670MPD2    H2 9918   3.398   3.442  13.432  2.2765 -0.5998 -0.5454
  670MPD2    H3 9919   3.277   3.280  13.575  0.1149  0.5804 -0.9041
  670MPD2     N 9920   3.470   3.443  13.950 -0.3620  0.2869  0.8374
  670MPD2    H5 9921   3.514   3.530  13.978  1.6706 -1.2057  2.2048
  670MPD2    N1 9922   3.585   3.619  13.529 -0.5758 -0.7125 -0.1674
  670MPD2    H7 9923   3.616   3.699  13.583  1.1327 -1.6020  0.1667
  671TMC3    C1 9924   3.439   3.405  14.182  0.6050 -0.1509  0.9130
  671TMC3    C2 9925   3.569   3.402  14.206 -0.4810 -0.5059  0.0356
  671TMC3    C3 9926   3.616   3.325  14.310 -0.3705 -0.1372 -0.3682
  671TMC3    C4 9927   3.357   3.335  14.263  0.2040 -0.6316 -0.3177
  671TMC3    C5 9928   3.399   3.274  14.380 -0.1800  0.1991  0.0123
  671TMC3    C6 9929   3.533   3.269  14.402  0.1909  0.2836  0.2987
  671TMC3     C 9930   3.411   3.362  14.042  0.0142  0.8125 -0.5178
  671TMC3     O 9931   3.363   3.249  14.020 -0.0143  0.3138  0.6797
  671TMC3     H 9932   3.639   3.427  14.128 -2.0638  0.5510 -1.0512
  671TMC3    H1 9933   3.252   3.332  14.237  0.3321  0.2547 -0.9045
  671TMC3    H2 9934   3.562   3.206  14.486  1.2372  0.1713 -0.1484
  671TMC3    C7 9935   3.356   3.139  14.396 -0.0611  0.4932  0.2870
  671TMC3    C8 9936   3.730   3.241  14.274 -0.3797  0.3690  0.4184
  671TMC3    O1 9937   3.369   3.079  14.502  0.6180 -0.1377  0.2516
  671TMC3    O2 9938   3.771   3.247  14.160  0.0199  0.3079 -0.2731
  672MPD2     C 9939   3.895   4.248   0.794 -0.0763 -0.2046  0.1281
  672MPD2    C1 9940   3.990   4.351   0.790 -0.1156  0.1492 -0.5562
  672MPD2    C2 9941   3.997   4.428   0.906  0.0733  0.5952  0.1399
  672MPD2    C3 9942   3.918   4.400   1.015  0.6560 -0.5218  0.3991
  672MPD2    C4 9943   3.826   4.304   1.013  0.3890 -0.4067 -0.2520
  672MPD2    C5 9944   3.806   4.236   0.897 -0.1709 -0.5280  0.6199
  672MPD2     H 9945   4.064   4.513   0.902 -0.6076  1.1928  1.7061
  672MPD2    H1 9946   3.763   4.288   1.100  1.7749  0.5836  0.9238
  672MPD2    H2 9947   3.878   4.186   0.706 -0.7761  0.6615 -0.3452
  672MPD2    H3 9948   3.726   4.162   0.898 -0.1012 -0.6213 -1.3397
  672MPD2     N 9949   3.929   4.482   1.129 -0.1614 -0.0813 -0.0169
  672MPD2    H5 9950   3.856   4.478   1.199 -0.3540 -0.0816 -0.2170
  672MPD2    N1 9951   4.067   4.376   0.680  0.6761 -0.6488  0.1282
  672MPD2    H7 9952   4.133   4.454   0.678  0.6527 -0.5530  3.0576
  673TMC3    C1 9953   4.183   4.348   0.476  0.0137 -0.5645 -0.2198
  673TMC3    C2 9954   4.283   4.263   0.435 -0.0949  0.5332 -0.3668
  673TMC3    C3 9955   4.399   4.310   0.384  0.0518  0.2961 -0.1372
  673TMC3    C4 9956   4.197   4.483   0.473  0.0094  0.5147  0.5750
  673TMC3    C5 9957   4.313   4.528   0.419 -0.5291 -0.1995  0.0392
  673TMC3    C6 9958   4.415   4.443   0.372 -0.3713 -0.2218 -0.2553
  673TMC3     C 9959   4.086   4.292   0.571 -0.4123  0.2391  0.0007
  673TMC3     O 9960   4.045   4.178   0.551  0.1675 -0.5003  0.3815
  673TMC3     H 9961   4.265   4.156   0.425  0.4151  0.5848 -1.8434
  673TMC3    H1 9962   4.116   4.553   0.494  0.4120  1.2057 -0.1998
  673TMC3    H2 9963   4.515   4.479   0.353  0.0725 -1.2162  0.2008
  673TMC3    C7 9964   4.339   4.670   0.414  0.4842  0.6269  0.3400
  673TMC3    C8 9965   4.515   4.230   0.399  0.0412 -0.1041  0.0117
  673TMC3    O1 9966   4.455   4.704   0.382  0.2695 -0.3285 -0.1639
  673TMC3    O2 9967   4.588   4.229   0.299  0.1077  0.0353 -0.4853
  674MPD2     C 9968   3.616   4.034   1.612  0.0786  0.8194 -0.5239
  674MPD2    C1 9969   3.646   4.058   1.478  0.2834  0.8254  0.7704
  674MPD2    C2 9970   3.559   4.010   1.386  0.0987 -0.3939  0.0940
  674MPD2    C3 9971   3.440   3.954   1.423  0.3004 -0.1872 -0.2812
  674MPD2    C4 9972   3.414   3.935   1.561  0.5199 -0.6074  0.8148
  674MPD2    C5 9973   3.508   3.962   1.657  0.6290  0.1495 -0.6427
  674MPD2     H 9974   3.578   4.023   1.280  0.5514 -0.8719  0.1160
  674MPD2    H1 9975   3.322   3.894   1.599  0.8348 -0.6806  1.5057
  674MPD2    H2 9976   3.684   4.083   1.681  1.9747  0.6725 -2.2660
  674MPD2    H3 9977   3.497   3.950   1.764  1.6221  4.8647 -0.0109
  674MPD2     N 9978   3.344   3.933   1.320  0.5175  0.0158 -0.2254
  674MPD2    H5 9979   3.375   3.977   1.234  0.9150  0.2700  0.0498
  674MPD2    N1 9980   3.770   4.120   1.443  0.0766  0.3909  0.0007
  674MPD2    H7 9981   3.821   4.147   1.527 -1.1323  0.4936  0.7017
  675TMC3    C1 9982   3.972   4.178   1.341  0.0895 -0.0635 -0.0919
  675TMC3    C2 9983   3.996   4.244   1.454  0.4082  0.2976  0.2163
  675TMC3    C3 9984   4.122   4.227   1.499  0.7890 -0.0660 -0.2930
  675TMC3    C4 9985   4.072   4.113   1.267  0.2526  0.7967  0.0954
  675TMC3    C5 9986   4.200   4.103   1.313 -0.6647  0.5611  0.1272
  675TMC3    C6 9987   4.218   4.152   1.440  0.3871  0.5383 -0.7667
  675TMC3     C 9988   3.843   4.116   1.325 -0.2622 -0.4108 -0.0448
  675TMC3     O 9989   3.814   4.061   1.221 -0.0125 -0.1645  0.4655
  675TMC3     H 9990   3.916   4.283   1.515 -3.1139 -1.7022 -3.0625
  675TMC3    H1 9991   4.046   4.046   1.186  1.2436  0.5630 -0.0242
  675TMC3    H2 9992   4.316   4.158   1.487  0.3755 -2.0982 -0.3829
  675TMC3    C7 9993   4.300   4.012   1.255 -0.3592 -0.1144 -0.2432
  675TMC3    C8 9994   4.136   4.278   1.636 -0.0184 -0.2021 -0.9596
  675TMC3    O1 9995   4.268   3.969   1.144 -0.4566 -0.0101 -0.6983
  675TMC3    O2 9996   4.063   4.377   1.660  0.1269 -0.4815  0.2936
  676MPD2     C 9997   1.811   1.831  11.116 -0.5078 -0.1565  0.2138
  676MPD2    C1 9998   1.852   1.725  11.194 -0.0109  0.0200 -0.2617
  676MPD2    C2 9999   1.874   1.601  11.131  0.6854  0.0354  0.0223
  676MPD2    C310000   1.854   1.580  10.993  0.5783 -0.8329  0.6810
  676MPD2    C410001   1.851   1.696  10.916 -0.1707 -0.4162  0.1584
  676MPD2    C510002   1.824   1.821  10.976  0.0350 -0.5194  0.1740
  676MPD2     H10003   1.894   1.515  11.193 -0.4705  0.0216  0.3803
  676MPD2    H110004   1.861   1.692  10.808  0.1184  3.8384  0.0127
  676MPD2    H210005   1.797   1.932  11.155 -3.1362 -0.2437 -0.5146
  676MPD2    H310006   1.807   1.907  10.912  1.5344  0.2360  0.7767
  676MPD2     N10007   1.859   1.454  10.924 -0.2872 -0.0105 -0.4203
  676MPD2    H510008   1.837   1.457  10.825 -0.9703 -2.4442 -0.3456
  676MPD2    N110009   1.881   1.735  11.330  0.3665  0.4875  0.3639
  676MPD2    H710010   1.904   1.649  11.379 -0.3799  0.8193  1.2980
  677TMC3    C110011   1.946   1.844  11.531 -0.0808 -0.8024  0.3761
  677TMC3    C210012   2.000   1.722  11.573 -0.3463  0.3462  0.2305
  677TMC3    C310013   2.032   1.712  11.706  0.9115 -1.0341  0.1092
  677TMC3    C410014   1.946   1.954  11.606  0.5347  0.0921  1.1117
  677TMC3    C510015   1.982   1.939  11.738  0.1427  0.5607  0.9232
  677TMC3    C610016   2.016   1.816  11.795 -0.3476 -0.6072  0.1012
  677TMC3     C10017   1.892   1.856  11.400  0.3823 -0.3198 -0.0437
  677TMC3     O10018   1.865   1.972  11.364  0.3282 -0.0909 -0.1664
  677TMC3     H10019   2.019   1.632  11.515  0.2693  0.2472  0.5837
  677TMC3    H110020   1.917   2.050  11.565 -0.6660 -0.9077 -0.3658
  677TMC3    H210021   2.060   1.815  11.893  0.0163 -2.2245 -0.0740
  677TMC3    C710022   2.046   2.055  11.798 -0.1106  0.0595 -0.1269
  677TMC3    C810023   2.164   1.656  11.709 -0.0554  0.3350 -0.3869
  677TMC3    O110024   2.056   2.055  11.921  0.0643 -0.0342 -0.2451
  677TMC3    O210025   2.241   1.689  11.617  0.1012  0.8893 -0.3118
  678MPD2     C10026   2.983   3.107   1.744  0.5225  0.7819  0.0987
  678MPD2    C110027   3.064   3.010   1.686  0.2022 -0.4363  0.5084
  678MPD2    C210028   3.006   2.905   1.619 -0.1026  0.3706 -0.7095
  678MPD2    C310029   2.868   2.893   1.611  0.3595 -0.0685 -0.3111
  678MPD2    C410030   2.789   2.991   1.663 -0.0433  0.1401 -0.0607
  678MPD2    C510031   2.847   3.100   1.723 -0.0418 -0.3857 -0.2454
  678MPD2     H10032   3.067   2.845   1.552 -0.3595 -0.8078  0.1114
  678MPD2    H110033   2.681   2.986   1.667 -0.0609  0.2633 -0.3676
  678MPD2    H210034   3.016   3.197   1.794 -0.7886  0.6774  1.1642
  678MPD2    H310035   2.781   3.172   1.769 -1.1132 -1.1682 -0.5688
  678MPD2     N10036   2.825   2.763   1.574 -0.2469  0.3344 -0.6539
  678MPD2    H510037   2.904   2.704   1.549 -2.1915 -3.1113  1.3103
  678MPD2    N110038   3.206   3.019   1.677 -0.4564  0.2389  0.0513
  678MPD2    H710039   3.256   2.941   1.635 -0.8018 -0.1990  0.4478
  679TMC3    C110040   3.608   3.000   1.595 -0.4414  0.2953 -1.0493
  679TMC3    C210041   3.498   3.017   1.672  0.5482 -0.2349  0.2757
  679TMC3    C310042   3.413   3.126   1.657 -0.5853  0.0301 -1.2557
  679TMC3    C410043   3.637   3.100   1.502  0.5797 -0.1435  0.4741
  679TMC3    C510044   3.557   3.205   1.493  0.4865 -0.7903 -0.2708
  679TMC3    C610045   3.436   3.219   1.562  0.0781  0.3675 -0.2381
  679TMC3     C10046   3.655   2.859   1.576 -0.0958  0.6480 -0.2654
  679TMC3     O10047   3.707   2.834   1.468  0.2878  0.0062  0.0771
  679TMC3     H10048   3.459   2.945   1.743  1.1295 -1.3098 -0.5010
  679TMC3    H110049   3.725   3.094   1.438 -1.3473 -1.3796 -2.0718
  679TMC3    H210050   3.367   3.301   1.547 -0.8345 -0.4874 -0.6562
  679TMC3    C710051   3.576   3.291   1.380  0.0007  0.0805  0.0579
  679TMC3    C810052   3.282   3.126   1.719  0.6432  0.7157 -0.3611
  679TMC3    O110053   3.470   3.325   1.331  0.1678  0.3474  0.5787
  679TMC3    O210054   3.239   3.239   1.731  0.5855  0.1924  0.6403
  680MPD2     C10055   3.937   0.460  13.630 -0.0155  0.4273  0.9466
  680MPD2    C110056   3.914   0.429  13.763 -0.0427  0.3378 -0.4493
  680MPD2    C210057   3.920   0.518  13.863  0.7961 -0.5784 -0.3134
  680MPD2    C310058   3.962   0.649  13.835 -0.4731  0.8526  0.0634
  680MPD2    C410059   3.992   0.677  13.703  0.5566 -0.3723 -0.4604
  680MPD2    C510060   3.982   0.586  13.601 -0.3248  0.4142  0.4183
  680MPD2     H10061   3.895   0.486  13.964 -0.7823 -0.3309 -0.6270
  680MPD2    H110062   4.021   0.778  13.680 -3.6244  0.7316 -0.8829
  680MPD2    H210063   3.921   0.388  13.550 -1.8369  2.0725 -0.1815
  680MPD2    H310064   4.021   0.615  13.504  0.1628 -0.3909  0.3733
  680MPD2     N10065   4.007   0.738  13.927  0.4455 -0.7330 -0.2017
  680MPD2    H510066   4.056   0.820  13.892 -0.3293  0.2706  1.0914
  680MPD2    N110067   3.873   0.293  13.795 -0.3271 -0.3326  0.1151
  680MPD2    H710068   3.850   0.283  13.893 -2.7440  2.2622 -0.1716
  681TMC3    C110069   3.783   0.079  13.747 -0.1289 -0.7419 -0.8252
  681TMC3    C210070   3.662   0.115  13.800 -0.1391 -0.7772 -0.3082
  681TMC3    C310071   3.556   0.034  13.766  0.3431  0.1651  0.4186
  681TMC3    C410072   3.788   4.697  13.655 -0.4597  0.1570  0.3131
  681TMC3    C510073   3.677   4.626  13.617 -0.3458  0.3730  0.8024
  681TMC3    C610074   3.562   4.649  13.677 -0.1000  0.7176 -0.0762
  681TMC3     C10075   3.879   0.183  13.709  0.1578 -0.1751 -0.5376
  681TMC3     O10076   3.943   0.169  13.604 -0.0053  0.5465  0.5792
  681TMC3     H10077   3.654   0.206  13.859  3.1362  1.2340 -2.9485
  681TMC3    H110078   3.886   4.667  13.619 -1.1721  1.0832 -2.4223
  681TMC3    H210079   3.473   4.594  13.649  0.1228 -0.2102  1.0745
  681TMC3    C710080   3.676   4.591  13.478 -0.4435  0.2655  0.7108
  681TMC3    C810081   3.427   0.077  13.792  0.0529  0.1469 -0.7041
  681TMC3    O110082   3.576   4.530  13.440  0.1841 -0.0023 -0.1153
  681TMC3    O210083   3.340   0.044  13.712 -0.2524  0.0140  0.1258
  682MPD2     C10084   0.710   1.485  10.520  0.4034  0.0070  0.3759
  682MPD2    C110085   0.686   1.358  10.575 -0.7363  0.6454  0.2655
  682MPD2    C210086   0.677   1.343  10.710 -0.4124  0.1772 -0.3793
  682MPD2    C310087   0.686   1.451  10.794 -0.4074 -0.0167 -0.5587
  682MPD2    C410088   0.721   1.573  10.738  0.3808  0.1892  0.5016
  682MPD2    C510089   0.737   1.587  10.605  0.3768  0.4071  0.3131
  682MPD2     H10090   0.650   1.246  10.751  1.7515  0.1689  1.0062
  682MPD2    H110091   0.725   1.666  10.794  2.9241  0.4721 -0.1649
  682MPD2    H210092   0.709   1.512  10.415 -2.0701 -1.4100  0.0186
  682MPD2    H310093   0.772   1.679  10.561  0.7180 -0.5482 -1.4290
  682MPD2     N10094   0.643   1.425  10.926  0.3376 -0.1359 -0.5204
  682MPD2    H510095   0.630   1.326  10.943 -0.0919 -0.5060 -3.0215
  682MPD2    N110096   0.653   1.253  10.498 -0.1927 -0.6845 -0.6336
  682MPD2    H710097   0.619   1.170  10.544 -0.6803  0.5343  1.1966
  683TMC3    C110098   0.724   1.374  11.350  1.2197 -0.0041 -0.2398
  683TMC3    C210099   0.627   1.275  11.365  0.4143  0.1518 -0.2064
  683TMC3    C310100   0.534   1.266  11.264 -0.2454 -0.9874  0.4530
  683TMC3    C410101   0.716   1.460  11.240 -0.6317  0.2370  0.7409
  683TMC3    C510102   0.619   1.441  11.151 -0.1061 -0.1432  0.9318
  683TMC3    C610103   0.522   1.350  11.162 -0.4341  0.0674  0.3891
  683TMC3     C10104   0.848   1.374  11.428  0.5399  0.5161 -0.2608
  683TMC3     O10105   0.920   1.472  11.418 -0.1841  0.0748  0.7578
  683TMC3     H10106   0.620   1.217  11.457 -0.0712  1.1313  0.3669
  683TMC3    H110107   0.777   1.550  11.233  1.8873 -1.4680  0.8964
  683TMC3    H210108   0.444   1.343  11.086  1.5338 -2.0364 -1.4319
  683TMC3    C710109   0.644   1.514  11.032  0.1352  0.3779  0.0769
  683TMC3    C810110   0.424   1.173  11.275  0.2942  0.4893  0.1766
  683TMC3    O110111   0.678   1.631  11.034 -0.0696 -0.2861 -0.6512
  683TMC3    O210112   0.318   1.218  11.236 -0.1086 -0.0259 -0.5653
  684MPD2     C10113   3.520   1.866  16.644 -0.3412  0.7396 -0.3191
  684MPD2    C110114   3.535   1.894  16.512 -0.5874 -0.1873  0.5937
  684MPD2    C210115   3.605   2.007  16.470 -0.0133  0.0162  0.8384
  684MPD2    C310116   3.664   2.097  16.554 -0.2032 -0.0028 -0.2603
  684MPD2    C410117   3.648   2.077  16.692  0.3110 -0.1650  0.1395
  684MPD2    C510118   3.574   1.964  16.725  0.0038 -0.2450  0.7272
  684MPD2     H10119   3.617   2.019  16.363  0.7375  0.0317  0.9221
  684MPD2    H110120   3.697   2.140  16.766  0.0192  0.3765 -0.1318
  684MPD2    H210121   3.479   1.774  16.683  1.1128  0.0734 -0.3466
  684MPD2    H310122   3.561   1.940  16.830  1.1618  0.9475  1.1546
  684MPD2     N10123   3.738   2.214  16.514 -0.6354 -0.1438  0.4914
  684MPD2    H510124   3.779   2.265  16.592  0.7237 -2.2561  1.1502
  684MPD2    N110125   3.494   1.798  16.415 -0.4216 -0.1211 -0.0089
  684MPD2    H710126   3.507   1.823  16.317 -1.6979 -2.1359 -0.7058
  685TMC3    C110127   3.416   1.616  16.306 -0.0534 -0.0087  0.1468
  685TMC3    C210128   3.318   1.667  16.234 -0.3696  0.0264  0.0758
  685TMC3    C310129   3.323   1.674  16.099  0.3649  0.1043  0.2046
  685TMC3    C410130   3.529   1.571  16.257 -0.4624 -0.4230 -0.4404
  685TMC3    C510131   3.540   1.576  16.120  1.2206 -0.6153 -1.3613
  685TMC3    C610132   3.438   1.618  16.041  0.7693  0.5173  0.1833
  685TMC3     C10133   3.425   1.679  16.433  0.1344  0.8439  0.0882
  685TMC3     O10134   3.381   1.632  16.535  0.3327 -0.5052  0.0494
  685TMC3     H10135   3.246   1.730  16.285  0.5455 -1.0110  2.6403
  685TMC3    H110136   3.606   1.527  16.319 -2.5769 -0.8266  1.9030
  685TMC3    H210137   3.459   1.636  15.937 -0.3795  1.2960  0.0962
  685TMC3    C710138   3.669   1.575  16.063 -0.1189 -0.0099 -0.2995
  685TMC3    C810139   3.213   1.706  16.013 -0.6493  0.1333  0.2447
  685TMC3    O110140   3.675   1.562  15.942  0.5399 -0.0337 -0.1674
  685TMC3    O210141   3.228   1.699  15.890 -0.1187  0.1327  0.1133
  686MPD2     C10142   0.071   1.950  15.341 -0.5559  0.1963 -0.1859
  686MPD2    C110143   0.094   1.846  15.426 -0.2763 -0.2703 -0.2211
  686MPD2    C210144   0.218   1.787  15.418  0.9273 -0.1033  0.9193
  686MPD2    C310145   0.304   1.813  15.321 -0.0464 -0.1906  0.0579
  686MPD2    C410146   0.278   1.915  15.229 -0.4584  1.0675  0.2981
  686MPD2    C510147   0.171   1.985  15.250 -0.2782 -0.7449  0.0525
  686MPD2     H10148   0.238   1.692  15.465 -3.4594  0.3793  3.7705
  686MPD2    H110149   0.353   1.954  15.161 -0.1138  0.2591  0.2158
  686MPD2    H210150   4.697   2.003  15.335 -2.1837 -2.5665  0.9481
  686MPD2    H310151   0.159   2.071  15.184  1.2717  0.0477  0.8125
  686MPD2     N10152   0.409   1.724  15.309 -0.0114  0.1645 -0.3127
  686MPD2    H510153   0.426   1.665  15.390 -1.1093  1.3656  0.7759
  686MPD2    N110154   4.718   1.810  15.522 -0.5021 -0.5858 -0.8487
  686MPD2    H710155   4.641   1.876  15.525  0.3826  0.5180 -1.9669
  687TMC3    C110156   0.507   1.551  15.217  1.0649 -0.2317 -0.6630
  687TMC3    C210157   0.415   1.454  15.179  1.5646 -0.5776  0.6848
  687TMC3    C310158   0.417   1.329  15.244  0.4973 -0.3247 -0.0822
  687TMC3    C410159   0.578   1.533  15.331 -0.2348 -0.5317  0.0541
  687TMC3    C510160   0.579   1.419  15.397  0.2956  0.1443  0.2638
  687TMC3    C610161   0.504   1.312  15.351  0.5230 -0.4233 -0.2777
  687TMC3     C10162   0.463   1.684  15.191 -0.0806  0.3716 -0.0170
  687TMC3     O10163   0.431   1.706  15.077 -0.1125 -0.6048 -0.2769
  687TMC3     H10164   0.350   1.472  15.094 -0.8798 -2.2984  2.1757
  687TMC3    H110165   0.634   1.619  15.364  2.1813 -1.8529 -0.6146
  687TMC3    H210166   0.502   1.223  15.413 -1.3239  1.5330  2.4098
  687TMC3    C710167   0.582   1.444  15.538  0.3137  1.2145  0.0953
  687TMC3    C810168   0.283   1.271  15.268 -0.1703  0.5201  0.3301
  687TMC3    O110169   0.555   1.559  15.575  0.2431  0.1891 -0.4885
  687TMC3    O210170   0.271   1.162  15.331  0.5248 -0.5292  0.6478
  688MPD2     C10171   4.142   0.961  17.245 -0.8347  0.7947 -0.1508
  688MPD2    C110172   4.170   0.826  17.257 -0.3181  0.0930  0.2452
  688MPD2    C210173   4.225   0.754  17.147 -0.2374  0.6172 -0.4324
  688MPD2    C310174   4.266   0.818  17.027 -0.5901 -0.4735 -0.0356
  688MPD2    C410175   4.255   0.953  17.024  0.0234  0.5070 -0.5218
  688MPD2    C510176   4.191   1.020  17.128  0.6133 -0.4822 -0.0492
  688MPD2     H10177   4.230   0.647  17.162  2.1628  0.6803 -0.8452
  688MPD2    H110178   4.285   0.996  16.930  1.2737  2.3046  0.7052
  688MPD2    H210179   4.081   1.019  17.314  1.4762  3.1745 -0.0856
  688MPD2    H310180   4.193   1.128  17.117  0.5199 -0.6313 -1.5503
  688MPD2     N10181   4.319   0.757  16.911  0.3129  0.7118 -0.2999
  688MPD2    H510182   4.331   0.818  16.830 -1.7599  1.7734  0.1839
  688MPD2    N110183   4.146   0.755  17.377 -0.0912 -0.4675 -0.6795
  688MPD2    H710184   4.189   0.663  17.376  1.2648  0.1592 -0.2788
  689TMC3    C110185   4.069   0.722  17.610 -0.1149 -0.1492  0.0256
  689TMC3    C210186   3.991   0.765   0.027 -0.1898  0.1017  0.0320
  689TMC3    C310187   3.977   0.684   0.134 -0.3119  0.3816  0.3934
  689TMC3    C410188   4.133   0.601  17.617 -0.3524 -0.5635 -0.1345
  689TMC3    C510189   4.099   0.512   0.028  0.2361  0.7464  0.6099
  689TMC3    C610190   4.040   0.562   0.141 -0.0432  0.3124 -0.5571
  689TMC3     C10191   4.077   0.807  17.488 -0.1133 -0.2578 -0.2266
  689TMC3     O10192   4.007   0.908  17.501  0.0764  0.1011 -0.1463
  689TMC3     H10193   3.951   0.865   0.020  1.2867  0.5951 -1.5732
  689TMC3    H110194   4.201   0.565  17.540  0.0885  1.6657 -0.7891
  689TMC3    H210195   4.024   0.496   0.226  0.0814  0.2587 -0.5754
  689TMC3    C710196   4.150   0.384   0.025 -0.5883  0.2935  0.1829
  689TMC3    C810197   3.929   0.743   0.265  0.8790 -0.1588 -0.7009
  689TMC3    O110198   4.224   0.355  17.615 -0.6706 -0.0219 -0.2539
  689TMC3    O210199   3.973   0.692   0.365  0.5338  0.6186 -0.6216
  690MPD2     C10200   1.293   2.460  15.401 -0.5457  0.3651  0.3175
  690MPD2    C110201   1.376   2.399  15.489 -0.3837 -0.5115  0.1631
  690MPD2    C210202   1.510   2.426  15.481  0.8857  0.1092  0.5398
  690MPD2    C310203   1.563   2.489  15.377 -0.2247  0.1537  0.6384
  690MPD2    C410204   1.479   2.545  15.282  0.0310  0.6943  0.9028
  690MPD2    C510205   1.346   2.527  15.296 -0.4394 -0.0166  0.1026
  690MPD2     H10206   1.576   2.391  15.560  2.6677  0.1277 -0.9232
  690MPD2    H110207   1.516   2.607  15.201 -1.0018 -0.2050 -0.2663
  690MPD2    H210208   1.185   2.458  15.407 -0.6201 -0.5469 -1.4109
  690MPD2    H310209   1.271   2.563  15.226 -0.3560  0.0714  0.0594
  690MPD2     N10210   1.698   2.518  15.377 -0.5385 -0.2169  0.1448
  690MPD2    H510211   1.751   2.491  15.459 -2.7924 -0.0422  1.6680
  690MPD2    N110212   1.320   2.318  15.593 -0.3539  0.1839  0.0681
  690MPD2    H710213   1.388   2.299  15.665  1.1917  0.3665 -1.3459
  691TMC3    C110214   1.183   2.183  15.721  0.0661 -0.2985  0.5581
  691TMC3    C210215   1.055   2.174  15.779  0.3887 -0.3479  0.0908
  691TMC3    C310216   1.034   2.086  15.878 -0.2015  0.2740  0.2096
  691TMC3    C410217   1.292   2.125  15.788  0.4058 -1.3536  0.8568
  691TMC3    C510218   1.258   2.037  15.890  0.2084 -0.0119  0.6637
  691TMC3    C610219   1.132   2.007  15.928 -0.2833 -0.2530 -0.4106
  691TMC3     C10220   1.199   2.262  15.600  0.2473 -0.2070 -0.3556
  691TMC3     O10221   1.102   2.262  15.530  0.2763 -0.4328  0.4461
  691TMC3     H10222   0.972   2.221  15.727  0.9902 -0.4248 -0.9419
  691TMC3    H110223   1.393   2.131  15.749  1.3494 -0.7148  3.4303
  691TMC3    H210224   1.107   1.928  15.999  0.8691  0.2909  0.6103
  691TMC3    C710225   1.354   1.927  15.897 -0.5206 -0.3949 -0.6854
  691TMC3    C810226   0.893   2.059  15.909  0.9397 -0.1753  0.1568
  691TMC3    O110227   1.471   1.948  15.878  0.1922 -0.4912  0.1765
  691TMC3    O210228   0.855   1.943  15.913  0.2195 -0.7268  0.3928
  692TMC3    C110229   3.179   3.493  16.349 -0.5964  0.3012  0.3844
  692TMC3    C210230   3.303   3.510  16.397 -0.8458 -0.0780 -0.3637
  692TMC3    C310231   3.414   3.434  16.358  0.6634  0.1933 -0.2023
  692TMC3    C410232   3.152   3.395  16.257  0.4550 -0.5112 -0.1505
  692TMC3    C510233   3.255   3.310  16.225  0.7283  0.0792 -0.2291
  692TMC3    C610234   3.386   3.327  16.276 -0.1321  0.3095 -0.8219
  692TMC3     C10235   3.070   3.588  16.366  0.1683  0.5191  0.1414
  692TMC3     O10236   2.958   3.560  16.320 -0.1415  0.2190  0.7854
  692TMC3     H10237   3.338   3.611  16.380  0.3782 -0.2341  1.2272
  692TMC3    H110238   3.057   3.391  16.205 -0.4410  2.2631  1.2985
  692TMC3    H210239   3.466   3.254  16.268  0.3190  0.8644 -1.2904
  692TMC3    C710240   3.215   3.180  16.170  0.3840  0.1766 -0.2968
  692TMC3    C810241   3.474   3.389  16.482 -0.1765 -0.8242 -0.4608
  692TMC3    O110242   3.117   3.175  16.098 -0.3707  0.1623  0.3719
  692TMC3    O210243   3.524   3.279  16.499 -0.3977 -0.3523 -0.0182
  693MPD2     C10244   3.056   0.832  10.857 -0.4672  0.2074  0.0306
  693MPD2    C110245   2.998   0.723  10.781 -1.1137 -0.6534  0.5448
  693MPD2    C210246   3.070   0.615  10.740  0.0442 -0.6463  0.9524
  693MPD2    C310247   3.205   0.602  10.785 -0.5245  0.7428  0.0085
  693MPD2    C410248   3.257   0.700  10.875 -0.4041 -0.1081  0.2417
  693MPD2    C510249   3.182   0.809  10.917  0.0903  1.0586 -0.2946
  693MPD2     H10250   3.030   0.536  10.678 -0.0109  1.2171 -1.4076
  693MPD2    H110251   3.353   0.684  10.922 -1.4946 -3.0351  1.5179
  693MPD2    H210252   2.999   0.914  10.899  3.2786  2.3802  0.9682
  693MPD2    H310253   3.224   0.882  10.985  1.4918 -0.7387  0.7722
  693MPD2     N10254   3.289   0.492  10.753 -0.0290  0.4557 -0.0704
  693MPD2    H510255   3.377   0.481  10.802 -0.8345  0.1582  1.2910
  693MPD2    N110256   2.862   0.744  10.755 -0.6614  0.0483  0.5321
  693MPD2    H710257   2.806   0.815  10.800 -1.5860 -0.7614  0.6550
  694TMC3    C110258   2.650   0.639  10.757 -1.0477 -0.5130  0.0296
  694TMC3    C210259   2.569   0.545  10.702 -0.3483  0.3481 -0.6397
  694TMC3    C310260   2.487   0.469  10.779 -0.2441  0.0310 -0.1365
  694TMC3    C410261   2.645   0.666  10.894 -0.3526  0.0316 -1.0265
  694TMC3    C510262   2.557   0.592  10.968 -0.2757 -0.2557 -0.1336
  694TMC3    C610263   2.487   0.488  10.914 -0.0243 -0.4410  0.0118
  694TMC3     C10264   2.784   0.641  10.707  0.6645 -0.4312 -0.2876
  694TMC3     O10265   2.813   0.541  10.637  0.1655 -0.1235 -0.0513
  694TMC3     H10266   2.579   0.529  10.596  1.7185  2.1134 -0.7233
  694TMC3    H110267   2.710   0.733  10.950  0.3303 -3.1627  2.0026
  694TMC3    H210268   2.412   0.431  10.968 -0.3903  0.7483  0.7592
  694TMC3    C710269   2.574   0.591  11.112  1.0683  0.5855 -0.6704
  694TMC3    C810270   2.418   0.351  10.725  0.2557  0.2170  0.7135
  694TMC3    O110271   2.618   0.692  11.163 -0.3738  0.3711 -0.0127
  694TMC3    O210272   2.323   0.307  10.784  0.1349  0.0467 -0.1181
  695MPD2     C10273   3.904   2.666  13.370 -0.4826  0.6860 -0.2913
  695MPD2    C110274   3.871   2.625  13.494 -0.1731  0.4143  0.4392
  695MPD2    C210275   3.735   2.610  13.518  0.0222 -0.0957  0.4855
  695MPD2    C310276   3.639   2.633  13.422  0.1366  0.6912 -0.6158
  695MPD2    C410277   3.674   2.658  13.295 -0.1668 -0.2948 -0.1085
  695MPD2    C510278   3.807   2.679  13.267 -0.9046  0.1811  0.4168
  695MPD2     H10279   3.714   2.583  13.621  1.2150  1.9713  1.2808
  695MPD2    H110280   3.609   2.680  13.210  1.8508  0.3368 -1.4923
  695MPD2    H210281   4.008   2.680  13.340 -1.6515  0.9778 -4.2250
  695MPD2    H310282   3.840   2.696  13.165  0.0050 -0.2080  0.6454
  695MPD2     N10283   3.505   2.635  13.458 -0.0183  0.2903 -0.1203
  695MPD2    H510284   3.484   2.588  13.546 -3.3831  2.2199  0.1340
  695MPD2    N110285   3.955   2.605  13.609 -0.0010 -0.1244 -0.8098
  695MPD2    H710286   3.913   2.583  13.699  1.2893 -0.2611 -0.2417
  696TMC3    C110287   3.295   2.726  13.488 -0.4155  0.7206  0.0104
  696TMC3    C210288   3.286   2.658  13.607 -0.1056 -0.1729 -0.1004
  696TMC3    C310289   3.214   2.706  13.708 -0.2573 -0.3426  0.1142
  696TMC3    C410290   3.216   2.838  13.470 -0.3183  0.2413 -0.2000
  696TMC3    C510291   3.148   2.882  13.579 -0.3390  0.4292  0.3460
  696TMC3    C610292   3.146   2.824  13.700 -0.4471 -0.4075 -0.1406
  696TMC3     C10293   3.410   2.716  13.405 -0.1320 -0.3933 -0.3396
  696TMC3     O10294   3.419   2.804  13.317 -0.3046 -0.3137  0.1535
  696TMC3     H10295   3.335   2.563  13.623 -2.4450 -1.8329 -2.7753
  696TMC3    H110296   3.211   2.895  13.378 -1.8039 -0.7127 -0.7039
  696TMC3    H210297   3.087   2.868  13.779 -0.2647 -0.1904 -0.1258
  696TMC3    C710298   3.052   2.987  13.561  0.0848  0.4373  0.5214
  696TMC3    C810299   3.255   2.673  13.840 -0.4405  0.3094  0.4737
  696TMC3    O110300   2.992   2.991  13.454 -0.3048 -0.1577  0.0514
  696TMC3    O210301   3.287   2.559  13.869 -0.7143 -0.2626 -0.4871
  697MPD2     C10302   2.678   0.306  15.871  0.6763 -0.3300 -0.2762
  697MPD2    C110303   2.748   0.254  15.768 -0.2451  0.1944  0.5207
  697MPD2    C210304   2.811   0.345  15.686  0.3950  0.0007  0.1815
  697MPD2    C310305   2.806   0.483  15.703  0.1199 -0.0350 -0.3450
  697MPD2    C410306   2.725   0.529  15.807 -0.5681 -0.5534 -0.4209
  697MPD2    C510307   2.667   0.438  15.891  0.5910 -0.1538 -0.1418
  697MPD2     H10308   2.870   0.306  15.604 -0.7790  2.2118 -1.6869
  697MPD2    H110309   2.727   0.636  15.825  1.2686 -1.4588  4.7535
  697MPD2    H210310   2.637   0.245  15.950 -0.0750 -1.4367 -1.5253
  697MPD2    H310311   2.623   0.466  15.986 -0.2842  0.7161 -0.8164
  697MPD2     N10312   2.872   0.563  15.613 -0.0709  0.5092 -0.1070
  697MPD2    H510313   2.915   0.521  15.531 -0.6205 -0.8418  0.2954
  697MPD2    N110314   2.774   0.121  15.746 -0.4611 -0.5432  0.0614
  697MPD2    H710315   2.840   0.107  15.669 -0.4856 -3.6843  0.5805
  698TMC3    C110316   2.960   0.744  15.500 -0.0199  0.9957  0.5759
  698TMC3    C210317   3.032   0.862  15.531 -0.1444 -0.2707  0.1005
  698TMC3    C310318   3.111   0.913  15.427 -0.0562  0.5647 -0.0431
  698TMC3    C410319   2.983   0.675  15.384  0.0494 -0.3413  0.0657
  698TMC3    C510320   3.077   0.723  15.297 -0.5607  0.0232  0.1512
  698TMC3    C610321   3.143   0.840  15.314 -0.0004  1.0517  0.0024
  698TMC3     C10322   2.882   0.700  15.611  0.0487 -0.8328  0.1530
  698TMC3     O10323   2.854   0.783  15.699  0.0232 -0.4197 -0.0763
  698TMC3     H10324   3.007   0.927  15.614 -0.8598 -1.1116  0.5566
  698TMC3    H110325   2.912   0.602  15.347 -0.2604  1.2742 -2.5497
  698TMC3    H210326   3.178   0.891  15.225 -1.4142  2.6021  0.3391
  698TMC3    C710327   3.104   0.649  15.172 -0.1814  0.3504 -0.3611
  698TMC3    C810328   3.156   1.050  15.447 -0.0348  0.1477  0.4135
  698TMC3    O110329   3.035   0.551  15.150 -0.6700 -0.3103  0.0293
  698TMC3    O210330   3.094   1.111  15.536 -0.0457 -0.3062 -0.4416
  699TMC3    C110331   3.471   2.553  12.971  0.2538 -0.2196  0.4958
  699TMC3    C210332   3.526   2.461  13.059  0.1874  0.4225  0.4983
  699TMC3    C310333   3.434   2.411  13.145  0.2028  0.5682 -0.0835
  699TMC3    C410334   3.350   2.609  12.986 -0.5385  0.3614 -0.3681
  699TMC3    C510335   3.268   2.552  13.085  0.2587  0.4241  0.0158
  699TMC3    C610336   3.309   2.454  13.160 -0.4464 -0.1748  0.6090
  699TMC3     C10337   3.561   2.621  12.871  0.1320  0.0275  0.3595
  699TMC3     O10338   3.503   2.705  12.803 -0.3989  0.6741 -0.2759
  699TMC3     H10339   3.629   2.427  13.051 -0.1395 -0.1385 -1.4707
  699TMC3    H110340   3.318   2.682  12.913  1.8875  0.9511 -0.8348
  699TMC3    H210341   3.235   2.413  13.228  0.6373  1.2712  2.6675
  699TMC3    C710342   3.158   2.633  13.136  0.2255 -0.0468  0.0431
  699TMC3    C810343   3.487   2.329  13.253 -0.1665  0.2017  0.0473
  699TMC3    O110344   3.132   2.630  13.253 -0.2521  0.4492 -0.2931
  699TMC3    O210345   3.418   2.340  13.351  0.3667  0.5926  0.0233
  700TMC3    C110346   2.041   1.068   0.057 -0.3640  0.4042 -0.6291
  700TMC3    C210347   2.086   0.942   0.066  0.6929 -0.1921  0.8084
  700TMC3    C310348   2.189   0.917   0.155 -0.0396 -0.2158  0.2743
  700TMC3    C410349   2.092   1.168   0.135  0.1954  0.8706  0.0379
  700TMC3    C510350   2.196   1.140   0.219 -0.2327 -0.3850 -0.1482
  700TMC3    C610351   2.243   1.016   0.228 -0.3441 -0.2317  0.1954
  700TMC3     C10352   1.967   1.098  17.622  0.3978 -0.1102  0.3612
  700TMC3     O10353   1.903   1.010  17.566  0.3683 -0.0025 -0.4989
  700TMC3     H10354   2.059   0.863  17.682  2.4099 -0.1844  0.1418
  700TMC3    H110355   2.059   1.271   0.134 -0.6328  0.6029  0.0062
  700TMC3    H210356   2.340   1.008   0.275 -0.1789 -0.9503 -0.2602
  700TMC3    C710357   2.279   1.256   0.257  0.3189 -0.2831 -0.8126
  700TMC3    C810358   2.257   0.794   0.144  0.3975 -0.1755  0.4197
  700TMC3    O110359   2.244   1.361   0.208  0.3408 -0.2510 -0.1109
  700TMC3    O210360   2.244   0.728   0.041  0.1947 -0.4548 -0.2963
  701TMC3    C110361   1.773   4.345  15.506 -0.0933 -0.0549 -0.3709
  701TMC3    C210362   1.755   4.307  15.371  0.4402 -0.0328  0.2481
  701TMC3    C310363   1.786   4.409  15.281  0.3164  0.1294 -0.2000
  701TMC3    C410364   1.832   4.466  15.546 -0.1067  0.5730  0.1198
  701TMC3    C510365   1.872   4.550  15.449 -0.6833  0.1509 -0.7853
  701TMC3    C610366   1.840   4.529  15.318 -0.1035  0.1133 -1.1855
  701TMC3     C10367   1.722   4.260  15.616 -0.7007  0.1477 -1.0949
  701TMC3     O10368   1.731   4.305  15.730 -0.0774 -0.0180  0.9557
  701TMC3     H10369   1.709   4.217  15.333  1.7234 -0.4994 -0.1888
  701TMC3    H110370   1.842   4.477  15.654 -0.6324 -1.4283  0.3778
  701TMC3    H210371   1.877   4.597  15.242 -1.6509  0.0413 -2.0088
  701TMC3    C710372   1.958   4.662  15.497  0.0887 -0.2845  0.4909
  701TMC3    C810373   1.808   4.364  15.144 -0.7850 -0.3779  0.5570
  701TMC3    O110374   1.963   0.039  15.419 -0.1953 -0.4255 -0.4305
  701TMC3    O210375   1.907   4.413  15.084 -0.3043 -0.2001  0.0685
  702MPD2     C10376   1.992   1.173  10.265  0.2346  0.0577  0.3130
  702MPD2    C110377   1.990   1.266  10.368  0.3016  0.4928  0.4512
  702MPD2    C210378   2.028   1.393  10.345 -0.4112 -0.0910 -0.1510
  702MPD2    C310379   2.076   1.435  10.223  0.2373  0.0632  0.3552
  702MPD2    C410380   2.069   1.345  10.116 -0.7437 -0.0708 -0.0539
  702MPD2    C510381   2.021   1.221  10.139 -0.5071 -0.7478  0.3354
  702MPD2     H10382   2.025   1.456  10.434 -0.1155 -0.3817  0.0666
  702MPD2    H110383   2.099   1.379  10.017  1.2008 -0.9865  0.2306
  702MPD2    H210384   1.965   1.068  10.277 -3.3577  1.2753  2.8234
  702MPD2    H310385   2.020   1.155  10.054 -0.1825  0.4627 -0.6020
  702MPD2     N10386   2.118   1.567  10.216 -0.8012 -0.6362  0.5957
  702MPD2    H510387   2.084   1.623  10.294  0.4667 -1.6839  1.8865
  702MPD2    N110388   1.952   1.227  10.496  0.0199 -0.8077 -0.3436
  702MPD2    H710389   1.975   1.295  10.569 -2.2597  0.3638 -0.7342
  703TMC3    C110390   2.243   1.753  10.169  0.0912 -0.1229  0.2377
  703TMC3    C210391   2.143   1.825  10.227 -0.0847  0.3461 -0.1262
  703TMC3    C310392   2.174   1.951  10.259 -0.3368 -0.3656 -0.0643
  703TMC3    C410393   2.370   1.800  10.158  0.3175  0.3290 -0.0979
  703TMC3    C510394   2.390   1.936  10.198  0.1208  0.8493 -1.2661
  703TMC3    C610395   2.288   2.007  10.243  0.3092 -0.4502  0.8740
  703TMC3     C10396   2.214   1.614  10.133 -0.2160  0.5502  0.0446
  703TMC3     O10397   2.283   1.554  10.050 -0.0564 -0.6493  0.0326
  703TMC3     H10398   2.041   1.790  10.232 -0.3082  1.1907  1.2016
  703TMC3    H110399   2.454   1.748  10.113 -0.2704 -2.7087  2.3375
  703TMC3    H210400   2.304   2.102  10.292  2.3260 -0.9276  1.1476
  703TMC3    C710401   2.524   1.989  10.184  0.5470  0.0933 -0.0608
  703TMC3    C810402   2.063   2.033  10.297 -0.0678 -0.0443 -0.2896
  703TMC3    O110403   2.539   2.112  10.185  0.8038  0.3887 -0.0445
  703TMC3    O210404   2.074   2.147  10.260 -0.3557 -0.1297 -0.3854
  704TMC3    C110405   4.232   4.005  12.703  0.1594  0.1415 -0.4452
  704TMC3    C210406   4.359   4.052  12.689  0.2521 -0.3309 -0.4936
  704TMC3    C310407   4.456   3.990  12.756  0.3363 -0.2863  0.1068
  704TMC3    C410408   4.207   3.892  12.777 -0.7742 -0.8251  0.8168
  704TMC3    C510409   4.308   3.828  12.842  0.5643  0.1293 -0.3367
  704TMC3    C610410   4.432   3.881  12.839  0.2545  0.4672 -0.7121
  704TMC3     C10411   4.142   4.056  12.607  0.3073  0.5649 -0.3542
  704TMC3     O10412   4.022   4.061  12.624  0.0359  0.7503  0.3087
  704TMC3     H10413   4.387   4.137  12.627 -2.9953  0.0139 -1.4564
  704TMC3    H110414   4.106   3.855  12.762 -0.7409  0.1068 -1.6788
  704TMC3    H210415   4.515   3.816  12.865 -0.6889 -0.3066  0.3515
  704TMC3    C710416   4.309   3.686  12.808 -0.5473 -0.0157  0.1187
  704TMC3    C810417   4.591   3.987  12.705 -0.6701 -0.7777 -1.1495
  704TMC3    O110418   4.412   3.639  12.768  0.0445 -0.0865  0.8648
  704TMC3    O210419   4.599   4.001  12.585  0.1043  0.8161 -0.5044
  705MPD2     C10420   3.519   2.761  16.638 -0.4768 -0.3342 -0.0577
  705MPD2    C110421   3.517   2.868  16.719 -0.1193 -0.7181  0.9163
  705MPD2    C210422   3.399   2.908  16.780  0.0392  0.0811 -0.2936
  705MPD2    C310423   3.279   2.844  16.752  0.4824  0.7172  1.4549
  705MPD2    C410424   3.287   2.726  16.677  0.3098 -0.0978 -0.9653
  705MPD2    C510425   3.411   2.682  16.631  0.3725 -0.0847 -0.2480
  705MPD2     H10426   3.402   2.998  16.842  0.8435  0.0441 -0.2800
  705MPD2    H110427   3.200   2.664  16.656 -1.2725  1.8150  0.0408
  705MPD2    H210428   3.606   2.731  16.580  0.0214 -1.5975  1.3688
  705MPD2    H310429   3.409   2.595  16.567  0.7953  0.0919 -0.4968
  705MPD2     N10430   3.144   2.892  16.782 -0.1866 -0.5770 -0.1781
  705MPD2    H510431   3.066   2.837  16.750 -1.1992  0.8588 -0.1852
  705MPD2    N110432   3.630   2.939  16.742 -0.7296 -0.6619 -0.0366
  705MPD2    H710433   3.638   2.994  16.827 -1.5286 -1.0448  0.2944
  706TMC3    C110434   4.059   3.099  16.633 -0.1536  0.1374  0.5521
  706TMC3    C210435   4.042   3.213  16.712 -0.7722  0.5067  0.8999
  706TMC3    C310436   3.924   3.246  16.771 -0.2387  0.0361  0.1669
  706TMC3    C410437   3.956   3.018  16.629  0.0107  0.4277  0.3265
  706TMC3    C510438   3.843   3.041  16.702 -0.0693  0.0423 -0.8140
  706TMC3    C610439   3.830   3.156  16.777  0.5259  0.2372  0.0256
  706TMC3     C10440   4.168   3.095  16.547  0.2428  0.9449  0.0464
  706TMC3     O10441   4.269   3.149  16.591  0.7696 -0.1608  0.4677
  706TMC3     H10442   4.110   3.295  16.690 -0.6399 -0.0341 -0.7513
  706TMC3    H110443   3.962   2.926  16.571  0.5077 -0.7224  2.2017
  706TMC3    H210444   3.728   3.191  16.786  0.4088 -0.2975  0.7736
  706TMC3    C710445   3.734   2.959  16.651 -1.1204 -0.8518  0.0954
  706TMC3    C810446   3.884   3.371  16.708 -0.3310 -0.0654  0.5419
  706TMC3    O110447   3.745   2.916  16.539 -0.2625 -0.0378 -0.2950
  706TMC3    O210448   3.861   3.364  16.588 -0.0968 -0.0530 -0.2002
  707TMC3    C110449   2.204   2.145   2.028  0.3625  0.1298 -0.0842
  707TMC3    C210450   2.304   2.056   2.047 -0.1693  0.7228 -0.0941
  707TMC3    C310451   2.425   2.109   2.086  0.7941  0.0849  0.5710
  707TMC3    C410452   2.214   2.279   2.050  0.5253 -0.2731 -0.0798
  707TMC3    C510453   2.329   2.332   2.102  0.1927  0.7680 -0.2064
  707TMC3    C610454   2.439   2.244   2.125  0.2054  0.5841  0.2329
  707TMC3     C10455   2.080   2.108   1.956 -0.3263  0.6313  0.1165
  707TMC3     O10456   1.986   2.161   2.003  0.0816  0.0342 -0.1709
  707TMC3     H10457   2.289   1.950   2.032 -0.0419  0.6730  0.1412
  707TMC3    H110458   2.126   2.341   2.045 -0.8174 -2.2178 -0.6708
  707TMC3    H210459   2.535   2.281   2.159 -0.5396  1.3229  1.5590
  707TMC3    C710460   2.330   2.461   2.172 -0.5772  0.1576  0.1108
  707TMC3    C810461   2.540   2.022   2.120  0.3509 -0.2042  0.3209
  707TMC3    O110462   2.246   2.546   2.138 -0.6544 -0.2153 -0.3310
  707TMC3    O210463   2.609   2.070   2.209  0.0504 -0.3191 -0.0523
  708MPD2     C10464   2.290   1.212  14.268  0.2012  0.9859  0.6834
  708MPD2    C110465   2.296   1.352  14.278 -0.3419 -0.2763 -0.4564
  708MPD2    C210466   2.278   1.407  14.407 -0.5757 -0.2899 -0.1768
  708MPD2    C310467   2.239   1.327  14.513 -0.2278 -0.0169 -0.5321
  708MPD2    C410468   2.227   1.192  14.497 -0.5928 -0.1252 -0.1867
  708MPD2    C510469   2.254   1.139  14.379  0.8189  0.1767 -0.0196
  708MPD2     H10470   2.273   1.515  14.411  0.2704 -0.2503 -0.1553
  708MPD2    H110471   2.192   1.130  14.579 -0.7499 -0.0004 -0.1586
  708MPD2    H210472   2.309   1.154  14.178 -0.2407  0.9346  0.6219
  708MPD2    H310473   2.240   1.032  14.363  0.1651  0.4685 -1.4147
  708MPD2     N10474   2.221   1.389  14.640 -0.3784 -0.0332 -0.4693
  708MPD2    H510475   2.265   1.480  14.653  1.1804 -0.5084 -2.3093
  708MPD2    N110476   2.295   1.431  14.159 -0.2768  0.6168  0.1618
  708MPD2    H710477   2.292   1.384  14.069  1.9023 -0.1644  0.4897
  709TMC3    C110478   2.183   1.626  14.079 -0.0042 -0.0103 -0.0567
  709TMC3    C210479   2.128   1.545  13.983 -0.2706 -0.5300  0.3015
  709TMC3    C310480   1.986   1.544  13.968  0.1050  0.1254  1.0518
  709TMC3    C410481   2.112   1.707  14.154 -0.4124 -0.1387 -0.2391
  709TMC3    C510482   1.975   1.706  14.154 -0.0890  0.7142 -0.1109
  709TMC3    C610483   1.916   1.619  14.058 -0.6573 -0.4292  0.0334
  709TMC3     C10484   2.294   1.570  14.158 -0.0442 -0.0144  0.2044
  709TMC3     O10485   2.348   1.635  14.246  0.1376 -0.1955 -0.2382
  709TMC3     H10486   2.190   1.484  13.919 -2.8306 -1.2855 -1.4579
  709TMC3    H110487   2.153   1.750  14.245  0.7002 -1.5560 -0.0619
  709TMC3    H210488   1.807   1.613  14.055 -0.7566  1.1393  0.5795
  709TMC3    C710489   1.909   1.709  14.290 -0.5727  0.4078 -0.1839
  709TMC3    C810490   1.920   1.445  13.891  0.5641 -0.4141 -0.0701
  709TMC3    O110491   1.960   1.787  14.374 -0.6583 -0.5734  0.0425
  709TMC3    O210492   1.802   1.418  13.913 -0.0094  0.1002  0.0198
  710TMC3    C110493   3.247   3.579   0.678  0.2235 -0.5691  0.0455
  710TMC3    C210494   3.313   3.580   0.559  0.1353  0.1178 -0.0228
  710TMC3    C310495   3.454   3.580   0.551  0.0419 -0.5163 -0.1020
  710TMC3    C410496   3.318   3.590   0.793  0.0832 -0.2434 -0.0849
  710TMC3    C510497   3.455   3.591   0.778 -0.2055  0.6352  0.7840
  710TMC3    C610498   3.528   3.595   0.665  0.0972 -0.5412  0.2419
  710TMC3     C10499   3.103   3.555   0.681  0.6315 -0.0448  0.0070
  710TMC3     O10500   3.050   3.522   0.579 -0.4074  0.1917  0.1086
  710TMC3     H10501   3.263   3.568   0.463  0.0180 -1.6707  0.2707
  710TMC3    H110502   3.273   3.594   0.892 -0.3420 -2.0934 -0.1937
  710TMC3    H210503   3.636   3.606   0.661 -0.1957  1.8599 -0.9131
  710TMC3    C710504   3.525   3.571   0.905 -0.5263 -1.0560  0.3109
  710TMC3    C810505   3.519   3.557   0.421  0.0987 -0.4718  0.3336
  710TMC3    O110506   3.453   3.563   1.003  0.4046 -0.2004  0.5304
  710TMC3    O210507   3.450   3.575   0.320  0.1764 -0.0985  0.3145
  711TMC3    C110508   2.854   3.985  15.255  0.2572  0.2570  0.0807
  711TMC3    C210509   2.834   4.032  15.381  0.4148 -0.1760  0.2969
  711TMC3    C310510   2.943   4.054  15.459 -0.0776 -0.4972  0.1107
  711TMC3    C410511   2.977   3.949  15.210 -0.4055  0.5421 -0.6371
  711TMC3    C510512   3.082   3.961  15.297  0.5936 -0.3923 -0.0125
  711TMC3    C610513   3.070   4.018  15.417  0.2210  0.7119  0.1864
  711TMC3     C10514   2.750   3.919  15.178  0.2290  0.1100  0.0565
  711TMC3     O10515   2.769   3.811  15.125  0.2989 -0.0484  0.7410
  711TMC3     H10516   2.732   4.054  15.411  0.0494 -0.8746 -0.4171
  711TMC3    H110517   2.985   3.930  15.103 -1.5396  3.1623 -1.1897
  711TMC3    H210518   3.165   4.023  15.469 -0.7707 -0.9836  2.1565
  711TMC3    C710519   3.157   3.840  15.310 -0.4579 -0.3840  0.4533
  711TMC3    C810520   2.920   4.010  15.600  0.0865 -0.1806 -0.6234
  711TMC3    O110521   3.235   3.828  15.406  0.2389 -0.2696 -0.4161
  711TMC3    O210522   2.802   3.978  15.631  0.3045  0.4513  0.0153
  712MPD2     C10523   4.255   4.095  13.989 -0.1462  0.3546 -0.4543
  712MPD2    C110524   4.221   4.187  13.885  0.3980 -0.2012 -0.3036
  712MPD2    C210525   4.276   4.313  13.879  0.7912 -0.0182  0.6435
  712MPD2    C310526   4.379   4.352  13.959  0.5259  0.0539 -0.6407
  712MPD2    C410527   4.412   4.269  14.059  1.0857 -0.5628 -0.6240
  712MPD2    C510528   4.359   4.137  14.073 -0.2602 -0.1545  0.5356
  712MPD2     H10529   4.238   4.372  13.796  1.8684  1.7209  1.3889
  712MPD2    H110530   4.499   4.293  14.119  0.2460  0.4340  0.2096
  712MPD2    H210531   4.209   4.000  14.012  0.3851  0.2850  0.2920
  712MPD2    H310532   4.410   4.075  14.146  0.3316 -0.9710 -0.5571
  712MPD2     N10533   4.455   4.476  13.951  0.3019  0.0614 -0.6750
  712MPD2    H510534   4.546   4.480  13.995 -1.2664  1.6000  2.4664
  712MPD2    N110535   4.126   4.157  13.785 -0.2578 -0.5345 -0.7235
  712MPD2    H710536   4.101   4.221  13.711  0.4975  0.5636 -0.0167
  713TMC3    C110537   4.533   4.670  13.832  0.8471 -0.8078 -0.2076
  713TMC3    C210538   4.656   4.643  13.886  0.4170 -0.0061  0.3721
  713TMC3    C310539   0.025   0.022  13.889 -0.1444  0.1820  0.0393
  713TMC3    C410540   4.501   0.064  13.772  0.7009 -0.2028 -0.4984
  713TMC3    C510541   4.602   0.159  13.775 -0.8859  0.2112 -0.0455
  713TMC3    C610542   0.002   0.143  13.838 -0.4503 -0.4963  1.1474
  713TMC3     C10543   4.425   4.575  13.861  0.4484  0.1277  0.4819
  713TMC3     O10544   4.317   4.592  13.808 -0.4950  0.1764 -0.1596
  713TMC3     H10545   4.688   4.544  13.916  0.2104 -0.6512 -1.5255
  713TMC3    H110546   4.404   0.083  13.728  0.8812 -0.4350 -0.9961
  713TMC3    H210547   0.072   0.225  13.833 -0.6090 -0.3338  1.6159
  713TMC3    C710548   4.596   0.283  13.694  0.4560 -0.6174 -0.0315
  713TMC3    C810549   0.159   0.004  13.932 -0.3850  0.1553 -0.0765
  713TMC3    O110550   4.681   0.370  13.715  0.5506  0.1005  0.3529
  713TMC3    O210551   0.236   0.098  13.905  0.3034 -0.0918 -0.2725
  714MPD2     C10552   0.723   4.043   1.741 -0.4231 -0.4414 -0.0634
  714MPD2    C110553   0.802   3.981   1.647  0.8050 -0.4986  0.1544
  714MPD2    C210554   0.772   3.991   1.518  0.2301 -0.0833  0.0197
  714MPD2    C310555   0.677   4.076   1.464  0.1875  0.2947  1.3047
  714MPD2    C410556   0.593   4.132   1.561 -0.2999  0.7561 -0.2708
  714MPD2    C510557   0.612   4.117   1.698 -0.7779  0.1173 -0.3494
  714MPD2     H10558   0.846   3.953   1.449  1.1045  1.5070  0.0807
  714MPD2    H110559   0.504   4.187   1.531 -0.6853 -0.0405 -0.6008
  714MPD2    H210560   0.753   4.034   1.844 -1.7839  0.1476  0.3837
  714MPD2    H310561   0.545   4.159   1.771 -1.6972  1.0603 -1.7441
  714MPD2     N10562   0.653   4.086   1.323  0.1751 -0.2566 -0.0335
  714MPD2    H510563   0.718   4.036   1.264  0.6796  0.5975 -0.2057
  714MPD2    N110564   0.910   3.917   1.701  0.2975 -0.4060  0.3851
  714MPD2    H710565   0.927   3.918   1.801  1.3396 -1.6237  0.2175
  715TMC3    C110566   1.074   3.752   1.723  0.5149 -0.0974  0.2607
  715TMC3    C210567   1.121   3.636   1.671 -0.8904 -0.2125 -0.0938
  715TMC3    C310568   1.158   3.538   1.755  0.5756  0.0366 -0.0492
  715TMC3    C410569   1.097   3.784   1.855 -0.9068 -0.0810 -0.4760
  715TMC3    C510570   1.136   3.682   1.937 -0.1926 -0.5171  0.2538
  715TMC3    C610571   1.155   3.554   1.892 -0.5881  0.0723 -0.4977
  715TMC3     C10572   1.008   3.840   1.637  0.2606 -0.4618  0.4787
  715TMC3     O10573   1.005   3.818   1.518 -0.1334  0.4055 -0.4788
  715TMC3     H10574   1.108   3.608   1.567  0.1563 -1.3917  0.1020
  715TMC3    H110575   1.082   3.887   1.888  2.4721 -0.7475  3.1275
  715TMC3    H210576   1.184   3.471   1.956  1.9302  1.4062  0.1058
  715TMC3    C710577   1.247   3.705   2.029  0.5906  0.4282  0.1229
  715TMC3    C810578   1.270   3.455   1.716  0.1396 -0.6647 -0.4657
  715TMC3    O110579   1.341   3.628   2.026 -0.2010 -0.3446 -0.2479
  715TMC3    O210580   1.260   3.385   1.618 -0.2326 -0.2725  0.7132
  716MPD2     C10581   2.665   2.058   9.798 -0.6447  1.0930  0.0079
  716MPD2    C110582   2.559   1.965   9.814  0.4468  0.1624 -0.1635
  716MPD2    C210583   2.590   1.836   9.849 -0.7904 -0.2946  0.3025
  716MPD2    C310584   2.722   1.789   9.852  0.1000  0.2113 -0.7600
  716MPD2    C410585   2.824   1.875   9.827 -0.0998 -0.0436 -0.2282
  716MPD2    C510586   2.795   2.005   9.801 -0.6298 -0.3476 -0.0405
  716MPD2     H10587   2.515   1.766   9.884 -0.5977 -0.6241  0.0549
  716MPD2    H110588   2.929   1.850   9.835 -0.0303  0.4248  0.2550
  716MPD2    H210589   2.648   2.165   9.793 -0.7708  1.1448  1.5951
  716MPD2    H310590   2.873   2.080   9.804 -0.3908 -0.5665 -0.6248
  716MPD2     N10591   2.740   1.656   9.901 -0.0820  0.5218  0.7197
  716MPD2    H510592   2.655   1.602   9.916  0.5942 -0.3025  1.5345
  716MPD2    N110593   2.432   2.020   9.810 -0.4457 -0.0236 -0.6374
  716MPD2    H710594   2.424   2.117   9.782 -0.5432  0.1286 -0.0786
  717TMC3    C110595   2.849   1.456   9.961  0.0502  0.1411  0.8352
  717TMC3    C210596   2.737   1.371   9.934 -0.0363 -0.2146 -0.5825
  717TMC3    C310597   2.760   1.236   9.963  0.1376 -0.4908  0.2171
  717TMC3    C410598   2.963   1.401  10.015  0.1104 -0.6473  0.2099
  717TMC3    C510599   2.963   1.274  10.055 -1.0706  0.6653 -0.7447
  717TMC3    C610600   2.866   1.182  10.035  0.1765  0.0171  0.7005
  717TMC3     C10601   2.854   1.599   9.940  0.3466 -0.3697 -0.1431
  717TMC3     O10602   2.972   1.640   9.926  0.3850 -0.2912 -0.1669
  717TMC3     H10603   2.646   1.403   9.884 -0.4055  0.3919  0.4854
  717TMC3    H110604   3.052   1.462  10.016 -0.3993  0.1203 -0.8713
  717TMC3    H210605   2.876   1.078  10.064 -4.4270  0.2639  3.1503
  717TMC3    C710606   3.093   1.225  10.104 -0.0835  0.0921 -0.3894
  717TMC3    C810607   2.657   1.142   9.919  0.6259 -0.5160  0.2764
  717TMC3    O110608   3.191   1.291  10.081 -0.4845  0.2537  0.3861
  717TMC3    O210609   2.586   1.188   9.830 -0.4999  0.1947 -0.3120
  718MPD2     C10610   1.353   3.956  12.836 -0.2111  0.4632 -0.1431
  718MPD2    C110611   1.302   4.027  12.724  0.6919 -0.1210  0.0256
  718MPD2    C210612   1.180   4.094  12.744  0.1365  0.4821 -0.6874
  718MPD2    C310613   1.119   4.112  12.870  0.0640 -0.1830  0.2143
  718MPD2    C410614   1.169   4.038  12.978  0.1756  0.4520 -0.0859
  718MPD2    C510615   1.282   3.963  12.959  0.6082 -0.0005 -0.3669
  718MPD2     H10616   1.135   4.149  12.662  0.1949  0.8809 -0.4500
  718MPD2    H110617   1.129   4.045  13.078 -0.1868  1.6643 -0.3109
  718MPD2    H210618   1.448   3.903  12.839 -0.7878 -0.3724  2.7891
  718MPD2    H310619   1.321   3.902  13.039 -0.0392  0.0164 -0.0322
  718MPD2     N10620   1.014   4.211  12.874  0.2974  0.9475  0.5981
  718MPD2    H510621   0.995   4.260  12.787 -1.4600 -0.9787 -0.0914
  718MPD2    N110622   1.379   4.034  12.604 -0.3871 -0.2520 -0.0145
  718MPD2    H710623   1.476   4.003  12.604 -0.7915 -1.5444  0.6119
  719TMC3    C110624   1.417   4.129  12.382 -0.2420 -0.3887 -0.1294
  719TMC3    C210625   1.362   4.166  12.263  0.0234  0.7779  0.6608
  719TMC3    C310626   1.422   4.261  12.179  0.8593  0.1090  1.1956
  719TMC3    C410627   1.518   4.209  12.437 -0.2857  0.1097 -0.3980
  719TMC3    C510628   1.585   4.286  12.346  0.4791  0.5307 -0.5203
  719TMC3    C610629   1.532   4.322  12.223 -0.2061  0.3759  0.1139
  719TMC3     C10630   1.321   4.084  12.487  0.2099 -0.1060 -0.3413
  719TMC3     O10631   1.202   4.106  12.467  0.2147 -0.2086 -0.3962
  719TMC3     H10632   1.277   4.109  12.228  2.4788 -1.0416 -2.3267
  719TMC3    H110633   1.559   4.192  12.535  1.4024  2.0549 -0.7761
  719TMC3    H210634   1.581   4.391  12.155 -0.1735  0.3250  0.0859
  719TMC3    C710635   1.712   4.355  12.372  0.3952  0.1260  0.5248
  719TMC3    C810636   1.323   4.360  12.154  0.1370 -0.1493 -0.7280
  719TMC3    O110637   1.749   4.427  12.285 -0.4255 -0.5014 -0.0021
  719TMC3    O210638   1.342   4.448  12.070 -0.7640 -0.6138 -0.5165
  720MPD2     C10639   4.394   1.757  14.226  0.0038 -0.0418 -0.8301
  720MPD2    C110640   4.496   1.767  14.137  0.0862  0.6847 -0.1921
  720MPD2    C210641   4.627   1.760  14.178 -0.2479  0.3466 -0.2187
  720MPD2    C310642   4.660   1.769  14.307 -0.2756 -0.0457 -0.4111
  720MPD2    C410643   4.561   1.750  14.397  0.5929  0.8494  0.0423
  720MPD2    C510644   4.433   1.741  14.358  0.0566 -0.3428  0.6164
  720MPD2     H10645   4.708   1.752  14.107 -0.0438 -1.5648  0.2067
  720MPD2    H110646   4.582   1.745  14.503  1.3993  0.2019 -0.1450
  720MPD2    H210647   4.288   1.739  14.210 -0.0389 -0.6306  0.0670
  720MPD2    H310648   4.359   1.720  14.434 -0.3542  0.8654  0.5509
  720MPD2     N10649   0.075   1.775  14.359 -0.1775  0.2800 -0.1044
  720MPD2    H510650   0.069   1.788  14.459 -0.7005  3.0006 -0.5043
  720MPD2    N110651   4.463   1.774  14.001 -0.4374 -0.1164  0.4152
  720MPD2    H710652   4.531   1.747  13.931  1.7297  0.1143  2.4395
  721TMC3    C110653   0.305   1.813  14.356 -0.5057  0.4222 -0.4126
  721TMC3    C210654   0.296   1.890  14.468  0.0526 -0.1201 -0.3055
  721TMC3    C310655   0.411   1.918  14.539 -0.1263  0.7344  0.0161
  721TMC3    C410656   0.422   1.767  14.303  0.1511  0.3164 -0.6281
  721TMC3    C510657   0.538   1.796  14.373 -0.1949 -0.3293  0.2419
  721TMC3    C610658   0.526   1.876  14.487 -0.3289  0.1903  1.1076
  721TMC3     C10659   0.186   1.772  14.284 -0.0177  0.0965 -0.3819
  721TMC3     O10660   0.205   1.745  14.168  0.6442  0.2790  0.6078
  721TMC3     H10661   0.198   1.914  14.508  0.8625 -0.1564  1.7212
  721TMC3    H110662   0.432   1.693  14.224  1.1338  0.1595 -0.3623
  721TMC3    H210663   0.615   1.898  14.543  0.6174  0.6969 -0.5871
  721TMC3    C710664   0.663   1.747  14.325 -0.2618  0.0789  0.2843
  721TMC3    C810665   0.407   2.001  14.653 -0.4377 -0.2438 -0.3008
  721TMC3    O110666   0.676   1.730  14.203 -0.3257 -0.1172 -0.0484
  721TMC3    O210667   0.508   2.069  14.679  0.0827  0.5833  0.0321
  722MPD2     C10668   3.488   0.171  13.324  0.0384  0.4219  0.2135
  722MPD2    C110669   3.475   0.273  13.238  0.4488  0.8566  0.0059
  722MPD2    C210670   3.345   0.314  13.213  0.2493 -0.7574 -0.0511
  722MPD2    C310671   3.237   0.246  13.265 -0.1319  0.4305  0.1882
  722MPD2    C410672   3.262   0.149  13.361 -0.0479  0.1126 -0.5812
  722MPD2    C510673   3.390   0.115  13.389 -0.2005 -0.2168  0.6806
  722MPD2     H10674   3.329   0.399  13.147  1.7346  0.0264  0.5891
  722MPD2    H110675   3.183   0.108  13.423  2.3553 -1.5192  1.3717
  722MPD2    H210676   3.584   0.125  13.341  1.1264  2.0720 -1.4113
  722MPD2    H310677   3.421   0.054  13.473  2.6615 -0.1348 -0.3234
  722MPD2     N10678   3.107   0.298  13.239  0.0487  0.0982 -0.3689
  722MPD2    H510679   3.101   0.384  13.185 -1.8511 -1.2258 -2.2892
  722MPD2    N110680   3.582   0.341  13.173 -0.4532  0.2099 -0.0748
  722MPD2    H710681   3.554   0.394  13.091  2.7741  1.4223 -0.3807
  723TMC3    C110682   2.868   0.293  13.219  0.5326 -0.6976  0.0480
  723TMC3    C210683   2.746   0.229  13.223 -0.5196 -0.6222 -0.0985
  723TMC3    C310684   2.630   0.270  13.161 -0.3560  0.5554 -0.0033
  723TMC3    C410685   2.872   0.403  13.147  0.2865  0.7296 -0.0244
  723TMC3    C510686   2.758   0.444  13.078  0.0101  0.2424 -0.3097
  723TMC3    C610687   2.635   0.381  13.084  0.2141  0.1244 -0.3521
  723TMC3     C10688   2.991   0.227  13.263  0.9225 -0.3625  0.6234
  723TMC3     O10689   2.990   0.107  13.287  0.0182 -0.0924 -0.1733
  723TMC3     H10690   2.745   0.141  13.287  1.0009  0.1432  0.9901
  723TMC3    H110691   2.967   0.452  13.127  0.8073  0.2007  1.1394
  723TMC3    H210692   2.551   0.416  13.025 -1.5390 -1.2921  1.3128
  723TMC3    C710693   2.765   0.551  12.982 -0.6950  0.1856  0.2013
  723TMC3    C810694   2.530   0.177  13.140 -0.2541  0.4092 -1.0911
  723TMC3    O110695   2.679   0.564  12.899  0.1817 -0.0371  0.1600
  723TMC3    O210696   2.425   0.223  13.102 -0.2150 -0.3640 -0.7164
  724TMC3    C110697   2.895   4.303   8.907 -0.8965 -0.8497  0.6372
  724TMC3    C210698   2.919   4.424   8.852 -0.0044  0.6591 -0.0387
  724TMC3    C310699   3.042   4.476   8.877  0.5918 -0.0498 -0.3253
  724TMC3    C410700   2.990   4.230   8.977  0.7403  0.1846 -0.5043
  724TMC3    C510701   3.114   4.289   8.990  0.2333 -0.1410 -1.3553
  724TMC3    C610702   3.141   4.416   8.950 -0.3287 -0.0506  0.2472
  724TMC3     C10703   2.767   4.239   8.900 -0.8084 -0.3106 -0.0440
  724TMC3     O10704   2.744   4.122   8.937  0.0228  0.2770  0.2319
  724TMC3     H10705   2.857   4.471   8.776 -2.3910 -2.9926 -0.3149
  724TMC3    H110706   2.971   4.125   9.000  0.2161  0.9645  2.5567
  724TMC3    H210707   3.238   4.456   8.978 -0.2751 -0.3476  0.4848
  724TMC3    C710708   3.231   4.209   9.021 -0.4211  0.1533 -0.7582
  724TMC3    C810709   3.076   4.605   8.804 -0.6686  0.2679  0.1371
  724TMC3    O110710   3.330   4.252   8.970  0.0597  0.6708  0.5851
  724TMC3    O210711   2.995   4.643   8.716  0.4613 -0.1994 -0.1787
  725TMC3    C110712   0.423   1.520  13.017 -0.3964  0.4552  0.0993
  725TMC3    C210713   0.314   1.497  12.936  0.0619 -0.3295 -0.2146
  725TMC3    C310714   0.317   1.377  12.865 -0.1431 -0.8597 -0.3798
  725TMC3    C410715   0.530   1.430  13.022  0.8818 -0.9333 -0.5946
  725TMC3    C510716   0.520   1.311  12.965 -0.8549  0.2365  0.0501
  725TMC3    C610717   0.419   1.284  12.877  0.4651  0.1031 -0.0058
  725TMC3     C10718   0.448   1.657  13.059 -0.4360  0.4193  0.2213
  725TMC3     O10719   0.365   1.744  13.030 -0.4369 -0.3449  0.6061
  725TMC3     H10720   0.241   1.575  12.917 -1.1501 -1.3621  0.1459
  725TMC3    H110721   0.627   1.453  13.064 -0.0726  1.3105  0.3664
  725TMC3    H210722   0.415   1.196  12.814  2.0342  1.2421 -1.7010
  725TMC3    C710723   0.631   1.217  12.960 -0.3612  0.3135  0.2766
  725TMC3    C810724   0.223   1.374  12.760  0.0688 -0.4241 -0.3591
  725TMC3    O110725   0.737   1.242  13.016 -0.1607 -0.5971 -0.1613
  725TMC3    O210726   0.111   1.335  12.793  0.1218 -0.0081 -0.0518
  726MPD2     C10727   3.617   3.300  10.545  0.3498 -0.2156  0.4349
  726MPD2    C110728   3.544   3.353  10.444 -0.3467 -0.3799  0.3027
  726MPD2    C210729   3.403   3.347  10.450  0.3074 -0.5255 -0.0810
  726MPD2    C310730   3.339   3.287  10.560 -0.3980  0.0790 -0.3798
  726MPD2    C410731   3.419   3.234  10.660  0.0937  0.2909  0.2995
  726MPD2    C510732   3.558   3.242  10.648  0.1104 -0.5734 -0.5271
  726MPD2     H10733   3.341   3.397  10.377 -0.2142  0.8838  1.3568
  726MPD2    H110734   3.374   3.201  10.753 -0.5708 -0.9394 -0.4476
  726MPD2    H210735   3.721   3.322  10.566  0.3659 -0.3629  0.5092
  726MPD2    H310736   3.606   3.212  10.740 -0.3964 -1.8348 -0.6640
  726MPD2     N10737   3.202   3.275  10.579  0.7841  0.1841  0.6053
  726MPD2    H510738   3.174   3.249  10.673  0.1773  1.2068  0.7080
  726MPD2    N110739   3.607   3.424  10.334 -0.1442  0.0339 -0.0258
  726MPD2    H710740   3.551   3.461  10.259  2.2165  0.4586 -1.5582
  727TMC3    C110741   3.778   3.494  10.189  0.3343 -0.1691 -0.7123
  727TMC3    C210742   3.889   3.461  10.121 -0.6478 -0.9372  0.1088
  727TMC3    C310743   3.938   3.534  10.019  0.0310 -0.6669 -0.1530
  727TMC3    C410744   3.708   3.601  10.151 -0.6099 -0.1988  0.7384
  727TMC3    C510745   3.760   3.682  10.049 -0.4425 -0.1170  0.3857
  727TMC3    C610746   3.877   3.653   9.982 -0.5782  0.1094  1.0680
  727TMC3     C10747   3.739   3.415  10.302 -0.1880  0.4648  0.1197
  727TMC3     O10748   3.820   3.332  10.340 -0.0421  0.1714  0.0978
  727TMC3     H10749   3.936   3.366  10.146  0.0022 -0.6419  0.0015
  727TMC3    H110750   3.619   3.633  10.204 -0.2861  1.5412  0.2411
  727TMC3    H210751   3.905   3.703   9.890 -0.1709  0.3692  1.3305
  727TMC3    C710752   3.680   3.786   9.997 -0.0316  0.4685  0.0175
  727TMC3    C810753   4.032   3.481   9.922  0.3083  0.4041 -0.1187
  727TMC3    O110754   3.560   3.767  10.005  0.6784 -0.5347  0.0435
  727TMC3    O210755   4.039   3.541   9.818  0.1861  0.2077 -0.3534
  728TMC3    C110756   1.907   2.614  15.316 -0.1431 -0.6542 -0.0737
  728TMC3    C210757   1.938   2.603  15.449  0.3157 -0.4821  0.2260
  728TMC3    C310758   2.055   2.651  15.492 -0.2523 -0.3095 -0.1428
  728TMC3    C410759   1.989   2.664  15.225 -0.2858  0.3848  0.2505
  728TMC3    C510760   2.102   2.722  15.277 -0.0158  0.0679  0.4307
  728TMC3    C610761   2.140   2.721  15.413 -0.1347  0.2252  0.3208
  728TMC3     C10762   1.772   2.589  15.276 -0.3089  0.7820  0.1080
  728TMC3     O10763   1.741   2.642  15.170 -0.6828 -0.3778 -0.1486
  728TMC3     H10764   1.874   2.544  15.514 -0.2575 -0.7684 -0.5991
  728TMC3    H110765   1.964   2.659  15.120 -1.2338  3.0276  0.3279
  728TMC3    H210766   2.222   2.780  15.453 -1.4606 -0.5204  4.1557
  728TMC3    C710767   2.163   2.830  15.199 -0.0602 -1.4484 -0.5572
  728TMC3    C810768   2.080   2.636  15.632  0.0965  0.4276 -0.3939
  728TMC3    O110769   2.104   2.867  15.095  0.3070 -0.4277  0.1631
  728TMC3    O210770   1.977   2.623  15.696 -0.3018 -0.0674 -0.1299
  729MPD2     C10771   4.193   3.406  16.929 -0.0983  0.0299  0.3126
  729MPD2    C110772   4.209   3.544  16.944 -0.4577 -0.1127 -0.0760
  729MPD2    C210773   4.148   3.604  17.055  1.4493  1.1844 -0.0335
  729MPD2    C310774   4.076   3.519  17.142 -0.0238 -0.2220 -0.6117
  729MPD2    C410775   4.069   3.380  17.124  0.2279 -0.2372 -0.9367
  729MPD2    C510776   4.127   3.325  17.014  0.5178  0.4357  0.3552
  729MPD2     H10777   4.157   3.710  17.076 -0.2040  1.2427  0.3732
  729MPD2    H110778   4.014   3.323  17.198 -0.2266  0.4154 -0.7709
  729MPD2    H210779   4.233   3.343  16.850 -0.8728  0.0293 -0.0778
  729MPD2    H310780   4.132   3.218  16.994  2.9113  1.0630 -2.4774
  729MPD2     N10781   4.027   3.572  17.261  0.9160  0.3153  0.1879
  729MPD2    H510782   4.009   3.506  17.336 -1.0825 -0.3665 -0.8958
  729MPD2    N110783   4.297   3.603  16.857 -0.2676 -1.0183  0.3378
  729MPD2    H710784   4.353   3.552  16.790  0.1403 -1.1790  0.8015
  730TMC3    C110785   3.960   3.737  17.406  0.0212  0.2489  0.1434
  730TMC3    C210786   4.062   3.709  17.492 -0.3519  0.5792  0.2763
  730TMC3    C310787   4.104   3.804  17.573 -0.0054  0.6844  0.3836
  730TMC3    C410788   3.891   3.858  17.426  0.1369 -0.0009 -0.5744
  730TMC3    C510789   3.922   3.944  17.527 -0.5631  0.4370 -0.2742
  730TMC3    C610790   4.031   3.913  17.601  0.3193 -0.3725 -0.1532
  730TMC3     C10791   3.991   3.701  17.269 -0.1204 -0.0184 -0.2450
  730TMC3     O10792   3.965   3.792  17.190  0.2238  0.2389  0.1395
  730TMC3     H10793   4.123   3.619  17.484 -1.6030 -0.0696 -2.0945
  730TMC3    H110794   3.816   3.893  17.357 -1.2625  0.3805  1.1555
  730TMC3    H210795   4.072   3.999  17.653 -1.6797  0.0067  0.8206
  730TMC3    C710796   3.918   4.083  17.484 -0.2197 -0.4140 -1.3245
  730TMC3    C810797   4.234   3.840  17.538 -0.2821  0.2808 -0.1054
  730TMC3    O110798   4.021   4.118  17.432  0.0514  0.1947 -0.3488
  730TMC3    O210799   4.315   3.749  17.544  0.2840  0.4282 -0.0061
  731MPD2     C10800   0.738   1.024  12.310  0.7236  0.3355 -0.3109
  731MPD2    C110801   0.636   0.972  12.229 -0.0459  0.1301  0.2376
  731MPD2    C210802   0.511   0.963  12.280 -0.3762  0.8727  0.7575
  731MPD2    C310803   0.485   0.987  12.413 -0.2872  0.3364 -0.3733
  731MPD2    C410804   0.591   1.029  12.497  0.1886 -0.1091 -0.5618
  731MPD2    C510805   0.716   1.041  12.441 -0.5795  0.0301 -0.5396
  731MPD2     H10806   0.428   0.935  12.216  0.5713  1.6740 -0.8039
  731MPD2    H110807   0.574   1.054  12.601  1.1700 -0.4868 -0.3065
  731MPD2    H210808   0.839   1.037  12.273  1.4285 -1.2197  1.0911
  731MPD2    H310809   0.800   1.074  12.501  0.6930 -2.1765 -1.0977
  731MPD2     N10810   0.361   0.945  12.462 -0.1209  0.1880 -0.0101
  731MPD2    H510811   0.291   0.903  12.401 -1.7136 -1.7831  3.2336
  731MPD2    N110812   0.666   0.965  12.092  0.0299 -0.7425 -0.1015
  731MPD2    H710813   0.763   0.986  12.069 -0.8975  0.2607 -3.0875
  732TMC3    C110814   0.609   1.013  11.858  0.3560 -0.1278  0.4532
  732TMC3    C210815   0.496   1.037  11.788  0.1860  0.3983 -0.0056
  732TMC3    C310816   0.487   1.154  11.724  0.1926  1.1787 -0.0684
  732TMC3    C410817   0.711   1.101  11.856  0.8849  0.0793  0.3327
  732TMC3    C510818   0.697   1.227  11.800 -0.3593  0.0978  0.5280
  732TMC3    C610819   0.583   1.253  11.737  0.2492  0.5314 -0.2197
  732TMC3     C10820   0.579   0.947  11.986  0.2500 -0.2851 -0.4629
  732TMC3     O10821   0.469   0.899  11.998  0.1730  0.2922 -0.0776
  732TMC3     H10822   0.420   0.960  11.778  0.9029 -0.4894  1.3730
  732TMC3    H110823   0.810   1.057  11.862  0.4648 -0.9873 -0.6258
  732TMC3    H210824   0.567   1.346  11.685  4.2853  1.2093 -0.1883
  732TMC3    C710825   0.776   1.340  11.842 -0.2937 -0.4026 -0.3280
  732TMC3    C810826   0.362   1.188  11.661 -1.3349 -0.2157  0.2425
  732TMC3    O110827   0.759   1.449  11.792  0.5812 -0.1375  0.0726
  732TMC3    O210828   0.364   1.291  11.591  0.0610 -0.4894  0.0274
  733TMC3    C110829   0.643   4.385  12.920  0.3284  0.0559  0.2288
  733TMC3    C210830   0.738   4.331  13.001 -0.5205  0.5127  0.1461
  733TMC3    C310831   0.865   4.360  12.962 -0.1276  0.1373  0.1894
  733TMC3    C410832   0.673   4.459  12.808  0.8824 -0.4536  0.2606
  733TMC3    C510833   0.803   4.493  12.779 -0.3535 -0.4237 -0.0539
  733TMC3    C610834   0.910   4.429  12.851 -0.5280  0.1490  0.3189
  733TMC3     C10835   0.505   4.363  12.948  0.2498  0.3313 -0.0303
  733TMC3     O10836   0.426   4.401  12.865 -0.0200 -0.2007 -0.1949
  733TMC3     H10837   0.712   4.257  13.075 -1.3513  0.8370  0.1844
  733TMC3    H110838   0.592   4.482  12.740  1.0767 -0.2582  0.0980
  733TMC3    H210839   1.011   4.461  12.829 -0.2982 -1.4426 -0.8796
  733TMC3    C710840   0.825   4.549  12.649 -0.1197  0.1011  0.0850
  733TMC3    C810841   0.956   4.252  12.989  0.1970 -0.2767  0.3417
  733TMC3    O110842   0.745   4.636  12.605  0.0663  0.9468  0.0513
  733TMC3    O210843   0.954   4.199  13.101 -0.3359  0.1199 -0.8243
  734MPD2     C10844   3.314   2.543  12.190 -0.5020  0.0556  0.1200
  734MPD2    C110845   3.264   2.432  12.117 -0.1372 -0.0990 -0.2259
  734MPD2    C210846   3.295   2.424  11.978  0.1472  0.0692 -0.5230
  734MPD2    C310847   3.351   2.535  11.904  0.7246 -0.3166 -0.2108
  734MPD2    C410848   3.387   2.641  11.981 -0.9081 -0.5375 -0.5444
  734MPD2    C510849   3.373   2.643  12.117  0.2299 -0.6950  0.1480
  734MPD2     H10850   3.266   2.343  11.912 -2.4497  0.1015  0.5485
  734MPD2    H110851   3.445   2.718  11.933  2.7559 -3.0243 -0.0503
  734MPD2    H210852   3.301   2.550  12.297  1.0099 -0.3289  0.3248
  734MPD2    H310853   3.414   2.732  12.165  2.6837 -1.3829 -0.6794
  734MPD2     N10854   3.371   2.508  11.766 -0.2086  0.1141  0.5474
  734MPD2    H510855   3.337   2.419  11.733 -2.5107  0.8234  1.0262
  734MPD2    N110856   3.185   2.331  12.188  0.0456  0.7380  0.1147
  734MPD2    H710857   3.173   2.330  12.289  0.0773 -1.8526  0.0990
  735TMC3    C110858   3.051   2.144  12.205  0.3931 -0.4269 -0.3717
  735TMC3    C210859   2.942   2.092  12.143 -0.6901 -0.3126  0.4255
  735TMC3    C310860   2.936   1.955  12.127  0.8712  0.1706 -0.2967
  735TMC3    C410861   3.157   2.065  12.252 -0.5434  0.4904  0.0384
  735TMC3    C510862   3.141   1.933  12.243  0.0691  0.0189 -0.0049
  735TMC3    C610863   3.035   1.874  12.186 -0.1357  0.4112  0.3621
  735TMC3     C10864   3.100   2.250  12.122 -0.0955 -0.1121  0.0169
  735TMC3     O10865   3.054   2.249  12.009  0.1112 -0.1493  0.0958
  735TMC3     H10866   2.869   2.158  12.096  1.2399  1.1094 -0.5793
  735TMC3    H110867   3.250   2.106  12.291  0.0042 -1.0554  0.3519
  735TMC3    H210868   3.047   1.769  12.162 -2.0705  0.1020  0.7316
  735TMC3    C710869   3.261   1.852  12.229 -0.4128 -0.5706  0.3367
  735TMC3    C810870   2.896   1.903  11.990 -0.0298  0.4685 -0.1644
  735TMC3    O110871   3.354   1.899  12.162  0.1368  0.2454  0.3650
  735TMC3    O210872   2.874   1.783  11.971 -0.1125  0.1733 -0.2615
  736MPD2     C10873   3.317   1.523  12.372  0.6542 -0.0905  0.3355
  736MPD2    C110874   3.353   1.635  12.301  0.4861 -0.3160 -0.0116
  736MPD2    C210875   3.480   1.646  12.250 -0.0421  0.0910  0.4893
  736MPD2    C310876   3.573   1.541  12.274  0.0583 -0.6016  0.0736
  736MPD2    C410877   3.541   1.431  12.353  0.3083  1.0047 -0.4697
  736MPD2    C510878   3.412   1.424  12.389  0.8130 -0.3275  0.0639
  736MPD2     H10879   3.508   1.736  12.197  1.4765 -1.1426 -0.8357
  736MPD2    H110880   3.599   1.341  12.370 -2.3238 -0.7840 -1.0553
  736MPD2    H210881   3.218   1.517  12.416  1.4567 -0.3588  2.0729
  736MPD2    H310882   3.383   1.328  12.430 -1.6741  0.3178 -0.1587
  736MPD2     N10883   3.698   1.540  12.214 -0.3789  0.3347 -0.0540
  736MPD2    H510884   3.755   1.456  12.224 -1.2866 -0.2573  0.1718
  736MPD2    N110885   3.247   1.727  12.281 -0.0047  0.3079 -0.3763
  736MPD2    H710886   3.157   1.726  12.329  0.5228  1.2917  0.6191
  737TMC3    C110887   3.861   1.604  12.067 -1.3827 -0.3347  0.5181
  737TMC3    C210888   3.912   1.709  12.001 -0.6570  0.3101  0.2137
  737TMC3    C310889   3.958   1.694  11.870  1.0272 -0.2675  0.2843
  737TMC3    C410890   3.847   1.480  12.001 -0.5992  0.5389 -0.0698
  737TMC3    C510891   3.892   1.468  11.872  0.4803  0.1426  0.3219
  737TMC3    C610892   3.952   1.576  11.806 -1.2058  0.1290  0.4967
  737TMC3     C10893   3.750   1.644  12.143 -0.1976  0.1665  0.3817
  737TMC3     O10894   3.710   1.754  12.108  0.1547  0.1793  0.3646
  737TMC3     H10895   3.931   1.803  12.052  1.6063  1.4213 -2.6575
  737TMC3    H110896   3.802   1.391  12.043 -0.2499  1.2492  1.8013
  737TMC3    H210897   4.006   1.555  11.714 -4.5819  1.6871 -1.8509
  737TMC3    C710898   3.867   1.343  11.795 -0.4143 -0.4732  0.4648
  737TMC3    C810899   4.010   1.817  11.804  0.1167 -1.0640 -0.0669
  737TMC3    O110900   3.864   1.240  11.867 -0.1491  0.1756 -0.2464
  737TMC3    O210901   4.069   1.901  11.871 -0.4717  0.3075  0.0284
  738MPD2     C10902   3.311   1.296  15.500 -0.1248  1.0904  0.0872
  738MPD2    C110903   3.338   1.208  15.398 -0.0481  0.0414  0.0108
  738MPD2    C210904   3.446   1.241  15.316 -0.2162 -0.2109  0.3443
  738MPD2    C310905   3.529   1.353  15.336  0.5289  0.3926 -0.2204
  738MPD2    C410906   3.493   1.442  15.437  0.7354  0.5480  0.2996
  738MPD2    C510907   3.384   1.409  15.512 -0.6364 -0.1341  0.2014
  738MPD2     H10908   3.463   1.173  15.234  1.4317  0.6048 -0.0036
  738MPD2    H110909   3.548   1.535  15.449  0.5199  0.7250 -0.1128
  738MPD2    H210910   3.232   1.290  15.574  0.3747 -3.2232  0.2250
  738MPD2    H310911   3.360   1.480  15.590  0.1311  0.0718  0.2554
  738MPD2     N10912   3.635   1.391  15.251  0.1681  0.2258  0.5321
  738MPD2    H510913   3.699   1.462  15.284  0.1801  0.4172  0.0909
  738MPD2    N110914   3.265   1.090  15.372  0.2913  0.1639 -0.1299
  738MPD2    H710915   3.284   1.034  15.290 -2.8358  0.9414 -1.3941
  739TMC3    C110916   3.760   1.407  15.054  0.5666 -0.8441 -0.5771
  739TMC3    C210917   3.798   1.349  14.935 -0.3740 -0.1507 -0.1657
  739TMC3    C310918   3.874   1.427  14.850 -0.3995  0.0939 -0.3534
  739TMC3    C410919   3.793   1.535  15.084 -0.3185  0.1538 -0.2705
  739TMC3    C510920   3.869   1.604  14.990  0.4178 -0.6019 -0.8892
  739TMC3    C610921   3.905   1.558  14.868 -0.3145 -0.3638 -0.1488
  739TMC3     C10922   3.653   1.345  15.123 -0.0239 -0.6496  0.2995
  739TMC3     O10923   3.594   1.254  15.067  0.4648  0.2795  0.4538
  739TMC3     H10924   3.788   1.244  14.911  0.9954 -0.0720 -1.1118
  739TMC3    H110925   3.754   1.582  15.174  1.8908  1.2316  0.1043
  739TMC3    H210926   3.955   1.616  14.791 -2.4895  0.2037 -1.1351
  739TMC3    C710927   3.881   1.743  15.024  0.6956  0.0194 -0.4659
  739TMC3    C810928   3.953   1.340  14.759 -0.6991  0.2544 -0.3576
  739TMC3    O110929   3.811   1.784  15.114 -0.3629  0.2239 -0.1793
  739TMC3    O210930   3.931   1.218  14.755  0.5407  0.7962  0.5941
  740TMC3    C110931   4.141   2.295  14.547  0.6003  0.1806  0.2730
  740TMC3    C210932   4.069   2.178  14.563  0.4534 -0.3009  0.4369
  740TMC3    C310933   4.098   2.069  14.488 -0.4193 -0.1849 -0.1365
  740TMC3    C410934   4.245   2.298  14.456 -0.9297 -0.8414 -0.9671
  740TMC3    C510935   4.270   2.190  14.379  0.0739 -0.3386  0.1976
  740TMC3    C610936   4.196   2.076  14.390 -0.1480  0.0322  1.5231
  740TMC3     C10937   4.093   2.418  14.603  0.7613 -0.1304 -0.2898
  740TMC3     O10938   4.169   2.514  14.573  0.2116  0.1114  0.0187
  740TMC3     H10939   4.022   2.156  14.658 -2.7064 -1.4216 -1.3670
  740TMC3    H110940   4.298   2.391  14.438  0.5696 -1.4164  0.5549
  740TMC3    H210941   4.223   1.987  14.334  0.6224  2.3295 -1.7866
  740TMC3    C710942   4.392   2.200  14.314 -0.5726 -0.1506 -0.3007
  740TMC3    C810943   4.020   1.942  14.497  0.5074 -0.4028 -0.1182
  740TMC3    O110944   4.480   2.258  14.378 -0.4862 -0.2790 -1.2429
  740TMC3    O210945   4.056   1.846  14.426  0.2310 -0.5188 -0.3888
  741TMC3    C110946   3.613   0.876  14.088  0.1832 -1.2925 -0.8521
  741TMC3    C210947   3.539   0.921  14.192 -0.7622 -0.6747 -0.7030
  741TMC3    C310948   3.587   1.033  14.259 -0.1555 -1.1044 -0.2370
  741TMC3    C410949   3.741   0.922  14.061  0.3881 -0.2276  0.7060
  741TMC3    C510950   3.789   1.029  14.138  0.4131  0.5972  0.1211
  741TMC3    C610951   3.711   1.085  14.232 -0.5458  0.1805  0.2734
  741TMC3     C10952   3.555   0.761  14.023 -0.4503  0.0170 -0.1925
  741TMC3     O10953   3.482   0.691  14.091  0.1345 -0.2307 -0.1381
  741TMC3     H10954   3.441   0.880  14.212 -1.2421  0.7341 -0.1447
  741TMC3    H110955   3.802   0.879  13.982  1.8492 -2.2184  2.8755
  741TMC3    H210956   3.748   1.172  14.284  0.8533 -0.0618 -0.3367
  741TMC3    C710957   3.918   1.088  14.098  0.0463 -0.3363  1.4579
  741TMC3    C810958   3.496   1.099  14.352  0.1858 -0.4034  0.3240
  741TMC3    O110959   3.959   1.056  13.990 -0.3786  0.4807 -0.1757
  741TMC3    O210960   3.380   1.062  14.340  0.0637 -0.2269 -0.0120
  742TMC3    C110961   3.472   0.478  15.273  0.4465  0.5785 -0.4978
  742TMC3    C210962   3.382   0.400  15.208 -0.0946 -0.0430  0.2477
  742TMC3    C310963   3.432   0.300  15.121 -0.0972 -0.8533  0.1770
  742TMC3    C410964   3.605   0.474  15.237 -0.4237 -0.8482  0.5572
  742TMC3    C510965   3.655   0.386  15.143 -0.4225  0.2715  0.2391
  742TMC3    C610966   3.562   0.301  15.085 -0.5387  0.5209 -0.0300
  742TMC3     C10967   3.439   0.549  15.398  0.2142 -0.0606 -0.4869
  742TMC3     O10968   3.523   0.632  15.431  0.3522  0.2393  0.0564
  742TMC3     H10969   3.284   0.398  15.255  0.6231 -3.7379  1.5604
  742TMC3    H110970   3.671   0.549  15.281  0.8571 -1.0160 -1.0541
  742TMC3    H210971   3.600   0.218  15.026 -0.5957 -0.3089  1.0952
  742TMC3    C710972   3.793   0.339  15.146 -0.2370  1.2049  0.6185
  742TMC3    C810973   3.341   0.194  15.070 -0.3240 -0.4091 -0.2618
  742TMC3    O110974   3.822   0.242  15.073  0.2832  0.4142 -0.1734
  742TMC3    O210975   3.393   0.082  15.068  0.1088 -0.0638  0.3270
  743MPD2     C10976   2.469   0.829   1.932 -0.5409 -0.1192  0.6382
  743MPD2    C110977   2.584   0.912   1.927 -0.1426 -0.5712 -0.2469
  743MPD2    C210978   2.654   0.932   2.047  0.7104  0.4523 -0.0102
  743MPD2    C310979   2.612   0.875   2.167 -0.0165 -0.2697 -0.4294
  743MPD2    C410980   2.500   0.797   2.168 -0.0190  0.0212 -0.6939
  743MPD2    C510981   2.430   0.774   2.051  0.1826  0.0160  0.0162
  743MPD2     H10982   2.721   1.016   2.065  0.8904  0.8506 -2.4803
  743MPD2    H110983   2.462   0.761   2.263  1.5197 -2.6210 -1.0766
  743MPD2    H210984   2.397   0.818   1.852 -0.6087 -3.3179  1.1460
  743MPD2    H310985   2.344   0.709   2.064 -0.6763  1.4029  1.1870
  743MPD2     N10986   2.680   0.918   2.283 -0.1742  0.0849  0.2731
  743MPD2    H510987   2.757   0.984   2.273 -0.3439  0.2310 -0.0740
  743MPD2    N110988   2.616   0.977   1.810  0.1935  0.5422 -0.8158
  743MPD2    H710989   2.546   0.985   1.736 -1.4515 -0.2507  0.6663
  744TMC3    C110990   2.703   1.151   1.682  0.3338  0.0521 -0.7331
  744TMC3    C210991   2.719   1.285   1.720  0.3398 -0.2829 -0.6450
  744TMC3    C310992   2.651   1.391   1.661 -0.7293 -0.3411  0.7834
  744TMC3    C410993   2.615   1.125   1.576  0.0894  0.0060 -0.0886
  744TMC3    C510994   2.550   1.236   1.515 -0.1260 -0.9092  0.3409
  744TMC3    C610995   2.561   1.365   1.554 -0.0252 -0.0581  0.1255
  744TMC3     C10996   2.727   1.055   1.787 -0.7188  0.1413  0.3254
  744TMC3     O10997   2.820   1.071   1.864  0.4338  0.1215 -0.0363
  744TMC3     H10998   2.762   1.296   1.819 -0.4155 -1.6433 -0.1659
  744TMC3    H110999   2.604   1.027   1.533 -0.1185  0.9600 -2.1907
  744TMC3    H211000   2.485   1.434   1.518  0.3526 -0.5617 -1.6458
  744TMC3    C711001   2.482   1.220   1.391  0.9232 -0.1561 -0.3099
  744TMC3    C811002   2.647   1.507   1.735  0.0773  0.1032 -0.0104
  744TMC3    O111003   2.499   1.313   1.313  0.3892  0.0423  0.7098
  744TMC3    O211004   2.557   1.583   1.694  0.4809 -0.1119  0.1416
  745TMC3    C111005   3.923   4.068  13.694  0.1119  0.0397  0.6124
  745TMC3    C211006   3.799   4.081  13.756 -0.5088 -0.1605 -0.3152
  745TMC3    C311007   3.691   4.124  13.690 -0.3693  0.1384 -0.6253
  745TMC3    C411008   3.943   4.105  13.564  1.1192 -0.2418  0.4980
  745TMC3    C511009   3.825   4.136  13.498 -0.9171  0.7652  0.2536
  745TMC3    C611010   3.704   4.143  13.555 -0.2408  0.2792  0.4255
  745TMC3     C11011   4.033   4.049  13.785 -0.3442 -0.7820 -0.2775
  745TMC3     O11012   4.015   3.974  13.880  0.8627 -0.1208 -0.1746
  745TMC3     H11013   3.792   4.043  13.857  0.4004 -0.1249 -0.2396
  745TMC3    H111014   4.035   4.093  13.508  0.6266 -0.1494 -0.3362
  745TMC3    H211015   3.619   4.182  13.500 -0.4944  1.2874  1.5299
  745TMC3    C711016   3.825   4.156  13.353  0.0182 -0.4777  0.3204
  745TMC3    C811017   3.626   4.233  13.751  0.2490 -0.8988 -0.0043
  745TMC3    O111018   3.741   4.089  13.295 -0.1492 -0.2123 -0.3704
  745TMC3    O211019   3.522   4.281  13.702  0.2199 -0.0935 -0.2130
  746TMC3    C111020   1.853   1.215  10.907  0.4184 -0.6465 -0.1413
  746TMC3    C211021   1.886   1.222  10.769  1.2031 -0.1367  0.4351
  746TMC3    C311022   1.858   1.114  10.685 -0.8679 -0.8819  0.1937
  746TMC3    C411023   1.793   1.102  10.956  0.1084  0.4785 -0.1166
  746TMC3    C511024   1.769   0.995  10.871 -0.6448  0.5577 -0.3073
  746TMC3    C611025   1.797   1.000  10.736  0.2358  0.4740  0.4506
  746TMC3     C11026   1.871   1.331  10.994 -0.2914 -0.3414 -0.9961
  746TMC3     O11027   1.889   1.311  11.115  0.3173  0.4756 -0.5764
  746TMC3     H11028   1.940   1.307  10.729 -0.5058  0.7260 -0.0267
  746TMC3    H111029   1.764   1.106  11.061 -0.7413  0.8702 -0.3736
  746TMC3    H211030   1.771   0.911  10.680 -0.3012 -0.4134  2.1076
  746TMC3    C711031   1.652   0.912  10.914 -0.5311  0.0889  0.5599
  746TMC3    C811032   1.878   1.120  10.541 -0.8108  0.3958 -0.2168
  746TMC3    O111033   1.559   0.901  10.838 -1.0007 -0.0343 -0.2891
  746TMC3    O211034   1.814   1.039  10.473  0.0858  0.5075  0.4046
  747TMC3    C111035   3.951   1.322  10.746 -0.9476  0.0632 -0.2850
  747TMC3    C211036   3.882   1.244  10.843 -0.2691  0.3514  0.3606
  747TMC3    C311037   3.928   1.248  10.971  0.6154  0.3293  0.4939
  747TMC3    C411038   4.065   1.394  10.778  0.7199 -0.9460  0.0070
  747TMC3    C511039   4.101   1.397  10.907 -0.0896  0.3586  0.3729
  747TMC3    C611040   4.035   1.327  11.003 -0.3888  0.0675  0.2028
  747TMC3     C11041   3.883   1.373  10.628  0.0667 -0.2720  0.2506
  747TMC3     O11042   3.901   1.489  10.599  0.0807  0.1308 -0.2883
  747TMC3     H11043   3.800   1.175  10.824 -0.6586  0.4049  1.8400
  747TMC3    H111044   4.135   1.434  10.706 -0.2316 -1.0270 -0.9513
  747TMC3    H211045   4.063   1.333  11.108 -0.2194  1.9376  0.0471
  747TMC3    C711046   4.229   1.451  10.952  0.3122  0.5002 -0.0336
  747TMC3    C811047   3.845   1.200  11.078  0.7519  0.2983 -0.1217
  747TMC3    O111048   4.258   1.424  11.069 -0.0754 -0.3295 -0.1413
  747TMC3    O211049   3.779   1.098  11.060 -0.3057  0.8283  0.5553
  748MPD2     C11050   0.720   1.999   1.045 -0.2854 -0.3713 -0.6022
  748MPD2    C111051   0.747   2.055   1.167 -0.2961 -0.1183 -0.6209
  748MPD2    C211052   0.844   2.158   1.174 -0.4639  0.0726 -0.5850
  748MPD2    C311053   0.908   2.205   1.058 -0.0796 -0.5481 -0.2748
  748MPD2    C411054   0.874   2.147   0.943 -0.1660  0.0370  1.3536
  748MPD2    C511055   0.791   2.042   0.930 -0.1207  0.0880  0.2979
  748MPD2     H11056   0.873   2.199   1.270 -1.1320 -0.8957  0.0444
  748MPD2    H111057   0.918   2.171   0.847  0.4156 -2.7912  0.9252
  748MPD2    H211058   0.651   1.917   1.032 -0.9618 -0.0345  0.8364
  748MPD2    H311059   0.764   1.999   0.835  2.5444  1.3794 -1.0244
  748MPD2     N11060   1.002   2.305   1.059  0.6007 -0.0090 -0.1784
  748MPD2    H511061   1.027   2.356   1.144 -1.8546 -0.0100  0.5525
  748MPD2    N111062   0.672   2.012   1.283 -0.0406 -0.0123 -0.0387
  748MPD2    H711063   0.604   1.940   1.263 -0.8982  0.8997 -0.4066
  749TMC3    C111064   1.158   2.467   0.983  0.4556 -0.1239  0.2527
  749TMC3    C211065   1.194   2.474   1.114 -0.3058 -0.1172  0.1193
  749TMC3    C311066   1.249   2.595   1.154  0.1030  0.2703 -0.2649
  749TMC3    C411067   1.173   2.570   0.885 -0.3872  0.5975  0.3144
  749TMC3    C511068   1.212   2.692   0.937 -0.0683 -0.3909 -0.2497
  749TMC3    C611069   1.258   2.704   1.069  0.5107  0.3048 -0.3970
  749TMC3     C11070   1.060   2.370   0.946 -0.3428  0.8429 -0.0139
  749TMC3     O11071   1.048   2.344   0.826  0.1203  0.2787  0.1501
  749TMC3     H11072   1.196   2.391   1.183 -1.5509 -1.5163 -1.5347
  749TMC3    H111073   1.129   2.557   0.787 -2.2011 -3.3044  1.6237
  749TMC3    H211074   1.286   2.797   1.116 -1.7570  0.8741 -0.1818
  749TMC3    C711075   1.207   2.818   0.860 -0.0523  0.0425  0.1009
  749TMC3    C811076   1.309   2.604   1.283  0.2545 -1.1029  0.0275
  749TMC3    O111077   1.245   2.920   0.918  0.3035  0.2808 -0.4488
  749TMC3    O211078   1.304   2.717   1.325  0.1511 -0.2793 -0.3534
  750MPD2     C11079   2.411   2.960  11.045 -0.2774 -0.7876  0.4830
  750MPD2    C111080   2.318   2.909  11.130  0.9932 -0.3304  0.1417
  750MPD2    C211081   2.226   2.820  11.074  0.6947 -0.6356 -0.0847
  750MPD2    C311082   2.235   2.779  10.944 -0.4189 -0.6460  0.0523
  750MPD2    C411083   2.345   2.811  10.872 -0.9619  0.6129 -0.1110
  750MPD2    C511084   2.429   2.909  10.912  0.0764 -0.0170  0.3585
  750MPD2     H11085   2.153   2.778  11.142  0.6666  1.7059  1.3469
  750MPD2    H111086   2.374   2.759  10.781  0.8507 -1.2385  1.5312
  750MPD2    H211087   2.480   3.034  11.085 -2.8325  2.1463 -0.5334
  750MPD2    H311088   2.509   2.949  10.851  1.0910 -0.9972  1.0382
  750MPD2     N11089   2.142   2.703  10.877  0.3865 -0.4095  0.0389
  750MPD2    H511090   2.169   2.671  10.784  0.8172  0.5301 -0.1584
  750MPD2    N111091   2.331   2.935  11.270  0.1705  0.1658  0.3040
  750MPD2    H711092   2.414   2.991  11.287 -1.8318  2.5020  2.2514
  751TMC3    C111093   1.935   2.621  10.810  0.6086 -0.0785 -0.1723
  751TMC3    C211094   1.803   2.603  10.837  0.4669  0.0468  0.1790
  751TMC3    C311095   1.723   2.588  10.730  0.9345 -0.0164  0.2189
  751TMC3    C411096   1.976   2.654  10.678  0.8889 -0.4115  0.7868
  751TMC3    C511097   1.888   2.637  10.573 -0.3579  0.4443 -0.4307
  751TMC3    C611098   1.758   2.604  10.599  0.2391 -0.0255  0.3738
  751TMC3     C11099   2.012   2.674  10.919  0.1997 -0.5439 -0.9777
  751TMC3     O11100   1.956   2.690  11.026 -0.1752  0.0090 -0.3189
  751TMC3     H11101   1.775   2.567  10.935 -0.3533  1.6036  0.5074
  751TMC3    H111102   2.076   2.685  10.650 -0.1293 -0.2525 -2.6427
  751TMC3    H211103   1.683   2.605  10.521  0.3343  2.8723  0.2995
  751TMC3    C711104   1.949   2.620  10.447 -0.6186 -0.0104 -0.8265
  751TMC3    C811105   1.601   2.512  10.762 -0.0164  0.0239 -0.0688
  751TMC3    O111106   2.069   2.632  10.436 -0.0243 -0.2766 -0.2346
  751TMC3    O211107   1.563   2.435  10.673 -0.3062  0.3336 -0.2180
  752TMC3    C111108   0.217   3.707  17.641 -0.2580 -0.8653 -0.1528
  752TMC3    C211109   0.229   3.595   0.029  0.5240  0.3747  0.2826
  752TMC3    C311110   0.136   3.567   0.132 -0.2052  0.8912  0.5161
  752TMC3    C411111   0.106   3.780  17.653  0.0177 -0.0741 -0.8032
  752TMC3    C511112   0.018   3.752   0.069 -0.0159  0.3239  0.0813
  752TMC3    C611113   0.028   3.643   0.153 -0.4317  0.4647 -0.0200
  752TMC3     C11114   0.290   3.708  17.519  0.0057 -0.3873  0.2229
  752TMC3     O11115   0.401   3.653  17.528  0.2817 -0.1564  0.3165
  752TMC3     H11116   0.315   3.530   0.017  1.9375  2.1919  0.5334
  752TMC3    H111117   0.095   3.870  17.594 -0.8955 -0.2505 -0.8965
  752TMC3    H211118   4.665   3.610   0.214  1.1228 -2.5447  0.4545
  752TMC3    C711119   4.620   3.838   0.075 -0.6471 -0.0867  0.0284
  752TMC3    C811120   0.122   3.430   0.174 -0.3592  0.5148  0.4115
  752TMC3    O111121   4.622   3.940   0.006  0.8453  0.0699 -0.2682
  752TMC3    O211122   0.187   3.346   0.115 -0.3559 -0.3891  0.0258
  753TMC3    C111123   2.748   4.644  13.582  0.1133  0.5117 -0.9754
  753TMC3    C211124   2.795   4.584  13.698  0.1290 -0.0184 -0.2977
  753TMC3    C311125   2.798   4.445  13.698 -0.4920  0.5476  0.1309
  753TMC3    C411126   2.690   4.580  13.483 -0.0659  0.4383  1.1918
  753TMC3    C511127   2.669   4.448  13.498  0.1524  0.9747  0.1251
  753TMC3    C611128   2.739   4.380  13.595  0.0900  0.0815 -0.3794
  753TMC3     C11129   2.729   0.066  13.576 -0.2304  0.2971 -0.6707
  753TMC3     O11130   2.627   0.106  13.522 -0.0776 -0.0585  0.2732
  753TMC3     H11131   2.832   4.650  13.776 -1.6516  0.5512  0.0643
  753TMC3    H111132   2.650   4.635  13.399  1.3432 -0.3646  0.0070
  753TMC3    H211133   2.725   4.272  13.588 -1.6523  0.3655 -1.3536
  753TMC3    C711134   2.580   4.375  13.412  0.1505  0.1950 -0.1074
  753TMC3    C811135   2.809   4.376  13.825  0.3413  0.2932 -0.3234
  753TMC3    O111136   2.466   4.421  13.389 -0.2709  0.1289 -0.3427
  753TMC3    O211137   2.767   4.261  13.824  0.4657  0.8955  0.2091
  754MPD2     C11138   1.248   2.839  12.889 -0.0674  0.5140  0.5869
  754MPD2    C111139   1.254   2.705  12.851 -0.5132  0.1951  0.7927
  754MPD2    C211140   1.133   2.647  12.800 -0.0345  0.3263  0.4047
  754MPD2    C311141   1.004   2.706  12.826  0.0694 -0.2080  0.2022
  754MPD2    C411142   1.001   2.839  12.868  0.5582  0.2992 -0.3426
  754MPD2    C511143   1.122   2.901  12.893  0.0117  0.8119  0.0953
  754MPD2     H11144   1.134   2.550  12.752 -0.4923  0.3247  0.4012
  754MPD2    H111145   0.909   2.896  12.876  0.3326 -0.1543  0.2811
  754MPD2    H211146   1.338   2.889  12.922 -0.1960  1.5322 -0.6253
  754MPD2    H311147   1.120   3.002  12.931  0.7666  0.5929  0.7183
  754MPD2     N11148   0.883   2.644  12.794  0.0647  0.1199  0.1749
  754MPD2    H511149   0.797   2.695  12.810 -1.0102 -1.5629 -0.2049
  754MPD2    N111150   1.380   2.637  12.865 -0.7038  0.2308 -0.3844
  754MPD2    H711151   1.459   2.699  12.857  0.4263 -1.3616 -1.6856
  755MPD2     C11152   4.629   2.731  12.793  0.0900 -0.1682  0.3479
  755MPD2    C111153   0.022   2.808  12.801  0.5817 -0.2353 -0.0038
  755MPD2    C211154   0.143   2.748  12.817 -0.5686  0.5502  0.3500
  755MPD2    C311155   0.154   2.610  12.821  0.3478  0.0181  0.4640
  755MPD2    C411156   0.045   2.532  12.802 -0.0982  0.2922  0.9336
  755MPD2    C511157   4.643   2.591  12.790 -0.0224 -0.2969  0.0770
  755MPD2     H11158   0.225   2.816  12.834 -0.4365  0.3423  0.5373
  755MPD2    H111159   0.050   2.424  12.802 -0.4073  0.2751 -3.4676
  755MPD2    H211160   4.529   2.773  12.793 -0.1534 -0.7389 -1.5131
  755MPD2    H311161   4.548   2.541  12.771 -0.3950  1.0201 -1.5406
  755MPD2     N11162   0.275   2.540  12.815 -0.3789 -0.3764 -0.0561
  755MPD2    H511163   0.266   2.439  12.802 -0.7568 -0.3227 -0.2136
  755MPD2    N111164   0.018   2.947  12.820 -0.2625  0.0510 -0.4903
  755MPD2    H711165   0.109   2.990  12.832  0.4069 -1.6141  0.4034
  756MPD2     C11166   1.661   3.980   9.753 -0.1024 -0.0917  0.2374
  756MPD2    C111167   1.640   3.864   9.830  0.8351 -0.2488 -0.1723
  756MPD2    C211168   1.583   3.756   9.768  0.1679 -0.2248 -0.2409
  756MPD2    C311169   1.531   3.764   9.643 -0.9917  0.0797  0.3459
  756MPD2    C411170   1.550   3.881   9.571  0.4113  0.2581  0.2333
  756MPD2    C511171   1.621   3.987   9.619 -0.5759 -0.1378 -0.2263
  756MPD2     H11172   1.582   3.658   9.814  0.1545  0.4193  1.1567
  756MPD2    H111173   1.503   3.891   9.474 -0.1837 -0.5370  0.4418
  756MPD2    H211174   1.711   4.066   9.798  0.7838  0.7120 -2.2718
  756MPD2    H311175   1.640   4.076   9.560  2.1197 -1.9417 -2.0605
  756MPD2     N11176   1.453   3.658   9.599  0.3818 -0.2709  1.0184
  756MPD2    H511177   1.450   3.583   9.667 -1.5767 -2.2512 -1.2508
  756MPD2    N111178   1.671   3.847   9.971 -0.0750 -1.0380  0.1605
  756MPD2    H711179   1.646   3.758  10.012 -0.3762 -0.7850  0.5299
  757MPD2     C11180   1.104   2.936   8.860  0.3059  0.1099  0.3773
  757MPD2    C111181   1.102   2.882   8.989 -0.1411 -0.3254 -0.0262
  757MPD2    C211182   1.107   2.976   9.091  0.7210  0.2761  0.1025
  757MPD2    C311183   1.130   3.113   9.072  0.2033  0.2828  0.9442
  757MPD2    C411184   1.130   3.152   8.944 -0.4168  0.6745 -0.1157
  757MPD2    C511185   1.117   3.067   8.841 -0.1421 -0.0120  0.6141
  757MPD2     H11186   1.104   2.940   9.193 -0.8480 -0.5627 -0.2450
  757MPD2    H111187   1.157   3.256   8.925  0.8045  0.1348 -1.3249
  757MPD2    H211188   1.110   2.867   8.777 -1.1059 -1.4673  1.5779
  757MPD2    H311189   1.109   3.110   8.741 -3.7334 -0.2873  0.7966
  757MPD2     N11190   1.151   3.196   9.180  0.6272  0.0356 -0.1713
  757MPD2    H511191   1.124   3.154   9.268 -1.2205 -0.0148 -0.7549
  757MPD2    N111192   1.080   2.747   9.001 -0.0855 -0.0262  0.5428
  757MPD2    H711193   1.073   2.691   8.916  0.7959 -1.0264  1.1281
  758MPD2     C11194   0.517   2.828  16.214  0.2634 -0.3148 -0.1557
  758MPD2    C111195   0.642   2.844  16.281 -0.4649 -0.0503 -0.9184
  758MPD2    C211196   0.653   2.925  16.397 -0.2776 -0.9279 -0.1183
  758MPD2    C311197   0.547   3.008  16.430  0.1438  0.5480  0.3904
  758MPD2    C411198   0.426   2.997  16.358 -0.0093  0.3553  0.2154
  758MPD2    C511199   0.417   2.909  16.256  0.7202  0.0303  0.0563
  758MPD2     H11200   0.744   2.949  16.450 -2.9687  0.5013  3.9149
  758MPD2    H111201   0.339   3.058  16.375 -0.0930 -0.1670  1.7090
  758MPD2    H211202   0.500   2.748  16.143  1.4217  0.1928 -1.0086
  758MPD2    H311203   0.320   2.912  16.207  1.9917 -1.3276 -2.5241
  758MPD2     N11204   0.557   3.112  16.528 -0.0635 -0.0260 -0.1788
  758MPD2    H511205   0.471   3.165  16.537 -0.9511 -1.5932  0.6244
  758MPD2    N111206   0.749   2.770  16.233 -0.2789 -0.2899  0.4497
  758MPD2    H711207   0.742   2.715  16.147 -0.2003 -1.0432  0.9286
  759MPD2     C11208   1.009   0.382   9.854 -0.4432  0.5450 -0.2946
  759MPD2    C111209   0.890   0.460   9.841  0.3659  0.3980  0.2711
  759MPD2    C211210   0.907   0.591   9.795  0.8887  0.1824 -0.4527
  759MPD2    C311211   1.035   0.639   9.759 -0.2350  0.4724  0.2367
  759MPD2    C411212   1.146   0.562   9.779 -0.7285 -0.5588 -0.2471
  759MPD2    C511213   1.133   0.434   9.830  0.9161 -0.1959  0.0542
  759MPD2     H11214   0.819   0.653   9.783 -0.5087 -1.4723  1.2619
  759MPD2    H111215   1.243   0.585   9.737 -0.9461 -2.6637 -1.9003
  759MPD2    H211216   1.003   0.286   9.902  0.3419  1.5377  1.7795
  759MPD2    H311217   1.222   0.371   9.834 -1.0613 -2.8970  1.1897
  759MPD2     N11218   1.042   0.777   9.715  0.9170  0.7343  0.4877
  759MPD2    H511219   0.954   0.827   9.711  0.5242  0.1103  1.3701
  759MPD2    N111220   0.761   0.413   9.862 -0.2650  0.4862 -0.3248
  759MPD2    H711221   0.689   0.477   9.829  4.3084  5.0590 -1.5314
  760MPD2     C11222   0.100   2.714  12.053 -0.4063 -0.2123 -0.2656
  760MPD2    C111223   0.237   2.707  12.034  0.1394  0.2297 -0.3068
  760MPD2    C211224   0.295   2.589  12.070  0.2337  0.1956  0.1131
  760MPD2    C311225   0.220   2.483  12.117 -0.0292 -0.0968  0.5116
  760MPD2    C411226   0.083   2.496  12.137  0.1907  0.7831 -0.3773
  760MPD2    C511227   0.021   2.611  12.106  0.1712 -0.1798 -0.2233
  760MPD2     H11228   0.403   2.587  12.067  0.2298  1.3507 -1.0377
  760MPD2    H111229   0.026   2.415  12.181  0.9303  0.9820  0.9575
  760MPD2    H211230   0.045   2.799  12.013  1.9247  1.0000 -0.8566
  760MPD2    H311231   4.636   2.618  12.130  0.3373 -1.7280  0.9815
  760MPD2     N11232   0.275   2.360  12.149  0.3707 -0.2616  0.5804
  760MPD2    H511233   0.214   2.292  12.195 -1.1010  1.8717  1.7867
  760MPD2    N111234   0.313   2.811  11.981  0.2307 -0.2383  0.3635
  760MPD2    H711235   0.413   2.797  11.989  0.2983  0.1139  0.1859
  761MPD2     C11236   1.196   2.365  11.029 -1.0430 -0.0901 -0.6788
  761MPD2    C111237   1.286   2.280  10.959  0.4857  0.0447 -0.6042
  761MPD2    C211238   1.399   2.338  10.905 -0.2284  0.2948 -0.4579
  761MPD2    C311239   1.430   2.474  10.934  0.3396  0.5559  0.1066
  761MPD2    C411240   1.339   2.552  11.010 -0.7418 -0.1061  0.4971
  761MPD2    C511241   1.222   2.495  11.051 -0.2764  0.3015 -0.1444
  761MPD2     H11242   1.473   2.287  10.846  1.2489 -1.2578  2.7636
  761MPD2    H111243   1.338   2.658  11.030  2.1875  0.0403 -0.1140
  761MPD2    H211244   1.113   2.314  11.077 -1.3418  0.1035 -0.9865
  761MPD2    H311245   1.155   2.564  11.101  0.5334 -1.9000  3.9946
  761MPD2     N11246   1.542   2.539  10.881  0.0238  0.3814 -0.7136
  761MPD2    H511247   1.561   2.631  10.920 -0.2936  0.5014 -0.8457
  761MPD2    N111248   1.262   2.138  10.959  0.3893 -0.3179  0.1111
  761MPD2    H711249   1.194   2.091  11.018 -1.3603  0.9853 -0.8876
  762MPD2     C11250   1.648   2.132  10.563  0.1218 -0.2151  0.6992
  762MPD2    C111251   1.686   2.005  10.590  0.4743  0.2280 -0.7901
  762MPD2    C211252   1.788   1.944  10.517 -0.0159 -0.3563 -0.1167
  762MPD2    C311253   1.871   2.031  10.443 -0.9859 -0.1034 -0.1930
  762MPD2    C411254   1.845   2.165  10.428  0.0141  0.1735 -0.3366
  762MPD2    C511255   1.729   2.209  10.482 -0.8476  0.0333 -0.3187
  762MPD2     H11256   1.799   1.836  10.518 -1.0845 -0.4432  1.1545
  762MPD2    H111257   1.902   2.233  10.366  1.0897 -0.3850  0.0314
  762MPD2    H211258   1.556   2.182  10.592 -0.5954 -1.7177  1.0254
  762MPD2    H311259   1.708   2.315  10.468  1.1913  0.4209 -0.5344
  762MPD2     N11260   1.974   1.968  10.374 -0.2946  0.6065  0.0164
  762MPD2    H511261   1.998   1.872  10.399  0.5754  0.6898 -0.5030
  762MPD2    N111262   1.596   1.930  10.675 -0.2965  0.7121 -0.0223
  762MPD2    H711263   1.518   1.984  10.713  0.4525  1.6901  0.1280
  763MPD2     C11264   3.095   3.070  16.447 -0.4813 -0.2249  0.0564
  763MPD2    C111265   2.984   3.144  16.432 -0.0620  0.2822 -0.0862
  763MPD2    C211266   2.974   3.263  16.496 -0.4102  0.2461 -0.0833
  763MPD2    C311267   3.062   3.297  16.598 -0.0042 -0.1147  0.3193
  763MPD2    C411268   3.173   3.216  16.615  0.5945 -0.2044 -0.1493
  763MPD2    C511269   3.189   3.110  16.535  0.4307 -0.1906  0.5423
  763MPD2     H11270   2.888   3.325  16.471 -0.2791  0.8473  0.9471
  763MPD2    H111271   3.251   3.229  16.688  0.3242 -0.0356  0.1101
  763MPD2    H211272   3.113   2.974  16.399  1.3877 -0.3577  1.0648
  763MPD2    H311273   3.260   3.034  16.565  2.1314  1.8881  1.8420
  763MPD2     N11274   3.053   3.415  16.690 -0.6528  0.1634  0.5175
  763MPD2    H511275   3.127   3.432  16.757 -0.5180  0.6963  0.2319
  763MPD2    N111276   2.890   3.110  16.323  0.1416  0.6999  0.0937
  763MPD2    H711277   2.820   3.175  16.290  0.0757  1.1841  1.1963
  764MPD2     C11278   0.694   0.116  17.175 -0.2719 -0.5599  0.6326
  764MPD2    C111279   0.584   0.061  17.110 -0.5113  0.0673  0.0812
  764MPD2    C211280   0.490   4.716  17.188 -0.1824  0.1871  0.2083
  764MPD2    C311281   0.506   4.711  17.325 -0.4759  0.6985 -0.9568
  764MPD2    C411282   0.624   0.035  17.384  0.6346  0.4383 -0.0496
  764MPD2    C511283   0.717   0.103  17.311 -0.4682  0.2126 -0.1561
  764MPD2     H11284   0.412   4.660  17.139  0.4324  0.3320 -0.9443
  764MPD2    H111285   0.648   0.022  17.489 -0.1949 -1.1320 -0.0586
  764MPD2    H211286   0.774   0.164  17.120 -2.0293  3.2556  1.3874
  764MPD2    H311287   0.811   0.126  17.358 -0.0947 -0.8737 -0.3591
  764MPD2     N11288   0.414   4.630  17.396 -0.2078  0.3539 -0.0417
  764MPD2    H511289   0.341   4.592  17.336 -1.1161 -0.8740  1.8631
  764MPD2    N111290   0.559   0.066  16.974 -0.1802 -0.4824  0.0225
  764MPD2    H711291   0.480   0.008  16.946 -1.1112  0.4691  0.6773
  765MPD2     C11292   0.399   2.230  15.900 -0.1210 -0.1030 -0.4239
  765MPD2    C111293   0.484   2.336  15.880 -0.1639  1.1291 -0.3408
  765MPD2    C211294   0.620   2.316  15.878 -0.2747  0.6026  0.3993
  765MPD2    C311295   0.669   2.184  15.899  0.7871  0.2323 -0.2394
  765MPD2    C411296   0.586   2.084  15.930  0.2338 -0.5967  0.1993
  765MPD2    C511297   0.451   2.108  15.925 -0.1997  0.0770  0.1681
  765MPD2     H11298   0.691   2.397  15.864  0.1313  0.4656  1.6883
  765MPD2    H111299   0.619   1.981  15.939  0.3022 -0.5281  0.7762
  765MPD2    H211300   0.293   2.247  15.886 -0.1928 -2.6391 -3.0528
  765MPD2    H311301   0.383   2.024  15.936 -0.4449  0.5136  1.9576
  765MPD2     N11302   0.813   2.169  15.896 -0.0898 -0.5211  0.6343
  765MPD2    H511303   0.857   2.258  15.873  0.3196 -0.8231  0.2546
  765MPD2    N111304   0.426   2.467  15.867  0.0514 -0.1012 -0.1174
  765MPD2    H711305   0.325   2.477  15.866  0.1532  0.5656 -2.1009
  766MPD2     C11306   0.141   2.777  15.281  0.3768  0.2950  0.5764
  766MPD2    C111307   0.240   2.703  15.338  0.1532 -0.4124  0.0893
  766MPD2    C211308   0.333   2.636  15.266  0.2238 -0.1233  0.4987
  766MPD2    C311309   0.323   2.640  15.130 -0.3196 -0.0544  0.1599
  766MPD2    C411310   0.236   2.725  15.068 -0.3964  0.2119 -0.8668
  766MPD2    C511311   0.135   2.785  15.143  0.1265 -0.2613 -0.1423
  766MPD2     H11312   0.406   2.580  15.323  0.4827 -0.5798 -0.2755
  766MPD2    H111313   0.237   2.737  14.960  1.0423 -2.1000 -1.1117
  766MPD2    H211314   0.082   2.853  15.329  0.5945  0.7153  0.1754
  766MPD2    H311315   0.067   2.856  15.096  1.0353  0.2478 -0.6769
  766MPD2     N11316   0.425   2.587  15.047  0.0018 -0.1149  0.3203
  766MPD2    H511317   0.410   2.614  14.950 -2.5201 -1.8580  0.2441
  766MPD2    N111318   0.264   2.713  15.472  0.6716 -0.2279 -0.4119
  766MPD2    H711319   0.340   2.661  15.514  1.2982  1.1983  0.2079
  767MPD2     C11320   4.477   2.545  14.846 -0.6554 -0.4323  0.6283
  767MPD2    C111321   4.590   2.612  14.820 -1.2194  0.7914 -0.4804
  767MPD2    C211322   4.693   2.548  14.755  0.4106 -0.6638  0.3173
  767MPD2    C311323   4.682   2.420  14.703 -1.0875 -0.5489 -0.5214
  767MPD2    C411324   4.569   2.351  14.735 -0.5040  0.1290 -0.2451
  767MPD2    C511325   4.469   2.412  14.809 -0.1979 -0.7356 -0.5281
  767MPD2     H11326   0.052   2.614  14.724  0.5885 -0.6956  0.7059
  767MPD2    H111327   4.548   2.253  14.695  2.7665 -0.5491 -0.2990
  767MPD2    H211328   4.389   2.587  14.894 -0.3428  0.8403  0.0831
  767MPD2    H311329   4.376   2.356  14.817  0.2879 -1.3119  1.1616
  767MPD2     N11330   0.060   2.359  14.628  0.0780 -0.6654  0.2453
  767MPD2    H511331   0.041   2.268  14.587  0.7853 -0.4562 -0.5583
  767MPD2    N111332   4.581   2.751  14.846 -0.5521  0.0277 -0.4369
  767MPD2    H711333   4.501   2.785  14.898  1.1527  2.1603  0.7975
  768MPD2     C11334   1.680   0.487  10.662  0.9638 -0.1082 -0.0296
  768MPD2    C111335   1.640   0.425  10.779 -0.3471  0.2262  0.0710
  768MPD2    C211336   1.709   0.445  10.902  0.4311 -0.0911 -0.3492
  768MPD2    C311337   1.823   0.528  10.899 -0.0768  0.2524  0.4737
  768MPD2    C411338   1.848   0.605  10.784 -0.5413  0.7110 -0.1909
  768MPD2    C511339   1.778   0.585  10.669  0.7985 -0.1822  0.3536
  768MPD2     H11340   1.679   0.393  10.992 -1.1746  0.5312 -0.5264
  768MPD2    H111341   1.927   0.678  10.781 -0.0184  0.2035  1.5328
  768MPD2    H211342   1.636   0.473  10.564 -1.3486  1.3912  0.8079
  768MPD2    H311343   1.808   0.647  10.585 -0.5289 -0.8700 -0.6512
  768MPD2     N11344   1.916   0.548  11.006 -0.3404 -0.3219  0.1825
  768MPD2    H511345   1.990   0.617  10.999 -0.6719  0.1342  1.1123
  768MPD2    N111346   1.518   0.356  10.785  0.2967 -0.2796  0.4668
  768MPD2    H711347   1.496   0.327  10.879  2.1608 -0.8091  0.7416
  769MPD2     C11348   1.682   4.068  14.754 -0.4315 -0.2936 -0.6619
  769MPD2    C111349   1.564   4.105  14.822 -0.6242  0.1800  0.1066
  769MPD2    C211350   1.571   4.190  14.928  0.3679  0.5423  0.6127
  769MPD2    C311351   1.693   4.233  14.979 -0.3365  0.0606 -0.1915
  769MPD2    C411352   1.807   4.189  14.915  0.0707  0.8477 -0.2248
  769MPD2    C511353   1.801   4.112  14.801 -0.2597  0.1890  0.2231
  769MPD2     H11354   1.485   4.226  14.984  0.3998  0.7829  0.5065
  769MPD2    H111355   1.906   4.215  14.951  0.5753 -0.7206 -0.4609
  769MPD2    H211356   1.682   4.011  14.662  3.4466 -1.1502 -0.1084
  769MPD2    H311357   1.888   4.071  14.751  0.4681  0.7285  1.0522
  769MPD2     N11358   1.704   4.290  15.106 -0.8730 -0.4027  0.5107
  769MPD2    H511359   1.620   4.315  15.157 -2.3091  0.9192 -2.5066
  769MPD2    N111360   1.441   4.064  14.759 -0.1802 -0.0944 -0.1724
  769MPD2    H711361   1.452   4.004  14.678  0.6313 -2.7022  1.8887
  770MPD2     C11362   0.525   3.814  15.093  1.1048 -0.6278  0.6784
  770MPD2    C111363   0.652   3.776  15.137 -0.6672 -0.2899 -0.0162
  770MPD2    C211364   0.762   3.814  15.061  0.5965  0.0967 -0.2833
  770MPD2    C311365   0.748   3.887  14.945 -0.2022 -0.1539 -0.8480
  770MPD2    C411366   0.617   3.927  14.904  0.1306  0.0574  0.7118
  770MPD2    C511367   0.508   3.881  14.974  0.9437  0.1287 -0.1821
  770MPD2     H11368   0.867   3.802  15.086  0.1003 -2.7996  0.4170
  770MPD2    H111369   0.611   3.982  14.811  3.2262  1.0288  1.1153
  770MPD2    H211370   0.437   3.777  15.144  1.2561 -0.8665  0.7659
  770MPD2    H311371   0.407   3.910  14.945  1.3178 -0.3131 -1.9051
  770MPD2     N11372   0.864   3.904  14.872 -0.6460  0.0115  0.1236
  770MPD2    H511373   0.949   3.870  14.915 -1.2378 -0.5606  0.8506
  770MPD2    N111374   0.658   3.707  15.253  0.5727 -0.4206  0.6161
  770MPD2    H711375   0.573   3.676  15.300 -0.3225  0.8748 -0.1333
  771MPD2     C11376   3.256   1.433  13.816 -0.4713 -0.1881  0.2668
  771MPD2    C111377   3.363   1.495  13.754 -0.3265 -0.4514 -0.9727
  771MPD2    C211378   3.400   1.439  13.632  0.1127  0.0608  0.5435
  771MPD2    C311379   3.328   1.332  13.572 -0.3244 -0.2750 -0.0827
  771MPD2    C411380   3.214   1.289  13.635 -0.5560 -0.4370  0.1759
  771MPD2    C511381   3.178   1.341  13.756 -0.2340 -0.1357  0.7145
  771MPD2     H11382   3.482   1.491  13.584 -0.3355  1.9650  1.8185
  771MPD2    H111383   3.142   1.218  13.596 -0.6167  0.1893 -0.8639
  771MPD2    H211384   3.219   1.486  13.903 -3.0072 -0.4794 -0.6478
  771MPD2    H311385   3.091   1.295  13.801  0.7412 -1.6708  1.0229
  771MPD2     N11386   3.369   1.287  13.440 -0.2632  0.2198 -0.2088
  771MPD2    H511387   3.454   1.316  13.393 -0.0050 -1.6715 -0.8856
  771MPD2    N111388   3.439   1.607  13.804  0.1800  0.1704  0.3771
  771MPD2    H711389   3.525   1.636  13.757  0.0084  1.9389  1.1603
  772MPD2     C11390   3.168   2.336  14.158 -0.0058  0.6911 -0.1017
  772MPD2    C111391   3.134   2.222  14.093  0.5785  0.5550 -0.5933
  772MPD2    C211392   2.999   2.184  14.087  0.3406  0.1337  0.3524
  772MPD2    C311393   2.901   2.280  14.120  0.0484 -0.2018  0.0801
  772MPD2    C411394   2.937   2.399  14.179  0.3550 -0.1092 -0.5076
  772MPD2    C511395   3.068   2.423  14.199 -0.1276 -0.0490 -0.0482
  772MPD2     H11396   2.979   2.085  14.048 -0.2499  0.1264  0.6803
  772MPD2    H111397   2.858   2.467  14.209  2.1595  1.1085  1.4492
  772MPD2    H211398   3.269   2.364  14.187  0.5389 -0.7288 -0.6264
  772MPD2    H311399   3.095   2.514  14.250 -0.1449  1.2874 -2.4058
  772MPD2     N11400   2.762   2.253  14.109  0.5392 -0.0853 -0.3876
  772MPD2    H511401   2.696   2.330  14.119  0.8027 -0.0054  0.7831
  772MPD2    N111402   3.223   2.129  14.037 -0.4139  0.4325 -1.2576
  772MPD2    H711403   3.204   2.040  13.993  1.4731 -1.2875  1.3995
  773MPD2     C11404   1.598   3.827   0.127 -0.3854 -0.3182  0.2452
  773MPD2    C111405   1.520   3.713   0.144 -0.3113 -0.4376 -0.2261
  773MPD2    C211406   1.537   3.633   0.260 -0.2750 -0.4018  0.3950
  773MPD2    C311407   1.631   3.659   0.354  0.3409  0.1540 -0.5295
  773MPD2    C411408   1.703   3.777   0.333 -0.2979 -0.6906  0.4340
  773MPD2    C511409   1.693   3.856   0.225 -0.0121  0.5261 -0.2369
  773MPD2     H11410   1.469   3.550   0.267  0.1488 -0.9255 -1.5019
  773MPD2    H111411   1.776   3.804   0.409  0.9481 -1.1660 -0.5776
  773MPD2    H211412   1.579   3.899   0.048 -1.2244 -0.8396 -0.0270
  773MPD2    H311413   1.756   3.944   0.223 -0.6761  1.0481  1.9786
  773MPD2     N11414   1.657   3.563   0.451 -0.3290  0.0430  0.2015
  773MPD2    H511415   1.592   3.485   0.442  0.7956 -0.7660 -1.0823
  773MPD2    N111416   1.411   3.675   0.053  0.0104 -0.2367 -0.4675
  773MPD2    H711417   1.351   3.597   0.078 -0.0400 -0.1204 -0.2292
  774MPD2     C11418   1.270   1.656  13.296 -0.1962 -0.0899 -0.5353
  774MPD2    C111419   1.254   1.772  13.367 -0.3302  0.1293 -0.0400
  774MPD2    C211420   1.257   1.895  13.307  0.2381  0.3469 -0.0317
  774MPD2    C311421   1.275   1.902  13.170 -0.1164  0.4083  0.1119
  774MPD2    C411422   1.279   1.785  13.096  0.4935  0.9149 -0.2920
  774MPD2    C511423   1.285   1.665  13.160  0.2358  0.7141  0.8645
  774MPD2     H11424   1.269   1.982  13.371  0.0352 -1.3479  2.2968
  774MPD2    H111425   1.294   1.782  12.989  3.2724 -1.0682  0.1511
  774MPD2    H211426   1.274   1.559  13.343  0.4938  0.5889  0.8092
  774MPD2    H311427   1.302   1.569  13.114 -1.8408  1.5424 -1.6061
  774MPD2     N11428   1.270   2.031  13.114  0.0597 -0.1976  0.1466
  774MPD2    H511429   1.247   2.113  13.169 -0.4361  0.2824 -0.7874
  774MPD2    N111430   1.255   1.761  13.511 -0.0418  1.0626  0.0923
  774MPD2    H711431   1.272   1.667  13.548 -0.3987  0.8805 -0.2131
  775MPD2     C11432   2.395   3.953  16.095  0.0771 -0.9101 -0.5126
  775MPD2    C111433   2.320   4.056  16.048  0.1607  0.7847 -0.4368
  775MPD2    C211434   2.396   4.158  15.994 -0.0674  0.4312  0.3942
  775MPD2    C311435   2.535   4.151  15.989  0.2430 -0.0260 -0.4198
  775MPD2    C411436   2.605   4.062  16.054  0.1181 -0.0188  0.1068
  775MPD2    C511437   2.532   3.956  16.113  0.2687 -1.0114 -0.6491
  775MPD2     H11438   2.359   4.249  15.948  0.4609  0.2232 -0.4559
  775MPD2    H111439   2.713   4.060  16.061  0.1896  2.2083 -0.4189
  775MPD2    H211440   2.343   3.865  16.130 -2.2767  0.2524 -1.0584
  775MPD2    H311441   2.591   3.876  16.159 -0.2562  0.3261  2.3518
  775MPD2     N11442   2.592   4.250  15.900  0.6238  1.1371  0.1315
  775MPD2    H511443   2.526   4.311  15.853 -2.5570 -1.5415  1.1472
  775MPD2    N111444   2.177   4.069  16.061 -0.1997  0.4381 -0.4166
  775MPD2    H711445   2.138   3.980  16.090 -1.0000  1.1482  0.6913
  776MPD2     C11446   2.623   3.453  11.492 -0.7767 -0.5189  1.2203
  776MPD2    C111447   2.495   3.437  11.550  0.3891 -0.7763  0.1061
  776MPD2    C211448   2.420   3.554  11.583 -0.0081 -0.4150 -0.1402
  776MPD2    C311449   2.474   3.679  11.558  0.4669 -0.1239 -0.0122
  776MPD2    C411450   2.596   3.692  11.488 -0.1599 -0.2770 -0.3654
  776MPD2    C511451   2.666   3.576  11.451  0.5459  0.1611 -0.1417
  776MPD2     H11452   2.318   3.536  11.614 -0.2252  0.7828 -0.1434
  776MPD2    H111453   2.632   3.792  11.467  0.4136 -0.4121 -0.0171
  776MPD2    H211454   2.683   3.366  11.467  1.2323  1.4120 -0.6953
  776MPD2    H311455   2.762   3.592  11.403  1.8552  0.9888  2.8092
  776MPD2     N11456   2.417   3.804  11.596  0.3798 -0.2971 -0.6260
  776MPD2    H511457   2.462   3.889  11.563 -0.0243  0.8059  1.7324
  776MPD2    N111458   2.440   3.307  11.569  0.0732 -0.1333 -0.3298
  776MPD2    H711459   2.496   3.229  11.537 -1.0052 -1.0193 -0.0744
  777MPD2     C11460   2.408   2.067   0.983  0.1437  0.0738  0.3302
  777MPD2    C111461   2.323   1.987   1.052  0.5456  0.7710  0.0524
  777MPD2    C211462   2.286   1.869   0.989 -0.7582 -0.5428 -0.0773
  777MPD2    C311463   2.328   1.834   0.861 -0.1407 -0.2452  0.5537
  777MPD2    C411464   2.406   1.922   0.791  0.3798 -0.3122  0.1152
  777MPD2    C511465   2.444   2.037   0.854 -0.5249  0.3772 -0.1956
  777MPD2     H11466   2.211   1.810   1.040 -1.6233  0.2700 -0.4252
  777MPD2    H111467   2.452   1.899   0.696 -0.6166  1.0000 -0.6830
  777MPD2    H211468   2.456   2.155   1.024  0.8603  0.3230 -1.0253
  777MPD2    H311469   2.515   2.099   0.802 -1.3354  1.9951  0.6270
  777MPD2     N11470   2.296   1.714   0.806  0.1543  0.1745 -0.1151
  777MPD2    H511471   2.235   1.655   0.861 -2.3505  1.4277 -1.5581
  777MPD2    N111472   2.276   2.032   1.177 -0.2395  0.2587 -0.3629
  777MPD2    H711473   2.334   2.110   1.206 -0.4699  0.3684 -0.1990
  778MPD2     C11474   3.219   2.156  15.026  0.6463 -0.1313  0.3702
  778MPD2    C111475   3.188   2.031  14.977 -0.0223 -0.0743  0.4462
  778MPD2    C211476   3.248   1.994  14.858  0.4542  0.3220 -0.7138
  778MPD2    C311477   3.345   2.067  14.800  0.7410 -0.7600 -0.4703
  778MPD2    C411478   3.375   2.191  14.852  0.0566 -0.5185 -0.6614
  778MPD2    C511479   3.309   2.235  14.966 -0.0649  0.1405 -0.1004
  778MPD2     H11480   3.222   1.900  14.811 -1.1547 -0.0708  0.9483
  778MPD2    H111481   3.458   2.249  14.812 -1.0880  2.0054  0.6582
  778MPD2    H211482   3.168   2.197  15.113  1.8212 -0.8950  1.4309
  778MPD2    H311483   3.331   2.334  15.002 -3.4277  0.8944 -0.1903
  778MPD2     N11484   3.397   2.008  14.683  0.8566  0.1578 -0.3020
  778MPD2    H511485   3.367   1.914  14.657 -1.2300  1.0119 -0.9522
  778MPD2    N111486   3.092   1.940  15.029 -0.7360 -0.1466  0.4868
  778MPD2    H711487   3.071   1.857  14.975 -3.0013 -0.1144  1.3243
  779MPD2     C11488   2.618   0.558  14.289  0.0500 -0.4890  0.0456
  779MPD2    C111489   2.682   0.582  14.406 -0.5643  0.2518  0.2645
  779MPD2    C211490   2.686   0.713  14.456  0.2962 -0.7091 -0.4536
  779MPD2    C311491   2.646   0.818  14.375 -0.0276 -0.5882 -0.4521
  779MPD2    C411492   2.582   0.794  14.263 -0.7893 -0.6606  0.1618
  779MPD2    C511493   2.569   0.667  14.218  0.4591 -0.5564 -0.4178
  779MPD2     H11494   2.738   0.731  14.549  0.5430 -0.9390 -0.5482
  779MPD2    H111495   2.539   0.873  14.203 -2.2828 -1.9425 -0.4564
  779MPD2    H211496   2.604   0.465  14.237  1.9480  0.6677 -2.5477
  779MPD2    H311497   2.515   0.645  14.127 -0.0462 -1.3808  0.0763
  779MPD2     N11498   2.679   0.945  14.424  0.5314  0.1106  0.6777
  779MPD2    H511499   2.734   0.936  14.509 -1.2041 -0.7004  1.7299
  779MPD2    N111500   2.743   0.475  14.479 -0.6107 -0.7349  0.2316
  779MPD2    H711501   2.792   0.506  14.562  0.7506  0.0143 -0.8477
  780MPD2     C11502   1.790   0.688   1.626  0.1423 -1.0895  0.1521
  780MPD2    C111503   1.733   0.626   1.517  0.1513  0.3806 -0.0200
  780MPD2    C211504   1.810   0.618   1.405 -0.1880  0.1052 -0.4636
  780MPD2    C311505   1.947   0.654   1.404  0.7573 -0.1471 -0.0422
  780MPD2    C411506   2.001   0.721   1.513  0.5361 -0.7999  0.0781
  780MPD2    C511507   1.922   0.733   1.622 -0.4113  0.3158  0.0183
  780MPD2     H11508   1.767   0.563   1.322 -0.8786 -2.2863  1.4850
  780MPD2    H111509   2.094   0.777   1.510 -0.2762  0.6158  1.6410
  780MPD2    H211510   1.725   0.701   1.712  0.3184 -0.3886  0.1837
  780MPD2    H311511   1.954   0.797   1.703 -0.7610  1.6439 -0.8745
  780MPD2     N11512   2.014   0.620   1.285 -0.7958 -0.5338 -0.1971
  780MPD2    H511513   1.961   0.586   1.206  0.3237 -0.9849 -0.7538
  780MPD2    N111514   1.606   0.561   1.532  0.4915  0.7021 -0.0403
  780MPD2    H711515   1.568   0.540   1.623 -1.9025  0.0444 -1.1948
  781MPD2     C11516   4.716   2.188  11.989  0.4534 -1.0280  0.4820
  781MPD2    C111517   4.649   2.070  11.959  0.1402  0.0418 -0.6976
  781MPD2    C211518   4.674   2.001  11.840 -0.3657 -0.3386  0.5039
  781MPD2    C311519   0.057   2.048  11.759 -0.3099 -0.4210  0.4330
  781MPD2    C411520   0.124   2.163  11.798 -0.0062  0.1544  0.0820
  781MPD2    C511521   0.091   2.235  11.905 -0.5105  0.7228 -0.2308
  781MPD2     H11522   4.628   1.905  11.819  1.0048 -1.2482  1.6673
  781MPD2    H111523   0.203   2.194  11.730 -0.5548  0.3113 -0.4794
  781MPD2    H211524   4.679   2.261  12.061  1.1740 -0.9891  0.8134
  781MPD2    H311525   0.150   2.323  11.928  0.2323 -0.3515  1.9674
  781MPD2     N11526   0.103   1.987  11.643  0.4148 -0.5685 -0.1349
  781MPD2    H511527   0.189   2.028  11.609 -0.5457 -0.2165 -2.1472
  781MPD2    N111528   4.550   2.012  12.039 -0.2563  0.0910 -0.4110
  781MPD2    H711529   4.543   1.916  12.008  0.9940  0.8517 -3.0777
  782MPD2     C11530   2.410   3.229   9.926  0.4942  0.6453 -0.0449
  782MPD2    C111531   2.516   3.141   9.942  0.4350 -0.3023 -0.7572
  782MPD2    C211532   2.600   3.167  10.050  1.0242 -0.2295  1.1337
  782MPD2    C311533   2.581   3.260  10.149  0.0686 -0.2553  0.1066
  782MPD2    C411534   2.468   3.335  10.134 -0.1490  0.2394  0.5189
  782MPD2    C511535   2.391   3.325  10.022  0.2488 -0.3993  0.5004
  782MPD2     H11536   2.690   3.110  10.068  1.1683 -0.5055 -0.4684
  782MPD2    H111537   2.448   3.413  10.206 -0.3617  0.5635  0.1137
  782MPD2    H211538   2.341   3.223   9.843  2.1477  0.3112 -1.4019
  782MPD2    H311539   2.310   3.396  10.008  0.9782  0.0961 -1.2312
  782MPD2     N11540   2.669   3.258  10.263  0.3638 -0.5863  0.1072
  782MPD2    H511541   2.752   3.201  10.252  0.6471 -0.2752  0.6284
  782MPD2    N111542   2.533   3.019   9.867 -0.1790 -1.2421  0.2208
  782MPD2    H711543   2.609   2.958   9.895  0.7652 -0.1462  0.0324
  783MPD2     C11544   1.797   2.475  10.148 -0.5275 -0.6377  0.4403
  783MPD2    C111545   1.894   2.539  10.214  0.2601  0.5907 -0.0471
  783MPD2    C211546   2.008   2.580  10.156 -0.8922 -0.9499 -0.5784
  783MPD2    C311547   2.034   2.557  10.024  0.0718 -0.0276  0.2703
  783MPD2    C411548   1.939   2.494   9.950  0.8670 -0.4496 -0.1843
  783MPD2    C511549   1.828   2.454  10.013 -0.2571  0.0970  0.3947
  783MPD2     H11550   2.080   2.647  10.201 -0.4377 -2.0069  0.2650
  783MPD2    H111551   1.950   2.477   9.843 -0.2114  0.4801 -0.4382
  783MPD2    H211552   1.703   2.441  10.189 -1.3787  0.8007 -0.3041
  783MPD2    H311553   1.756   2.405   9.950 -0.5908  0.2216  0.6779
  783MPD2     N11554   2.148   2.597   9.949 -0.6096 -0.5466 -0.4250
  783MPD2    H511555   2.158   2.558   9.856 -0.3253  1.0799 -1.0800
  783MPD2    N111556   1.864   2.565  10.354  0.5898  0.5866 -0.7425
  783MPD2    H711557   1.773   2.534  10.385 -0.4046  3.4936 -0.7760
  784MPD2     C11558   0.148   3.961   0.655  0.3735  0.0985  0.1552
  784MPD2    C111559   0.056   4.007   0.745 -0.2453 -0.6776 -0.2795
  784MPD2    C211560   4.668   4.074   0.690 -0.6611  0.5272  0.0606
  784MPD2    C311561   4.649   4.102   0.563  0.0368  0.2246 -0.5341
  784MPD2    C411562   0.015   4.048   0.471  0.3853 -0.3201 -0.0446
  784MPD2    C511563   0.123   3.974   0.516  0.5383  0.1591  0.7530
  784MPD2     H11564   4.590   4.114   0.755 -0.3501 -1.3854  1.6144
  784MPD2    H111565   4.718   4.056   0.365 -2.0846 -1.0460  0.2930
  784MPD2    H211566   0.244   3.917   0.677  1.0984  0.6145 -1.9666
  784MPD2    H311567   0.185   3.920   0.446 -0.4097 -1.2108  0.9820
  784MPD2     N11568   4.543   4.185   0.528  0.3829  0.8051 -0.1238
  784MPD2    H511569   4.479   4.224   0.597  0.7842 -0.4070  0.9473
  784MPD2    N111570   0.074   4.007   0.882  0.4590  0.2423 -0.6310
  784MPD2    H711571   0.011   4.072   0.928  0.6447 -0.8569  1.1521
  785MPD2     C11572   4.562   1.303  10.087 -0.8428 -0.1060  0.1703
  785MPD2    C111573   4.537   1.381  10.198  0.1444  0.3125  1.1008
  785MPD2    C211574   4.406   1.422  10.210  0.1127  0.1645 -0.0905
  785MPD2    C311575   4.306   1.369  10.135  0.4835  0.2637  0.3124
  785MPD2    C411576   4.333   1.272  10.039  0.1959 -0.6873 -0.3518
  785MPD2    C511577   4.466   1.247  10.010 -0.2310 -0.2941 -0.3498
  785MPD2     H11578   4.376   1.493  10.286 -0.7940  0.0236 -0.3271
  785MPD2    H111579   4.260   1.224   9.976  0.3687  0.9267 -1.7811
  785MPD2    H211580   4.666   1.282  10.063 -1.0501  0.6473 -1.4025
  785MPD2    H311581   4.493   1.173   9.935  1.3324  0.2537 -0.3157
  785MPD2     N11582   4.182   1.429  10.155  0.2685 -0.5590  0.0464
  785MPD2    H511583   4.173   1.500  10.227 -0.5527  0.8754 -1.4954
  785MPD2    N111584   4.628   1.449  10.283  0.1443 -0.0514 -0.1300
  785MPD2    H711585   4.576   1.507  10.349  1.3751  1.9299 -0.8854
  786MPD2     C11586   2.957   0.015  14.784  0.0786 -0.4148  0.0906
  786MPD2    C111587   3.083   4.684  14.820  0.0653  0.0516  0.1644
  786MPD2    C211588   3.171   0.042  14.887 -0.1073  0.3636  0.2601
  786MPD2    C311589   3.131   0.158  14.949 -0.1449  0.2642 -0.7630
  786MPD2    C411590   2.999   0.200  14.933  0.1457 -0.7793 -0.3722
  786MPD2    C511591   2.920   0.128  14.846  0.8775  1.1927  0.3962
  786MPD2     H11592   3.273   0.004  14.896 -0.8738 -2.3200 -2.1071
  786MPD2    H111593   2.965   0.287  14.988 -0.5659 -0.2878 -1.6056
  786MPD2    H211594   2.883   4.688  14.720  0.7149  0.1319 -1.0480
  786MPD2    H311595   2.819   0.162  14.830  0.6111  0.2666  0.0987
  786MPD2     N11596   3.217   0.236  15.029 -0.6607  0.2409  0.4708
  786MPD2    H511597   3.179   0.321  15.069 -1.2986  0.8709 -1.4587
  786MPD2    N111598   3.130   4.559  14.770  0.2251 -0.1857  0.9313
  786MPD2    H711599   3.228   4.540  14.789 -0.0127  0.1166  2.4116
  787MPD2     C11600   3.515   4.198  15.071  0.4141 -0.0900  0.2174
  787MPD2    C111601   3.510   4.129  14.945 -0.0235  0.2723  0.2461
  787MPD2    C211602   3.594   4.023  14.921  0.0182 -0.1213 -0.2914
  787MPD2    C311603   3.667   3.975  15.020  0.7001 -0.0714 -0.5025
  787MPD2    C411604   3.670   4.045  15.138  0.0201  0.0627 -0.4045
  787MPD2    C511605   3.603   4.156  15.162 -0.6397 -0.7394 -0.2171
  787MPD2     H11606   3.591   3.959  14.833 -2.1248 -2.6109  1.5751
  787MPD2    H111607   3.729   4.016  15.224 -0.2426  0.1346 -0.1991
  787MPD2    H211608   3.463   4.289  15.097  1.4872  0.2629  1.1542
  787MPD2    H311609   3.624   4.206  15.256 -1.7532  0.7785 -0.7679
  787MPD2     N11610   3.733   3.847  15.009 -0.3191  0.1389  1.1341
  787MPD2    H511611   3.723   3.798  14.920  0.3008  1.6815  0.2116
  787MPD2    N111612   3.441   4.196  14.838 -0.4004  0.2165 -0.0779
  787MPD2    H711613   3.371   4.262  14.868 -0.7887 -0.0353 -0.4288
  788MPD2     C11614   0.732   2.481   1.264 -0.1812  0.3804 -0.5747
  788MPD2    C111615   0.663   2.477   1.143  0.8343 -0.1714 -0.0353
  788MPD2    C211616   0.713   2.569   1.048 -0.3551 -0.1696 -0.0391
  788MPD2    C311617   0.806   2.672   1.088  0.7536 -0.2939  0.0804
  788MPD2    C411618   0.862   2.674   1.209  0.4279 -0.7245 -0.2419
  788MPD2    C511619   0.828   2.576   1.297 -0.0607 -0.7143  0.0666
  788MPD2     H11620   0.670   2.561   0.949 -0.8445 -0.3284  0.1897
  788MPD2    H111621   0.922   2.755   1.249 -1.3277  0.5031 -0.1166
  788MPD2    H211622   0.706   2.417   1.347  0.6126 -1.1984 -1.5552
  788MPD2    H311623   0.860   2.591   1.399  0.2242  1.7480 -0.3891
  788MPD2     N11624   0.840   2.780   1.007 -0.5971 -0.0412  0.2074
  788MPD2    H511625   0.890   2.861   1.042  2.4435 -1.6158 -0.4302
  788MPD2    N111626   0.560   2.381   1.116  0.2538  0.3857  0.4681
  788MPD2    H711627   0.538   2.366   1.019 -2.2353  0.8619  0.9559
  789MPD2     C11628   0.851   2.866  17.015 -0.5387  0.4762 -0.3445
  789MPD2    C111629   0.755   2.812  16.933  0.1957 -0.5783  0.1250
  789MPD2    C211630   0.623   2.865  16.939  0.0773 -0.1121  0.2533
  789MPD2    C311631   0.582   2.950  17.037 -0.4564 -0.3742 -0.6764
  789MPD2    C411632   0.679   2.994  17.128 -0.1171  0.6052  0.1006
  789MPD2    C511633   0.809   2.951  17.110  0.0275 -0.3474  0.3911
  789MPD2     H11634   0.545   2.805  16.893  1.5599 -2.4444  0.7664
  789MPD2    H111635   0.662   3.059  17.213 -0.2430 -0.4413  0.8734
  789MPD2    H211636   0.952   2.828  17.011 -0.2080  1.3369 -0.1705
  789MPD2    H311637   0.881   2.993  17.180 -0.5123 -0.1717  0.8445
  789MPD2     N11638   0.441   2.993  17.048 -0.0979 -0.3317  0.0986
  789MPD2    H511639   0.418   3.040  17.135  1.6333  0.0115  0.3731
  789MPD2    N111640   0.785   2.712  16.836  0.1348 -0.3905  0.5434
  789MPD2    H711641   0.704   2.676  16.786  1.7451 -0.3328 -2.0887
  790MPD2     C11642   1.754   3.993  13.616  0.2945  0.8696 -0.2271
  790MPD2    C111643   1.859   3.936  13.552  0.3983 -0.4035  0.3354
  790MPD2    C211644   1.850   3.881  13.427 -0.0666 -0.2601 -0.5906
  790MPD2    C311645   1.730   3.882  13.361 -0.5699 -0.0893  0.5937
  790MPD2    C411646   1.622   3.921  13.433 -0.3494  0.1581 -0.1430
  790MPD2    C511647   1.631   3.983  13.555  0.2622  1.2976 -0.1048
  790MPD2     H11648   1.936   3.842  13.374  0.2219 -0.2931 -0.0875
  790MPD2    H111649   1.522   3.920  13.391 -0.4922 -0.2949  0.2002
  790MPD2    H211650   1.756   4.027  13.719 -2.2921 -1.4937  0.6059
  790MPD2    H311651   1.545   4.024  13.607 -0.3525  0.4413 -0.4545
  790MPD2     N11652   1.724   3.826  13.226  0.0946 -0.2276 -0.1636
  790MPD2    H511653   1.808   3.797  13.176 -1.1926 -2.2063 -1.1664
  790MPD2    N111654   1.984   3.935  13.626  0.2952 -0.4775  0.0612
  790MPD2    H711655   1.972   3.960  13.723  3.0514 -1.3691  0.6505
  791MPD2     C11656   1.134   3.399  13.008 -0.1428  0.5036 -0.3392
  791MPD2    C111657   1.232   3.379  12.911 -1.0566 -0.3594 -0.0746
  791MPD2    C211658   1.192   3.314  12.797  0.5503 -0.0588 -0.3544
  791MPD2    C311659   1.067   3.262  12.777 -0.1332 -0.6233  0.1330
  791MPD2    C411660   0.971   3.285  12.875  0.2305 -0.0244  0.0031
  791MPD2    C511661   1.010   3.351  12.987  0.1292 -0.2338  0.5297
  791MPD2     H11662   1.257   3.307  12.711  0.0490  0.6812 -0.7911
  791MPD2    H111663   0.873   3.239  12.872  0.4455 -0.4467 -0.6556
  791MPD2    H211664   1.152   3.461  13.095  0.7422 -1.7454  1.0595
  791MPD2    H311665   0.937   3.368  13.066  1.2383  0.5448  1.4020
  791MPD2     N11666   1.029   3.187  12.661  0.2186  0.3298 -0.2944
  791MPD2    H511667   1.104   3.149  12.604 -1.1961  0.4764 -2.2685
  791MPD2    N111668   1.349   3.453  12.923  0.9228  0.2488  0.0949
  791MPD2    H711669   1.363   3.510  13.005 -1.5126  1.2140 -0.1822
  792MPD2     C11670   2.081   3.490  11.440 -0.2977  0.2418  0.4518
  792MPD2    C111671   2.134   3.509  11.320  0.1424 -0.8667  0.5875
  792MPD2    C211672   2.141   3.403  11.231  0.5453 -0.2863  1.2658
  792MPD2    C311673   2.077   3.279  11.257 -1.0484 -0.2625  0.2746
  792MPD2    C411674   2.024   3.264  11.383  0.6310 -0.8145 -0.3131
  792MPD2    C511675   2.038   3.362  11.474  0.5380 -0.0779  0.0513
  792MPD2     H11676   2.179   3.411  11.130 -0.2722 -1.2280  0.8755
  792MPD2    H111677   1.986   3.166  11.409 -0.6433  0.0857  1.1830
  792MPD2    H211678   2.078   3.575  11.508  1.6907 -0.4100  1.3552
  792MPD2    H311679   2.005   3.352  11.577 -1.4234  1.5494 -0.4122
  792MPD2     N11680   2.060   3.179  11.156 -0.3381  0.0261  1.0771
  792MPD2    H511681   2.008   3.099  11.190  0.9163 -0.1678  2.5327
  792MPD2    N111682   2.172   3.646  11.283 -0.3351  0.1996 -0.6838
  792MPD2    H711683   2.155   3.726  11.343  0.9318  0.3885 -0.5840
  793MPD2     C11684   1.483   3.416  10.544 -0.3748 -0.5856  0.1495
  793MPD2    C111685   1.623   3.442  10.535 -0.1129  0.1228  0.2502
  793MPD2    C211686   1.707   3.363  10.602  0.1285  0.0775  0.1284
  793MPD2    C311687   1.665   3.262  10.687  0.0472  0.6715 -0.2212
  793MPD2    C411688   1.528   3.243  10.701 -0.2917 -0.3654 -0.4378
  793MPD2    C511689   1.438   3.313  10.625  0.3334 -0.6949 -0.0281
  793MPD2     H11690   1.813   3.379  10.593 -0.0194  0.3632 -1.0409
  793MPD2    H111691   1.489   3.156  10.754  0.0747 -0.1418  0.2063
  793MPD2    H211692   1.403   3.462  10.487 -0.1830  0.1232  0.4609
  793MPD2    H311693   1.332   3.306  10.646  0.4511 -1.8800  0.1876
  793MPD2     N11694   1.764   3.177  10.741  0.1135 -0.0588 -0.8370
  793MPD2    H511695   1.863   3.198  10.732 -0.1818  1.4343 -0.6329
  793MPD2    N111696   1.686   3.544  10.455  0.1222  0.0249 -0.5680
  793MPD2    H711697   1.787   3.550  10.446  0.1605 -2.7431 -1.9621
  794MPD2     C11698   0.721   3.994  17.300  0.0391 -0.1348  0.2761
  794MPD2    C111699   0.778   3.882  17.236 -0.5070 -0.0239  0.4658
  794MPD2    C211700   0.750   3.861  17.103  0.7743  0.3284 -0.1318
  794MPD2    C311701   0.660   3.944  17.035  0.0177 -0.3926 -0.3614
  794MPD2    C411702   0.598   4.055  17.097  0.7079 -0.2441 -0.3349
  794MPD2    C511703   0.633   4.078  17.226  0.0015  0.0368  0.4150
  794MPD2     H11704   0.793   3.784  17.041 -0.5051  0.0218 -0.6427
  794MPD2    H111705   0.530   4.119  17.042  0.9890 -0.0357 -0.4412
  794MPD2    H211706   0.736   4.017  17.405  1.5856 -1.1519  0.2615
  794MPD2    H311707   0.585   4.164  17.272 -2.0574 -0.7171 -0.3247
  794MPD2     N11708   0.613   3.913  16.908 -0.2542 -0.5058  0.3928
  794MPD2    H511709   0.553   3.977  16.856  0.4950 -0.0816  0.0466
  794MPD2    N111710   0.873   3.802  17.310 -0.3654 -0.0243  0.0777
  794MPD2    H711711   0.898   3.711  17.274 -3.3731 -0.5682 -0.6037
  795MPD2     C11712   4.378   0.590  13.339  0.3042 -0.6789 -0.3233
  795MPD2    C111713   4.297   0.484  13.354  0.3787  0.0149 -0.2354
  795MPD2    C211714   4.334   0.386  13.446 -0.0168 -0.4658 -0.1843
  795MPD2    C311715   4.449   0.398  13.528 -0.6755  0.0443 -0.6375
  795MPD2    C411716   4.521   0.512  13.516  0.1350 -0.2586 -0.3495
  795MPD2    C511717   4.488   0.605  13.420  0.7229  0.5727 -0.0588
  795MPD2     H11718   4.272   0.297  13.443 -0.5486 -0.1668  1.4025
  795MPD2    H111719   4.604   0.542  13.578 -0.2403  0.1132 -0.0238
  795MPD2    H211720   4.364   0.670  13.268 -0.9318 -0.8587 -0.2718
  795MPD2    H311721   4.542   0.699  13.413  1.6148  0.1919  1.6211
  795MPD2     N11722   4.481   0.289  13.614 -0.9390 -0.2353 -0.0521
  795MPD2    H511723   4.418   0.210  13.609 -2.8001  1.2920 -0.7409
  795MPD2    N111724   4.184   0.468  13.278  0.2004 -0.0780 -0.3861
  795MPD2    H711725   4.126   0.388  13.302 -1.0476  0.1248 -2.7304
  796MPD2     C11726   3.316   2.672  16.114 -0.2630 -0.8383  0.9604
  796MPD2    C111727   3.421   2.732  16.175  0.1683 -0.0789  0.2413
  796MPD2    C211728   3.421   2.876  16.184 -0.2434  0.3707  0.2405
  796MPD2    C311729   3.308   2.954  16.157 -0.0905 -0.4147 -0.2533
  796MPD2    C411730   3.196   2.884  16.110  0.0536 -1.0263  0.2538
  796MPD2    C511731   3.205   2.746  16.095 -0.4253 -0.1431 -0.2867
  796MPD2     H11732   3.506   2.932  16.221 -1.6806 -0.3525  4.6393
  796MPD2    H111733   3.102   2.933  16.087  0.8812  0.2713 -0.3490
  796MPD2    H211734   3.311   2.564  16.110  0.8374 -0.8430 -0.4357
  796MPD2    H311735   3.120   2.700  16.047  0.4528  0.6045 -2.5440
  796MPD2     N11736   3.318   3.089  16.187 -0.0759 -0.0336 -0.0523
  796MPD2    H511737   3.410   3.114  16.222 -0.8355  1.5021  0.8555
  796MPD2    N111738   3.540   2.664  16.201  0.0104 -0.3451  0.1658
  796MPD2    H711739   3.531   2.564  16.187  0.6581 -0.5122  0.9712
  797MPD2     C11740   4.038   2.139   0.228  0.8634  0.0987 -0.5161
  797MPD2    C111741   4.050   2.276   0.252  0.2178  0.0998  0.5973
  797MPD2    C211742   3.975   2.356   0.168  0.3146  0.2342  0.0750
  797MPD2    C311743   3.901   2.302   0.065  0.4176 -0.2488 -0.0371
  797MPD2    C411744   3.881   2.167   0.040  0.4541  0.5770  0.2150
  797MPD2    C511745   3.959   2.085   0.125 -0.0998  0.5751 -0.3193
  797MPD2     H11746   3.987   2.462   0.187 -3.5320  0.8929 -1.2473
  797MPD2    H111747   3.823   2.117  17.648  1.5482  0.3613 -0.4694
  797MPD2    H211748   4.083   2.058   0.285 -0.8555 -0.9634 -0.6712
  797MPD2    H311749   3.957   1.977   0.125 -0.7670  0.5883 -0.7708
  797MPD2     N11750   3.836   2.393  17.666 -0.8959  0.3205 -0.4196
  797MPD2    H511751   3.829   2.487   0.018 -0.7606 -0.9819  2.9337
  797MPD2    N111752   4.117   2.325   0.364 -0.0155  0.4080  0.6295
  797MPD2    H711753   4.094   2.420   0.393 -0.0523  0.5603  0.0926
  798MPD2     C11754   4.091   2.984   0.054  0.6504 -0.0649  0.2038
  798MPD2    C111755   4.022   2.873   0.088  0.3962  0.2525  0.6156
  798MPD2    C211756   4.070   2.778   0.180  0.8796 -0.2239  0.2760
  798MPD2    C311757   4.190   2.801   0.244 -0.1850 -0.7949 -0.5394
  798MPD2    C411758   4.264   2.917   0.202 -0.3871  0.1389 -0.0445
  798MPD2    C511759   4.208   3.008   0.114 -0.3070  0.3668 -0.6514
  798MPD2     H11760   4.011   2.695   0.218 -0.4351  0.0363 -1.1533
  798MPD2    H111761   4.352   2.961   0.249  0.7565 -0.9308 -1.1691
  798MPD2    H211762   4.045   3.049  17.665 -0.0337  1.3528  1.8825
  798MPD2    H311763   4.265   3.099   0.094  0.1380  0.4479  1.0342
  798MPD2     N11764   4.247   2.694   0.317  0.4337 -0.1640 -0.2242
  798MPD2    H511765   4.179   2.622   0.339  2.6245 -1.8820  0.9196
  798MPD2    N111766   3.898   2.847   0.021  0.1828  0.1320  0.0285
  798MPD2    H711767   3.868   2.911  17.633  0.4105 -0.4250 -0.5551
  799MPD2     C11768   3.362   3.745  14.875 -0.0637 -0.7752  0.9224
  799MPD2    C111769   3.362   3.631  14.804  0.6957  0.2005  0.8257
  799MPD2    C211770   3.289   3.623  14.684  0.5733  0.7472 -0.2944
  799MPD2    C311771   3.223   3.740  14.634  0.8104  0.9385  0.0682
  799MPD2    C411772   3.234   3.855  14.708  0.2127 -0.0215  0.1074
  799MPD2    C511773   3.303   3.856  14.823 -0.6655 -0.1209  0.9750
  799MPD2     H11774   3.295   3.530  14.628  0.0741  1.6186 -1.7980
  799MPD2    H111775   3.187   3.947  14.676  0.8832 -0.4924 -2.2268
  799MPD2    H211776   3.412   3.763  14.970  1.3863 -1.4356  0.2909
  799MPD2    H311777   3.294   3.952  14.872  1.3997  0.9077 -0.6426
  799MPD2     N11778   3.148   3.743  14.519 -0.3553  0.8212 -0.4324
  799MPD2    H511779   3.106   3.827  14.482 -1.4873 -0.2519 -1.5937
  799MPD2    N111780   3.429   3.512  14.844  0.4035 -0.2607 -0.5575
  799MPD2    H711781   3.420   3.424  14.795  0.7986 -0.2684 -0.6104
  800MPD2     C11782   3.618   4.594  14.102  0.1009 -0.3349  0.0708
  800MPD2    C111783   3.746   4.544  14.098 -0.1849  0.1119 -0.5838
  800MPD2    C211784   3.764   4.439  14.010 -0.1071 -0.2854  0.0492
  800MPD2    C311785   3.668   4.398  13.926 -0.4010 -0.6146 -0.7186
  800MPD2    C411786   3.545   4.442  13.935 -0.6284  0.8390  0.1121
  800MPD2    C511787   3.518   4.537  14.026 -0.2903  1.2533  0.0849
  800MPD2     H11788   3.861   4.391  14.010  0.2509  0.3988  3.0368
  800MPD2    H111789   3.465   4.384  13.892  0.1550 -0.2109  0.0854
  800MPD2    H211790   3.589   4.658  14.185 -2.3584  0.0012 -1.0648
  800MPD2    H311791   3.420   4.570  14.059 -1.4138 -0.5722 -1.4630
  800MPD2     N11792   3.700   4.286  13.848  0.4475  0.1913  0.2508
  800MPD2    H511793   3.800   4.270  13.842  0.7094  1.8064  0.3327
  800MPD2    N111794   3.847   4.591  14.184 -0.6305  0.4788 -0.0839
  800MPD2    H711795   3.817   4.661  14.252  0.0213 -0.2715  0.9852
  801MPD2     C11796   3.995   0.503  14.525  0.0746 -0.8429 -0.1990
  801MPD2    C111797   3.914   0.415  14.461  0.1884 -0.1081 -0.5784
  801MPD2    C211798   3.783   0.461  14.431  1.0168 -0.2800 -0.2150
  801MPD2    C311799   3.734   0.584  14.469 -0.3262 -0.5172  0.6098
  801MPD2    C411800   3.832   0.673  14.520 -0.6460 -0.2829  0.0456
  801MPD2    C511801   3.957   0.634  14.548 -0.1166 -0.4434  0.7158
  801MPD2     H11802   3.715   0.397  14.376 -0.3449  2.3121 -1.5498
  801MPD2    H111803   3.800   0.770  14.556 -0.7653  0.5773 -2.3339
  801MPD2    H211804   4.097   0.477  14.551  0.5142 -1.6091 -2.6660
  801MPD2    H311805   4.026   0.703  14.595 -1.2260  1.5944 -0.6365
  801MPD2     N11806   3.598   0.616  14.453  1.2655 -0.4742  0.0678
  801MPD2    H511807   3.546   0.541  14.408  2.2053 -0.8093 -0.4593
  801MPD2    N111808   3.962   0.284  14.419  0.0550 -0.9411  0.2391
  801MPD2    H711809   3.894   0.208  14.419  0.5392 -1.3794 -0.4649
  802MPD2     C11810   3.086   0.483  17.488  0.0645  0.0656  0.3668
  802MPD2    C111811   3.032   0.605  17.469  0.2002 -0.7295  0.5779
  802MPD2    C211812   3.063   0.683  17.362 -0.2394  0.0880  0.5032
  802MPD2    C311813   3.137   0.628  17.255 -0.0873 -0.5049 -0.6380
  802MPD2    C411814   3.174   0.497  17.264  0.1652  0.2879 -0.2242
  802MPD2    C511815   3.153   0.429  17.379 -0.3581 -0.8451  0.3608
  802MPD2     H11816   3.028   0.785  17.364 -1.4866 -0.3367  0.2189
  802MPD2    H111817   3.209   0.439  17.180 -0.6379  0.3204 -0.5829
  802MPD2    H211818   3.067   0.421  17.576 -0.4874  1.3137  1.1199
  802MPD2    H311819   3.170   0.322  17.382  1.0087 -0.5317  4.1242
  802MPD2     N11820   3.174   0.714  17.153  0.0483  0.7340  0.6857
  802MPD2    H511821   3.148   0.812  17.160 -2.0052  0.4498 -2.8404
  802MPD2    N111822   2.969   0.676  17.581 -0.3714 -0.3293  0.1989
  802MPD2    H711823   2.955   0.775  17.562 -0.9549 -0.8965 -2.4456
  803MPD2     C11824   0.163   3.509  11.962 -0.5260  0.1443  0.3962
  803MPD2    C111825   0.185   3.502  12.099  0.9438  0.7734 -0.7629
  803MPD2    C211826   0.118   3.406  12.168 -0.1734  0.7418  0.3561
  803MPD2    C311827   0.027   3.321  12.103 -0.0774  0.5343  0.7148
  803MPD2    C411828   0.015   3.324  11.967  0.1313  0.1111 -0.3950
  803MPD2    C511829   0.077   3.426  11.899  0.7520 -0.2514  0.3338
  803MPD2     H11830   0.129   3.401  12.276  0.5552 -1.6152  0.1675
  803MPD2    H111831   4.661   3.262  11.917  0.5709  0.2206 -1.1974
  803MPD2    H211832   0.205   3.589  11.901  1.1952 -0.4694  0.8019
  803MPD2    H311833   0.057   3.432  11.792  0.6116 -0.6161  0.3399
  803MPD2     N11834   4.665   3.229  12.166 -0.3995 -0.4778 -0.0020
  803MPD2    H511835   4.632   3.152  12.109 -0.3882 -1.9006  1.8927
  803MPD2    N111836   0.279   3.574  12.177 -0.9197 -0.1692  0.2178
  803MPD2    H711837   0.288   3.539  12.272  0.5045 -2.4608 -0.7511
  804MPD2     C11838   3.701   1.066  16.969 -0.1202 -0.3299 -0.1603
  804MPD2    C111839   3.696   1.029  17.102  0.4571 -0.7174 -0.2924
  804MPD2    C211840   3.756   1.094  17.204  0.0587  0.5084  0.4463
  804MPD2    C311841   3.828   1.206  17.181  0.5711  0.6398  0.3528
  804MPD2    C411842   3.841   1.247  17.052 -0.0798 -0.4120 -0.2287
  804MPD2    C511843   3.790   1.168  16.950 -0.4155 -0.7435  0.1990
  804MPD2     H11844   3.749   1.057  17.306  0.0168  0.8590  0.5715
  804MPD2    H111845   3.913   1.321  17.016 -0.8742 -0.6942 -2.3836
  804MPD2    H211846   3.659   1.008  16.888  2.2012 -1.3869 -0.5985
  804MPD2    H311847   3.821   1.190  16.848 -0.8340 -1.1262 -0.0116
  804MPD2     N11848   3.885   1.275  17.290 -0.4547 -0.0938 -0.0745
  804MPD2    H511849   3.865   1.237  17.382  1.3307 -1.8742 -0.4253
  804MPD2    N111850   3.649   0.905  17.142 -0.6006 -0.0759 -0.1119
  804MPD2    H711851   3.636   0.881  17.240 -2.3454 -0.1569 -0.3606
  805MPD2     C11852   2.957   3.891  15.886  0.3798 -0.4404 -0.4440
  805MPD2    C111853   3.061   3.938  15.808  0.2558 -0.4656  0.2671
  805MPD2    C211854   3.192   3.941  15.857  0.1535 -0.3508 -0.1669
  805MPD2    C311855   3.219   3.924  15.990 -0.2054  0.2741  0.0865
  805MPD2    C411856   3.117   3.872  16.073 -0.5121 -0.6985  0.2425
  805MPD2    C511857   2.989   3.859  16.020 -0.1677  0.0184  0.1146
  805MPD2     H11858   3.273   3.965  15.789  0.7548  3.7080  1.9989
  805MPD2    H111859   3.127   3.855  16.179  1.3414 -1.0231  0.0171
  805MPD2    H211860   2.858   3.890  15.842 -0.2653  0.2125  0.9831
  805MPD2    H311861   2.912   3.829  16.090 -1.5801  1.8088 -0.6670
  805MPD2     N11862   3.342   3.951  16.043 -0.2388  0.3535  0.1596
  805MPD2    H511863   3.407   3.989  15.975 -1.4759 -0.6009 -1.5564
  805MPD2    N111864   3.043   3.979  15.670 -0.2107  0.3810 -0.3003
  805MPD2    H711865   3.130   3.993  15.622  1.7951 -0.8739  2.9448
  806MPD2     C11866   4.193   4.232   2.138  0.0913 -0.1000 -0.3058
  806MPD2    C111867   4.204   4.111   2.080  0.5382 -0.4651 -0.2204
  806MPD2    C211868   4.217   4.093   1.943  0.1111 -0.4631  0.1169
  806MPD2    C311869   4.191   4.208   1.867  0.2993  0.3144 -0.9650
  806MPD2    C411870   4.169   4.334   1.923  0.5422  0.1278 -0.3678
  806MPD2    C511871   4.183   4.343   2.056  0.8339 -0.2066 -0.1826
  806MPD2     H11872   4.232   3.997   1.896  1.0663 -0.1224 -0.2760
  806MPD2    H111873   4.183   4.428   1.869  0.4708  1.6240  2.2141
  806MPD2    H211874   4.185   4.250   2.244  0.3604 -0.9234 -0.1469
  806MPD2    H311875   4.197   4.435   2.112 -0.0406  1.3004 -2.4701
  806MPD2     N11876   4.193   4.184   1.727  0.1484 -0.1302 -0.7597
  806MPD2    H511877   4.245   4.104   1.691  1.1690  0.3296 -0.2942
  806MPD2    N111878   4.231   3.997   2.160 -0.2379  0.4512  0.1959
  806MPD2    H711879   4.258   4.011   2.257  1.5071 -0.7222 -0.1290
  807MPD2     C11880   3.967   3.750   2.782  0.5331  0.0028 -0.3816
  807MPD2    C111881   3.945   3.764   2.648 -0.1770  0.2690 -0.5325
  807MPD2    C211882   3.816   3.762   2.597  0.0422 -0.3370 -0.1211
  807MPD2    C311883   3.719   3.732   2.696  0.0211 -0.5197  0.1743
  807MPD2    C411884   3.745   3.716   2.831 -0.3372  0.0959 -0.5249
  807MPD2    C511885   3.873   3.734   2.877 -0.0299  0.2941  0.2267
  807MPD2     H11886   3.795   3.774   2.492  1.4669 -1.6532 -0.5609
  807MPD2    H111887   3.671   3.701   2.909 -1.0692  0.3862 -1.1628
  807MPD2    H211888   4.067   3.742   2.824  0.2993  0.5322  0.2809
  807MPD2    H311889   3.896   3.724   2.982  1.6679 -1.0230 -0.2646
  807MPD2     N11890   3.582   3.728   2.652 -0.0079  0.0019  0.1784
  807MPD2    H511891   3.566   3.751   2.554  4.6290  2.9908  0.1364
  807MPD2    N111892   4.051   3.773   2.551 -0.1248  0.3673 -0.1713
  807MPD2    H711893   4.027   3.771   2.453 -2.4440  1.3020  0.3806
  808MPD2     C11894   3.918   0.651   9.547  0.1034 -0.0181  0.1575
  808MPD2    C111895   4.004   0.639   9.444  0.4445  0.6704  0.2427
  808MPD2    C211896   4.134   0.695   9.458 -0.3263  0.5921 -0.3396
  808MPD2    C311897   4.170   0.762   9.572 -0.2962  0.5077 -0.0847
  808MPD2    C411898   4.093   0.738   9.684  0.1968  0.1678 -0.5303
  808MPD2    C511899   3.963   0.692   9.673 -0.4509  0.5572 -0.6210
  808MPD2     H11900   4.204   0.675   9.378 -0.5027 -0.7946 -0.1376
  808MPD2    H111901   4.120   0.767   9.785 -0.0924  2.8929 -1.2437
  808MPD2    H211902   3.816   0.614   9.546 -0.1434  0.7128 -0.9480
  808MPD2    H311903   3.901   0.682   9.761 -0.4320  0.1690 -0.6542
  808MPD2     N11904   4.294   0.832   9.589 -0.0800 -0.3332 -0.4525
  808MPD2    H511905   4.311   0.875   9.679  0.5619 -1.3068 -0.1106
  808MPD2    N111906   3.965   0.589   9.320  0.0188  0.6759 -0.5666
  808MPD2    H711907   4.018   0.600   9.234  1.5745  0.5812  0.3933
  809MPD2     C11908   0.508   1.147   9.125  0.2046 -0.5908  0.3752
  809MPD2    C111909   0.441   1.029   9.129  0.2706 -0.2060  0.1393
  809MPD2    C211910   0.317   1.027   9.192 -0.1450 -0.1578 -1.1440
  809MPD2    C311911   0.261   1.138   9.254  0.1305 -0.4395 -0.0068
  809MPD2    C411912   0.339   1.259   9.267 -0.7720 -0.1280  0.6359
  809MPD2    C511913   0.455   1.253   9.197  0.0259  0.3977  0.3994
  809MPD2     H11914   0.268   0.930   9.197 -1.7735  0.5600 -3.0606
  809MPD2    H111915   0.307   1.351   9.314  0.6964  1.1960 -0.9786
  809MPD2    H211916   0.611   1.149   9.092  0.3544  0.1237  0.8713
  809MPD2    H311917   0.521   1.340   9.196 -1.6706  1.6545 -2.2499
  809MPD2     N11918   0.136   1.142   9.324 -0.3768 -0.1064  0.0014
  809MPD2    H511919   0.105   1.224   9.376 -0.8189 -0.0219 -0.3930
  809MPD2    N111920   0.491   0.907   9.079 -0.0226  0.0918 -0.8795
  809MPD2    H711921   0.441   0.823   9.107 -0.9075  0.6687 -0.7369
  810MPD2     C11922   3.962   4.134   9.496 -0.4970 -0.2850 -0.5202
  810MPD2    C111923   3.969   3.994   9.515 -0.0611  0.2964 -0.8555
  810MPD2    C211924   4.087   3.924   9.488 -0.3452 -0.6254 -0.0000
  810MPD2    C311925   4.204   3.993   9.465 -0.1407  0.1406  0.7409
  810MPD2    C411926   4.200   4.132   9.457 -0.0865 -0.4965  0.0153
  810MPD2    C511927   4.081   4.197   9.466 -0.1560 -0.3758  0.3745
  810MPD2     H11928   4.082   3.817   9.475  1.6648 -0.5350 -1.5985
  810MPD2    H111929   4.285   4.192   9.425 -0.0613 -2.1049 -2.9683
  810MPD2    H211930   3.868   4.188   9.504 -0.5184 -0.5103  0.7035
  810MPD2    H311931   4.090   4.302   9.442  3.0892 -1.1700 -1.9576
  810MPD2     N11932   4.331   3.918   9.457 -0.0071 -0.3592  0.3306
  810MPD2    H511933   4.409   3.973   9.423 -1.9885  1.7689 -0.7909
  810MPD2    N111934   3.848   3.923   9.541  0.5560 -0.0456  0.5809
  810MPD2    H711935   3.774   3.988   9.566 -0.8418 -0.2596 -2.9081
  811MPD2     C11936   2.987   3.792   9.702 -0.2392 -0.1490 -0.4068
  811MPD2    C111937   3.091   3.873   9.670 -0.1904 -0.2151  1.1342
  811MPD2    C211938   3.063   4.002   9.652 -1.1855  0.4481  0.4876
  811MPD2    C311939   2.934   4.051   9.654 -0.2906 -0.6049 -0.1041
  811MPD2    C411940   2.826   3.967   9.676 -0.1385 -0.4420  0.6804
  811MPD2    C511941   2.859   3.835   9.696 -0.0035 -0.4081  0.2808
  811MPD2     H11942   3.135   4.078   9.624 -2.0891  0.1431 -2.6165
  811MPD2    H111943   2.724   3.996   9.697 -0.9691 -1.6825 -1.6903
  811MPD2    H211944   3.013   3.687   9.714  1.9490  0.2505 -1.5846
  811MPD2    H311945   2.778   3.767   9.717 -0.6133 -0.0733 -1.0178
  811MPD2     N11946   2.916   4.182   9.627 -0.0831  0.4869 -0.1020
  811MPD2    H511947   3.002   4.235   9.625 -0.6917  1.4643 -0.8753
  811MPD2    N111948   3.219   3.820   9.661 -0.2935 -0.1038 -0.2044
  811MPD2    H711949   3.223   3.719   9.660 -1.1228 -0.1461  0.5750
  812MPD2     C11950   2.785   3.698  12.253 -0.7439  0.2358 -0.0511
  812MPD2    C111951   2.721   3.761  12.356  0.4236  0.1680 -0.1954
  812MPD2    C211952   2.701   3.700  12.477 -0.3642  0.1716  0.4063
  812MPD2    C311953   2.741   3.573  12.496  0.0975  0.7603  0.7787
  812MPD2    C411954   2.807   3.503  12.395 -0.9921  0.5490 -0.3514
  812MPD2    C511955   2.823   3.572  12.280  0.1051  0.5238  0.7985
  812MPD2     H11956   2.644   3.754  12.552  0.1668 -0.7109  1.4386
  812MPD2    H111957   2.845   3.403  12.408 -0.1844  0.5978 -2.4517
  812MPD2    H211958   2.799   3.737  12.153  2.0005 -0.7238 -0.0607
  812MPD2    H311959   2.871   3.522  12.197 -2.9918 -2.1472  0.6287
  812MPD2     N11960   2.718   3.511  12.620  0.1904 -0.2028  0.2051
  812MPD2    H511961   2.690   3.577  12.692 -1.8096 -2.0576  1.1277
  812MPD2    N111962   2.686   3.901  12.330  0.2836  0.0316  0.5517
  812MPD2    H711963   2.724   3.945  12.247 -0.3542  0.8097  0.6732
  813MPD2     C11964   1.883   0.816  13.225 -0.3403 -0.0794  0.5853
  813MPD2    C111965   1.856   0.925  13.151 -0.6282 -0.1325 -0.2721
  813MPD2    C211966   1.751   1.010  13.190  0.8095  0.6648  0.2726
  813MPD2    C311967   1.674   0.975  13.301  0.3527 -1.1810 -0.3943
  813MPD2    C411968   1.697   0.855  13.368  0.4038 -0.1857 -0.2278
  813MPD2    C511969   1.798   0.772  13.318  0.8155  0.0778 -0.2041
  813MPD2     H11970   1.732   1.098  13.130 -1.2554  0.3193  0.3992
  813MPD2    H111971   1.637   0.823  13.452  1.8647 -0.1897  0.8167
  813MPD2    H211972   1.970   0.759  13.194 -2.0147 -1.9603 -0.6784
  813MPD2    H311973   1.812   0.679  13.373  1.4704 -0.5958 -1.5225
  813MPD2     N11974   1.570   1.064  13.330 -0.2179 -0.1936 -0.2044
  813MPD2    H511975   1.573   1.158  13.294  0.9647 -0.6099 -1.2046
  813MPD2    N111976   1.964   0.956  13.075  0.0814 -0.1745 -0.0431
  813MPD2    H711977   2.044   0.894  13.067  0.6360  0.2643  2.1325
  814MPD2     C11978   2.848   2.466  12.259  0.2336  0.9587  0.0134
  814MPD2    C111979   2.855   2.529  12.138 -0.3725 -0.7092  0.6810
  814MPD2    C211980   2.932   2.645  12.123 -0.0649 -0.3425  0.5896
  814MPD2    C311981   2.984   2.707  12.234  0.0540  0.1709  0.1074
  814MPD2    C411982   2.975   2.648  12.357  0.1194 -0.5422 -0.2192
  814MPD2    C511983   2.913   2.531  12.364 -0.0764 -0.1377  0.0300
  814MPD2     H11984   2.926   2.691  12.025 -0.6072  3.1349  2.2961
  814MPD2    H111985   3.020   2.689  12.447 -0.0158 -0.5055 -0.1682
  814MPD2    H211986   2.794   2.373  12.273 -0.8187  1.8105  1.6285
  814MPD2    H311987   2.906   2.475  12.457 -2.2155  0.8824  0.4751
  814MPD2     N11988   3.057   2.833  12.229 -0.6128  0.2495  0.6334
  814MPD2    H511989   3.086   2.873  12.317  0.0049 -0.6958  0.8585
  814MPD2    N111990   2.789   2.488  12.018  0.3801  0.2816 -0.0425
  814MPD2    H711991   2.827   2.517  11.928  0.6739  0.2577  0.0735
  815MPD2     C11992   2.992   0.285  12.186 -0.3110 -0.3664 -0.0864
  815MPD2    C111993   2.901   0.257  12.089  0.2476  0.1646 -0.0957
  815MPD2    C211994   2.769   0.262  12.127 -0.1451  0.7809 -0.7691
  815MPD2    C311995   2.733   0.310  12.251  0.8193  0.2352 -0.1518
  815MPD2    C411996   2.834   0.349  12.339  0.1364  0.1812 -0.0880
  815MPD2    C511997   2.963   0.346  12.307 -0.6189 -0.2214  0.1653
  815MPD2     H11998   2.690   0.232  12.060  0.0337 -0.1061 -0.5901
  815MPD2    H111999   2.797   0.398  12.428 -0.3514 -0.6393  0.1604
  815MPD2    H212000   3.095   0.279  12.150 -0.3128 -0.4683 -0.0749
  815MPD2    H312001   3.038   0.375  12.379 -2.0621 -0.5575  1.7946
  815MPD2     N12002   2.593   0.311  12.280 -0.1229  0.1909 -0.6456
  815MPD2    H512003   2.523   0.302  12.207 -1.1871 -1.6766  0.6219
  815MPD2    N112004   2.947   0.215  11.959 -0.5460  0.2441  0.1541
  815MPD2    H712005   3.046   0.207  11.938 -0.6210  0.9627 -0.4743
  816MPD2     C12006   2.464   0.603   0.371  0.5943 -0.3446  0.8703
  816MPD2    C112007   2.427   0.653   0.246 -0.2168  0.1035  0.2120
  816MPD2    C212008   2.473   0.584   0.132 -0.4807  0.1715  0.3670
  816MPD2    C312009   2.557   0.474   0.140  0.2532  0.5396 -0.1747
  816MPD2    C412010   2.605   0.441   0.268 -0.3236  0.2661 -0.2157
  816MPD2    C512011   2.561   0.508   0.378 -0.0502 -0.0944  0.2674
  816MPD2     H12012   2.467   0.614   0.029 -0.4234 -2.2085 -0.3391
  816MPD2    H112013   2.676   0.361   0.287  0.1814  0.0973 -2.8175
  816MPD2    H212014   2.428   0.659   0.457  0.7147  1.7084 -0.4210
  816MPD2    H312015   2.599   0.481   0.477  2.1161  1.3111 -0.1807
  816MPD2     N12016   2.596   0.415   0.021  0.5748 -0.3830  0.2095
  816MPD2    H512017   2.546   0.439  17.621 -0.7126 -2.0524  0.4890
  816MPD2    N112018   2.351   0.772   0.239 -0.3272 -0.2780  0.1723
  816MPD2    H712019   2.349   0.833   0.320  0.2389 -0.1717  0.1023
  817MPD2     C12020   3.114   1.642   9.547 -0.2027  0.2381  0.7799
  817MPD2    C112021   2.979   1.611   9.533 -0.7391 -0.0232  1.0740
  817MPD2    C212022   2.886   1.706   9.493  0.2841 -0.1351 -0.0495
  817MPD2    C312023   2.925   1.835   9.465  0.1905 -0.2779 -0.6095
  817MPD2    C412024   3.063   1.869   9.473  0.7886  0.4945  0.1204
  817MPD2    C512025   3.156   1.775   9.506 -0.2058  0.2386  0.4136
  817MPD2     H12026   2.780   1.682   9.490  0.1427  0.5572 -0.4005
  817MPD2    H112027   3.087   1.970   9.445  0.4883  0.0892 -1.5860
  817MPD2    H212028   3.183   1.566   9.582 -0.4354 -0.9532 -1.3063
  817MPD2    H312029   3.263   1.790   9.517 -0.0050  0.5977 -2.0276
  817MPD2     N12030   2.821   1.933   9.454  0.3798  0.4297 -0.1037
  817MPD2    H512031   2.728   1.894   9.440  0.2123  0.6438  0.4110
  817MPD2    N112032   2.923   1.489   9.563  0.5606  0.3373  0.4500
  817MPD2    H712033   2.824   1.483   9.541  0.3535 -0.6512  1.6771
  818MPD2     C12034   1.140   0.821  10.054 -1.1817  0.6728  0.5608
  818MPD2    C112035   1.038   0.764  10.126 -0.3374  0.4659 -0.5231
  818MPD2    C212036   1.063   0.632  10.168  0.2532 -0.0277  0.1800
  818MPD2    C312037   1.183   0.562  10.145  0.8697  0.5230 -0.8121
  818MPD2    C412038   1.284   0.628  10.074  0.6923  0.5283 -0.1714
  818MPD2    C512039   1.258   0.750  10.033 -0.9073 -0.4399 -0.5113
  818MPD2     H12040   0.982   0.580  10.218  1.6911 -1.1694  1.2927
  818MPD2    H112041   1.368   0.570  10.038  2.4615  1.9894  1.6107
  818MPD2    H212042   1.120   0.916  10.006  2.0501  0.3306 -1.4626
  818MPD2    H312043   1.327   0.792   9.961 -0.9926  0.2964 -0.1687
  818MPD2     N12044   1.210   0.429  10.186  0.3102 -0.4120 -0.2509
  818MPD2    H512045   1.302   0.393  10.166  1.3975  1.5579  1.2513
  818MPD2    N112046   0.908   0.809  10.146 -0.0540 -1.0354 -0.0923
  818MPD2    H712047   0.852   0.749  10.205 -0.6829  0.9883  1.3812
  819MPD2     C12048   3.601   3.634  15.907 -0.8211  0.0316 -0.1935
  819MPD2    C112049   3.605   3.494  15.935 -0.0889  0.5227  0.5436
  819MPD2    C212050   3.691   3.446  16.034 -0.5566 -0.6400 -0.4195
  819MPD2    C312051   3.761   3.535  16.110  0.2364  1.2940 -0.7046
  819MPD2    C412052   3.750   3.673  16.093 -0.5508 -0.2966  0.4564
  819MPD2    C512053   3.668   3.722  15.993  0.2656  0.1879 -0.0296
  819MPD2     H12054   3.695   3.340  16.054 -1.7123 -1.0059 -2.1286
  819MPD2    H112055   3.804   3.745  16.153  1.5718 -0.5405 -1.1763
  819MPD2    H212056   3.542   3.677  15.826  0.9919 -1.6824 -2.4195
  819MPD2    H312057   3.663   3.827  15.969 -0.1121 -0.2790 -1.9989
  819MPD2     N12058   3.865   3.477  16.180 -0.0186 -0.0639  0.1064
  819MPD2    H512059   3.881   3.381  16.150  0.8822 -0.1661  0.9209
  819MPD2    N112060   3.517   3.411  15.857 -0.5108  0.3708 -0.0112
  819MPD2    H712061   3.472   3.456  15.779  0.7967 -1.8280 -2.0209
  820MPD2     C12062   3.162   3.560  15.082 -0.0729 -0.4198  0.0688
  820MPD2    C112063   3.170   3.625  15.202  0.1834 -0.3491 -0.3537
  820MPD2    C212064   3.224   3.562  15.307  0.2842 -0.1569  0.8355
  820MPD2    C312065   3.262   3.428  15.303  0.3547  0.4295  0.3052
  820MPD2    C412066   3.255   3.366  15.183 -0.0283  0.1115 -0.1045
  820MPD2    C512067   3.201   3.427  15.073 -0.0936  0.4274 -0.0985
  820MPD2     H12068   3.226   3.602  15.408 -1.3113 -1.4722  1.3994
  820MPD2    H112069   3.291   3.264  15.178  0.1553  0.1784 -0.1755
  820MPD2    H212070   3.121   3.613  14.996 -0.5637 -0.7489  0.1006
  820MPD2    H312071   3.177   3.376  14.981 -2.1387  1.8266 -0.3394
  820MPD2     N12072   3.274   3.362  15.422 -0.0700  0.4693 -0.1509
  820MPD2    H512073   3.271   3.422  15.504  4.0362 -0.1671  0.4631
  820MPD2    N112074   3.128   3.757  15.205  0.2924 -0.0403  0.0995
  820MPD2    H712075   3.082   3.792  15.122 -1.1965  0.2840  1.0726
  821MPD2     C12076   3.887   4.226  13.063  0.3066  1.0333 -0.4133
  821MPD2    C112077   3.957   4.270  13.176  0.2893 -0.6409  0.5265
  821MPD2    C212078   4.056   4.366  13.150  0.0408  0.3446  0.1584
  821MPD2    C312079   4.104   4.399  13.020  0.0471 -0.4250 -0.0808
  821MPD2    C412080   4.039   4.337  12.912 -0.4523 -0.4172  0.5954
  821MPD2    C512081   3.921   4.260  12.935 -0.3624 -0.0232 -0.2711
  821MPD2     H12082   4.097   4.406  13.242  0.9450  1.8058 -0.8724
  821MPD2    H112083   4.069   4.370  12.814  1.1116 -0.0245  1.2081
  821MPD2    H212084   3.801   4.161  13.075 -1.1122  2.6240 -1.9532
  821MPD2    H312085   3.876   4.212  12.849 -0.9140 -1.0925  0.6186
  821MPD2     N12086   4.213   4.485  12.988 -0.3229 -0.6111  0.0082
  821MPD2    H512087   4.227   4.505  12.890  0.3808 -1.2226 -0.0179
  821MPD2    N112088   3.922   4.240  13.313 -0.0513  0.1670  0.4165
  821MPD2    H712089   3.979   4.283  13.385  1.9713  0.4012 -1.3193
  822MPD2     C12090   4.205   0.280  15.785 -0.0915 -0.1679 -0.1159
  822MPD2    C112091   4.231   0.265  15.923  0.0639 -0.1612  0.3866
  822MPD2    C212092   4.169   0.347  16.015  0.5196  0.3006 -0.2003
  822MPD2    C312093   4.094   0.451  15.974 -0.0513  0.5701 -0.2764
  822MPD2    C412094   4.074   0.472  15.839  0.1735  0.1645 -0.3203
  822MPD2    C512095   4.139   0.391  15.744 -0.3927  0.1421 -0.6550
  822MPD2     H12096   4.166   0.326  16.122 -1.9464 -1.2732 -0.5648
  822MPD2    H112097   4.002   0.545  15.803 -0.5140 -0.6516 -0.5990
  822MPD2    H212098   4.239   0.222  15.700  0.3741  2.0038 -1.4097
  822MPD2    H312099   4.115   0.405  15.639 -0.7419 -0.8965 -0.7104
  822MPD2     N12100   4.043   0.534  16.068  0.0521 -0.0433 -0.4113
  822MPD2    H512101   4.059   0.511  16.166  1.3577 -0.7421 -0.7882
  822MPD2    N112102   4.307   0.160  15.976 -0.2742 -0.1630  0.9185
  822MPD2    H712103   4.323   0.154  16.076 -0.6322  0.0903  0.9921
  823MPD2     C12104   3.928   0.767  16.858  0.0053 -0.2066 -0.1671
  823MPD2    C112105   3.930   0.672  16.755  0.3355 -0.0754 -0.2744
  823MPD2    C212106   3.927   0.537  16.791  0.3746 -0.4554 -0.7587
  823MPD2    C312107   3.937   0.498  16.921 -0.2306 -0.5865  0.8931
  823MPD2    C412108   3.933   0.591  17.023 -0.4139  0.0888  0.5760
  823MPD2    C512109   3.926   0.726  16.988  0.5711 -0.3834 -0.0618
  823MPD2     H12110   3.932   0.466  16.709  1.8301 -0.3988 -0.7216
  823MPD2    H112111   3.932   0.565  17.128 -1.1198 -0.6061  0.3993
  823MPD2    H212112   3.914   0.872  16.832 -1.1866 -0.2996  0.1024
  823MPD2    H312113   3.925   0.803  17.064 -0.2374  0.9407 -1.4138
  823MPD2     N12114   3.962   0.368  16.964 -0.0999  0.3592 -0.4825
  823MPD2    H512115   3.976   0.349  17.063 -0.6008 -0.1534 -0.5135
  823MPD2    N112116   3.899   0.718  16.629  0.4165 -0.1818  0.2332
  823MPD2    H712117   3.904   0.819  16.618  0.5797 -0.0176  1.8036
  824MPD2     C12118   4.624   4.090  15.881  0.3753 -0.7120  0.1661
  824MPD2    C112119   4.719   4.188  15.879  0.1797  0.0186  0.2098
  824MPD2    C212120   0.132   4.156  15.840  0.5575  0.0897  0.7527
  824MPD2    C312121   0.155   4.025  15.805  0.0090 -0.4350  0.2484
  824MPD2    C412122   0.062   3.925  15.815 -0.9811  0.7640 -0.1764
  824MPD2    C512123   4.654   3.965  15.846  0.4223 -0.4421  0.1058
  824MPD2     H12124   0.212   4.229  15.829 -1.0533  1.3967 -2.4607
  824MPD2    H112125   0.065   3.819  15.792  0.5310  1.1375 -1.7468
  824MPD2    H212126   4.518   4.109  15.892 -0.2433 -3.7474 -0.7017
  824MPD2    H312127   4.573   3.893  15.840 -1.2472  1.5648 -1.3780
  824MPD2     N12128   0.286   3.996  15.747  0.4790 -0.3438  0.7722
  824MPD2    H512129   0.349   4.075  15.741  1.1241 -0.8960  0.3383
  824MPD2    N112130   4.699   4.323  15.906 -0.0708  0.0083 -0.0345
  824MPD2    H712131   0.061   4.380  15.891 -0.0107 -0.1649 -0.3758
  825MPD2     C12132   0.994   3.995  15.241 -0.3788  0.5967 -0.1572
  825MPD2    C112133   0.920   4.063  15.336  0.0654 -0.2133  0.5163
  825MPD2    C212134   0.941   4.197  15.365 -0.1270 -0.7431  0.0155
  825MPD2    C312135   1.043   4.264  15.297  0.0196 -0.1751  0.1364
  825MPD2    C412136   1.128   4.192  15.212  0.2127  0.1891  0.4693
  825MPD2    C512137   1.100   4.059  15.180 -0.5881 -0.8536  0.1296
  825MPD2     H12138   0.881   4.250  15.438  1.4603  0.5172  0.3976
  825MPD2    H112139   1.205   4.241  15.153 -1.6360 -1.0654 -2.9599
  825MPD2    H212140   0.973   3.891  15.219  2.1885  0.1693 -0.5869
  825MPD2    H312141   1.158   4.012  15.102  1.2447  0.9073  0.4172
  825MPD2     N12142   1.075   4.397  15.320 -0.3796 -0.7752 -0.6091
  825MPD2    H512143   1.148   4.438  15.263 -0.0755  1.6498  1.5071
  825MPD2    N112144   0.820   3.988  15.402  0.6406 -0.0105  0.5142
  825MPD2    H712145   0.819   3.890  15.375  2.0171  0.6960 -2.0071
  826MPD2     C12146   0.264   3.477  13.506  0.1514  0.1179  0.8643
  826MPD2    C112147   0.383   3.554  13.495  0.6651 -0.8752 -0.0701
  826MPD2    C212148   0.373   3.686  13.523  0.7710 -0.5132  0.0687
  826MPD2    C312149   0.269   3.739  13.594  0.2290  0.4065  0.2222
  826MPD2    C412150   0.164   3.658  13.627  0.0117 -0.4779 -0.5016
  826MPD2    C512151   0.160   3.527  13.574 -0.7017  0.2389  0.2448
  826MPD2     H12152   0.463   3.744  13.508  1.9317 -2.1645  0.7005
  826MPD2    H112153   0.083   3.688  13.692  1.5247  1.1709  0.6252
  826MPD2    H212154   0.263   3.371  13.483  1.4509 -0.0569  1.5975
  826MPD2    H312155   0.077   3.460  13.595 -0.7844 -0.5634 -2.6180
  826MPD2     N12156   0.260   3.879  13.633 -0.3399 -0.3633  1.0637
  826MPD2    H512157   0.190   3.900  13.704 -1.3148  0.0753 -0.0412
  826MPD2    N112158   0.502   3.495  13.453 -0.2043 -0.2121  0.6816
  826MPD2    H712159   0.571   3.566  13.434  0.1744 -0.2897  1.7571
  827MPD2     C12160   1.540   0.073  10.053  0.3876  0.2724 -0.4451
  827MPD2    C112161   1.517   4.676  10.117  0.0345 -0.7796 -0.2265
  827MPD2    C212162   1.418   4.592  10.065  0.0651  0.0256 -0.9611
  827MPD2    C312163   1.341   4.628   9.962  0.4603  0.2422 -0.2491
  827MPD2    C412164   1.349   0.041   9.919  0.7315 -0.3359 -0.1908
  827MPD2    C512165   1.452   0.120   9.964 -0.1463  0.0845 -0.0191
  827MPD2     H12166   1.402   4.490  10.099 -0.5531  0.9101  1.4230
  827MPD2    H112167   1.271   0.086   9.858 -0.2137 -0.8013  0.6736
  827MPD2    H212168   1.621   0.140  10.079 -0.1172  1.5540 -2.1629
  827MPD2    H312169   1.467   0.223   9.931  2.1908 -0.1213  0.3761
  827MPD2     N12170   1.247   4.534   9.918 -0.0299 -0.1427  0.1396
  827MPD2    H512171   1.240   4.442   9.961 -1.7003  0.6371  1.5242
  827MPD2    N112172   1.611   4.640  10.215  0.7580 -0.3038  0.2953
  827MPD2    H712173   1.670   4.715  10.249 -0.2721  0.5534  0.1914
  828MPD2     C12174   4.578   4.347  12.808  0.1759 -0.2798  0.4583
  828MPD2    C112175   4.587   4.357  12.671  0.4549  0.6781 -0.4798
  828MPD2    C212176   4.711   4.334  12.620  0.4078  0.0284 -0.3239
  828MPD2    C312177   0.104   4.301  12.694  1.0752  0.3872  0.0457
  828MPD2    C412178   0.081   4.293  12.827 -0.2840 -0.9847  0.2613
  828MPD2    C512179   4.681   4.313  12.886  0.0184  0.1429  0.0517
  828MPD2     H12180   0.005   4.358  12.515  0.1368  0.3192 -0.2939
  828MPD2    H112181   0.158   4.246  12.887  0.4063  0.7024  0.7184
  828MPD2    H212182   4.481   4.354  12.855  0.2872 -2.3803  0.9954
  828MPD2    H312183   4.665   4.292  12.991  1.0352  1.6069  0.5051
  828MPD2     N12184   0.242   4.287  12.653 -0.4254 -0.2311  0.0264
  828MPD2    H512185   0.310   4.288  12.729 -0.4064 -1.2094  0.0164
  828MPD2    N112186   4.485   4.382  12.579  0.3015  0.1070 -0.5750
  828MPD2    H712187   4.513   4.389  12.481  0.9166  1.7537 -0.2741
  829MPD2     C12188   4.622   4.516  11.734 -0.1078 -0.2103 -0.5667
  829MPD2    C112189   4.486   4.523  11.729  0.1455 -0.5405 -0.3428
  829MPD2    C212190   4.405   4.510  11.844  0.2568  0.1389  0.2633
  829MPD2    C312191   4.471   4.486  11.962 -0.0415  0.1399  0.2989
  829MPD2    C412192   4.602   4.472  11.958  0.1939  0.0249 -0.0514
  829MPD2    C512193   4.681   4.479  11.847  0.1085  0.7152  0.3502
  829MPD2     H12194   4.298   4.526  11.841 -0.1887 -2.8266  0.1022
  829MPD2    H112195   4.660   4.457  12.048 -0.7040 -0.1824  0.4882
  829MPD2    H212196   4.692   4.521  11.652  1.4805 -0.5709  0.7552
  829MPD2    H312197   0.066   4.467  11.869  0.0916  0.9657  0.5593
  829MPD2     N12198   4.412   4.467  12.093  0.2962  0.3792  0.4330
  829MPD2    H512199   4.475   4.445  12.170  0.7709 -0.0777 -0.0910
  829MPD2    N112200   4.438   4.557  11.602 -0.4790 -0.4684 -0.1591
  829MPD2    H712201   4.507   4.556  11.528 -0.6003 -0.4552 -0.2711
  830MPD2     C12202   4.075   3.090  15.823 -0.5366 -0.5791  0.5804
  830MPD2    C112203   4.192   3.144  15.871 -0.0598  0.2184  0.4768
  830MPD2    C212204   4.292   3.190  15.786  0.3396  0.2908 -0.4205
  830MPD2    C312205   4.287   3.168  15.652 -0.2015 -0.1439 -0.2971
  830MPD2    C412206   4.182   3.094  15.612 -0.1531 -0.1140  0.1374
  830MPD2    C512207   4.080   3.058  15.697  0.1328 -0.0915 -0.4538
  830MPD2     H12208   4.380   3.241  15.823  1.2255 -1.0654 -0.6687
  830MPD2    H112209   4.175   3.074  15.506  0.6347 -2.7203  0.5924
  830MPD2    H212210   3.991   3.061  15.886  0.4405  1.4703  2.8294
  830MPD2    H312211   3.999   2.996  15.660 -0.4863  0.1177  0.5531
  830MPD2     N12212   4.376   3.211  15.556  0.0203 -0.2143 -0.0983
  830MPD2    H512213   4.351   3.200  15.458  1.0250 -1.7386 -0.1739
  830MPD2    N112214   4.193   3.178  16.008 -0.2280  0.6309 -0.1445
  830MPD2    H712215   4.102   3.176  16.053  0.2523 -0.2637  0.7657
  831MPD2     C12216   4.284   0.628  16.303  0.2166 -0.9088  0.0800
  831MPD2    C112217   4.361   0.526  16.257  0.4373  0.9976 -0.0559
  831MPD2    C212218   4.332   0.398  16.296 -0.2901  0.1393  0.4428
  831MPD2    C312219   4.239   0.366  16.394 -0.4380 -0.1171  0.0568
  831MPD2    C412220   4.182   0.471  16.460 -0.5849  0.2766 -0.4836
  831MPD2    C512221   4.202   0.598  16.413  0.3448 -0.2422 -0.1715
  831MPD2     H12222   4.393   0.318  16.257 -1.3741 -0.7927  0.6547
  831MPD2    H112223   4.111   0.445  16.537 -0.9514  0.3258 -0.8069
  831MPD2    H212224   4.296   0.731  16.269 -4.0168  0.0965  1.5485
  831MPD2    H312225   4.159   0.684  16.462  0.6040 -0.3767  0.2984
  831MPD2     N12226   4.202   0.236  16.426  0.3498  1.0074 -0.3113
  831MPD2    H512227   4.125   0.223  16.491  0.6247 -0.9692 -0.3649
  831MPD2    N112228   4.441   0.554  16.148 -0.1801  0.0441 -0.1459
  831MPD2    H712229   4.417   0.642  16.103  0.7448 -0.4474 -1.6171
  832MPD2     C12230   2.996   1.939  17.494  0.0731 -0.4834  0.2335
  832MPD2    C112231   2.918   2.053  17.499 -0.5667 -0.4542  0.0354
  832MPD2    C212232   2.784   2.043  17.470  0.7603 -0.1241  0.4844
  832MPD2    C312233   2.727   1.921  17.449  0.0236 -0.4908  0.1288
  832MPD2    C412234   2.813   1.810  17.443 -0.2094  0.2032 -0.8022
  832MPD2    C512235   2.946   1.819  17.467 -0.1596 -1.0499  0.2337
  832MPD2     H12236   2.713   2.121  17.495 -0.3386 -0.0678 -2.7446
  832MPD2    H112237   2.772   1.710  17.434  0.1164  0.3836 -4.0136
  832MPD2    H212238   3.103   1.948  17.503  0.1664 -0.9859 -0.3487
  832MPD2    H312239   3.010   1.733  17.482  0.6325 -0.4228  0.5326
  832MPD2     N12240   2.594   1.904  17.418 -0.9808 -0.2953  0.3571
  832MPD2    H512241   2.572   1.805  17.417 -1.3042 -0.2211 -0.0015
  832MPD2    N112242   2.988   2.173  17.520  0.5081 -0.4625  0.1931
  832MPD2    H712243   3.087   2.174  17.541  0.6192  0.3951 -0.3562
  833MPD2     C12244   1.162   1.754  12.725  0.0253  0.0569 -0.1991
  833MPD2    C112245   1.153   1.826  12.618 -0.2648 -0.2086  0.0856
  833MPD2    C212246   1.211   1.803  12.496 -0.3139 -0.5315  0.0348
  833MPD2    C312247   1.285   1.689  12.487 -0.2815 -0.0872  0.0062
  833MPD2    C412248   1.304   1.608  12.597 -0.5198 -0.4890 -0.5316
  833MPD2    C512249   1.244   1.644  12.715  0.0098 -0.9603  0.2893
  833MPD2     H12250   1.197   1.863  12.407  0.3274  0.2411  0.4594
  833MPD2    H112251   1.368   1.520  12.595  2.0214  1.3309  0.9736
  833MPD2    H212252   1.116   1.782  12.819 -0.2195  1.4972 -0.7526
  833MPD2    H312253   1.274   1.591  12.805  2.6622  2.0865  1.2236
  833MPD2     N12254   1.348   1.671  12.360 -0.2282  0.4395  0.3599
  833MPD2    H512255   1.343   1.747  12.294  0.9733  1.5080  1.4895
  833MPD2    N112256   1.070   1.938  12.618 -0.3423  0.1297  0.3701
  833MPD2    H712257   1.077   2.001  12.538  0.7165  0.7509  0.9525
  834MPD2     C12258   1.027   1.100  11.603  0.0329  0.2447 -0.1811
  834MPD2    C112259   0.987   1.232  11.573  0.1391  0.8685  0.0091
  834MPD2    C212260   1.046   1.335  11.651 -0.5232  0.8642 -0.4486
  834MPD2    C312261   1.147   1.297  11.740 -0.9140 -0.0136 -1.0670
  834MPD2    C412262   1.192   1.169  11.756  0.1729  0.6814  0.2467
  834MPD2    C512263   1.126   1.072  11.690 -0.4128 -0.7813 -0.4239
  834MPD2     H12264   1.016   1.439  11.649 -1.3978  0.6215  0.0090
  834MPD2    H112265   1.267   1.132  11.825  1.0456  1.5868 -0.2178
  834MPD2    H212266   0.984   1.023  11.540 -0.4122 -0.4859  1.0218
  834MPD2    H312267   1.161   0.970  11.683  0.2215 -0.5057 -1.1481
  834MPD2     N12268   1.202   1.399  11.815 -0.1040 -0.2302  0.0000
  834MPD2    H512269   1.161   1.490  11.797  1.3201  0.0201 -1.9815
  834MPD2    N112270   0.887   1.251  11.474 -0.3215 -0.0920 -0.1703
  834MPD2    H712271   0.843   1.167  11.438  1.0562 -0.6552 -0.5223
  835MPD2     C12272   0.986   0.030  10.789  0.4720 -0.7087  0.4011
  835MPD2    C112273   0.871   0.097  10.794  0.3754 -0.8052 -0.2271
  835MPD2    C212274   0.817   0.136  10.914  0.3547 -0.0446 -0.3840
  835MPD2    C312275   0.876   0.109  11.031  0.8523 -0.4428 -0.1722
  835MPD2    C412276   0.987   0.029  11.024 -0.1322  0.0845  0.2478
  835MPD2    C512277   1.042   4.719  10.905 -0.4500 -0.5016  0.6387
  835MPD2     H12278   0.724   0.191  10.914  0.9229  0.9134  1.4733
  835MPD2    H112279   1.049   0.015  11.112  1.9127  1.8909 -0.9178
  835MPD2    H212280   1.037   0.008  10.696 -0.3488  0.6080 -0.3564
  835MPD2    H312281   1.143   4.681  10.909  0.0266  0.7213  0.1405
  835MPD2     N12282   0.827   0.149  11.160 -0.2995 -0.7150  0.2647
  835MPD2    H512283   0.890   0.133  11.239 -0.3892  0.1203  0.5147
  835MPD2    N112284   0.797   0.137  10.684  0.5169 -0.2351 -0.3054
  835MPD2    H712285   0.701   0.163  10.700  1.5722  3.1132  0.6730
  836MPD2     C12286   0.120   0.516  11.371  0.6767  0.0452  0.6143
  836MPD2    C112287   0.177   0.418  11.453  0.6256  0.1443  0.2669
  836MPD2    C212288   0.091   0.351  11.534  0.0954  0.0315 -0.1631
  836MPD2    C312289   4.675   0.378  11.542 -0.3490 -0.0107 -0.1668
  836MPD2    C412290   4.620   0.469  11.454 -0.1466 -0.5385 -0.2802
  836MPD2    C512291   4.702   0.536  11.365 -0.1812 -0.2804  0.2522
  836MPD2     H12292   0.124   0.270  11.598 -2.2439 -0.7984  0.0076
  836MPD2    H112293   4.514   0.493  11.462 -0.1200  0.2669 -2.5953
  836MPD2    H212294   0.191   0.574  11.313 -0.0413 -1.0408 -1.3377
  836MPD2    H312295   4.657   0.618  11.310 -1.9898  0.7473  3.2567
  836MPD2     N12296   4.584   0.311  11.635 -0.0426  0.0170  0.0167
  836MPD2    H512297   4.485   0.335  11.634  0.3754  1.6916 -2.1201
  836MPD2    N112298   0.320   0.393  11.444 -0.0676 -0.4192 -0.0537
  836MPD2    H712299   0.383   0.442  11.381  0.3992  0.0885  0.8198
  837MPD2     C12300   3.219   0.151   9.897  0.6443  0.1631  0.2962
  837MPD2    C112301   3.101   0.172   9.826 -0.2918 -0.4307  0.2034
  837MPD2    C212302   3.068   0.300   9.789 -0.0591  0.4636  0.1332
  837MPD2    C312303   3.158   0.406   9.799 -1.0224 -0.5012 -0.1876
  837MPD2    C412304   3.280   0.376   9.857  0.3288  0.0891  0.5026
  837MPD2    C512305   3.307   0.253   9.907  0.4450 -0.1343 -0.2145
  837MPD2     H12306   2.973   0.314   9.738  0.3486  1.3090 -0.3976
  837MPD2    H112307   3.361   0.447   9.868 -0.6547  1.3479 -0.3658
  837MPD2    H212308   3.253   0.051   9.922 -1.0726 -0.8638 -1.4394
  837MPD2    H312309   3.397   0.244   9.967  0.5634  1.4261 -0.1594
  837MPD2     N12310   3.124   0.523   9.731  0.6256  0.3745 -0.3915
  837MPD2    H512311   3.025   0.514   9.709  0.6635 -0.0303 -0.3954
  837MPD2    N112312   3.010   0.068   9.793 -0.3876  0.1779  0.4581
  837MPD2    H712313   2.918   0.099   9.764 -0.7460  0.6453  2.0964
  838MPD2     C12314   2.088   2.296  10.865 -0.0390 -0.2916  0.0637
  838MPD2    C112315   2.089   2.360  10.984 -0.1832 -0.3502 -0.5804
  838MPD2    C212316   1.977   2.355  11.063  0.1935 -0.5043 -0.2500
  838MPD2    C312317   1.870   2.274  11.032  0.6316  0.4322 -0.0656
  838MPD2    C412318   1.876   2.199  10.918 -0.1860  0.7515  0.1608
  838MPD2    C512319   1.983   2.213  10.834 -0.2825  0.4175 -0.4555
  838MPD2     H12320   1.967   2.404  11.160 -0.2532 -1.5641  0.2378
  838MPD2    H112321   1.797   2.135  10.881 -0.0025  0.3110  0.5303
  838MPD2    H212322   2.166   2.316  10.792  1.5039 -1.2963  1.4151
  838MPD2    H312323   1.992   2.150  10.747 -1.4410  0.5744 -0.6763
  838MPD2     N12324   1.748   2.280  11.105 -0.2030  0.4934 -0.2851
  838MPD2    H512325   1.750   2.342  11.185 -1.3680  0.6477 -0.3823
  838MPD2    N112326   2.199   2.430  11.039 -0.0986 -0.3857 -0.4535
  838MPD2    H712327   2.179   2.467  11.131  1.6937  3.6872 -1.7263
  839MPD2     C12328   2.201   2.307  11.836  0.2361  0.5195  0.4947
  839MPD2    C112329   2.200   2.228  11.718  0.7148  0.2142 -0.1854
  839MPD2    C212330   2.271   2.254  11.605 -0.0517 -0.5988 -0.2792
  839MPD2    C312331   2.328   2.380  11.598  0.4452 -0.2686  0.2998
  839MPD2    C412332   2.332   2.465  11.706 -0.6507  0.1407 -0.0716
  839MPD2    C512333   2.273   2.420  11.829 -0.2025 -0.9418  0.5522
  839MPD2     H12334   2.268   2.188  11.520 -2.5533  0.4280 -1.0044
  839MPD2    H112335   2.384   2.560  11.712 -1.5172  0.6423 -0.5536
  839MPD2    H212336   2.137   2.292  11.922 -1.3328  2.1923 -0.3791
  839MPD2    H312337   2.279   2.481  11.918 -2.6947 -0.2819  0.2629
  839MPD2     N12338   2.373   2.419  11.470  0.2314 -0.2902  0.3688
  839MPD2    H512339   2.380   2.343  11.403  1.8391  1.8003 -1.8494
  839MPD2    N112340   2.122   2.115  11.703  0.0047 -0.1442  0.6331
  839MPD2    H712341   2.132   2.080  11.608 -1.6419  1.4283 -0.1228
  840MPD2     C12342   2.319   0.001  10.361  0.4602  0.2457  0.3607
  840MPD2    C112343   2.246   0.035  10.475 -0.1618  0.0396 -0.1745
  840MPD2    C212344   2.290   0.141  10.557  0.2812  0.0509  0.4864
  840MPD2    C312345   2.424   0.196  10.537 -0.1456  0.3692 -0.5291
  840MPD2    C412346   2.497   0.145  10.432  0.1590  0.5473  0.3220
  840MPD2    C512347   2.446   0.058  10.345 -0.0119  0.2944  0.1274
  840MPD2     H12348   2.222   0.185  10.628  2.0550  2.1908  0.8646
  840MPD2    H112349   2.594   0.186  10.404  0.5315 -1.5815 -1.4949
  840MPD2    H212350   2.288   4.656  10.280 -1.3583 -0.7873  1.9033
  840MPD2    H312351   2.505   0.039  10.257  0.4557  0.5379  0.3852
  840MPD2     N12352   2.478   0.300  10.616  0.2071  0.4551 -0.9392
  840MPD2    H512353   2.571   0.336  10.597  0.4505 -0.0059 -0.6219
  840MPD2    N112354   2.116   4.706  10.511 -0.0280  0.2017 -0.1697
  840MPD2    H712355   2.080   0.008  10.603 -1.8103 -1.5439 -0.4509
  841MPD2     C12356   2.345   0.111  14.768  0.6565 -0.5268  0.4608
  841MPD2    C112357   2.236   0.147  14.834 -0.6570  0.2187 -0.2084
  841MPD2    C212358   2.229   0.270  14.897 -0.7928  0.0253 -0.2832
  841MPD2    C312359   2.338   0.343  14.892  0.4148 -0.1535 -0.2816
  841MPD2    C412360   2.454   0.312  14.823 -0.8313  0.9781 -0.5677
  841MPD2    C512361   2.459   0.195  14.765  0.7850 -0.0644  0.3010
  841MPD2     H12362   2.152   0.320  14.954  0.4137  1.4297  0.1194
  841MPD2    H112363   2.540   0.378  14.819  0.1051 -0.1486  0.6712
  841MPD2    H212364   2.359   0.022  14.707  1.3197 -0.0093 -0.1483
  841MPD2    H312365   2.545   0.161  14.710  1.6279  1.6537  0.5585
  841MPD2     N12366   2.328   0.466  14.956 -0.0337 -0.2653 -0.7496
  841MPD2    H512367   2.244   0.469  15.013  2.7846  1.3290  3.3526
  841MPD2    N112368   2.116   0.077  14.827  0.1671 -0.1580 -0.5286
  841MPD2    H712369   2.033   0.129  14.853  0.2726 -0.9228  1.3688
  842MPD2     C12370   1.535   1.420  16.730 -0.0544 -0.5004  0.6122
  842MPD2    C112371   1.578   1.546  16.728 -0.6134  0.3490  0.1643
  842MPD2    C212372   1.600   1.604  16.849 -0.2339 -0.7269 -0.8345
  842MPD2    C312373   1.595   1.525  16.969  0.0868  0.1721 -0.5513
  842MPD2    C412374   1.563   1.396  16.963 -0.2211  0.3094  0.4147
  842MPD2    C512375   1.540   1.335  16.839 -0.7575 -1.2395  0.0465
  842MPD2     H12376   1.611   1.711  16.852 -2.5561 -0.4612 -1.8708
  842MPD2    H112377   1.542   1.344  17.056  0.7378 -0.0631  0.4235
  842MPD2    H212378   1.514   1.386  16.629  0.2996  0.6982  0.1389
  842MPD2    H312379   1.496   1.237  16.828 -0.8206 -1.1088 -0.8587
  842MPD2     N12380   1.628   1.581  17.097 -0.3156 -0.3339 -0.3048
  842MPD2    H512381   1.629   1.522  17.180  0.7262 -1.3092 -1.0247
  842MPD2    N112382   1.584   1.622  16.606  0.7068  1.0223  0.1710
  842MPD2    H712383   1.536   1.585  16.525 -2.3291  2.9626  1.0683
  843MPD2     C12384   3.835   2.973   0.473  0.0695  0.4022  0.1277
  843MPD2    C112385   3.879   2.841   0.488  0.7717  0.0525 -0.3986
  843MPD2    C212386   3.989   2.819   0.572  0.0242 -0.0335 -0.0256
  843MPD2    C312387   4.074   2.919   0.626  0.3941  0.0410  0.3604
  843MPD2    C412388   4.024   3.043   0.613  0.0312  0.3237  0.1564
  843MPD2    C512389   3.906   3.071   0.542 -0.3347  0.3980 -0.6661
  843MPD2     H12390   4.013   2.717   0.597  0.1695  0.3283  1.2980
  843MPD2    H112391   4.087   3.124   0.646 -1.7427  1.9508 -0.4464
  843MPD2    H212392   3.747   2.997   0.413 -0.7730 -2.3490  0.2648
  843MPD2    H312393   3.874   3.173   0.529  1.2941  0.8822 -0.8154
  843MPD2     N12394   4.193   2.890   0.706 -0.6472 -0.3870 -0.3026
  843MPD2    H512395   4.247   2.975   0.720 -2.1965  0.7533 -1.2252
  843MPD2    N112396   3.804   2.734   0.428 -0.9374  0.1183  0.4011
  843MPD2    H712397   3.711   2.760   0.395  0.5248  1.4012 -2.6689
  844MPD2     C12398   2.283   1.590  16.914  0.1812 -0.9155  0.0216
  844MPD2    C112399   2.367   1.507  16.976 -0.5130 -0.5902 -0.1505
  844MPD2    C212400   2.479   1.562  17.039  0.7672  0.5859 -0.3309
  844MPD2    C312401   2.488   1.697  17.053  0.3054  0.6492  0.3392
  844MPD2    C412402   2.413   1.783  16.981 -0.4342  0.5551  0.1961
  844MPD2    C512403   2.317   1.725  16.904  0.6524  0.6153  0.2122
  844MPD2     H12404   2.558   1.501  17.082 -0.9476 -0.3367  1.5468
  844MPD2    H112405   2.421   1.891  16.976  0.1398  0.5402  0.7688
  844MPD2    H212406   2.197   1.554  16.858 -0.3412  0.3589  0.0024
  844MPD2    H312407   2.245   1.790  16.854 -0.6438  0.1975  1.5370
  844MPD2     N12408   2.601   1.746  17.118  0.0993  0.0316  1.1145
  844MPD2    H512409   2.654   1.680  17.174  0.0861 -0.2170  0.8312
  844MPD2    N112410   2.365   1.364  16.958 -0.3563 -0.2333  0.4381
  844MPD2    H712411   2.447   1.313  16.987 -0.0257  0.2231  0.3033
  845MPD2     C12412   3.141   2.611  17.057  0.8599 -0.2514 -0.1929
  845MPD2    C112413   3.055   2.587  17.166  0.5374  0.2890 -0.2594
  845MPD2    C212414   3.004   2.456  17.176 -0.1608  0.7896 -0.3838
  845MPD2    C312415   3.044   2.352  17.099  0.3668 -0.6766  0.4760
  845MPD2    C412416   3.133   2.380  16.995  0.6893  0.7380  0.1282
  845MPD2    C512417   3.173   2.507  16.969 -0.1025 -0.1761  0.4033
  845MPD2     H12418   2.945   2.434  17.264 -0.3260 -1.2039 -1.0103
  845MPD2    H112419   3.163   2.303  16.924  0.5209  0.8981 -0.1176
  845MPD2    H212420   3.166   2.712  17.027  3.0903 -0.4730  0.8996
  845MPD2    H312421   3.224   2.532  16.878 -1.2695 -1.2410 -0.5460
  845MPD2     N12422   2.987   2.225  17.118 -0.0320  0.0690 -0.1709
  845MPD2    H512423   2.901   2.215  17.170  0.7251 -1.4123  0.7950
  845MPD2    N112424   3.022   2.692  17.248 -0.5261  0.3869  0.2156
  845MPD2    H712425   3.057   2.785  17.228 -0.3594  0.1199 -0.7353
  846MPD2     C12426   0.008   2.054  13.949  0.0650  0.2630  0.2561
  846MPD2    C112427   4.608   2.095  13.893  0.3044 -0.5889  0.8890
  846MPD2    C212428   4.503   2.130  13.976  0.1082  0.4957  0.0615
  846MPD2    C312429   4.514   2.125  14.114  0.5168 -0.3012 -0.0979
  846MPD2    C412430   4.635   2.096  14.173 -0.4099  0.1349  0.0739
  846MPD2    C512431   0.012   2.056  14.088  0.0750 -0.0544  0.4036
  846MPD2     H12432   4.409   2.164  13.934  0.3059  1.1831  0.1810
  846MPD2    H112433   4.650   2.086  14.280 -2.1477 -1.4652  0.1570
  846MPD2    H212434   0.094   2.027  13.888  2.6882  2.1009  3.1250
  846MPD2    H312435   0.111   2.044  14.131  0.0630  0.2314  0.5079
  846MPD2     N12436   4.396   2.130  14.194  0.7405 -0.2265  0.3744
  846MPD2    H512437   4.307   2.119  14.145 -0.2247  1.4868  1.7742
  846MPD2    N112438   4.587   2.106  13.751  0.1655 -0.2865 -0.1308
  846MPD2    H712439   4.509   2.157  13.711 -0.2022 -1.2862 -0.6853
  847MPD2     C12440   4.466   2.853  13.603 -0.8618  0.6004 -0.3270
  847MPD2    C112441   4.539   2.913  13.703 -0.4363  0.1618  0.3073
  847MPD2    C212442   4.677   2.896  13.714  0.1525 -0.5047  0.0189
  847MPD2    C312443   0.018   2.795  13.640 -0.2623 -0.4191  0.1062
  847MPD2    C412444   4.662   2.732  13.540 -0.1900 -0.2797 -0.0522
  847MPD2    C512445   4.531   2.770  13.513 -0.0644 -0.1072  0.7497
  847MPD2     H12446   0.000   2.944  13.801  0.9353  0.6252 -1.0068
  847MPD2    H112447   4.690   2.645  13.482 -1.3026 -1.1357  0.7002
  847MPD2    H212448   4.359   2.868  13.599 -0.6558  1.6343 -1.9361
  847MPD2    H312449   4.481   2.726  13.428  2.1385  0.6160 -0.9017
  847MPD2     N12450   0.149   2.748  13.666 -0.2849  0.4710  0.4098
  847MPD2    H512451   0.173   2.667  13.610 -2.9723 -0.3815  0.4787
  847MPD2    N112452   4.483   2.999  13.801 -0.5443 -0.3820 -0.4606
  847MPD2    H712453   4.543   3.041  13.871 -1.2317 -0.4274  0.1569
  848MPD2     C12454   2.155   2.057  16.763  0.6833  0.1235  0.3826
  848MPD2    C112455   2.206   2.150  16.863 -0.4318  0.4654  0.2569
  848MPD2    C212456   2.261   2.273  16.817 -0.4332  0.2452 -1.1377
  848MPD2    C312457   2.262   2.301  16.683 -0.1146  0.4196  0.3608
  848MPD2    C412458   2.221   2.205  16.592  0.0081  0.4580  0.0167
  848MPD2    C512459   2.165   2.086  16.636  0.5052 -0.0737 -0.4102
  848MPD2     H12460   2.307   2.347  16.882  0.0106 -1.6121  0.6447
  848MPD2    H112461   2.213   2.236  16.488  3.1522 -0.2442 -0.4181
  848MPD2    H212462   2.106   1.961  16.778 -0.8768  0.6910 -1.0131
  848MPD2    H312463   2.130   2.016  16.561  3.8112  1.5483 -3.4684
  848MPD2     N12464   2.300   2.432  16.634 -0.0147 -0.4217  0.1773
  848MPD2    H512465   2.286   2.439  16.534 -0.4165 -2.2138  0.1003
  848MPD2    N112466   2.204   2.124  16.999 -0.7962 -0.6361 -0.0083
  848MPD2    H712467   2.240   2.191  17.067 -0.6639  1.8538 -2.5056
  849MPD2     C12468   1.623   1.534  14.446 -0.1889  0.2516 -0.0992
  849MPD2    C112469   1.745   1.594  14.442 -0.4890 -0.0497  0.0667
  849MPD2    C212470   1.808   1.625  14.557  0.1877 -0.8664  0.3539
  849MPD2    C312471   1.757   1.581  14.681 -0.7355 -0.3810  0.5463
  849MPD2    C412472   1.643   1.511  14.687  0.1697 -0.9283  0.4903
  849MPD2    C512473   1.572   1.491  14.569  0.0094  0.3403  0.4859
  849MPD2     H12474   1.901   1.681  14.562 -0.5358  0.3841 -0.2502
  849MPD2    H112475   1.593   1.477  14.777 -0.2303  0.5289  0.8175
  849MPD2    H212476   1.578   1.513  14.349  0.0124 -1.2809  0.1285
  849MPD2    H312477   1.472   1.448  14.571 -0.0629  0.5104  0.4849
  849MPD2     N12478   1.815   1.595  14.806  0.3445  0.7801 -0.0375
  849MPD2    H512479   1.770   1.553  14.887  0.1460  0.6552 -0.2116
  849MPD2    N112480   1.801   1.629  14.317 -0.0802 -0.0215  0.0789
  849MPD2    H712481   1.749   1.594  14.237 -0.1697 -1.4930  0.7844
  850MPD2     C12482   4.294   4.152  14.705 -0.1032  0.4420 -0.1966
  850MPD2    C112483   4.291   4.283  14.758 -0.4759 -0.6484  0.0703
  850MPD2    C212484   4.420   4.348  14.779 -0.3568  0.1830 -0.1002
  850MPD2    C312485   4.535   4.275  14.765  0.0350 -0.6702 -0.8143
  850MPD2    C412486   4.540   4.151  14.713 -0.0710  0.1637  0.0668
  850MPD2    C512487   4.420   4.091  14.688 -0.6705  0.2140  0.1876
  850MPD2     H12488   4.431   4.452  14.810 -0.9924  0.2321 -0.0313
  850MPD2    H112489   4.628   4.089  14.709 -0.4519 -0.3859  0.1663
  850MPD2    H212490   4.202   4.099  14.682 -0.6145  2.1715 -2.1533
  850MPD2    H312491   4.419   3.988  14.654  0.7916  0.3103 -0.1537
  850MPD2     N12492   4.661   4.316  14.806 -0.3029 -0.0368  0.2572
  850MPD2    H512493   0.022   4.256  14.809  0.1944  0.7820  2.6438
  850MPD2    N112494   4.171   4.345  14.797 -0.0657 -0.0234  0.4119
  850MPD2    H712495   4.093   4.326  14.735  0.7663  0.2943 -0.7066
  851MPD2     C12496   0.023   4.212  15.416 -0.4570 -0.1062 -0.1925
  851MPD2    C112497   4.628   4.178  15.348  0.2103  0.1522  0.1772
  851MPD2    C212498   4.599   4.048  15.352 -0.0829 -0.0105 -0.4230
  851MPD2    C312499   4.671   3.950  15.417 -0.0351  0.7777  0.6213
  851MPD2    C412500   0.070   3.987  15.472 -0.6161 -0.4523  0.0811
  851MPD2    C512501   0.101   4.120  15.472  0.0452  0.3241  0.4406
  851MPD2     H12502   4.517   3.996  15.303  0.3096 -1.3590  0.3576
  851MPD2    H112503   0.131   3.914  15.526  1.0819 -0.9535 -2.5470
  851MPD2    H212504   0.062   4.313  15.406 -4.0329  1.2325 -0.7749
  851MPD2    H312505   0.194   4.151  15.516 -0.4405  0.3803  1.4395
  851MPD2     N12506   4.629   3.819  15.412  0.3527  0.3060 -0.4543
  851MPD2    H512507   4.545   3.806  15.357  0.0551  1.6513 -0.3042
  851MPD2    N112508   4.552   4.270  15.278 -0.4042 -0.0427  0.4456
  851MPD2    H712509   4.583   4.366  15.265 -0.3633 -0.0186  0.7323
  852MPD2     C12510   3.970   1.968   9.672 -0.1084  1.1840  0.2995
  852MPD2    C112511   4.038   1.976   9.789 -0.1332  0.2129 -0.0779
  852MPD2    C212512   4.139   2.064   9.805 -0.2455 -0.9162 -0.8589
  852MPD2    C312513   4.174   2.147   9.704 -0.4960 -0.1736  1.2182
  852MPD2    C412514   4.111   2.133   9.580 -0.1631 -0.2499  0.0301
  852MPD2    C512515   4.013   2.039   9.563 -0.4423 -0.1314  0.3606
  852MPD2     H12516   4.193   2.069   9.899  0.3296 -0.1135 -1.2286
  852MPD2    H112517   4.141   2.202   9.502  2.2299 -0.5083  0.7260
  852MPD2    H212518   3.878   1.912   9.658 -0.5487  2.3058 -1.2618
  852MPD2    H312519   3.945   2.039   9.478 -1.6511  1.3009  1.3210
  852MPD2     N12520   4.290   2.229   9.722  0.5960 -0.2430 -0.4745
  852MPD2    H512521   4.322   2.244   9.817 -1.4009 -0.4270  0.2244
  852MPD2    N112522   4.007   1.899   9.900  0.6322 -0.2430 -0.5746
  852MPD2    H712523   4.045   1.929   9.989 -1.0121 -1.5410  0.5610
  853MPD2     C12524   2.083   1.279  12.482  0.3533 -0.2257  0.1037
  853MPD2    C112525   1.985   1.337  12.419 -0.3530  0.2771  0.3822
  853MPD2    C212526   1.982   1.326  12.282 -0.8545  0.6582 -0.1767
  853MPD2    C312527   2.062   1.242  12.201 -0.4594  0.2293  0.0799
  853MPD2    C412528   2.148   1.169  12.282 -0.5768  0.3133 -0.9767
  853MPD2    C512529   2.169   1.200  12.414  0.0396  0.5370  0.3491
  853MPD2     H12530   1.922   1.392  12.219 -1.5379  1.1874  1.0239
  853MPD2    H112531   2.221   1.104  12.235 -0.6305 -1.6406  1.6206
  853MPD2    H212532   2.084   1.295  12.589  0.6856 -1.1027  0.2336
  853MPD2    H312533   2.257   1.157  12.460  0.7852  1.7716  0.0799
  853MPD2     N12534   2.059   1.213  12.065 -0.0813 -0.1865  0.2474
  853MPD2    H512535   2.131   1.155  12.023  0.0677  0.8187 -0.8762
  853MPD2    N112536   1.900   1.420  12.499  0.2015  0.3781 -0.3850
  853MPD2    H712537   1.929   1.441  12.594 -2.9102 -1.5835  0.9879
  854MPD2     C12538   3.796   1.620  13.120 -0.1352 -0.1069 -0.5088
  854MPD2    C112539   3.818   1.550  13.003  0.7696  0.0664  0.1590
  854MPD2    C212540   3.915   1.451  13.003  0.4247 -0.4252 -0.3703
  854MPD2    C312541   3.987   1.416  13.119  0.4038  0.2892  0.3688
  854MPD2    C412542   3.960   1.484  13.233 -0.5035 -0.6414 -0.3656
  854MPD2    C512543   3.870   1.586  13.233  0.0954  0.4013  0.0314
  854MPD2     H12544   3.921   1.385  12.917  4.0163  0.8517 -1.0788
  854MPD2    H112545   4.008   1.453  13.325  0.5519  0.9167 -0.3903
  854MPD2    H212546   3.736   1.708  13.140  1.8816  1.2470 -0.4149
  854MPD2    H312547   3.842   1.639  13.324 -0.1658  1.2923 -0.5671
  854MPD2     N12548   4.076   1.310  13.125 -0.1511 -0.7082  0.0881
  854MPD2    H512549   4.115   1.291  13.216  1.2747  0.2469 -0.3264
  854MPD2    N112550   3.739   1.590  12.895  0.5546 -0.4717  0.1535
  854MPD2    H712551   3.672   1.665  12.909 -1.7302 -2.4201 -0.3514
  855MPD2     C12552   4.613   0.903  13.810 -0.1689 -0.4392  0.6211
  855MPD2    C112553   4.475   0.913  13.794  1.2917 -0.0425  1.0029
  855MPD2    C212554   4.417   0.908  13.666  0.1028 -0.5043 -0.4441
  855MPD2    C312555   4.497   0.905  13.553  0.3768  0.7097 -0.1023
  855MPD2    C412556   4.631   0.887  13.578 -0.0537 -0.7940  0.1329
  855MPD2    C512557   4.688   0.881  13.698 -0.2600 -0.0160 -0.0605
  855MPD2     H12558   4.309   0.919  13.654  0.1723  0.0796 -0.5570
  855MPD2    H112559   4.696   0.890  13.492  0.2938 -0.8273  0.3937
  855MPD2    H212560   4.664   0.906  13.905  1.3095  0.1919 -0.2057
  855MPD2    H312561   0.075   0.864  13.698 -0.2700 -0.0883 -1.7502
  855MPD2     N12562   4.456   0.931  13.414 -0.3248  0.1989  0.4562
  855MPD2    H512563   4.521   0.926  13.337 -2.9550  0.1500 -1.7585
  855MPD2    N112564   4.388   0.928  13.903  0.1532  0.3519 -0.1697
  855MPD2    H712565   4.289   0.928  13.881  0.3518 -1.0432 -1.1124
  856MPD2     C12566   1.176   2.242  13.408 -0.2041 -0.0123 -0.0797
  856MPD2    C112567   1.207   2.369  13.396 -0.4282 -0.1854 -0.1023
  856MPD2    C212568   1.106   2.455  13.423  0.0278 -0.5389 -0.2705
  856MPD2    C312569   0.977   2.422  13.450  0.1196  0.2340  0.4790
  856MPD2    C412570   0.952   2.288  13.454  0.1820 -0.1429  0.3285
  856MPD2    C512571   1.053   2.198  13.434 -0.6946 -0.3765  0.2288
  856MPD2     H12572   1.127   2.561  13.408  0.6630 -0.6242  0.0048
  856MPD2    H112573   0.850   2.258  13.472 -0.4739  0.6885 -1.9812
  856MPD2    H212574   1.243   2.160  13.384 -2.1251 -1.8212  0.7739
  856MPD2    H312575   1.030   2.092  13.438  0.6098 -0.7099 -1.2249
  856MPD2     N12576   0.872   2.514  13.490 -0.4157  0.0092 -0.0712
  856MPD2    H512577   0.775   2.482  13.491 -1.0841  2.0777  1.0096
  856MPD2    N112578   1.333   2.420  13.350  0.2123 -0.1324  0.3513
  856MPD2    H712579   1.335   2.521  13.344  0.9973 -0.2310 -1.1841
  857MPD2     C12580   2.352   4.437  12.986  1.2823  0.3204 -0.0743
  857MPD2    C112581   2.491   4.441  12.989  0.1628  1.3927 -0.3512
  857MPD2    C212582   2.566   4.549  13.042  0.0027 -0.3638 -0.0490
  857MPD2    C312583   2.499   4.656  13.086  0.1569 -0.0055 -0.4325
  857MPD2    C412584   2.357   4.656  13.082 -0.1583 -0.3627  0.2751
  857MPD2    C512585   2.292   4.541  13.043 -0.0666  0.0882 -0.4872
  857MPD2     H12586   2.673   4.540  13.025 -0.5845 -1.4260 -3.1608
  857MPD2    H112587   2.308   0.019  13.132  1.3836  0.4520  0.4427
  857MPD2    H212588   2.291   4.351  12.961  0.8249  0.6508 -0.0932
  857MPD2    H312589   2.185   4.528  13.050 -0.2899  1.6180 -1.1643
  857MPD2     N12590   2.581   0.048  13.122 -0.5847  0.3628  0.1641
  857MPD2    H512591   2.678   0.026  13.140 -0.9576 -0.5377  1.0836
  857MPD2    N112592   2.555   4.326  12.938 -0.1137 -0.0304  0.4106
  857MPD2    H712593   2.490   4.254  12.905  1.1163  0.0618 -2.2294
  858MPD2     C12594   2.817   4.254  16.890  0.3381 -0.3466 -0.4052
  858MPD2    C112595   2.868   4.168  16.983 -0.1729  0.0888 -0.5817
  858MPD2    C212596   2.893   4.208  17.115 -0.1591 -0.1332 -0.4330
  858MPD2    C312597   2.825   4.319  17.161 -0.7994  0.3179  0.3495
  858MPD2    C412598   2.771   4.411  17.073  1.0092  0.0224 -0.9040
  858MPD2    C512599   2.763   4.376  16.940 -0.2236 -0.9530 -0.2374
  858MPD2     H12600   2.956   4.155  17.186  2.4091  1.5721 -1.4556
  858MPD2    H112601   2.717   4.499  17.106  2.5893  0.8030 -0.4022
  858MPD2    H212602   2.801   4.226  16.786  0.1220  1.1523 -0.7756
  858MPD2    H312603   2.690   4.430  16.881 -1.5198  1.0042  3.1568
  858MPD2     N12604   2.815   4.345  17.307 -0.3995 -0.0277  0.8148
  858MPD2    H512605   2.762   4.424  17.343 -2.1250  0.1900 -2.2168
  858MPD2    N112606   2.926   4.047  16.938  0.2664 -0.1460  0.0303
  858MPD2    H712607   2.988   3.995  17.000 -0.2483 -2.1703 -1.1673
  859MPD2     C12608   1.602   1.315  15.651 -0.4300  0.2729  0.0104
  859MPD2    C112609   1.728   1.346  15.694  0.1898 -1.1877  0.1121
  859MPD2    C212610   1.790   1.260  15.786 -0.1379 -0.9194  0.4479
  859MPD2    C312611   1.730   1.147  15.826  0.3078 -0.3845 -0.2089
  859MPD2    C412612   1.613   1.114  15.775 -0.0697 -0.1048 -0.5945
  859MPD2    C512613   1.541   1.201  15.693  0.7596  0.2204 -0.0376
  859MPD2     H12614   1.888   1.294  15.816 -0.9498  1.0637  0.8485
  859MPD2    H112615   1.569   1.016  15.790 -0.2409 -0.3091 -2.4202
  859MPD2    H212616   1.546   1.377  15.582  0.9444  1.2141 -0.2634
  859MPD2    H312617   1.449   1.168  15.647  1.2606 -1.4853  0.1771
  859MPD2     N12618   1.791   1.060  15.921  0.4035  0.1372  0.5200
  859MPD2    H512619   1.731   0.980  15.940 -1.9972  1.9889  0.6928
  859MPD2    N112620   1.785   1.468  15.647 -0.2725  0.4899 -0.1605
  859MPD2    H712621   1.731   1.518  15.576 -0.8950  1.7137  1.1659
  860MPD2     C12622   0.099   1.200  11.544  0.1031 -0.3508 -0.6312
  860MPD2    C112623   0.122   1.131  11.661 -0.3477  0.6056  0.9905
  860MPD2    C212624   0.015   1.087  11.734 -0.5173 -0.0229 -0.0111
  860MPD2    C312625   4.606   1.092  11.689  0.3322 -0.3159 -0.1435
  860MPD2    C412626   4.577   1.163  11.573  0.1039 -0.3278 -0.7635
  860MPD2    C512627   4.686   1.213  11.509 -0.1113 -0.5603  0.8776
  860MPD2     H12628   0.037   1.033  11.825  0.8959 -0.9884 -0.9082
  860MPD2    H112629   4.481   1.177  11.525 -0.2678  0.3638  0.2016
  860MPD2    H212630   0.181   1.239  11.486  2.2015 -0.1430  2.4664
  860MPD2    H312631   4.672   1.268  11.417 -0.6476 -0.0522  1.2632
  860MPD2     N12632   4.508   1.043  11.771  0.1764  0.4978  0.4206
  860MPD2    H512633   4.543   1.019  11.863 -1.6856 -0.8935  0.7710
  860MPD2    N112634   0.254   1.115  11.708 -0.5705 -0.6773  0.0288
  860MPD2    H712635   0.264   1.046  11.781 -1.0987 -1.7827 -0.9531
  861MPD2     C12636   3.343   3.984  10.824  0.9326 -0.0035  0.3594
  861MPD2    C112637   3.224   4.001  10.887 -0.0495  0.8915  0.4794
  861MPD2    C212638   3.137   4.091  10.832  0.3372 -0.1880  0.1268
  861MPD2    C312639   3.160   4.159  10.714  0.5739 -0.4265  0.6592
  861MPD2    C412640   3.272   4.132  10.643  0.1490 -0.4978  0.4492
  861MPD2    C512641   3.358   4.043  10.700  0.0436 -0.3385  0.6280
  861MPD2     H12642   3.039   4.099  10.878 -0.0873  2.0306 -1.2030
  861MPD2    H112643   3.290   4.173  10.544 -2.3357 -0.6416 -0.0774
  861MPD2    H212644   3.414   3.910  10.859 -0.4146 -0.9677  1.0712
  861MPD2    H312645   3.438   4.016  10.632 -0.1766  0.7266 -0.0492
  861MPD2     N12646   3.074   4.269  10.672  0.4082 -0.0550  0.2136
  861MPD2    H512647   3.087   4.300  10.576 -1.6241  0.0029 -0.0287
  861MPD2    N112648   3.193   3.944  11.010  0.1520  0.4437  0.1211
  861MPD2    H712649   3.103   3.976  11.045 -0.3294 -0.5341 -0.2251
  862MPD2     C12650   2.697   4.353  10.077  0.4827 -0.2374  0.0787
  862MPD2    C112651   2.788   4.287  10.168 -1.0913  0.8599 -0.3481
  862MPD2    C212652   2.824   4.157  10.150 -0.2584 -0.0869 -0.3017
  862MPD2    C312653   2.772   4.079  10.046 -0.6112  1.0070 -0.1148
  862MPD2    C412654   2.680   4.145   9.961 -0.5477 -0.1198  0.6053
  862MPD2    C512655   2.655   4.281   9.975  0.2905  0.7599 -0.1678
  862MPD2     H12656   2.879   4.101  10.225  0.4389  0.9390 -0.0518
  862MPD2    H112657   2.635   4.099   9.874 -0.4662  0.3289  0.3318
  862MPD2    H212658   2.659   4.455  10.086  1.2729 -0.0558  1.3869
  862MPD2    H312659   2.581   4.321   9.906  0.2637  0.1451 -0.4906
  862MPD2     N12660   2.788   3.940  10.051 -0.2122 -0.2194 -0.6903
  862MPD2    H512661   2.730   3.892   9.983 -1.5334  1.5838 -0.8453
  862MPD2    N112662   2.826   4.355  10.283  0.7075  0.1172 -0.0058
  862MPD2    H712663   2.907   4.317  10.331 -2.3115 -2.0920  3.3348
  863MPD2     C12664   1.099   3.036  16.886  0.8122  0.4633 -0.1565
  863MPD2    C112665   1.071   3.157  16.943  0.7859 -0.1596 -0.3833
  863MPD2    C212666   1.144   3.203  17.048  1.1884  0.4734  0.0045
  863MPD2    C312667   1.228   3.111  17.118 -0.1848  0.4600 -0.5972
  863MPD2    C412668   1.241   2.978  17.069 -0.1198 -0.3710 -0.6959
  863MPD2    C512669   1.181   2.949  16.946  0.0580  0.8404 -0.3444
  863MPD2     H12670   1.135   3.307  17.079 -3.3271  1.0304 -3.1880
  863MPD2    H112671   1.308   2.906  17.114 -0.7242 -2.4045 -3.0682
  863MPD2    H212672   1.045   3.006  16.797  1.5598  1.9599 -1.1136
  863MPD2    H312673   1.185   2.852  16.897  3.9128  0.3040  0.9781
  863MPD2     N12674   1.293   3.154  17.238 -0.1473 -0.4613  0.6760
  863MPD2    H512675   1.288   3.255  17.243 -2.9598 -0.6539  1.3091
  863MPD2    N112676   0.971   3.231  16.873 -0.5738 -0.3141  0.0474
  863MPD2    H712677   0.925   3.196  16.789 -2.2275 -1.6998  1.5192
  864MPD2     C12678   1.385   0.230  16.976 -0.1567 -0.3600  0.0400
  864MPD2    C112679   1.506   0.171  16.961 -0.3958  1.0141 -0.5270
  864MPD2    C212680   1.576   0.193  16.842  0.5990 -0.2672 -0.1703
  864MPD2    C312681   1.523   0.253  16.730 -0.3189  0.4606  1.0634
  864MPD2    C412682   1.407   0.320  16.753  0.4343  0.2404 -0.6011
  864MPD2    C512683   1.345   0.311  16.874 -0.7748  0.9371  0.6402
  864MPD2     H12684   1.673   0.144  16.840  0.5792 -0.4079  1.8967
  864MPD2    H112685   1.365   0.388  16.679  0.0828  0.8996  0.2062
  864MPD2    H212686   1.340   0.228  17.075  1.6874 -2.4551  0.8346
  864MPD2    H312687   1.255   0.372  16.882 -0.9495  0.6678  0.7324
  864MPD2     N12688   1.582   0.235  16.602  0.4993 -0.3373 -0.7258
  864MPD2    H512689   1.547   0.303  16.535 -2.0065 -1.9745 -1.0522
  864MPD2    N112690   1.538   0.070  17.059  0.0662 -0.3096  0.1597
  864MPD2    H712691   1.471   0.051  17.133  0.6403 -1.4001  0.4065
  865MPD2     C12692   1.661   4.624  15.766  0.4213  0.0956  0.2140
  865MPD2    C112693   1.671   4.612  15.902 -0.4456 -1.0807  0.5158
  865MPD2    C212694   1.647   0.007  15.985 -0.1165 -0.1514  0.7425
  865MPD2    C312695   1.644   0.129  15.924  0.2681  0.2042 -0.1538
  865MPD2    C412696   1.641   0.135  15.788 -0.1318  0.7015 -0.3873
  865MPD2    C512697   1.641   0.025  15.705  0.4325 -0.3087  0.0509
  865MPD2     H12698   1.667   4.719  16.091  1.8141  0.6719  0.4462
  865MPD2    H112699   1.628   0.235  15.747  1.6111  1.0085 -0.2061
  865MPD2    H212700   1.646   4.534  15.707 -1.0599  0.4025  0.1186
  865MPD2    H312701   1.632   0.029  15.597 -0.2284  1.3943  0.1760
  865MPD2     N12702   1.626   0.258  15.989 -0.3803  0.0221 -0.0568
  865MPD2    H512703   1.594   0.328  15.923 -1.4019 -1.6461 -1.3575
  865MPD2    N112704   1.722   4.492  15.953  0.0888  0.0428  0.1962
  865MPD2    H712705   1.761   4.430  15.883 -1.2569  0.6145 -1.0458
  866MPD2     C12706   3.626   3.875  11.381  0.2519 -0.2642 -0.0092
  866MPD2    C112707   3.657   3.917  11.253 -0.7611  0.7119 -0.0144
  866MPD2    C212708   3.582   4.012  11.183  0.0260  0.3086 -0.2735
  866MPD2    C312709   3.479   4.081  11.259  0.1337 -0.2953 -0.8902
  866MPD2    C412710   3.462   4.042  11.394  0.3794  0.2995 -0.8240
  866MPD2    C512711   3.533   3.937  11.448  0.3631  1.0404  0.1827
  866MPD2     H12712   3.602   4.035  11.079 -0.8602  4.1423  0.4029
  866MPD2    H112713   3.384   4.094  11.448  0.6022  2.1193 -2.2499
  866MPD2    H212714   3.672   3.795  11.438 -2.7211 -1.1310  1.1716
  866MPD2    H312715   3.511   3.896  11.546 -0.7671  1.0712 -0.0587
  866MPD2     N12716   3.395   4.186  11.201 -0.2116  0.2653 -0.3739
  866MPD2    H512717   3.322   4.218  11.263  0.6235  1.1290  0.1584
  866MPD2    N112718   3.760   3.843  11.189  0.0101 -0.6889  0.1797
  866MPD2    H712719   3.821   3.789  11.249  0.2255 -0.3889  0.2329
  867MPD2     C12720   0.296   4.212  16.211  0.5394  1.0002 -0.0145
  867MPD2    C112721   0.322   4.190  16.345  0.2970  0.0824  1.4245
  867MPD2    C212722   0.350   4.301  16.427  0.2277 -0.2300  0.7663
  867MPD2    C312723   0.345   4.431  16.364 -0.3595 -0.1817  0.0156
  867MPD2    C412724   0.309   4.451  16.229  0.4474 -0.0278  0.6652
  867MPD2    C512725   0.294   4.339  16.153 -0.7653 -0.3145  0.0538
  867MPD2     H12726   0.361   4.284  16.533  1.6960  0.0774  0.6633
  867MPD2    H112727   0.317   4.548  16.181 -1.3083 -0.1221  0.1859
  867MPD2    H212728   0.264   4.131  16.147  0.2882  0.0321  1.3524
  867MPD2    H312729   0.285   4.346  16.046 -0.6192 -1.8897 -0.0584
  867MPD2     N12730   0.380   4.546  16.443  0.2671 -0.3390  0.4738
  867MPD2    H512731   0.374   4.634  16.392 -0.7380 -0.4892  0.3195
  867MPD2    N112732   0.329   4.065  16.389 -0.9558  0.6438 -0.5948
  867MPD2    H712733   0.353   3.995  16.320  0.3294 -0.5438  1.0482
  868MPD2     C12734   2.970   2.863  12.911 -0.6859  0.4848  0.0233
  868MPD2    C112735   3.002   2.804  13.029 -0.1427 -0.4710 -0.3738
  868MPD2    C212736   2.934   2.839  13.141 -0.4118 -0.1612  0.5046
  868MPD2    C312737   2.847   2.943  13.135  0.2903 -0.3943  0.0667
  868MPD2    C412738   2.817   3.013  13.021 -0.7057 -0.0878 -0.1143
  868MPD2    C512739   2.884   2.972  12.911  0.1427 -0.7899  0.0709
  868MPD2     H12740   2.955   2.798  13.238  1.9434 -1.2901 -0.4927
  868MPD2    H112741   2.751   3.097  13.003  1.0536  1.7182  1.9450
  868MPD2    H212742   3.011   2.824  12.818 -1.2193  0.3729 -0.1670
  868MPD2    H312743   2.864   3.023  12.817 -0.8794 -2.1484 -0.4534
  868MPD2     N12744   2.788   2.973  13.259  0.9861 -0.1698 -0.1715
  868MPD2    H512745   2.821   2.919  13.338  1.7897  1.8323  0.8347
  868MPD2    N112746   3.099   2.703  13.022  0.1379 -0.2642 -0.1623
  868MPD2    H712747   3.140   2.673  12.934  0.9764 -1.4730  0.6240
  869MPD2     C12748   3.491   1.367   1.568 -0.5611 -0.4630 -1.0193
  869MPD2    C112749   3.546   1.471   1.641  0.6039  0.1514  0.1488
  869MPD2    C212750   3.554   1.597   1.594 -0.1074 -0.0256  0.3988
  869MPD2    C312751   3.512   1.631   1.469  0.4273 -0.3854 -1.0544
  869MPD2    C412752   3.447   1.531   1.399 -0.0066  0.6786  0.3504
  869MPD2    C512753   3.435   1.400   1.444  0.0727 -0.1799 -0.5800
  869MPD2     H12754   3.617   1.669   1.646 -0.0463 -0.3361  0.7617
  869MPD2    H112755   3.395   1.544   1.305  2.0632  1.8281 -0.6352
  869MPD2    H212756   3.484   1.265   1.604  0.2854 -1.1782 -2.8938
  869MPD2    H312757   3.380   1.328   1.385 -2.4317  0.4996  0.9505
  869MPD2     N12758   3.525   1.758   1.410 -0.5109 -0.5254 -0.6946
  869MPD2    H512759   3.487   1.768   1.316 -0.5220 -0.5266 -0.6903
  869MPD2    N112760   3.603   1.439   1.768  0.1632 -0.0438 -0.0123
  869MPD2    H712761   3.600   1.345   1.804 -2.4335  0.4573  1.0450
  870MPD2     C12762   2.562   0.087   1.906  0.3570  0.1767 -0.4504
  870MPD2    C112763   2.680   0.090   1.971 -0.2310 -0.1220 -0.0903
  870MPD2    C212764   2.798   0.118   1.899 -0.7616  0.5712  0.1732
  870MPD2    C312765   2.798   0.130   1.762  0.3212  0.4974  0.0629
  870MPD2    C412766   2.678   0.123   1.693  0.7410 -0.3752 -0.6761
  870MPD2    C512767   2.565   0.110   1.767 -0.1619  0.2697  0.2692
  870MPD2     H12768   2.896   0.097   1.942 -1.6782  1.3394  2.5866
  870MPD2    H112769   2.664   0.131   1.586  0.4759  1.4116 -0.5096
  870MPD2    H212770   2.461   0.075   1.944  0.9034 -0.8032  0.6777
  870MPD2    H312771   2.475   0.116   1.706 -0.6117  0.9361  0.9903
  870MPD2     N12772   2.924   0.130   1.685  0.0165  0.2789  0.0517
  870MPD2    H512773   3.010   0.124   1.739  0.1263  0.5017 -0.0990
  870MPD2    N112774   2.681   0.080   2.113 -0.4661 -0.4800  0.4443
  870MPD2    H712775   2.598   0.041   2.156  1.0181 -2.2582  1.7358
  871MPD2     C12776   4.421   4.567  16.607 -0.3214 -0.3245  0.2110
  871MPD2    C112777   4.338   4.500  16.695 -0.3152 -0.1728  0.0169
  871MPD2    C212778   4.359   4.368  16.713 -0.0402 -0.2467 -0.1371
  871MPD2    C312779   4.447   4.292  16.639  0.0448  0.1170  0.0608
  871MPD2    C412780   4.521   4.363  16.543 -0.0575 -0.5201  0.4103
  871MPD2    C512781   4.509   4.497  16.528  0.0888  0.8402  0.0376
  871MPD2     H12782   4.299   4.314  16.785 -1.2036  0.4705 -0.5753
  871MPD2    H112783   4.586   4.307  16.477  0.9111 -1.2608  1.9809
  871MPD2    H212784   4.407   4.674  16.593  1.8468  0.0339  0.7818
  871MPD2    H312785   4.561   4.555  16.452 -2.7073  2.3829 -0.7318
  871MPD2     N12786   4.466   4.152  16.665  0.2149 -0.4233 -0.1254
  871MPD2    H512787   4.407   4.107  16.734 -0.1111  0.7725  0.3729
  871MPD2    N112788   4.252   4.582  16.770  0.0591 -0.2108  0.6161
  871MPD2    H712789   4.264   4.681  16.755  0.3163 -0.4077 -0.5093
  872MPD2     C12790   1.156   1.910  14.342  0.3445  0.4565 -0.2464
  872MPD2    C112791   1.075   1.893  14.231 -0.5101  0.5359 -0.0704
  872MPD2    C212792   0.946   1.846  14.260  0.0836 -0.0232  0.4519
  872MPD2    C312793   0.901   1.805  14.388 -0.1964  0.1904  0.1598
  872MPD2    C412794   0.993   1.830  14.488 -0.5671 -0.1835 -0.3596
  872MPD2    C512795   1.117   1.873  14.468  0.2745 -0.0377  0.1910
  872MPD2     H12796   0.882   1.837  14.173 -0.2112  0.2654  0.6402
  872MPD2    H112797   0.958   1.826  14.590 -0.7942  2.1112 -0.3581
  872MPD2    H212798   1.263   1.927  14.339  0.7164 -2.0837 -2.6979
  872MPD2    H312799   1.181   1.895  14.553  0.0198 -1.0198  0.6269
  872MPD2     N12800   0.768   1.765  14.421 -0.2084  1.0339  0.1965
  872MPD2    H512801   0.746   1.765  14.520  1.6005  1.1655  0.6075
  872MPD2    N112802   1.127   1.906  14.098 -0.1672 -0.7878 -0.2906
  872MPD2    H712803   1.070   1.885  14.016  0.9976  0.1484 -1.3389
  873MPD2     C12804   3.193   2.332   1.645 -0.7115  0.4507  0.4563
  873MPD2    C112805   3.093   2.260   1.593  0.2053 -0.9289 -0.9483
  873MPD2    C212806   3.105   2.121   1.600 -0.4464 -0.2844  0.4658
  873MPD2    C312807   3.218   2.060   1.655 -0.0370  0.3984  0.3531
  873MPD2    C412808   3.325   2.143   1.685  0.4184 -0.5225 -0.7039
  873MPD2    C512809   3.311   2.280   1.686 -0.2758  0.1457 -0.0826
  873MPD2     H12810   3.019   2.059   1.578 -0.1255  0.3247 -2.4080
  873MPD2    H112811   3.411   2.102   1.737  0.7074  0.2270 -0.5917
  873MPD2    H212812   3.178   2.439   1.657 -1.0878  0.6712 -2.1563
  873MPD2    H312813   3.393   2.336   1.731  0.4787 -1.5285  0.6486
  873MPD2     N12814   3.236   1.924   1.677  0.1781 -0.1705  0.2934
  873MPD2    H512815   3.316   1.888   1.729 -1.3824 -0.8645  2.1986
  873MPD2    N112816   2.975   2.333   1.551 -0.3611  0.3746 -0.0522
  873MPD2    H712817   2.990   2.433   1.561  1.1615  0.3927 -2.3956
  874MPD2     C12818   1.749   2.425  16.135 -0.2436 -0.1127 -0.1865
  874MPD2    C112819   1.784   2.357  16.253 -0.8263 -0.2195 -0.2520
  874MPD2    C212820   1.859   2.433  16.341 -0.6007 -0.0725 -0.4857
  874MPD2    C312821   1.907   2.563  16.313  0.0564  0.4423 -0.6008
  874MPD2    C412822   1.882   2.618  16.189 -0.6411 -0.8098 -0.6633
  874MPD2    C512823   1.794   2.554  16.108 -0.2284  0.0026 -0.0284
  874MPD2     H12824   1.878   2.389  16.438 -0.6083 -1.9595 -1.3370
  874MPD2    H112825   1.922   2.715  16.161 -2.7283  0.1666 -0.2913
  874MPD2    H212826   1.691   2.369  16.063  0.3011  0.7279 -1.2749
  874MPD2    H312827   1.779   2.592  16.007 -1.7948  1.4561  0.7409
  874MPD2     N12828   1.992   2.631  16.408 -0.1104  0.9658 -0.0843
  874MPD2    H512829   2.011   2.580  16.494 -1.5005  0.3394 -0.1416
  874MPD2    N112830   1.727   2.224  16.276  0.3372 -0.3646 -0.4582
  874MPD2    H712831   1.667   2.189  16.202 -1.3272  2.3631 -0.4068
  875MPD2     C12832   3.374   0.533  14.751 -0.1496  0.0440 -0.3026
  875MPD2    C112833   3.247   0.501  14.788 -0.2588  0.0391  0.0293
  875MPD2    C212834   3.194   0.552  14.904  0.0810  0.4257 -0.1505
  875MPD2    C312835   3.270   0.635  14.983  0.8915 -0.1523 -0.1335
  875MPD2    C412836   3.390   0.682  14.935 -1.0061 -0.3397  0.7285
  875MPD2    C512837   3.439   0.641  14.813 -0.5737  0.3717 -0.9341
  875MPD2     H12838   3.090   0.530  14.925 -0.0317  0.2180 -0.9132
  875MPD2    H112839   3.453   0.749  14.992  1.5057 -1.1307 -1.1263
  875MPD2    H212840   3.427   0.502  14.662 -1.3061 -0.7536 -0.7083
  875MPD2    H312841   3.540   0.667  14.785 -0.7391 -0.1926 -2.0552
  875MPD2     N12842   3.221   0.687  15.107  0.2389  0.3213  0.8084
  875MPD2    H512843   3.280   0.756  15.152 -0.5446  0.5676  1.4451
  875MPD2    N112844   3.155   0.427  14.717  0.5442 -0.4290 -0.0121
  875MPD2    H712845   3.060   0.433  14.755 -0.3713 -0.4640 -2.2987
  876MPD2     C12846   1.721   1.720  16.144 -0.0910  0.0148  0.0662
  876MPD2    C112847   1.852   1.736  16.176  0.2262  0.5494 -0.2159
  876MPD2    C212848   1.917   1.626  16.223 -0.3154 -0.6354 -0.7419
  876MPD2    C312849   1.860   1.510  16.256 -0.8887 -0.1809 -0.3432
  876MPD2    C412850   1.722   1.507  16.250 -0.4698  0.7206 -0.4466
  876MPD2    C512851   1.660   1.607  16.190 -0.1145 -0.1152 -0.4655
  876MPD2     H12852   2.024   1.643  16.229 -0.0840 -1.3076 -3.0287
  876MPD2    H112853   1.659   1.422  16.274 -0.0474  0.6058  0.2646
  876MPD2    H212854   1.665   1.794  16.089 -1.7340 -1.0633  0.3123
  876MPD2    H312855   1.553   1.603  16.172 -0.3880 -1.9979  1.5307
  876MPD2     N12856   1.933   1.402  16.305  0.1682  0.0144 -0.2577
  876MPD2    H512857   2.033   1.418  16.309 -0.1264  2.1921 -1.5067
  876MPD2    N112858   1.909   1.862  16.146  0.2190 -0.5300  0.0988
  876MPD2    H712859   1.846   1.923  16.095 -0.7637  0.1619  2.1374
  877MPD2     C12860   1.926   2.239  15.581  0.2787  0.0179 -0.3421
  877MPD2    C112861   2.053   2.279  15.633  0.3997  0.2418 -0.6144
  877MPD2    C212862   2.155   2.307  15.543  0.2651 -0.6224 -0.1837
  877MPD2    C312863   2.122   2.317  15.406  0.0509  0.4468  0.4979
  877MPD2    C412864   1.994   2.280  15.366  0.4146 -0.0803 -0.1101
  877MPD2    C512865   1.891   2.240  15.452 -0.2038 -0.0414 -0.8296
  877MPD2     H12866   2.256   2.329  15.576  0.8383  0.1264 -2.4030
  877MPD2    H112867   1.962   2.282  15.262 -1.7652  0.1997  0.5588
  877MPD2    H212868   1.844   2.202  15.641 -1.3828  1.2754 -1.8618
  877MPD2    H312869   1.792   2.208  15.421  0.1057 -2.0377  0.2504
  877MPD2     N12870   2.212   2.357  15.310  0.4791 -0.4405 -0.2144
  877MPD2    H512871   2.183   2.350  15.214 -0.4058 -1.2676  0.1174
  877MPD2    N112872   2.088   2.278  15.767  0.1944 -0.5309 -0.3142
  877MPD2    H712873   2.179   2.315  15.793 -0.0678  0.5879 -0.9820
  878MPD2     C12874   1.918   1.099  13.506  0.1413 -0.0286 -0.0422
  878MPD2    C112875   2.004   1.197  13.477  0.4808  0.8546  0.2776
  878MPD2    C212876   2.018   1.305  13.566  0.6652  0.0012 -1.0011
  878MPD2    C312877   1.956   1.305  13.690  0.0857  0.2302  0.1936
  878MPD2    C412878   1.867   1.210  13.714  0.0154 -0.1119 -0.0353
  878MPD2    C512879   1.841   1.112  13.620  1.0604 -0.0244 -0.4071
  878MPD2     H12880   2.091   1.382  13.545  1.8238 -1.1289 -1.1086
  878MPD2    H112881   1.806   1.213  13.804  0.2277 -0.1998  0.1119
  878MPD2    H212882   1.908   1.012  13.443  0.0397  1.4552 -2.0861
  878MPD2    H312883   1.766   1.035  13.636 -0.3481  0.9222 -2.5081
  878MPD2     N12884   1.994   1.409  13.781 -0.0055  0.1104  0.5729
  878MPD2    H512885   2.076   1.467  13.767 -0.2413  0.4303  0.5343
  878MPD2    N112886   2.048   1.201  13.341 -0.2839 -0.5239  0.0292
  878MPD2    H712887   2.005   1.134  13.279  1.4304 -0.1594 -1.5500
  879MPD2     C12888   1.745   3.420  17.113 -0.0694 -0.3680  0.3177
  879MPD2    C112889   1.816   3.327  17.193  0.0450 -0.2342  0.5087
  879MPD2    C212890   1.785   3.190  17.191  0.2588 -0.0740  0.9583
  879MPD2    C312891   1.672   3.146  17.113 -0.5786  0.1203 -0.3528
  879MPD2    C412892   1.603   3.234  17.032  0.2275 -0.6873  0.1481
  879MPD2    C512893   1.637   3.366  17.035  0.8172  0.3889 -0.2263
  879MPD2     H12894   1.831   3.110  17.248  1.3161 -0.2217 -0.1075
  879MPD2    H112895   1.518   3.205  16.971 -0.1459  0.2989  0.2022
  879MPD2    H212896   1.764   3.527  17.114  2.4104 -0.8326  1.8478
  879MPD2    H312897   1.597   3.442  16.969 -0.7426  0.7720  1.1643
  879MPD2     N12898   1.633   3.015  17.104 -0.2434  0.0838 -0.0071
  879MPD2    H512899   1.554   2.996  17.043 -0.1500  1.5090 -0.5651
  879MPD2    N112900   1.928   3.378  17.264  0.0182 -0.3796 -0.1413
  879MPD2    H712901   1.948   3.476  17.249  0.1559 -0.3326  0.3570
  880MPD2     C12902   4.209   0.445   0.437 -0.1488 -0.2767 -0.4541
  880MPD2    C112903   4.103   0.373   0.494  0.4858  0.7254 -0.5467
  880MPD2    C212904   4.123   0.235   0.506 -0.4837  0.0215 -0.4211
  880MPD2    C312905   4.231   0.172   0.448 -0.6414 -0.0413 -0.3575
  880MPD2    C412906   4.317   0.250   0.379 -0.7220 -0.0192 -0.7594
  880MPD2    C512907   4.312   0.383   0.376 -0.7212 -0.4064  0.4206
  880MPD2     H12908   4.050   0.172   0.555 -0.7304  1.3858  0.9498
  880MPD2    H112909   4.390   0.200   0.317  1.7634  0.5335  1.7162
  880MPD2    H212910   4.200   0.549   0.409  0.4039 -0.9398 -3.0635
  880MPD2    H312911   4.377   0.451   0.322 -1.0565  0.7536  1.4621
  880MPD2     N12912   4.236   0.029   0.463 -0.6124 -0.2943 -0.2826
  880MPD2    H512913   4.158   4.713   0.517 -1.2196 -0.8135 -1.5031
  880MPD2    N112914   3.986   0.447   0.524  0.3893 -0.6366 -0.2344
  880MPD2    H712915   3.982   0.537   0.479 -1.5407 -0.7775 -0.3624
  881MPD2     C12916   3.269   0.858  17.660  0.5803  0.9827 -0.1208
  881MPD2    C112917   3.349   0.745  17.647 -0.1901 -0.0886 -0.2749
  881MPD2    C212918   3.422   0.701   0.069  0.1423 -0.1124  0.7514
  881MPD2    C312919   3.387   0.737   0.197  0.0699 -0.2502 -0.4082
  881MPD2    C412920   3.282   0.827   0.218  1.3211 -0.1349 -0.1934
  881MPD2    C512921   3.227   0.884   0.101  0.0526 -0.2968  0.8417
  881MPD2     H12922   3.499   0.628   0.046  0.8060  0.6083  0.7006
  881MPD2    H112923   3.260   0.867   0.316  1.1039 -1.6450  0.3599
  881MPD2    H212924   3.219   0.895  17.571  0.2183  0.3798 -0.1662
  881MPD2    H312925   3.157   0.965   0.113  1.2629  0.7533  0.7402
  881MPD2     N12926   3.447   0.685   0.318  0.0633  0.0034  0.6690
  881MPD2    H512927   3.407   0.707   0.409  0.7488  0.1151  0.9438
  881MPD2    N112928   3.393   0.714  17.514  0.5307 -0.6656  0.0965
  881MPD2    H712929   3.360   0.771  17.437  3.0364  1.3819  0.5625
  882MPD2     C12930   2.438   2.088  14.654 -0.7023 -0.1673 -0.2402
  882MPD2    C112931   2.357   2.185  14.715 -0.3064 -0.5836  0.0759
  882MPD2    C212932   2.223   2.198  14.671  0.5233  0.2281 -0.4309
  882MPD2    C312933   2.176   2.110  14.575  0.9425 -0.3831  0.0955
  882MPD2    C412934   2.258   2.020  14.515 -0.3023 -0.0490 -1.0019
  882MPD2    C512935   2.387   2.011  14.556  0.6422  0.5427 -0.4263
  882MPD2     H12936   2.161   2.272  14.720  1.1203 -0.4869  1.4317
  882MPD2    H112937   2.211   1.950  14.446 -2.1684 -0.2014  0.4232
  882MPD2    H212938   2.540   2.081  14.689  0.1789  1.4274 -2.4639
  882MPD2    H312939   2.457   1.938  14.517  1.9949 -0.1710  3.2765
  882MPD2     N12940   2.037   2.104  14.541  0.3055 -0.0891  0.0509
  882MPD2    H512941   2.008   2.031  14.476  1.1149  0.1237 -0.5545
  882MPD2    N112942   2.417   2.264  14.817 -0.1451  0.1717  0.5725
  882MPD2    H712943   2.512   2.239  14.844  0.7371  1.4014 -1.4240
  883MPD2     C12944   4.044   2.143  16.566 -0.7341  0.1833 -0.1334
  883MPD2    C112945   4.103   2.195  16.445 -0.2454 -0.7911  0.3627
  883MPD2    C212946   4.180   2.307  16.446  0.1512 -0.1040 -0.3140
  883MPD2    C312947   4.224   2.358  16.566  0.3961 -0.5596 -0.2617
  883MPD2    C412948   4.165   2.313  16.680  0.0925 -0.3203 -0.4807
  883MPD2    C512949   4.076   2.209  16.684  0.2935  0.4683 -0.6201
  883MPD2     H12950   4.228   2.337  16.354 -1.0632  1.3104 -0.4753
  883MPD2    H112951   4.179   2.364  16.774  0.9926 -2.2014  0.3858
  883MPD2    H212952   3.974   2.060  16.572  0.3837 -0.7993 -0.8363
  883MPD2    H312953   4.033   2.189  16.782  4.3350  0.3227  1.1402
  883MPD2     N12954   4.297   2.470  16.550  0.3697 -0.4841  0.1804
  883MPD2    H512955   4.318   2.511  16.460 -1.7329  1.5039  0.6039
  883MPD2    N112956   4.098   2.125  16.319  0.2293 -0.4906  0.4383
  883MPD2    H712957   4.148   2.169  16.243  1.8157 -1.6648  0.7961
  884MPD2     C12958   0.288   3.211  15.485  0.0120 -0.2619 -0.0357
  884MPD2    C112959   0.340   3.236  15.360  0.2409  0.2334  0.1336
  884MPD2    C212960   0.247   3.261  15.259  0.1953  0.3237  0.5510
  884MPD2    C312961   0.115   3.222  15.269  0.3860  0.5001  0.2529
  884MPD2    C412962   0.074   3.175  15.392  0.0416 -0.5719  0.1697
  884MPD2    C512963   0.161   3.173  15.493 -0.6505  0.2602 -1.2334
  884MPD2     H12964   0.290   3.274  15.161  2.3915 -0.7838  1.3541
  884MPD2    H112965   4.696   3.137  15.415  0.4683 -1.4870  0.4817
  884MPD2    H212966   0.346   3.204  15.577 -0.3029  1.7872  0.3231
  884MPD2    H312967   0.122   3.146  15.591  1.2283  1.3697 -0.1836
  884MPD2     N12968   0.020   3.223  15.160 -0.6313  0.2045  0.3266
  884MPD2    H512969   0.054   3.266  15.075 -1.7522 -0.9736 -0.7176
  884MPD2    N112970   0.479   3.257  15.342 -0.0323 -0.1719  0.0962
  884MPD2    H712971   0.511   3.306  15.260 -0.0022  1.4044  1.0422
  885MPD2     C12972   4.354   3.538   1.103 -0.3769 -0.6598  0.1022
  885MPD2    C112973   4.390   3.411   1.056 -0.1608  0.8898  0.3646
  885MPD2    C212974   4.385   3.397   0.922 -0.8231  0.1699 -0.0917
  885MPD2    C312975   4.338   3.489   0.832  0.0573  0.0018  0.6702
  885MPD2    C412976   4.303   3.614   0.880  0.2177 -0.4361 -0.6196
  885MPD2    C512977   4.320   3.633   1.013 -0.5568  0.2244  0.5477
  885MPD2     H12978   4.402   3.298   0.882 -1.9929  0.4220 -1.1732
  885MPD2    H112979   4.290   3.704   0.820 -0.9897 -1.3025 -1.6398
  885MPD2    H212980   4.364   3.557   1.209  0.0061 -0.3513  0.0140
  885MPD2    H312981   4.288   3.731   1.048 -0.2427 -0.8630  3.9217
  885MPD2     N12982   4.319   3.450   0.699  0.6922 -0.1564 -0.3314
  885MPD2    H512983   4.346   3.354   0.681  0.3954 -0.5522  1.3748
  885MPD2    N112984   4.441   3.315   1.139  0.2971 -0.0086  0.3102
  885MPD2    H712985   4.456   3.226   1.093  1.6612  0.0082  0.7457
  886MPD2     C12986   0.854   1.130  15.285 -0.2197 -0.0189  0.3621
  886MPD2    C112987   0.897   1.219  15.386  0.2113  0.1370 -0.7995
  886MPD2    C212988   0.892   1.354  15.359  1.1309  0.4264 -0.1244
  886MPD2    C312989   0.862   1.405  15.233  0.3745 -0.4152  0.0123
  886MPD2    C412990   0.829   1.314  15.134 -0.4437  0.6587  0.0766
  886MPD2    C512991   0.825   1.179  15.164 -0.9780  0.5255 -0.1654
  886MPD2     H12992   0.905   1.416  15.446  2.0628  0.4290 -0.2681
  886MPD2    H112993   0.806   1.336  15.031  0.2290  0.2066 -0.1733
  886MPD2    H212994   0.864   1.023  15.300  2.6753 -0.0822 -1.9194
  886MPD2    H312995   0.801   1.114  15.080 -0.1254 -2.1058  1.6517
  886MPD2     N12996   0.868   1.544  15.204  0.2969  0.3469  0.4589
  886MPD2    H512997   0.856   1.564  15.105 -1.4547 -0.1038  0.5885
  886MPD2    N112998   0.914   1.177  15.515 -0.0960 -0.1414  0.0367
  886MPD2    H712999   0.936   1.248  15.584  2.2969 -1.1740  0.3602
  887MPD2     C13000   1.436   1.421  15.900  0.0022  0.0835  0.1576
  887MPD2    C113001   1.297   1.439  15.883 -0.4124 -0.6081  0.8730
  887MPD2    C213002   1.252   1.572  15.877 -0.2097 -0.5812  0.8492
  887MPD2    C313003   1.333   1.680  15.888 -0.0802  0.3670 -0.6030
  887MPD2    C413004   1.466   1.657  15.896  0.8110  0.0096 -0.9746
  887MPD2    C513005   1.516   1.531  15.904 -0.2468  0.3641  0.6055
  887MPD2     H13006   1.146   1.578  15.856 -0.0198 -0.1454 -0.0069
  887MPD2    H113007   1.538   1.735  15.917  2.6564 -1.2460 -2.6937
  887MPD2    H213008   1.483   1.324  15.915  0.0550  0.1494  0.4255
  887MPD2    H313009   1.623   1.514  15.896 -0.5060 -0.5580 -0.9252
  887MPD2     N13010   1.284   1.812  15.883 -0.4676 -0.3575 -0.5565
  887MPD2    H513011   1.182   1.812  15.877 -0.5372  0.4233  0.7486
  887MPD2    N113012   1.207   1.325  15.868  0.6342 -0.5561 -0.3022
  887MPD2    H713013   1.114   1.344  15.832  0.2961 -2.2953 -0.3329
  888MPD2     C13014   3.328   1.644  15.191 -0.0511  0.4760 -0.5424
  888MPD2    C113015   3.257   1.708  15.290  0.2034 -0.0815 -0.2235
  888MPD2    C213016   3.283   1.839  15.324  0.4486  0.7905  0.1887
  888MPD2    C313017   3.391   1.906  15.266 -0.1189 -0.3479  0.6340
  888MPD2    C413018   3.464   1.848  15.167  0.1390  0.1550  0.3063
  888MPD2    C513019   3.433   1.710  15.139 -0.2746 -0.3018 -0.7438
  888MPD2     H13020   3.227   1.885  15.405  0.6431 -0.5346  1.0730
  888MPD2    H113021   3.549   1.895  15.120  0.8659 -1.5633 -0.1058
  888MPD2    H213022   3.317   1.540  15.163 -0.2455  0.9944 -2.4189
  888MPD2    H313023   3.493   1.649  15.073  0.8584 -1.9596  1.8250
  888MPD2     N13024   3.414   2.034  15.306  0.3178 -0.3605  0.2566
  888MPD2    H513025   3.336   2.074  15.358  1.3255 -1.6045  2.7414
  888MPD2    N113026   3.159   1.640  15.367 -0.0532  0.0361  0.0718
  888MPD2    H713027   3.137   1.677  15.458 -0.4530 -2.9688  1.1846
  889MPD2     C13028   2.865   0.767  12.794  0.5706  1.1384 -0.0296
  889MPD2    C113029   2.932   0.727  12.909 -0.0784 -0.6222 -0.2367
  889MPD2    C213030   3.023   0.816  12.967 -0.1536 -0.3339  0.7305
  889MPD2    C313031   3.069   0.914  12.894 -0.2099 -0.0512  0.3065
  889MPD2    C413032   3.017   0.940  12.769 -0.4477 -0.2466  0.3836
  889MPD2    C513033   2.921   0.862  12.714 -0.4009 -0.1581  0.2372
  889MPD2     H13034   3.082   0.783  13.052  0.6562  1.7345  0.9804
  889MPD2    H113035   3.044   1.023  12.705  2.1035 -1.1633  0.2967
  889MPD2    H213036   2.789   0.707  12.745  0.9276  0.8772 -0.2658
  889MPD2    H313037   2.889   0.887  12.613 -2.4636  0.9021  1.1637
  889MPD2     N13038   3.163   0.999  12.960 -0.6040  0.0234 -0.6596
  889MPD2    H513039   3.167   0.976  13.059  0.2159  0.3383 -0.6205
  889MPD2    N113040   2.872   0.637  13.003 -0.0848  0.0332 -0.0021
  889MPD2    H713041   2.926   0.630  13.089 -0.7472 -2.6185  0.2272
  890MPD2     C13042   2.534   3.193  15.112 -0.0692  0.3745 -0.1899
  890MPD2    C113043   2.418   3.171  15.046  0.5256 -0.2662 -0.1056
  890MPD2    C213044   2.345   3.059  15.076  0.3110  0.1630  0.4364
  890MPD2    C313045   2.374   2.978  15.186  0.5220  0.2492  0.1201
  890MPD2    C413046   2.501   2.993  15.243 -0.3041  0.7627  0.0933
  890MPD2    C513047   2.576   3.106  15.213  0.0618  0.3620 -0.3474
  890MPD2     H13048   2.252   3.039  15.023  1.4613 -1.6695 -0.8685
  890MPD2    H113049   2.533   2.930  15.325 -0.4062 -0.6311 -0.9380
  890MPD2    H213050   2.589   3.284  15.092  1.9388 -1.2367 -1.9758
  890MPD2    H313051   2.668   3.122  15.268  0.3808  0.9321 -1.0333
  890MPD2     N13052   2.293   2.865  15.233 -0.4737 -0.4964 -0.3716
  890MPD2    H513053   2.338   2.820  15.312  0.3943 -0.2633 -0.7320
  890MPD2    N113054   2.371   3.266  14.949  0.0640  0.0724  0.2931
  890MPD2    H713055   2.426   3.350  14.934  1.6817 -0.6710  2.0910
  891MPD2     C13056   0.044   1.355  16.650  1.1312 -0.1038 -0.2435
  891MPD2    C113057   4.719   1.441  16.739 -0.5957  0.1859 -0.0019
  891MPD2    C213058   0.053   1.439  16.865 -0.2241 -0.6161 -0.4488
  891MPD2    C313059   0.165   1.369  16.905  0.4862  0.8072 -0.1683
  891MPD2    C413060   0.217   1.285  16.806  0.0593  0.0017 -0.0075
  891MPD2    C513061   0.155   1.279  16.684 -0.5730  0.0899  0.4740
  891MPD2     H13062   0.006   1.506  16.936  0.1191  0.2892 -1.0793
  891MPD2    H113063   0.310   1.231  16.820 -0.7497 -0.7888  2.3344
  891MPD2    H213064   0.001   1.364  16.550  0.2195  2.0292  0.3592
  891MPD2    H313065   0.200   1.208  16.616 -1.0950 -0.4006  0.6359
  891MPD2     N13066   0.222   1.396  17.032  0.2074  0.2204 -0.4564
  891MPD2    H513067   0.179   1.460  17.098 -0.5576 -0.6932 -0.0836
  891MPD2    N113068   4.609   1.516  16.699  0.4863  0.9741 -0.5093
  891MPD2    H713069   4.593   1.519  16.599 -1.0992 -1.3624 -0.3356
  892MPD2     C13070   1.240   2.272  15.069  0.3053  0.5322  0.3244
  892MPD2    C113071   1.192   2.284  14.940  0.1318  0.3521  0.2610
  892MPD2    C213072   1.292   2.274  14.840  0.6361 -0.6252 -0.3041
  892MPD2    C313073   1.425   2.252  14.856  0.4175 -0.6935 -0.4806
  892MPD2    C413074   1.468   2.240  14.991  0.2908 -0.6873 -0.3708
  892MPD2    C513075   1.375   2.258  15.088  0.4227 -0.2599  0.2383
  892MPD2     H13076   1.262   2.301  14.739  0.5616  0.6160  0.0497
  892MPD2    H113077   1.573   2.233  15.017  0.2479 -0.7724 -0.2250
  892MPD2    H213078   1.174   2.275  15.155  0.5165  0.2125  0.5002
  892MPD2    H313079   1.413   2.243  15.188  0.7748 -3.4616 -0.3983
  892MPD2     N13080   1.515   2.234  14.748 -0.1869  0.2810 -0.4084
  892MPD2    H513081   1.609   2.220  14.783 -0.6100 -2.0272 -0.1661
  892MPD2    N113082   1.056   2.313  14.909  0.6473  0.0974 -0.0351
  892MPD2    H713083   1.046   2.348  14.814 -2.3218  1.3613  0.7176
  893MPD2     C13084   2.411   0.339   2.065  0.6062  0.0121 -0.1993
  893MPD2    C113085   2.515   0.372   2.144 -0.6014  0.4157 -0.8617
  893MPD2    C213086   2.522   0.329   2.276 -0.4875 -0.4542  0.7748
  893MPD2    C313087   2.422   0.251   2.328 -0.7433 -0.8023  0.1565
  893MPD2    C413088   2.315   0.209   2.247 -0.1507 -0.4455 -0.3084
  893MPD2    C513089   2.311   0.259   2.114  0.2957  0.7715  0.0115
  893MPD2     H13090   2.610   0.350   2.336  0.7162  3.9133 -2.5410
  893MPD2    H113091   2.229   0.161   2.292  0.2041 -1.3893 -0.6385
  893MPD2    H213092   2.399   0.369   1.962 -1.1308 -0.6056 -0.1743
  893MPD2    H313093   2.226   0.236   2.050 -0.3623  3.4144 -0.0903
  893MPD2     N13094   2.419   0.218   2.466  0.2715  0.4510  0.0976
  893MPD2    H513095   2.343   0.155   2.487  0.2081  0.5807  0.2543
  893MPD2    N113096   2.617   0.453   2.079 -0.5534  0.0637  0.2642
  893MPD2    H713097   2.587   0.481   1.986  1.6250  2.0975  0.1804
  894MPD2     C13098   0.855   3.455   0.864  0.4063  0.0342 -0.3222
  894MPD2    C113099   0.879   3.525   0.983  0.3959  0.2366 -0.2992
  894MPD2    C213100   0.814   3.646   0.995  0.1745  0.5235 -0.2388
  894MPD2    C313101   0.744   3.707   0.889 -0.0404  0.7817 -0.0941
  894MPD2    C413102   0.729   3.639   0.771 -0.0765 -0.1859  0.2781
  894MPD2    C513103   0.792   3.518   0.753 -0.0238 -0.6626  0.2342
  894MPD2     H13104   0.818   3.685   1.096 -0.6387 -1.2884  0.5038
  894MPD2    H113105   0.678   3.685   0.687 -1.4833 -0.7122  0.8417
  894MPD2    H213106   0.888   3.351   0.857  1.3359  0.2815  0.4534
  894MPD2    H313107   0.773   3.472   0.657  0.1137 -1.1076  0.4197
  894MPD2     N13108   0.676   3.815   0.924  0.1187  0.4974 -0.2904
  894MPD2    H513109   0.699   3.858   1.014  1.7606 -0.8607 -0.0685
  894MPD2    N113110   0.950   3.480   1.100  0.4881 -0.1135 -0.1396
  894MPD2    H713111   0.961   3.547   1.175  0.3568  1.4333 -1.5132
  895MPD2     C13112   0.698   0.608  13.888  0.1455  0.1113 -0.3289
  895MPD2    C113113   0.774   0.575  13.777 -0.0566 -0.8246  0.2054
  895MPD2    C213114   0.854   0.467  13.788 -0.7853  0.3482 -0.5492
  895MPD2    C313115   0.889   0.408  13.910  0.1329 -0.4670 -0.1372
  895MPD2    C413116   0.818   0.452  14.017 -0.2844  0.9074 -0.0783
  895MPD2    C513117   0.719   0.543  14.010 -0.3462 -0.3148  0.4948
  895MPD2     H13118   0.922   0.445  13.707 -0.3280 -0.3673  0.0371
  895MPD2    H113119   0.842   0.413  14.115  3.6592  1.4155 -0.8134
  895MPD2    H213120   0.627   0.690  13.888  1.4997  1.2722 -3.1520
  895MPD2    H313121   0.666   0.582  14.096  2.0983 -0.8677  2.2803
  895MPD2     N13122   0.989   0.312  13.936 -0.0043  0.1861 -0.7512
  895MPD2    H513123   1.004   0.286  14.033 -0.8603  0.3145 -0.5820
  895MPD2    N113124   0.781   0.660  13.663 -0.1630  0.9638  0.1043
  895MPD2    H713125   0.817   0.618  13.578 -2.5408  2.1530 -1.5217
  896MPD2     C13126   1.833   4.204   2.196  0.4964  0.0705 -0.1441
  896MPD2    C113127   1.864   4.119   2.091 -0.5900  0.1200 -0.5979
  896MPD2    C213128   1.767   4.089   2.000 -0.5836 -0.3846 -0.8865
  896MPD2    C313129   1.645   4.147   2.008  0.3367  0.0874  0.0746
  896MPD2    C413130   1.614   4.233   2.113  0.8706 -0.2749 -0.0007
  896MPD2    C513131   1.704   4.250   2.218  0.2930 -0.4235  0.2933
  896MPD2     H13132   1.794   4.026   1.917 -1.3152 -1.6882 -0.1300
  896MPD2    H113133   1.516   4.278   2.121  1.0245  0.3113 -1.4132
  896MPD2    H213134   1.910   4.227   2.269  0.6159 -2.1267  0.4275
  896MPD2    H313135   1.693   4.308   2.308 -1.6951 -0.0818 -0.1591
  896MPD2     N13136   1.552   4.110   1.906 -0.3991 -0.4510 -0.3658
  896MPD2    H513137   1.569   4.029   1.846 -0.3358  0.3844 -1.4693
  896MPD2    N113138   1.998   4.079   2.089 -0.0191 -0.2691 -0.1241
  896MPD2    H713139   2.057   4.133   2.151 -0.0694  1.2956 -1.4516
  897MPD2     C13140   3.696   0.287   9.985  0.5773 -0.5710  0.6530
  897MPD2    C113141   3.624   0.381  10.049 -0.7953 -0.4979 -0.1238
  897MPD2    C213142   3.557   0.344  10.165  0.0507  0.0132 -0.4090
  897MPD2    C313143   3.565   0.216  10.217 -0.4810  0.0575 -0.0091
  897MPD2    C413144   3.648   0.128  10.152 -0.1682 -0.2629  0.5161
  897MPD2    C513145   3.711   0.157  10.037 -0.1154 -0.8368  0.7037
  897MPD2     H13146   3.495   0.414  10.220 -1.5423 -1.7995  0.1187
  897MPD2    H113147   3.655   0.027  10.190  1.2556  0.2339  1.5790
  897MPD2    H213148   3.745   0.319   9.894 -0.8452  1.5868  0.6340
  897MPD2    H313149   3.775   0.083   9.990 -1.3552 -0.6768 -1.2584
  897MPD2     N13150   3.508   0.198  10.342  0.3352 -0.2932 -0.2764
  897MPD2    H513151   3.451   0.272  10.382  1.2901  0.0127  0.5011
  897MPD2    N113152   3.621   0.504   9.993  0.5355  0.1437  0.0023
  897MPD2    H713153   3.676   0.521   9.909  1.4003 -1.9030  0.1769
  898MPD2     C13154   1.192   1.524   0.104 -0.9042  0.0648  0.6155
  898MPD2    C113155   1.246   1.652   0.099 -0.3798  1.4929 -0.0903
  898MPD2    C213156   1.174   1.750   0.031 -0.7165 -0.2113  0.2854
  898MPD2    C313157   1.052   1.722  17.647  0.6190 -0.3075  0.1627
  898MPD2    C413158   1.015   1.584  17.637  0.1318 -0.1790  0.2511
  898MPD2    C513159   1.081   1.491   0.029  0.3995  1.0237 -0.8219
  898MPD2     H13160   1.217   1.849   0.035 -1.7816  0.2451  0.3119
  898MPD2    H113161   0.924   1.551  17.587 -0.0288 -0.3174  0.6340
  898MPD2    H213162   1.253   1.443   0.144  0.5513  1.0640  0.4527
  898MPD2    H313163   1.045   1.389   0.029  3.7147 -0.1321 -1.7486
  898MPD2     N13164   0.972   1.825  17.587 -0.2205  0.3263 -0.4014
  898MPD2    H513165   1.006   1.920  17.591  0.1278  0.1410  1.1834
  898MPD2    N113166   1.366   1.687   0.173 -0.3523 -0.3761 -0.2924
  898MPD2    H713167   1.402   1.781   0.184  0.5211 -1.0432  2.7170
  899MPD2     C13168   1.844   2.692  17.510 -1.1541 -0.2990  0.5575
  899MPD2    C113169   1.801   2.787  17.597  0.3848 -0.0446  0.0959
  899MPD2    C213170   1.809   2.757   0.045 -0.0823  0.0516 -0.3359
  899MPD2    C313171   1.854   2.630   0.095  0.2900  0.1725 -0.2101
  899MPD2    C413172   1.908   2.540   0.004  0.2744 -0.4824 -0.5269
  899MPD2    C513173   1.903   2.574  17.554  0.0719 -0.2393 -0.1254
  899MPD2     H13174   1.786   2.827   0.124 -0.7959 -1.4884  0.8048
  899MPD2    H113175   1.936   2.440   0.035 -1.0919 -1.1937 -1.5984
  899MPD2    H213176   1.822   2.706  17.405  0.8735 -0.9223  0.0343
  899MPD2    H313177   1.924   2.497  17.480 -3.6739 -1.7369  0.3277
  899MPD2     N13178   1.852   2.583   0.230 -0.4594 -0.0398 -0.3460
  899MPD2    H513179   1.914   2.505   0.249 -0.8406  0.1621  1.6186
  899MPD2    N113180   1.762   2.909  17.543 -0.4284 -0.7347  0.1904
  899MPD2    H713181   1.760   2.918  17.442  1.1403  1.3187  0.3511
  900MPD2     C13182   1.999   3.587  12.360 -0.0270  0.2077 -0.6148
  900MPD2    C113183   1.930   3.485  12.299 -0.4741 -0.6067 -0.0079
  900MPD2    C213184   1.795   3.483  12.322  0.3468  0.0608  0.0754
  900MPD2    C313185   1.731   3.578  12.400  0.7462  0.0419  0.2120
  900MPD2    C413186   1.807   3.675  12.468  0.0480 -0.8580  0.0302
  900MPD2    C513187   1.940   3.674  12.443 -0.2895  0.4348 -0.3678
  900MPD2     H13188   1.729   3.417  12.266 -0.7841  1.2466  0.0371
  900MPD2    H113189   1.764   3.737  12.546  1.1780 -1.2296  0.9434
  900MPD2    H213190   2.107   3.574  12.368 -0.1767 -0.6738 -0.0334
  900MPD2    H313191   2.006   3.740  12.499 -1.1784 -1.2175  2.6253
  900MPD2     N13192   1.593   3.572  12.405 -0.2216 -0.8049 -0.0162
  900MPD2    H513193   1.554   3.495  12.351 -0.3140  0.8058 -2.2423
  900MPD2    N113194   2.005   3.377  12.245 -0.3825 -0.1035 -0.0953
  900MPD2    H713195   2.104   3.397  12.240  0.0765 -1.5959  2.9866
  901MPD2     C13196   1.658   2.492  11.951  0.6809 -0.0107 -0.1388
  901MPD2    C113197   1.776   2.475  12.018  0.6226  0.2142  0.4606
  901MPD2    C213198   1.855   2.583  12.037 -0.3572  0.4560  0.1891
  901MPD2    C313199   1.823   2.710  12.000 -1.2148  0.0537  0.7437
  901MPD2    C413200   1.701   2.732  11.948  0.0224  0.1198  0.9055
  901MPD2    C513201   1.627   2.622  11.923 -0.5528 -0.2381 -0.1807
  901MPD2     H13202   1.954   2.557  12.074  0.6405  0.9233 -2.1786
  901MPD2    H113203   1.669   2.827  11.908 -2.1402 -1.1016 -0.3053
  901MPD2    H213204   1.593   2.407  11.933  1.0801 -0.6501  1.4557
  901MPD2    H313205   1.526   2.641  11.887 -0.2659  2.1636  0.2612
  901MPD2     N13206   1.906   2.821  12.026  0.2679  0.3094  0.1659
  901MPD2    H513207   1.874   2.917  12.017 -0.7312  0.0626  1.1377
  901MPD2    N113208   1.811   2.348  12.065  0.4527  0.5529 -0.8945
  901MPD2    H713209   1.752   2.270  12.037  2.5163 -0.7128 -1.6861
  902MPD2     C13210   0.651   0.877  12.815 -0.2270  0.4006 -0.0916
  902MPD2    C113211   0.693   1.004  12.856 -0.2135  0.3813 -0.4477
  902MPD2    C213212   0.831   1.030  12.858 -0.0452 -0.6075  0.6952
  902MPD2    C313213   0.911   0.940  12.793  0.7459 -0.0079 -0.2432
  902MPD2    C413214   0.869   0.810  12.769  0.6076 -0.2025 -0.0857
  902MPD2    C513215   0.739   0.782  12.776  0.2688  0.1575  0.6990
  902MPD2     H13216   0.865   1.129  12.886  2.0956 -1.4308  1.0463
  902MPD2    H113217   0.940   0.732  12.744 -2.1662 -1.7395 -3.1476
  902MPD2    H213218   0.548   0.845  12.825  0.0345  0.2251  2.0774
  902MPD2    H313219   0.702   0.686  12.742 -1.8150  0.5476  1.8424
  902MPD2     N13220   1.049   0.964  12.766  0.6002 -0.6671  0.6163
  902MPD2    H513221   1.102   0.880  12.742  1.8407  0.3946 -0.3719
  902MPD2    N113222   0.599   1.098  12.896 -0.4913 -0.1862 -0.4626
  902MPD2    H713223   0.509   1.071  12.860 -0.1361  0.1100 -1.5667
  903MPD2     C13224   1.067   1.510  12.241 -0.3965 -0.2555 -0.4262
  903MPD2    C113225   1.083   1.378  12.223  0.3702  0.4160  0.3025
  903MPD2    C213226   1.017   1.316  12.116  0.2671 -0.0525  0.2200
  903MPD2    C313227   0.934   1.387  12.032  0.1860 -0.6346 -0.2035
  903MPD2    C413228   0.911   1.520  12.050  0.3934 -0.1124  0.5873
  903MPD2    C513229   0.987   1.577  12.156 -0.3279 -0.4815  0.4724
  903MPD2     H13230   1.039   1.213  12.091  1.7500 -0.1661  1.9828
  903MPD2    H113231   0.844   1.585  11.994  1.4228 -0.8028 -1.4333
  903MPD2    H213232   1.099   1.555  12.334 -2.7888 -1.4830  0.9950
  903MPD2    H313233   0.969   1.679  12.188  0.0386 -0.5427  0.8725
  903MPD2     N13234   0.866   1.304  11.939 -0.7687  0.5100 -0.3175
  903MPD2    H513235   0.867   1.203  11.951  4.7375  0.7763  1.6522
  903MPD2    N113236   1.158   1.307  12.316  0.1320  0.8017 -0.3524
  903MPD2    H713237   1.230   1.353  12.370  1.3673  0.6744 -1.8957
  904MPD2     C13238   0.452   0.710  14.423  0.6838 -0.5075 -0.7342
  904MPD2    C113239   0.530   0.762  14.320 -0.2522  0.7183  0.4947
  904MPD2    C213240   0.660   0.803  14.347 -0.0205  0.3660 -0.5124
  904MPD2    C313241   0.711   0.782  14.472 -0.0421  0.1887  0.6146
  904MPD2    C413242   0.634   0.733  14.574 -0.3532 -0.1869 -0.7801
  904MPD2    C513243   0.508   0.691  14.548  0.6499  0.1539 -0.4205
  904MPD2     H13244   0.730   0.846  14.275 -0.3321 -0.5518 -1.3591
  904MPD2    H113245   0.664   0.714  14.676 -0.3822  1.5561 -0.4578
  904MPD2    H213246   0.353   0.665  14.411  0.8791 -1.2331  0.3401
  904MPD2    H313247   0.450   0.657  14.632 -1.4284  0.9411 -1.5310
  904MPD2     N13248   0.851   0.802  14.478 -0.4569  0.1161  0.2163
  904MPD2    H513249   0.898   0.821  14.390  0.1041  1.3569  0.7907
  904MPD2    N113250   0.487   0.772  14.183 -0.1806  0.0949 -0.6128
  904MPD2    H713251   0.544   0.813  14.110 -0.1123  1.2888  0.0942
  905MPD2     C13252   0.522   0.449  13.391 -0.2602 -0.0767  0.1898
  905MPD2    C113253   0.514   0.447  13.532 -0.2939 -0.9810 -0.8377
  905MPD2    C213254   0.593   0.356  13.596  0.3672  0.1868  0.2071
  905MPD2    C313255   0.671   0.264  13.528 -1.0400 -0.0463 -0.8451
  905MPD2    C413256   0.673   0.263  13.390  0.4384  0.1548 -0.9692
  905MPD2    C513257   0.599   0.360  13.323  0.0357 -0.5135  1.0379
  905MPD2     H13258   0.609   0.372  13.702  0.5807  1.8358 -0.0736
  905MPD2    H113259   0.726   0.186  13.335  1.5102 -0.1078  0.4283
  905MPD2    H213260   0.465   0.518  13.330 -0.8146  2.2687  3.3294
  905MPD2    H313261   0.599   0.366  13.215 -3.1921 -0.9427  1.0289
  905MPD2     N13262   0.752   0.181  13.608 -0.2324  0.0208  0.1263
  905MPD2    H513263   0.733   0.187  13.708  0.7696 -1.1936  0.3858
  905MPD2    N113264   0.419   0.523  13.594 -0.0726  0.1936 -0.5180
  905MPD2    H713265   0.367   0.586  13.534  0.0148 -0.1125 -0.9079
  906MPD2     C13266   2.609   0.510  11.404  0.0850  0.2551 -0.0824
  906MPD2    C113267   2.556   0.432  11.301  0.2492 -0.2156 -0.4907
  906MPD2    C213268   2.502   0.306  11.335  0.1057 -0.4159 -0.2252
  906MPD2    C313269   2.506   0.257  11.462 -0.2835 -0.3238  0.4036
  906MPD2    C413270   2.554   0.340  11.566  0.8126 -0.3001 -0.0189
  906MPD2    C513271   2.597   0.468  11.535 -0.2254  0.9894  0.0038
  906MPD2     H13272   2.466   0.248  11.251 -0.7551 -1.4234  0.8377
  906MPD2    H113273   2.564   0.311  11.670  1.0576 -0.4880 -0.0963
  906MPD2    H213274   2.653   0.609  11.393 -1.2822  1.0187  1.2736
  906MPD2    H313275   2.629   0.537  11.612  1.1600 -0.2343  0.5339
  906MPD2     N13276   2.470   0.124  11.497 -0.4167 -0.0193 -0.1452
  906MPD2    H513277   2.449   0.098  11.593 -1.3822  0.0849 -0.3310
  906MPD2    N113278   2.536   0.471  11.171  0.5344 -0.2644  0.5608
  906MPD2    H713279   2.510   0.397  11.107 -0.4483  2.3469 -2.0599
  907MPD2     C13280   1.281   0.309  15.810 -0.0839 -0.2242 -0.2226
  907MPD2    C113281   1.264   0.173  15.817  0.0479 -0.5751 -0.5571
  907MPD2    C213282   1.256   0.105  15.940  0.3491  0.1998 -0.9397
  907MPD2    C313283   1.277   0.177  16.053 -0.6325  0.5786 -0.3603
  907MPD2    C413284   1.307   0.313  16.049  0.0549  0.5588 -0.7140
  907MPD2    C513285   1.311   0.376  15.926  0.4245 -0.0319  0.0827
  907MPD2     H13286   1.223   0.002  15.931  1.0739 -0.2987  2.1907
  907MPD2    H113287   1.335   0.375  16.133 -0.7623 -0.5876  0.4001
  907MPD2    H213288   1.282   0.365  15.717  0.6596 -0.3059 -0.2636
  907MPD2    H313289   1.333   0.482  15.926  0.1544  0.0205 -3.4391
  907MPD2     N13290   1.268   0.103  16.173  0.3707  0.2990  0.2087
  907MPD2    H513291   1.242   0.008  16.147  1.4822  0.3774 -1.1222
  907MPD2    N113292   1.245   0.103  15.693 -0.2195 -0.2109  0.1138
  907MPD2    H713293   1.238   0.002  15.695 -0.5293 -0.2268 -1.5117
  908MPD2     C13294   3.559   0.674   9.145 -0.1111 -0.2280 -0.3087
  908MPD2    C113295   3.448   0.622   9.215 -0.3170  0.4066 -0.8870
  908MPD2    C213296   3.444   0.648   9.351  0.2578 -0.9178 -0.7768
  908MPD2    C313297   3.538   0.726   9.415 -0.2105  0.2769 -0.2187
  908MPD2    C413298   3.642   0.774   9.341 -0.0252 -0.3589 -0.0277
  908MPD2    C513299   3.652   0.747   9.209 -0.3211 -0.0838  0.1692
  908MPD2     H13300   3.363   0.593   9.399 -0.8654  0.8160 -0.6961
  908MPD2    H113301   3.729   0.819   9.386  0.5792 -2.4685  0.9146
  908MPD2    H213302   3.564   0.658   9.038 -0.1062 -1.1142 -0.1775
  908MPD2    H313303   3.741   0.780   9.156 -0.1431  0.3376  0.7307
  908MPD2     N13304   3.530   0.750   9.558 -0.2313  0.0620  0.0811
  908MPD2    H513305   3.455   0.711   9.614  1.0568 -1.9393  0.4234
  908MPD2    N113306   3.351   0.537   9.162 -0.0465 -0.3294  0.3541
  908MPD2    H713307   3.297   0.486   9.231  2.3642 -1.6716  1.2433
  909MPD2     C13308   4.585   3.704  11.795 -0.3610 -0.4516  0.3539
  909MPD2    C113309   4.478   3.701  11.707  0.2636  0.5669 -0.2210
  909MPD2    C213310   4.350   3.740  11.750  0.0535  0.6634 -0.0276
  909MPD2    C313311   4.330   3.774  11.883 -0.1981  0.4768  0.0931
  909MPD2    C413312   4.443   3.786  11.965  0.3860  0.1142  0.0764
  909MPD2    C513313   4.570   3.757  11.913  0.3638  0.7527 -0.4656
  909MPD2     H13314   4.262   3.732  11.687 -0.1530  1.7879  0.1299
  909MPD2    H113315   4.430   3.816  12.069 -1.2702 -1.2182  0.2367
  909MPD2    H213316   4.684   3.667  11.769 -0.7398  1.5892 -3.9821
  909MPD2    H313317   4.660   3.761  11.973  0.6102 -0.4455 -0.7526
  909MPD2     N13318   4.195   3.793  11.928 -0.4141 -0.2474  0.3056
  909MPD2    H513319   4.128   3.781  11.853 -0.0737 -1.0556  0.1289
  909MPD2    N113320   4.495   3.674  11.565  0.0695 -0.3581  0.1161
  909MPD2    H713321   4.409   3.682  11.511 -0.2737 -0.7322  0.6191
  910MPD2     C13322   0.411   0.959  15.835  0.4466 -0.7765  0.4918
  910MPD2    C113323   0.516   0.893  15.776 -0.5041 -0.1925 -0.6175
  910MPD2    C213324   0.523   0.890  15.638  0.6674  0.4998 -0.6252
  910MPD2    C313325   0.432   0.961  15.566 -0.0588 -0.4341 -0.2623
  910MPD2    C413326   0.339   1.043  15.621  0.0866 -0.7593  0.5023
  910MPD2    C513327   0.322   1.033  15.757  0.7181 -0.2007  0.2813
  910MPD2     H13328   0.599   0.826  15.595 -0.1177 -1.3846  0.8025
  910MPD2    H113329   0.256   1.087  15.567  1.1854 -0.7400 -1.1588
  910MPD2    H213330   0.389   0.946  15.940  2.1608  1.5968  1.1469
  910MPD2    H313331   0.235   1.070  15.809 -0.1607  0.1340 -1.4435
  910MPD2     N13332   0.423   0.938  15.426  0.0464  0.0867  0.7298
  910MPD2    H513333   0.347   0.989  15.381 -0.8439 -1.6315  0.2780
  910MPD2    N113334   0.598   0.807  15.848  0.1693  0.0872  0.8110
  910MPD2    H713335   0.658   0.741  15.800 -0.2346  2.0720 -2.4008
  911MPD2     C13336   2.864   1.447  16.820 -0.4240 -0.7008  0.4748
  911MPD2    C113337   2.948   1.556  16.822  0.0066  0.4750  0.4569
  911MPD2    C213338   2.892   1.671  16.779  1.0580 -0.1882 -0.6030
  911MPD2    C313339   2.755   1.691  16.761 -0.5010 -0.4767  0.2490
  911MPD2    C413340   2.673   1.577  16.763  0.2817 -0.2408 -0.2490
  911MPD2    C513341   2.735   1.458  16.773  0.0122 -0.1501 -0.3609
  911MPD2     H13342   2.956   1.758  16.768  1.4306 -0.4671 -0.6345
  911MPD2    H113343   2.566   1.589  16.746 -0.2405  0.4729  3.5006
  911MPD2    H213344   2.903   1.348  16.840  1.4285 -0.3110 -1.2268
  911MPD2    H313345   2.672   1.370  16.771 -0.7614  0.4363 -1.3631
  911MPD2     N13346   2.694   1.820  16.743 -0.1161  0.1401 -0.7457
  911MPD2    H513347   2.593   1.826  16.737 -0.3286 -0.3570  2.2676
  911MPD2    N113348   3.085   1.527  16.835 -0.3478 -0.0997 -0.5978
  911MPD2    H713349   3.099   1.427  16.846 -0.6564  0.0401  1.0645
  912MPD2     C13350   2.608   1.581  16.267 -0.0937 -0.2006  0.0242
  912MPD2    C113351   2.537   1.622  16.377  0.6566  0.4499 -0.6121
  912MPD2    C213352   2.487   1.524  16.458 -0.4307 -0.2331  0.0473
  912MPD2    C313353   2.510   1.394  16.441  0.1714  0.2489 -0.4978
  912MPD2    C413354   2.585   1.350  16.332  0.6255 -0.1275  0.4323
  912MPD2    C513355   2.627   1.446  16.246  0.4917 -0.2653 -0.0600
  912MPD2     H13356   2.435   1.555  16.548  1.7497  1.0434  0.8618
  912MPD2    H113357   2.608   1.245  16.317 -0.4011 -0.1030 -1.3788
  912MPD2    H213358   2.625   1.658  16.193  0.0545 -1.0825 -0.8600
  912MPD2    H313359   2.698   1.410  16.172 -1.9986 -1.1114 -2.0512
  912MPD2     N13360   2.462   1.305  16.537  0.1689  0.1151  0.1661
  912MPD2    H513361   2.423   1.342  16.623 -0.3992 -0.0314 -0.0320
  912MPD2    N113362   2.523   1.761  16.401  0.0337 -0.1849 -0.3688
  912MPD2    H713363   2.555   1.826  16.330 -1.0593  0.7538 -0.0045
  913MPD2     C13364   3.831   1.858  10.534  0.1402 -0.0876 -0.4314
  913MPD2    C113365   3.899   1.974  10.567 -0.6336  0.2528 -0.0901
  913MPD2    C213366   3.865   2.083  10.495  0.3879 -0.2281 -0.6329
  913MPD2    C313367   3.757   2.089  10.409 -0.1438  0.1777  0.5824
  913MPD2    C413368   3.689   1.973  10.382 -0.4060 -0.0685  0.2918
  913MPD2    C513369   3.727   1.859  10.445 -0.7243  0.0512 -1.0436
  913MPD2     H13370   3.928   2.170  10.510 -0.1964  0.3434 -1.5298
  913MPD2    H113371   3.603   1.967  10.316  1.5671  1.0379 -2.3341
  913MPD2    H213372   3.843   1.765  10.588 -0.6830  0.0348 -0.0331
  913MPD2    H313373   3.663   1.773  10.429 -0.6232 -0.0974 -0.6503
  913MPD2     N13374   3.719   2.196  10.327  0.4102  1.0756 -0.5750
  913MPD2    H513375   3.631   2.193  10.276 -0.1910 -0.7752  0.5739
  913MPD2    N113376   4.001   1.966  10.667  0.2302 -0.2651 -0.6086
  913MPD2    H713377   4.022   1.872  10.698  2.0803 -0.4445 -2.3627
  914MPD2     C13378   1.593   1.729  11.643  0.5439  0.1436 -0.4063
  914MPD2    C113379   1.586   1.865  11.646 -0.4167 -0.3299  0.1843
  914MPD2    C213380   1.624   1.919  11.764 -0.1922 -0.7229  0.3773
  914MPD2    C313381   1.667   1.841  11.870  0.3528  0.4621  0.0273
  914MPD2    C413382   1.676   1.704  11.863  0.5968  0.6046  0.4239
  914MPD2    C513383   1.638   1.649  11.749  0.0644  0.4671 -0.0989
  914MPD2     H13384   1.606   2.023  11.787  1.5001  0.1028 -2.1361
  914MPD2    H113385   1.691   1.637  11.947 -0.5553 -0.0284  0.1286
  914MPD2    H213386   1.564   1.679  11.552 -0.2868 -0.1769  0.0361
  914MPD2    H313387   1.624   1.541  11.745  1.2122  0.2025  3.4342
  914MPD2     N13388   1.697   1.912  11.988  0.4809 -0.1758 -0.1495
  914MPD2    H513389   1.683   2.012  11.992  1.3407  0.1004 -3.9350
  914MPD2    N113390   1.532   1.942  11.542 -0.1672  0.4514 -0.3414
  914MPD2    H713391   1.512   1.904  11.450 -0.6466  0.4376 -0.2322
  915MPD2     C13392   4.398   2.913  16.127  0.2196 -0.5057 -0.0432
  915MPD2    C113393   4.262   2.894  16.110 -0.2419  0.6627  0.2817
  915MPD2    C213394   4.179   2.928  16.217 -0.1424  0.6171 -0.6813
  915MPD2    C313395   4.227   3.000  16.324 -0.2506 -0.2915  0.4805
  915MPD2    C413396   4.363   3.026  16.338  0.4503  0.6010 -0.3138
  915MPD2    C513397   4.441   2.974  16.245 -0.7313 -0.0791 -0.6566
  915MPD2     H13398   4.071   2.922  16.207 -0.5267  2.3180  2.2869
  915MPD2    H113399   4.406   3.081  16.421  0.4639  0.3483 -0.1509
  915MPD2    H213400   4.475   2.864  16.069 -0.5447  0.4760 -1.8812
  915MPD2    H313401   4.548   2.989  16.248 -0.4317 -2.5506  1.1649
  915MPD2     N13402   4.135   3.033  16.428 -0.0571  0.1107 -0.1198
  915MPD2    H513403   4.036   3.009  16.419 -0.2387  0.4926  0.9150
  915MPD2    N113404   4.217   2.817  16.002  0.6243  0.2869  0.1617
  915MPD2    H713405   4.281   2.788  15.929  1.7072  2.9893  0.0427
  916MPD2     C13406   2.462   1.229  15.967 -1.0774 -0.0001 -0.3430
  916MPD2    C113407   2.393   1.117  16.014 -0.5922  0.2763  0.9789
  916MPD2    C213408   2.404   0.996  15.948  1.0627  0.6904  0.7012
  916MPD2    C313409   2.470   0.989  15.829 -0.0844  0.9290 -0.5439
  916MPD2    C413410   2.538   1.099  15.792  0.2238  0.5566  0.2608
  916MPD2    C513411   2.536   1.220  15.852  0.0517 -0.1010 -0.0333
  916MPD2     H13412   2.360   0.902  15.979  2.6574 -0.6866 -1.2223
  916MPD2    H113413   2.590   1.104  15.697  2.8425  0.9392  1.7208
  916MPD2    H213414   2.455   1.328  16.011  1.9167 -0.4953  1.2384
  916MPD2    H313415   2.596   1.305  15.821 -2.3651  1.9614  1.0076
  916MPD2     N13416   2.477   0.870  15.761  0.2196 -0.5245 -0.6701
  916MPD2    H513417   2.430   0.793  15.807  1.0519 -1.1421 -0.8515
  916MPD2    N113418   2.319   1.137  16.135  0.7347  0.1572 -0.3670
  916MPD2    H713419   2.329   1.230  16.174  2.4055 -0.2492  0.2028
  917MPD2     C13420   3.899   2.997  11.313  0.4096 -0.7405 -0.1767
  917MPD2    C113421   3.784   3.066  11.295  0.0041  0.6116  0.5062
  917MPD2    C213422   3.772   3.142  11.183 -0.2189  0.1522  0.3678
  917MPD2    C313423   3.875   3.151  11.090  0.5894  0.3777 -0.3314
  917MPD2    C413424   3.986   3.070  11.100  0.1462  0.4367 -0.2973
  917MPD2    C513425   4.000   3.001  11.213  0.0189 -0.0514  0.0164
  917MPD2     H13426   3.680   3.195  11.163 -0.5728 -0.3346  0.7292
  917MPD2    H113427   4.067   3.067  11.029  1.5004  1.2286  1.2145
  917MPD2    H213428   3.914   2.927  11.394 -1.1341 -0.1681  0.6061
  917MPD2    H313429   4.090   2.939  11.220 -1.2653 -2.1431 -2.0241
  917MPD2     N13430   3.874   3.248  10.988 -0.5714  0.6569  0.4713
  917MPD2    H513431   3.951   3.249  10.921 -0.6997  1.2670  0.3362
  917MPD2    N113432   3.681   3.050  11.391 -0.3840  0.0706 -0.2794
  917MPD2    H713433   3.701   3.003  11.479  1.4804 -1.7033 -1.6326
  918MPD2     C13434   3.524   3.487  12.158 -0.1179  0.1385  0.7854
  918MPD2    C113435   3.622   3.402  12.119 -0.7390  0.5831  0.5439
  918MPD2    C213436   3.602   3.345  11.994  0.7615  0.6818  0.4160
  918MPD2    C313437   3.484   3.344  11.928  0.9300  0.9026  0.5139
  918MPD2    C413438   3.392   3.434  11.972 -0.4945 -0.2200 -0.6173
  918MPD2    C513439   3.410   3.510  12.084 -0.0678  0.9607 -0.9184
  918MPD2     H13440   3.687   3.284  11.964 -0.7751 -1.3373  0.2130
  918MPD2    H113441   3.291   3.452  11.937 -0.4289  1.2471 -0.0574
  918MPD2    H213442   3.530   3.551  12.245 -1.3624  0.5571  0.5739
  918MPD2    H313443   3.332   3.581  12.107 -0.3639 -1.2167  4.6463
  918MPD2     N13444   3.468   3.259  11.816 -0.2644  0.0656  0.8351
  918MPD2    H513445   3.550   3.214  11.779 -0.8459  1.3220 -1.9480
  918MPD2    N113446   3.731   3.360  12.193 -0.6558 -0.0639 -0.9241
  918MPD2    H713447   3.795   3.299  12.143 -2.5215 -0.6910 -2.5136
  919MPD2     C13448   4.058   2.050  11.617  0.5386  0.5670  0.0520
  919MPD2    C113449   3.998   1.933  11.584 -0.4693  0.6406 -0.5833
  919MPD2    C213450   3.941   1.921  11.459  0.0473  0.0684 -0.0645
  919MPD2    C313451   3.947   2.027  11.370  0.5999 -0.8177 -0.3966
  919MPD2    C413452   4.011   2.142  11.408 -0.6627 -0.2324  0.1055
  919MPD2    C513453   4.078   2.157  11.527  0.6982 -0.0405  0.5186
  919MPD2     H13454   3.898   1.828  11.426  2.1505 -0.6317 -0.8311
  919MPD2    H113455   4.019   2.224  11.338  0.0011 -0.7859 -0.4738
  919MPD2    H213456   4.076   2.081  11.720 -2.2156  1.0816  0.3762
  919MPD2    H313457   4.110   2.256  11.558 -0.3303 -0.0591  1.6583
  919MPD2     N13458   3.882   2.024  11.247  0.1397 -0.0084  0.1998
  919MPD2    H513459   3.904   2.105  11.190  0.4356  0.9979  1.7609
  919MPD2    N113460   3.972   1.824  11.667 -0.1711 -0.1222 -0.2448
  919MPD2    H713461   3.931   1.739  11.628  1.3789 -0.0751 -1.9507
  920MPD2     C13462   3.573   2.556  10.488 -0.0652 -0.5391  0.3893
  920MPD2    C113463   3.494   2.441  10.469  0.1600 -0.9461  0.1082
  920MPD2    C213464   3.522   2.336  10.550 -0.1312  0.1284  0.0773
  920MPD2    C313465   3.617   2.346  10.647  0.9212  0.7185 -0.1754
  920MPD2    C413466   3.677   2.467  10.682  0.2191 -0.0537 -1.1623
  920MPD2    C513467   3.659   2.569  10.594 -0.1357  0.5261  0.3388
  920MPD2     H13468   3.472   2.241  10.534  1.8483 -0.5821 -1.7718
  920MPD2    H113469   3.758   2.477  10.753  0.7996 -2.5729 -1.4724
  920MPD2    H213470   3.557   2.639  10.420 -2.4443 -1.1005  0.2440
  920MPD2    H313471   3.709   2.664  10.611  1.2396 -0.4056  1.5406
  920MPD2     N13472   3.639   2.228  10.720  0.2637 -0.1684 -0.3401
  920MPD2    H513473   3.596   2.142  10.687 -0.7207  0.7251 -1.3927
  920MPD2    N113474   3.390   2.435  10.374  0.3945 -0.0109  0.0092
  920MPD2    H713475   3.337   2.350  10.359 -0.2400  0.4987 -0.6548
  921MPD2     C13476   3.973   2.013  17.024 -0.4048 -0.3834 -0.1565
  921MPD2    C113477   3.976   1.921  16.923 -0.0228 -0.0847  0.1073
  921MPD2    C213478   3.872   1.831  16.900 -0.3974  0.4467 -0.3834
  921MPD2    C313479   3.759   1.839  16.975 -0.1977  0.4426  0.2305
  921MPD2    C413480   3.754   1.945  17.069  0.2387  0.7275  0.0689
  921MPD2    C513481   3.861   2.023  17.094 -0.0017  0.1156 -0.3416
  921MPD2     H13482   3.881   1.748  16.831  1.1407 -0.1104  0.4834
  921MPD2    H113483   3.672   1.954  17.140 -0.8930  1.6679 -1.3799
  921MPD2    H213484   4.064   2.062  17.057  0.4635 -1.6485 -0.6645
  921MPD2    H313485   3.860   2.092  17.177  2.1850  2.3328 -2.1654
  921MPD2     N13486   3.653   1.735  16.982  0.4359 -0.1308 -0.6654
  921MPD2    H513487   3.568   1.770  17.025  0.2864  1.4479 -2.2357
  921MPD2    N113488   4.105   1.910  16.855 -0.1106  0.5456  0.5865
  921MPD2    H713489   4.183   1.969  16.883  0.0310 -0.1291  1.6222
  922MPD2     C13490   4.573   4.138  17.285 -1.0281  0.7384 -0.8842
  922MPD2    C113491   4.449   4.198  17.263  0.4222  0.2475 -0.1267
  922MPD2    C213492   4.343   4.128  17.325  0.2019 -0.3370  0.2598
  922MPD2    C313493   4.354   4.014  17.402 -0.9068  0.3659 -0.2711
  922MPD2    C413494   4.472   3.954  17.425  0.1905 -0.1257 -0.8673
  922MPD2    C513495   4.580   4.028  17.370  0.3932 -0.1450 -0.2987
  922MPD2     H13496   4.240   4.160  17.316 -0.5384 -2.9598 -0.7484
  922MPD2    H113497   4.491   3.877  17.499  1.1395  2.1822  1.2863
  922MPD2    H213498   4.668   4.181  17.256 -1.3551  1.1636 -1.3190
  922MPD2    H313499   4.680   3.995  17.393  0.6652  1.2040  0.4495
  922MPD2     N13500   4.244   3.955  17.466  0.5878  0.3451 -0.0696
  922MPD2    H513501   4.153   3.997  17.454 -0.4226 -1.0802  2.5692
  922MPD2    N113502   4.432   4.324  17.198  0.0815 -0.1663 -0.0445
  922MPD2    H713503   4.333   4.343  17.185  0.2157 -0.1443 -1.1091
  923MPD2     C13504   2.464   0.671   9.835 -0.2869  0.5636 -0.3734
  923MPD2    C113505   2.429   0.790   9.780 -0.3544  0.2434 -0.3690
  923MPD2    C213506   2.484   0.914   9.820 -0.1669  0.3911  0.5456
  923MPD2    C313507   2.586   0.904   9.917 -0.4451  0.5952 -0.3997
  923MPD2    C413508   2.613   0.783   9.979 -0.2866 -0.7505 -0.7320
  923MPD2    C513509   2.551   0.667   9.938  0.0820  0.0673  0.0330
  923MPD2     H13510   2.457   1.004   9.766 -0.7104  0.6237  1.2014
  923MPD2    H113511   2.684   0.765  10.059 -0.3419 -0.7472 -0.6826
  923MPD2    H213512   2.411   0.581   9.804 -0.5316  0.5056  0.2147
  923MPD2    H313513   2.574   0.571   9.983 -0.9180 -0.8427 -1.4035
  923MPD2     N13514   2.665   1.014   9.964 -0.1492  0.1736 -0.4091
  923MPD2    H513515   2.734   0.982  10.031  0.7993  1.0320 -0.9721
  923MPD2    N113516   2.333   0.773   9.675  0.2355  0.7742  0.1868
  923MPD2    H713517   2.308   0.676   9.656  0.3117  0.6005  0.9629
  924MPD2     C13518   1.043   4.001  16.159 -0.4210 -1.1325  0.1610
  924MPD2    C113519   0.984   4.050  16.277 -0.1448 -0.1513  0.0341
  924MPD2    C213520   1.019   4.174  16.324 -0.1301 -0.6268  0.1557
  924MPD2    C313521   1.110   4.252  16.259 -0.0813  0.4756  0.5260
  924MPD2    C413522   1.152   4.207  16.136 -0.0252 -0.4096  0.2045
  924MPD2    C513523   1.115   4.086  16.085 -0.5023 -0.0094 -0.0776
  924MPD2     H13524   0.981   4.203  16.422 -1.4448  0.8425 -0.7819
  924MPD2    H113525   1.225   4.268  16.082 -0.4762  1.3992  1.6341
  924MPD2    H213526   1.014   3.905  16.117 -2.3225 -1.0248  1.2328
  924MPD2    H313527   1.157   4.045  15.994 -0.8825 -1.6781  0.5043
  924MPD2     N13528   1.153   4.378  16.305  0.1550 -0.4083 -0.0298
  924MPD2    H513529   1.221   4.434  16.254  1.2722 -3.8786 -2.3183
  924MPD2    N113530   0.882   3.970  16.339  0.3840  0.0911  0.4542
  924MPD2    H713531   0.884   3.872  16.314  1.0726  0.7865 -2.2055
  925MPD2     C13532   0.319   2.189  14.860 -0.4196  0.1324  0.2810
  925MPD2    C113533   0.234   2.097  14.802 -0.2670 -0.2205 -0.1187
  925MPD2    C213534   0.101   2.088  14.834 -0.2888 -0.4234 -0.0715
  925MPD2    C313535   0.057   2.175  14.932 -0.5183 -0.0412 -0.1463
  925MPD2    C413536   0.144   2.257  15.002 -0.0578  0.4627 -0.3667
  925MPD2    C513537   0.274   2.266  14.966 -0.0061  0.9892  0.3854
  925MPD2     H13538   0.033   2.021  14.783  1.1539 -0.9446 -1.3179
  925MPD2    H113539   0.111   2.326  15.079  0.0785  1.7279 -1.4392
  925MPD2    H213540   0.414   2.211  14.813  0.0305  0.1659  1.2125
  925MPD2    H313541   0.328   2.329  15.036  1.6818  0.9200 -0.8388
  925MPD2     N13542   4.644   2.161  14.992  0.8284 -0.5860  0.5202
  925MPD2    H513543   4.630   2.209  15.081 -1.3921 -2.7067  1.3112
  925MPD2    N113544   0.282   2.011  14.704 -0.4612 -0.1364  0.7041
  925MPD2    H713545   0.217   1.941  14.671 -0.7492  0.2337  0.4885
  926MPD2     C13546   3.731   4.570  13.186  0.4792  0.1778  0.0872
  926MPD2    C113547   3.798   4.650  13.268  0.2322  0.1664 -0.0316
  926MPD2    C213548   3.898   0.017  13.222 -0.6111  0.5607  0.2939
  926MPD2    C313549   3.937   0.013  13.093  0.4383 -0.1923 -0.1760
  926MPD2    C413550   3.867   4.649  13.009  0.1383 -0.6332 -0.4292
  926MPD2    C513551   3.773   4.567  13.056 -0.0099  0.2102  0.2244
  926MPD2     H13552   3.945   0.086  13.291  2.0986 -1.7303  0.7885
  926MPD2    H113553   3.899   4.642  12.905 -0.8130  0.0071 -0.7693
  926MPD2    H213554   3.670   4.485  13.215  1.1885 -0.0386  0.9537
  926MPD2    H313555   3.721   4.497  12.993 -0.5186 -0.1958  1.0926
  926MPD2     N13556   4.044   0.087  13.036 -0.3120 -0.0259 -0.1151
  926MPD2    H513557   4.061   0.094  12.936 -0.3019  1.3487 -0.0189
  926MPD2    N113558   3.783   4.652  13.408  0.1369 -0.0485 -0.1127
  926MPD2    H713559   3.858   4.704  13.452  1.6921  0.3283 -3.2089
  927MPD2     C13560   3.821   3.372   0.351  0.2068 -0.1151 -0.1272
  927MPD2    C113561   3.702   3.429   0.330 -0.4717  0.1167 -0.5837
  927MPD2    C213562   3.661   3.402   0.199  0.1063  0.0377  0.3009
  927MPD2    C313563   3.715   3.305   0.115 -0.5334  0.4254 -0.5571
  927MPD2    C413564   3.835   3.241   0.156  0.2815 -0.0062 -0.1058
  927MPD2    C513565   3.895   3.288   0.269  0.5054  0.2313  0.3554
  927MPD2     H13566   3.576   3.460   0.166  0.1829  0.6684  1.2169
  927MPD2    H113567   3.892   3.176   0.090  1.7959  0.8398  0.3779
  927MPD2    H213568   3.862   3.400   0.448  2.5411  0.2574 -1.2211
  927MPD2    H313569   3.987   3.240   0.300 -0.6224 -1.6154  0.8123
  927MPD2     N13570   3.660   3.289  17.672 -0.3748 -0.1440  0.5389
  927MPD2    H513571   3.587   3.354  17.644  1.5094  0.9715 -1.7659
  927MPD2    N113572   3.639   3.497   0.436  0.5415  0.2485  0.4887
  927MPD2    H713573   3.672   3.481   0.531  0.2026  1.1523  0.7591
  928MPD2     C13574   2.198   0.994   1.327  0.0718  0.6832  0.1185
  928MPD2    C113575   2.303   1.077   1.291  0.2141 -0.1633  0.1466
  928MPD2    C213576   2.297   1.130   1.163  0.3165 -0.6939  0.5224
  928MPD2    C313577   2.199   1.110   1.074 -0.3104 -0.2883  0.4621
  928MPD2    C413578   2.099   1.024   1.108  0.4892  0.8614 -0.6907
  928MPD2    C513579   2.104   0.960   1.229  0.2575  0.0233 -0.2340
  928MPD2     H13580   2.375   1.204   1.154  0.4770 -0.9496 -0.1590
  928MPD2    H113581   2.012   1.004   1.046  0.1275 -0.4653  0.2669
  928MPD2    H213582   2.185   0.946   1.423  0.4502  1.3320  0.4942
  928MPD2    H313583   2.017   0.910   1.269  0.9645 -0.8623  0.1880
  928MPD2     N13584   2.204   1.159   0.939 -0.2162 -0.3066  0.2246
  928MPD2    H513585   2.124   1.143   0.879  0.9277 -3.4943 -0.4483
  928MPD2    N113586   2.396   1.116   1.396  0.1973  0.4807  0.5074
  928MPD2    H713587   2.391   1.063   1.483  0.9494 -0.6427 -0.1341
  929MPD2     C13588   1.896   0.217  10.605  0.0946  0.4841  0.6224
  929MPD2    C113589   1.803   0.131  10.664  0.4423 -0.1266  0.3868
  929MPD2    C213590   1.684   0.107  10.592 -0.1854 -0.7076  0.5693
  929MPD2    C313591   1.654   0.167  10.473  0.4337 -0.5331  0.3320
  929MPD2    C413592   1.751   0.251  10.416  1.0206 -0.4313  0.9201
  929MPD2    C513593   1.873   0.266  10.478 -0.3269 -0.5286 -0.0752
  929MPD2     H13594   1.629   0.024  10.636  0.1427 -1.4836 -0.4807
  929MPD2    H113595   1.738   0.314  10.328 -1.8858 -1.8206  0.3340
  929MPD2    H213596   1.991   0.243  10.651  1.3430 -1.2893 -0.9793
  929MPD2    H313597   1.956   0.316  10.430  0.8767  0.0652  2.6072
  929MPD2     N13598   1.534   0.148  10.405 -0.2132 -0.0221 -0.1369
  929MPD2    H513599   1.522   0.209  10.325 -3.3004  1.3002  1.3348
  929MPD2    N113600   1.823   0.072  10.789  0.3146  0.2391 -0.2244
  929MPD2    H713601   1.913   0.077  10.837  0.9280 -1.9193 -1.1251
  930MPD2     C13602   3.330   2.845  14.324 -0.6109 -0.2583  0.5376
  930MPD2    C113603   3.332   2.951  14.233 -0.5981 -0.7040  1.0231
  930MPD2    C213604   3.313   2.926  14.100 -0.1295  0.0061 -0.7621
  930MPD2    C313605   3.294   2.802  14.050 -0.2521  0.6317  0.6189
  930MPD2    C413606   3.305   2.693  14.138  0.7717  0.6301 -0.1691
  930MPD2    C513607   3.323   2.718  14.272 -1.2934 -0.4432 -0.0555
  930MPD2     H13608   3.281   3.007  14.035  1.1568  0.4638 -0.8208
  930MPD2    H113609   3.287   2.591  14.108 -0.8475  0.3886  1.6446
  930MPD2    H213610   3.328   2.861  14.431  0.7458 -1.8641  0.7955
  930MPD2    H313611   3.338   2.630  14.334 -2.9277 -0.1127  0.8080
  930MPD2     N13612   3.278   2.785  13.912  0.3637  0.4909  0.0462
  930MPD2    H513613   3.276   2.870  13.856 -1.4016  1.2926  1.3117
  930MPD2    N113614   3.338   3.089  14.268  0.3763  0.1644 -0.2167
  930MPD2    H713615   3.342   3.157  14.193 -0.6069 -0.0024 -0.4183
  931MPD2     C13616   3.861   3.528   1.022  0.5368 -0.5887 -0.1084
  931MPD2    C113617   3.724   3.502   1.025  0.0275 -0.1657 -0.1012
  931MPD2    C213618   3.667   3.439   1.132  0.2758 -0.1346 -0.2507
  931MPD2    C313619   3.752   3.393   1.235  0.1596 -0.5240  0.0799
  931MPD2    C413620   3.889   3.413   1.225 -0.0765  0.0004 -0.3326
  931MPD2    C513621   3.939   3.476   1.117 -0.3948 -0.0688  0.0145
  931MPD2     H13622   3.560   3.420   1.131  0.2799 -0.1469 -0.3554
  931MPD2    H113623   3.959   3.384   1.303  0.2928 -1.8921 -1.3743
  931MPD2    H213624   3.902   3.572   0.932 -0.4499  2.4036  0.8882
  931MPD2    H313625   4.046   3.490   1.105 -0.6878  2.0009 -0.2091
  931MPD2     N13626   3.705   3.318   1.344 -0.1510  0.0208 -0.2180
  931MPD2    H513627   3.776   3.290   1.411 -1.7448 -2.7827  0.2870
  931MPD2    N113628   3.656   3.552   0.910 -0.7778 -0.7817  0.1656
  931MPD2    H713629   3.706   3.576   0.826 -0.1312 -0.0500  0.7561
  932MPD2     C13630   0.237   0.960  11.368 -0.1004  1.2683  0.0676
  932MPD2    C113631   0.374   0.954  11.387  0.0056 -0.4087  0.4756
  932MPD2    C213632   0.434   0.859  11.458  0.4758 -0.5487  0.0844
  932MPD2    C313633   0.359   0.778  11.538  0.4332  0.0401  0.4141
  932MPD2    C413634   0.223   0.788  11.532  0.0028 -0.1096  0.0746
  932MPD2    C513635   0.166   0.875  11.445 -0.6602  0.4309 -0.0221
  932MPD2     H13636   0.540   0.880  11.459  0.5980 -1.2284  2.5649
  932MPD2    H113637   0.158   0.729  11.596  0.4247  3.0399  3.4782
  932MPD2    H213638   0.191   1.029  11.299 -1.2541 -0.9045 -1.3100
  932MPD2    H313639   0.059   0.888  11.451 -0.6735  0.5415 -0.5731
  932MPD2     N13640   0.412   0.698  11.641 -0.2114 -0.0336 -0.5160
  932MPD2    H513641   0.350   0.658  11.711  1.6254 -1.0393  0.5187
  932MPD2    N113642   0.460   1.051  11.326 -0.2946 -0.1209  0.0564
  932MPD2    H713643   0.560   1.039  11.344 -0.6641 -1.0746  1.4799
  933MPD2     C13644   2.882   1.661   1.967  0.4587 -1.4632  0.2804
  933MPD2    C113645   2.772   1.654   1.886  0.2495  0.8355 -0.1208
  933MPD2    C213646   2.670   1.749   1.905 -0.0493 -0.1007  0.4295
  933MPD2    C313647   2.676   1.845   2.005  0.0650  1.1319  0.0700
  933MPD2    C413648   2.795   1.851   2.084 -0.4697 -0.0466 -0.3565
  933MPD2    C513649   2.899   1.769   2.051 -0.0752 -0.0352  0.2642
  933MPD2     H13650   2.578   1.737   1.848 -0.2124  0.2049  0.6304
  933MPD2    H113651   2.809   1.903   2.178  0.1816  0.2154 -0.5971
  933MPD2    H213652   2.967   1.593   1.966 -0.6909 -2.9239  1.3470
  933MPD2    H313653   2.991   1.770   2.109 -1.9013  1.2096  3.1150
  933MPD2     N13654   2.556   1.916   2.032 -0.0773 -0.1665 -0.3045
  933MPD2    H513655   2.487   1.908   1.958 -2.2711 -1.7200  1.9119
  933MPD2    N113656   2.749   1.531   1.817  0.6172  0.1266 -0.5582
  933MPD2    H713657   2.825   1.464   1.817 -0.2029 -0.8255 -2.6876
  934MPD2     C13658   1.523   4.002   2.333 -0.0080  0.6846 -1.1355
  934MPD2    C113659   1.558   3.886   2.262 -0.0862 -0.5456  0.2599
  934MPD2    C213660   1.465   3.831   2.179 -0.1753 -0.0065  0.1529
  934MPD2    C313661   1.335   3.878   2.167 -0.5479  0.6997  0.4288
  934MPD2    C413662   1.302   3.999   2.229  0.9363  0.6568  0.0177
  934MPD2    C513663   1.394   4.057   2.315 -0.2079 -0.5017 -0.5830
  934MPD2     H13664   1.507   3.743   2.132  1.5713  0.0926  1.5352
  934MPD2    H113665   1.201   4.034   2.214  1.2801  0.2403 -3.1574
  934MPD2    H213666   1.591   4.058   2.397  0.4556 -0.1421 -0.9048
  934MPD2    H313667   1.361   4.142   2.373  0.9073  0.3574 -1.2247
  934MPD2     N13668   1.234   3.823   2.090 -0.3534 -0.7032 -0.1430
  934MPD2    H513669   1.142   3.865   2.097 -0.5872 -0.8298 -2.6499
  934MPD2    N113670   1.687   3.822   2.273  0.0011 -0.6009 -0.1233
  934MPD2    H713671   1.699   3.742   2.212  1.0589  0.6411 -1.5578
  935MPD2     C13672   1.774   3.331   1.792 -0.2586 -0.0881 -0.0216
  935MPD2    C113673   1.685   3.301   1.683 -0.3760  0.1284 -0.5526
  935MPD2    C213674   1.553   3.341   1.690 -0.2210 -0.3208  0.4713
  935MPD2    C313675   1.504   3.421   1.796 -0.1155  0.3189  0.1367
  935MPD2    C413676   1.590   3.458   1.893  0.1256  0.4477  0.1537
  935MPD2    C513677   1.720   3.414   1.892 -0.3600 -0.3206  0.5350
  935MPD2     H13678   1.483   3.301   1.617  0.7868  0.1312 -0.7501
  935MPD2    H113679   1.576   3.543   1.959  0.1659 -1.4589  2.5740
  935MPD2    H213680   1.879   3.304   1.787 -0.3994 -0.1796 -3.0125
  935MPD2    H313681   1.777   3.446   1.979 -0.7552  0.1600  0.6127
  935MPD2     N13682   1.371   3.465   1.803 -0.9504  0.3187  0.2074
  935MPD2    H513683   1.356   3.534   1.875 -0.2353 -0.1878  0.8405
  935MPD2    N113684   1.730   3.237   1.559 -0.0360  0.5413 -0.3710
  935MPD2    H713685   1.663   3.208   1.489 -0.0549  0.1107 -0.1765
  936MPD2     C13686   0.937   4.635  12.377 -0.3149  0.2726 -0.2449
  936MPD2    C113687   0.990   4.537  12.459  0.3994  0.7946 -0.5612
  936MPD2    C213688   1.092   4.452  12.416 -0.0540 -1.3122  0.1291
  936MPD2    C313689   1.140   4.457  12.287  0.0777 -0.0929 -0.4724
  936MPD2    C413690   1.098   4.563  12.206 -0.0310 -0.1918 -0.7911
  936MPD2    C513691   0.997   4.646  12.253  0.2402 -0.0601  0.1075
  936MPD2     H13692   1.128   4.373  12.481  3.4117 -0.4056 -0.6814
  936MPD2    H113693   1.137   4.580  12.106  1.5903  3.2001  0.4235
  936MPD2    H213694   0.865   4.713  12.400  1.4234  1.5775  0.8023
  936MPD2    H313695   0.963   0.010  12.194 -0.7123 -1.4816 -1.3719
  936MPD2     N13696   1.238   4.362  12.262 -0.0896 -0.2036  0.0078
  936MPD2    H513697   1.250   4.298  12.340 -0.0463  0.5151  0.5912
  936MPD2    N113698   0.943   4.502  12.592  0.2755 -1.1081 -0.3128
  936MPD2    H713699   0.999   4.436  12.644 -1.8406 -2.4388  0.2581
  937MPD2     C13700   3.767   1.151  11.587  0.4622 -0.5539  0.4101
  937MPD2    C113701   3.826   1.266  11.560  0.2589 -0.0872  0.3028
  937MPD2    C213702   3.822   1.314  11.433  0.0413  0.4769 -0.4382
  937MPD2    C313703   3.803   1.234  11.319 -0.3603 -0.7622  0.2845
  937MPD2    C413704   3.755   1.111  11.352  0.1541 -0.0784  0.4970
  937MPD2    C513705   3.730   1.075  11.481  0.6356  0.2609  0.0847
  937MPD2     H13706   3.864   1.414  11.418 -1.6191  1.1339 -0.6472
  937MPD2    H113707   3.719   1.039  11.279 -0.2684  0.6410  0.0038
  937MPD2    H213708   3.777   1.110  11.687 -1.3203 -1.5701  0.1756
  937MPD2    H313709   3.687   0.976  11.490  0.9616  0.1877  0.8334
  937MPD2     N13710   3.843   1.279  11.190 -0.0456  0.3024  0.6255
  937MPD2    H513711   3.869   1.377  11.188 -1.1019  0.5992  1.1708
  937MPD2    N113712   3.857   1.359  11.662  0.1683 -0.1263  0.3311
  937MPD2    H713713   3.863   1.456  11.632  0.7696 -0.9065 -2.0778
  938MPD2     C13714   1.102   3.121   0.467 -0.7530 -0.4165  0.2322
  938MPD2    C113715   1.137   3.158   0.594 -0.1944 -0.3316  0.2586
  938MPD2    C213716   1.145   3.055   0.687 -0.4129  0.4280  0.4009
  938MPD2    C313717   1.139   2.916   0.644 -0.9240 -0.2201 -0.2745
  938MPD2    C413718   1.118   2.884   0.514 -0.0401  0.2964 -0.7386
  938MPD2    C513719   1.101   2.984   0.432  0.1040 -0.0464 -0.0766
  938MPD2     H13720   1.166   3.078   0.791 -0.0455  5.0582 -0.6796
  938MPD2    H113721   1.128   2.780   0.483 -0.0585  1.1647 -3.6257
  938MPD2    H213722   1.089   3.193   0.388  1.1709 -0.7049 -0.3521
  938MPD2    H313723   1.086   2.968   0.325  1.5049 -0.5952 -0.1933
  938MPD2     N13724   1.165   2.805   0.728 -0.9441 -0.0834  0.0677
  938MPD2    H513725   1.152   2.715   0.683 -0.5378 -0.3074  0.3965
  938MPD2    N113726   1.149   3.295   0.627  0.1703  0.0218 -0.1202
  938MPD2    H713727   1.157   3.321   0.725 -0.0949 -1.0825  0.1986
  939MPD2     C13728   2.069   4.038   1.250  0.3202 -0.2755  0.6109
  939MPD2    C113729   2.139   4.113   1.339 -0.9458  0.1189  0.7130
  939MPD2    C213730   2.275   4.140   1.319 -0.8300 -0.9273 -0.3296
  939MPD2    C313731   2.337   4.095   1.203 -0.0245 -0.4178  1.0088
  939MPD2    C413732   2.265   4.008   1.113 -0.0359 -0.5330 -0.5601
  939MPD2    C513733   2.133   3.979   1.143 -0.3224  0.2440  0.1444
  939MPD2     H13734   2.336   4.183   1.397 -0.1759  0.3857 -1.5557
  939MPD2    H113735   2.305   3.970   1.019  0.0615 -1.2144 -0.2473
  939MPD2    H213736   1.963   4.016   1.261 -0.0081  0.7729 -0.4435
  939MPD2    H313737   2.079   3.923   1.068 -0.1428  0.0185  0.1864
  939MPD2     N13738   2.477   4.123   1.180 -0.1244 -0.6520  0.2801
  939MPD2    H513739   2.525   4.169   1.257  0.3520 -3.1976  1.5019
  939MPD2    N113740   2.055   4.165   1.442 -0.4981 -0.2541  0.3790
  939MPD2    H713741   1.955   4.147   1.438 -0.7405  1.5277 -1.4168
  940MPD2     C13742   1.518   4.222  13.248  0.2302  0.2581 -0.3601
  940MPD2    C113743   1.650   4.243  13.286 -0.1925 -0.4184 -0.2825
  940MPD2    C213744   1.753   4.196  13.199  0.3671  0.0208  0.0557
  940MPD2    C313745   1.719   4.150  13.071  0.0870 -1.0798 -0.7552
  940MPD2    C413746   1.586   4.136  13.038 -0.9839 -0.0022 -0.2387
  940MPD2    C513747   1.482   4.174  13.127 -0.3592 -0.5847 -0.0886
  940MPD2     H13748   1.857   4.196  13.231  0.4533  0.5605 -0.2335
  940MPD2    H113749   1.561   4.098  12.939 -1.0608 -0.2126 -0.1376
  940MPD2    H213750   1.437   4.252  13.312  1.6560  0.4303  1.3609
  940MPD2    H313751   1.376   4.153  13.114 -0.4980 -0.2396  0.4860
  940MPD2     N13752   1.822   4.118  12.977  0.7373 -0.0951 -0.5671
  940MPD2    H513753   1.916   4.149  12.996  1.6067 -2.5149 -0.8449
  940MPD2    N113754   1.693   4.302  13.410 -0.0835  0.3001 -0.8564
  940MPD2    H713755   1.791   4.317  13.430 -0.6067  1.0988  1.0539
  941MPD2     C13756   0.953   3.556   9.678 -0.3752  0.1787 -0.4510
  941MPD2    C113757   1.020   3.567   9.804  0.3830  0.1484 -0.0461
  941MPD2    C213758   0.982   3.479   9.903 -0.5440  0.4985 -0.3830
  941MPD2    C313759   0.877   3.387   9.889 -0.1503  0.1768 -0.6290
  941MPD2    C413760   0.829   3.373   9.761 -0.9127 -0.2427  0.3416
  941MPD2    C513761   0.863   3.459   9.661 -0.3927  0.2413  0.1477
  941MPD2     H13762   1.038   3.496   9.994 -0.7662 -0.8329 -0.0022
  941MPD2    H113763   0.754   3.302   9.728 -1.4063  0.1600  0.6052
  941MPD2    H213764   0.979   3.619   9.594  0.4589 -1.4936 -1.4611
  941MPD2    H313765   0.816   3.446   9.564  0.9897 -1.4640 -0.2936
  941MPD2     N13766   0.835   3.300   9.993 -0.4674 -0.2799 -0.1545
  941MPD2    H513767   0.759   3.239   9.965  0.0223 -1.5159  1.2406
  941MPD2    N113768   1.118   3.663   9.835  0.4047 -0.3693 -0.0820
  941MPD2    H713769   1.141   3.668   9.933 -2.0401  2.4020  0.3474
  942MPD2     C13770   0.375   1.514   9.751  0.6270  0.2118  0.2934
  942MPD2    C113771   0.289   1.406   9.760  0.6452  0.0014  0.4831
  942MPD2    C213772   0.315   1.286   9.699  0.7050 -0.3297 -0.8670
  942MPD2    C313773   0.425   1.265   9.624 -0.1455  0.0769 -0.9398
  942MPD2    C413774   0.509   1.373   9.610  0.1766  0.2404 -0.8454
  942MPD2    C513775   0.490   1.489   9.682 -0.6040 -0.7194 -0.4975
  942MPD2     H13776   0.248   1.202   9.718  0.0685  0.2777 -0.4355
  942MPD2    H113777   0.603   1.365   9.556 -1.0390 -0.0900 -2.9019
  942MPD2    H213778   0.358   1.609   9.801  1.5443 -0.4391  1.8211
  942MPD2    H313779   0.560   1.570   9.666 -0.8169 -0.6090 -0.8828
  942MPD2     N13780   0.457   1.154   9.551 -0.4641  0.2426  0.3759
  942MPD2    H513781   0.552   1.146   9.517 -0.6436 -0.9647  0.1814
  942MPD2    N113782   0.159   1.422   9.815  0.3761  0.4358 -0.0778
  942MPD2    H713783   0.102   1.340   9.799  0.9959 -0.2309  1.1606
  943MPD2     C13784   4.448   3.329   9.060  0.0462  0.3940  0.0275
  943MPD2    C113785   4.387   3.342   9.183 -0.7022  0.1234  0.2582
  943MPD2    C213786   4.301   3.451   9.191  0.1137  0.9524  0.3167
  943MPD2    C313787   4.281   3.550   9.092  0.4865  0.4112  0.2227
  943MPD2    C413788   4.356   3.533   8.974 -0.4122 -0.3345  0.2080
  943MPD2    C513789   4.439   3.424   8.963 -0.4391 -0.9410  0.2488
  943MPD2     H13790   4.239   3.459   9.280 -0.9163  0.4321 -0.3524
  943MPD2    H113791   4.364   3.611   8.899 -0.4861 -0.5185  0.0077
  943MPD2    H213792   4.522   3.252   9.041 -0.8590 -0.0908 -1.5687
  943MPD2    H313793   4.504   3.422   8.877 -2.8466  1.6023 -1.6084
  943MPD2     N13794   4.193   3.655   9.118  0.0085  0.3461 -0.7054
  943MPD2    H513795   4.132   3.639   9.197 -0.0641  2.2470 -0.3796
  943MPD2    N113796   4.397   3.238   9.279  0.2506 -0.2964 -0.2242
  943MPD2    H713797   4.444   3.151   9.256  1.7200 -0.0268  1.7218
  944MPD2     C13798   4.104   2.482  10.909 -0.2457  0.0774  0.4325
  944MPD2    C113799   4.239   2.509  10.908 -0.5548 -0.4709 -0.3535
  944MPD2    C213800   4.293   2.579  11.016 -0.5588 -0.1938  0.1253
  944MPD2    C313801   4.216   2.623  11.125 -0.1933  0.6994 -0.5555
  944MPD2    C413802   4.085   2.593  11.130 -0.0527 -0.6639  0.3832
  944MPD2    C513803   4.034   2.524  11.017 -0.5234 -0.4241  0.3098
  944MPD2     H13804   4.400   2.593  11.029 -0.8215  1.0770  0.9583
  944MPD2    H113805   4.020   2.622  11.211  1.5335 -0.6727  1.6596
  944MPD2    H213806   4.052   2.436  10.826  0.2768  1.5405 -0.7063
  944MPD2    H313807   3.925   2.520  11.011 -0.5638 -0.6876  1.2178
  944MPD2     N13808   4.284   2.680  11.235  0.4181 -0.6353 -0.5345
  944MPD2    H513809   4.381   2.697  11.207  0.1171  2.9042  0.5667
  944MPD2    N113810   4.319   2.465  10.796  0.2214  0.2750 -0.0957
  944MPD2    H713811   4.275   2.436  10.709  0.2388  1.7156 -0.5683
    1TCq1    O113812   2.212   3.393  13.979 -0.0342 -0.2777  1.1175
    1TCq1    C113813   2.289   3.282  14.019 -0.8019 -0.2260  0.4564
    1TCq1    O213814   2.286   3.174  13.964  0.1818 -0.4244  0.5534
    1TCq1    C213815   2.336   3.307  14.155  0.4713 -0.5752  0.4626
    1TCq1    C313816   2.363   3.195  14.236  0.8271  0.5387  0.3242
    1TCq1    C413817   2.413   3.225  14.361  0.0355 -0.8225  0.0487
    1TCq1    C513818   2.428   3.348  14.416  0.1949 -0.1093  0.4588
    1TCq1    C613819   2.394   3.447  14.332 -0.1066  0.1512 -0.3885
    1TCq1    C713820   2.345   3.432  14.204  0.7638 -0.0132 -0.1758
    1TCq1    C813821   2.402   3.574  14.392  0.4655  0.2514  0.4089
    1TCq1    O413822   2.471   3.577  14.491 -0.2289 -0.4001 -0.1306
    1TCq1    C913823   2.470   3.114  14.445  0.1967 -0.2434 -0.2809
    1TCq1    O513824   2.486   3.134  14.569 -0.1491 -0.2589  0.1790
    1TCq1    O613825   2.499   3.005  14.385  0.3770  0.2140  0.4353
    1TCq1    H113826   2.203   3.466  14.044  2.5394  0.2432  0.8965
    1TCq1    H213827   2.345   3.098  14.192  0.9164  1.5037 -1.8434
    1TCq1    H313828   2.465   3.366  14.516 -1.1383  2.2046  0.5356
    1TCq1    H413829   2.349   3.521  14.141 -0.7500  0.6316  0.6642
    2MPD2     C13830   2.396   4.084  14.418 -0.0384  0.2892 -0.0473
    2MPD2    C113831   2.335   4.048  14.301  0.7622 -0.3489 -0.5611
    2MPD2    C213832   2.301   3.914  14.275  0.0719  0.7884  0.4473
    2MPD2    C313833   2.344   3.816  14.362 -0.4263 -0.6181 -0.7636
    2MPD2    C413834   2.402   3.855  14.478 -0.7185  0.5231  0.2228
    2MPD2    C513835   2.424   3.985  14.511 -0.2728 -0.1584 -0.1093
    2MPD2     H13836   2.248   3.888  14.184 -0.3750  2.3350  0.2613
    2MPD2    H113837   2.441   3.784  14.549 -0.6164 -0.6541 -1.0018
    2MPD2    H213838   2.407   4.186  14.453 -0.4073 -0.8518  3.3522
    2MPD2    H313839   2.467   4.005  14.609 -0.4298  0.7989 -0.2441
    2MPD2     N13840   2.343   3.675  14.321 -0.3006  0.1348  0.9605
    2MPD2    H513841   2.285   3.651  14.241 -0.0167  1.2407  0.4201
    2MPD2    N113842   2.292   4.157  14.220  0.1082 -0.3224  0.2917
    2MPD2    H713843   2.303   4.246  14.267 -0.0031 -0.6900  1.0063
    3TMC2    C113844   2.262   4.267  14.016 -0.3008 -0.0168  0.0012
    3TMC2    C213845   2.235   4.268  13.879 -0.5572 -0.2141  0.7205
    3TMC2    C313846   2.281   4.364  13.794  0.5887  0.8576 -0.6427
    3TMC2    C413847   2.355   4.370  14.053  0.2140  0.6618 -0.2965
    3TMC2    C513848   2.386   4.475  13.962 -0.0317 -0.0804 -0.2021
    3TMC2    C613849   2.350   4.473  13.832  0.2630 -0.5912 -0.6505
    3TMC2     C13850   2.261   4.145  14.086  0.4063 -0.6214 -0.0856
    3TMC2     O13851   2.234   4.050  14.015  0.4249 -0.1959 -0.3600
    3TMC2     H13852   2.163   4.199  13.837  0.9156 -0.4954 -1.3262
    3TMC2    H113853   2.410   4.371  14.147 -0.1330  2.7297 -0.1275
    3TMC2    H213854   2.371   4.547  13.755 -2.8671  2.5902  1.5308
    3TMC2    C713855   2.471   4.582  14.004 -0.7134  0.6101  0.4062
    3TMC2    C813856   2.219   4.352  13.663 -0.3255 -0.9408  0.0507
    3TMC2    O113857   2.524   4.570  14.114 -0.1580 -0.1712 -0.5272
    3TMC2    O213858   2.127   4.425  13.619 -0.9272  0.3779  0.7325
    3TMC2    O513859   2.296   4.264  13.601 -0.5046 -0.0049 -0.0893
    3TMC2    H513860   2.379   4.250  13.651 -1.0769  1.2989  1.2256
    4MPD2     C13861   1.671   0.938  13.935  0.4512 -0.6221 -0.1169
    4MPD2    C113862   1.698   0.842  13.843  0.3012  0.3316  0.0210
    4MPD2    C213863   1.828   0.820  13.806  0.1176  0.2237 -0.4058
    4MPD2    C313864   1.934   0.891  13.863  0.0394 -0.0329  1.1284
    4MPD2    C413865   1.903   0.992  13.954  0.0293  0.0224 -0.2918
    4MPD2    C513866   1.774   1.020  13.985 -0.8670 -0.5345  0.1040
    4MPD2     H13867   1.849   0.744  13.731  0.1357 -1.1357  0.9937
    4MPD2    H113868   1.975   1.058  14.002 -1.4358  2.4360 -1.4290
    4MPD2    H213869   1.566   0.959  13.954  0.7835 -2.0842  3.1852
    4MPD2    H313870   1.754   1.097  14.059 -0.5544 -0.7035  0.3659
    4MPD2     N13871   2.064   0.836  13.853  0.1447  0.1176  0.0770
    4MPD2    H513872   2.074   0.761  13.786 -0.1969 -0.1969  0.3808
    4MPD2    N113873   1.586   0.762  13.802 -0.5484 -0.3527 -0.2732
    4MPD2    H713874   1.492   0.786  13.833 -0.7384 -1.8344  0.2777
    5TCq2    C113875   2.180   0.889  13.913  0.7523 -0.5872 -0.1344
    5TCq2    O213876   2.188   0.990  13.981 -0.3783 -0.3317  0.1625
    5TCq2    C213877   2.299   0.824  13.871  0.7335  0.9057 -0.3620
    5TCq2    C313878   2.393   0.903  13.814  0.8902 -0.0707 -0.1309
    5TCq2    C413879   2.505   0.847  13.770  0.2209  0.0958 -0.3614
    5TCq2    C513880   2.532   0.709  13.798 -0.3808  0.4621 -0.3949
    5TCq2    C613881   2.431   0.632  13.845 -0.2390  0.6167 -0.6785
    5TCq2    C713882   2.307   0.688  13.870 -0.0201 -0.4341 -0.8672
    5TCq2    C813883   2.443   0.492  13.860  0.2856 -0.5656 -0.3695
    5TCq2    O413884   2.343   0.424  13.850 -0.0523  0.1262  0.3962
    5TCq2    C913885   2.606   0.933  13.717 -0.0669  0.1547 -0.7771
    5TCq2    O513886   2.570   1.049  13.683 -0.0042 -0.2515  0.1421
    5TCq2    O613887   2.718   0.876  13.695 -0.4971 -0.5808  0.1410
    5TCq2    H213888   2.380   1.011  13.812  2.2808  0.1037  0.2627
    5TCq2    H313889   2.624   0.665  13.761 -0.0691  0.2720  0.6280
    5TCq2    H413890   2.234   0.619  13.910 -1.2259  0.8604 -0.8359
    6MPD1     C13891   0.794   1.523  12.405  0.5059 -0.5296  0.1902
    6MPD1    C113892   0.843   1.620  12.487  0.4876 -0.2295  0.2813
    6MPD1    C213893   0.848   1.598  12.626  0.5349  0.0178  0.1351
    6MPD1    C313894   0.861   1.467  12.667 -0.6409 -0.1933  0.3648
    6MPD1    C413895   0.843   1.367  12.573 -0.3906  0.6881  0.7703
    6MPD1    C513896   0.800   1.392  12.445  0.1557 -0.3840  0.5532
    6MPD1     H13897   0.869   1.686  12.686 -2.5023  2.1380 -1.9037
    6MPD1    H113898   0.850   1.264  12.604  1.0013  0.6105  0.1895
    6MPD1    H213899   0.780   1.543  12.300 -0.3751 -1.6724  0.0907
    6MPD1    H313900   0.785   1.319  12.366  2.9448 -0.5107  0.1484
    6MPD1     N13901   0.881   1.429  12.801 -0.0480 -0.6427  0.7568
    6MPD1    H513902   0.910   1.333  12.809  1.0863 -0.2341  1.6050
    6MPD1    N113903   0.846   1.754  12.433 -0.3840 -0.1519  0.3834
    6MPD1    H613904   0.866   1.764  12.333  1.0852 -0.7712  0.6189
    6MPD1    H713905   0.912   1.814  12.483 -0.8050  0.6143  0.0223
    7MPD2     C13906   0.961   1.221  13.624  0.1922  0.2716  0.9047
    7MPD2    C113907   1.015   1.169  13.511 -0.2549  0.3179 -0.5089
    7MPD2    C213908   1.057   1.040  13.513  0.6064  0.0806 -0.5213
    7MPD2    C313909   1.056   0.967  13.629 -0.4577 -0.2589 -0.5280
    7MPD2    C413910   1.003   1.020  13.745  0.9436 -0.7622 -0.5834
    7MPD2    C513911   0.953   1.148  13.738  0.3553  0.1637  0.3941
    7MPD2     H13912   1.097   0.993  13.424 -0.8339  1.2394 -1.7839
    7MPD2    H113913   0.992   0.969  13.840  1.1273 -0.7498 -0.5551
    7MPD2    H213914   0.931   1.325  13.632 -1.5984 -0.2594  0.9539
    7MPD2    H313915   0.907   1.191  13.826  1.7713  0.1436  1.1486
    7MPD2     N13916   1.107   0.834  13.622  0.0728 -0.0985 -0.0250
    7MPD2    H513917   1.128   0.802  13.528  0.4540 -0.1576  0.0802
    7MPD2    N113918   1.020   1.235  13.379 -0.3234 -0.0217  0.4214
    7MPD2    H713919   1.052   1.178  13.300  0.0708 -0.8287  1.1588
    8TMC3    C113920   1.213   0.631  13.683  0.8577  0.2493 -0.6049
    8TMC3    C213921   1.339   0.648  13.737 -0.4300 -0.2002  0.3111
    8TMC3    C313922   1.449   0.633  13.652 -0.1107 -0.1916 -0.3620
    8TMC3    C413923   1.206   0.619  13.549 -0.3407  0.1097 -0.1097
    8TMC3    C513924   1.319   0.634  13.469  0.3459 -0.1377  0.2248
    8TMC3    C613925   1.445   0.634  13.514 -0.4823  0.2231 -0.3903
    8TMC3     C13926   1.124   0.739  13.725  0.1035 -0.2848 -0.0213
    8TMC3     O13927   1.098   0.761  13.845  0.4151 -0.7632  0.2881
    8TMC3     H13928   1.351   0.654  13.845  0.0371  0.2233  0.2371
    8TMC3    H113929   1.115   0.598  13.493 -0.3948  0.3661 -0.1177
    8TMC3    H213930   1.530   0.641  13.447 -0.1361 -1.4056 -0.1252
    8TMC3    C713931   1.292   0.708  13.345  0.2939  0.2407 -0.0301
    8TMC3    C813932   1.580   0.679  13.698  0.1206  0.3152 -0.3365
    8TMC3    O113933   1.186   0.765  13.344 -0.0013  0.3895 -0.5773
    8TMC3    O213934   1.677   0.653  13.626  0.1404 -0.3750 -0.0909
    9TMC3    C113935   0.996   1.458  13.001  0.0725 -0.0657  0.5240
    9TMC3    C213936   1.112   1.404  12.958 -0.3048 -0.3757  0.3218
    9TMC3    C313937   1.186   1.329  13.045 -0.3929 -0.2583  0.3872
    9TMC3    C413938   0.960   1.462  13.128  0.6023  0.1747  0.9041
    9TMC3    C513939   1.040   1.394  13.212  0.4019 -0.4316  0.3038
    9TMC3    C613940   1.156   1.323  13.174 -0.1434  0.2353 -0.7667
    9TMC3     C13941   0.903   1.514  12.906 -0.0183 -0.4237  0.1654
    9TMC3     O13942   0.857   1.627  12.929  0.0416 -0.2564  0.4421
    9TMC3     H13943   1.138   1.404  12.853  1.2262  0.9102  0.7096
    9TMC3    H113944   0.857   1.490  13.150  0.9604 -0.2605  3.2149
    9TMC3    H213945   1.227   1.290  13.250 -1.3941 -4.3197 -1.5741
    9TMC3    C713946   0.984   1.362  13.346 -0.0529  0.1230 -0.5047
    9TMC3    C813947   1.274   1.230  12.993 -0.4785  0.2898 -0.4361
    9TMC3    O113948   0.933   1.446  13.419  0.2807 -0.2025 -0.4585
    9TMC3    O213949   1.338   1.250  12.892  0.2434 -0.0076  0.0381
   10MPD2     C13950   1.516   0.781  13.063 -0.1026 -0.9906 -0.5539
   10MPD2    C113951   1.411   0.799  13.150  0.4112 -0.8754  0.0482
   10MPD2    C213952   1.332   0.913  13.152  0.0268 -0.3889 -0.1834
   10MPD2    C313953   1.359   1.009  13.060 -0.9247 -0.0969 -0.4517
   10MPD2    C413954   1.458   0.995  12.962 -0.4255  0.2880 -0.2883
   10MPD2    C513955   1.540   0.882  12.969  0.1568 -0.0304  0.3679
   10MPD2     H13956   1.250   0.937  13.218  2.0083  2.4108  1.2716
   10MPD2    H113957   1.481   1.067  12.885  0.3153 -0.4442 -0.7451
   10MPD2    H213958   1.588   0.701  13.070  1.0577 -0.0188 -1.3586
   10MPD2    H313959   1.623   0.862  12.903 -1.3549  1.5501 -2.0218
   10MPD2     N13960   1.276   1.123  13.075 -0.2125  0.2822 -0.8071
   10MPD2    H513961   1.205   1.131  13.147  3.7214  0.9186  2.9640
   10MPD2    N113962   1.394   0.708  13.258 -0.3672 -0.0033  0.6664
   10MPD2    H713963   1.469   0.642  13.274  0.1981  0.9218  1.8476
   11MPD2     C13964   2.670   0.073  14.039 -0.1784 -0.5914 -0.7557
   11MPD2    C113965   2.556   0.087  13.962  0.1838  0.8744 -0.2377
   11MPD2    C213966   2.531   0.210  13.903  0.3192 -0.0163 -0.6372
   11MPD2    C313967   2.610   0.325  13.923  0.0099  0.5361  0.2074
   11MPD2    C413968   2.729   0.307  13.986  0.7334 -0.1117  0.2106
   11MPD2    C513969   2.755   0.183  14.040 -0.3997 -0.5500  1.0007
   11MPD2     H13970   2.445   0.221  13.837 -2.0508 -1.1756  2.2387
   11MPD2    H113971   2.801   0.388  13.988  0.3245  0.2404  0.7650
   11MPD2    H213972   2.705   4.701  14.083 -1.9236 -0.5219  0.7776
   11MPD2    H313973   2.855   0.168  14.078 -1.1658  0.5510  3.4299
   11MPD2     N13974   2.568   0.455  13.895  0.3829  0.3645  0.1160
   11MPD2    H513975   2.635   0.522  13.931 -0.1264 -0.0405  1.8079
   11MPD2    N113976   2.471   4.695  13.929 -0.5049 -0.5290  0.4315
   11MPD2    H713977   2.395   4.708  13.862 -0.7827 -0.5822  0.7351
    1MPD1     C13978   3.732   1.732  17.439  0.2992  0.1758 -0.1556
    1MPD1    C113979   3.794   1.804  17.535 -0.1416  0.4767  0.2919
    1MPD1    C213980   3.917   1.859  17.509 -0.1915  0.0679 -0.1738
    1MPD1    C313981   3.990   1.822  17.402  0.5050 -0.2870 -0.7126
    1MPD1    C413982   3.935   1.735  17.310 -0.3498  0.5222  0.1697
    1MPD1    C513983   3.810   1.690  17.333 -0.3218 -0.2407 -0.2818
    1MPD1     H13984   3.966   1.925  17.580 -0.0039 -2.4063  2.0087
    1MPD1    H113985   3.971   1.718  17.209  0.4798  0.1089  0.5350
    1MPD1    H213986   3.626   1.708  17.445  0.5301 -0.7068  0.3956
    1MPD1    H313987   3.759   1.652  17.245 -0.1586 -0.9994 -0.0408
    1MPD1     N13988   4.115   1.873  17.352  0.1309 -0.3154 -0.1224
    1MPD1    H513989   4.151   1.846  17.261 -0.9174 -1.5927 -0.1628
    1MPD1    N113990   3.724   1.854  17.650  0.1841 -0.3720  0.1213
    1MPD1    H613991   3.637   1.804  17.669 -0.2851  0.7434  0.9169
    1MPD1    H713992   3.782   1.860   0.048 -0.5891  1.2043  0.5356
    2MPD1     C13993   0.156   2.239   0.137 -0.7998  1.0245  0.7819
    2MPD1    C113994   0.030   2.286   0.115  1.0430 -0.0338  0.0493
    2MPD1    C213995   4.681   2.243   0.008 -0.2616 -0.8799  0.4304
    2MPD1    C313996   0.007   2.139  17.618 -0.2882  0.2790  0.2002
    2MPD1    C413997   0.128   2.083  17.649 -0.3619  0.1030 -0.6961
    2MPD1    C513998   0.208   2.145   0.060  0.4958 -0.5269  0.5991
    2MPD1     H13999   4.591   2.296  17.664 -0.4147 -1.0962  0.5100
    2MPD1    H114000   0.166   1.989  17.610  1.0909 -0.3290  1.7486
    2MPD1    H214001   0.213   2.275   0.221 -1.2440  0.7707  1.1925
    2MPD1    H314002   0.308   2.108   0.079  0.6264 -0.3077  0.3283
    2MPD1     N14003   4.653   2.085  17.510 -0.4680 -0.0845 -0.3284
    2MPD1    H514004   4.566   2.133  17.491 -0.0751  0.2753 -1.2106
    2MPD1    N114005   4.707   2.403   0.182  0.5226 -0.7399  0.3066
    2MPD1    H614006   4.605   2.400   0.191  0.2810  0.7488 -1.9727
    2MPD1    H714007   0.027   2.421   0.274  1.5616 -0.7308 -0.1641
    3TMC3    C114008   4.572   1.943  17.353 -0.7665 -0.4208 -0.2159
    3TMC3    C214009   4.571   1.969  17.214 -0.5082 -1.0253  0.5074
    3TMC3    C314010   4.451   1.984  17.155 -0.1652 -0.4687 -0.5490
    3TMC3    C414011   4.457   1.930  17.423 -0.3471  0.4013  0.2140
    3TMC3    C514012   4.337   1.952  17.363 -0.3237 -0.4157  0.3458
    3TMC3    C614013   4.335   1.984  17.229 -0.4216  0.0085 -0.2179
    3TMC3     C14014   4.690   1.980  17.426 -0.4015  1.0613  0.7079
    3TMC3     O14015   0.076   1.933  17.391 -0.6209  0.0031 -0.1383
    3TMC3     H14016   4.666   1.975  17.161 -0.6319  1.1695  0.5403
    3TMC3    H114017   4.453   1.911  17.530 -1.1727 -1.1884 -0.1007
    3TMC3    H214018   4.242   2.009  17.180 -0.0092  1.1976 -0.3916
    3TMC3    C714019   4.210   1.931  17.434  0.1677 -0.6536 -0.5512
    3TMC3    C814020   4.437   2.010  17.013 -0.4846 -0.0117 -0.7783
    3TMC3    O114021   4.203   1.945  17.556  0.5186  0.9942  0.8540
    3TMC3    O214022   4.323   2.036  16.975  0.0325  0.4896 -0.0459
    4MPD1     C14023   4.573   2.057  16.528  0.2647  0.3038 -0.4343
    4MPD1    C114024   4.664   1.968  16.585  0.0917  0.3055  0.1473
    4MPD1    C214025   4.657   1.951  16.725  0.6781  0.8105 -0.5448
    4MPD1    C314026   4.564   2.021  16.807 -0.3850 -0.0547  0.4439
    4MPD1    C414027   4.475   2.105  16.741 -0.5872  0.8513  0.1225
    4MPD1    C514028   4.486   2.126  16.607  0.4660  0.3770  0.4034
    4MPD1     H14029   0.009   1.887  16.775  1.0433  1.0641 -0.7459
    4MPD1    H114030   4.389   2.152  16.785  0.2633  2.5079  0.0210
    4MPD1    H214031   4.567   2.079  16.422 -0.0146  2.7285  0.0915
    4MPD1    H314032   4.403   2.178  16.561  1.0784  2.2102  1.3711
    4MPD1     N14033   4.548   1.989  16.940 -0.0341 -0.0724 -0.2599
    4MPD1    H514034   4.612   1.919  16.976  0.4538  0.7399  0.4537
    4MPD1    N114035   0.048   1.922  16.513  0.0926 -0.2348  0.0770
    4MPD1    H614036   0.020   1.906  16.417 -0.2525  0.1854  0.1074
    4MPD1    H714037   0.111   1.853  16.553 -2.0558 -0.5137  2.9983
    1TCq1    O114038   1.296   1.207  11.122 -0.2496  0.0301 -0.0524
    1TCq1    C114039   1.427   1.190  11.154  0.0382 -0.0664  0.1444
    1TCq1    O214040   1.518   1.226  11.084 -0.1490  1.1439 -0.5066
    1TCq1    C214041   1.439   1.105  11.268  0.4616 -0.4199  0.2344
    1TCq1    C314042   1.344   1.032  11.318 -0.5434  0.4094  0.1197
    1TCq1    C414043   1.374   0.944  11.422  0.2353 -0.4193 -0.1782
    1TCq1    C514044   1.504   0.937  11.473  0.7652  1.0974 -0.4103
    1TCq1    C614045   1.603   1.007  11.407 -0.6131  0.5309 -0.2797
    1TCq1    C714046   1.564   1.099  11.314 -1.0844  0.1689 -0.1569
    1TCq1    C814047   1.741   0.991  11.435  0.4919  0.5314  0.3779
    1TCq1    O414048   1.818   1.039  11.350  0.7006 -0.2756 -0.0545
    1TCq1    C914049   1.274   0.852  11.463 -0.3871  0.4574  0.7583
    1TCq1    O514050   1.184   0.837  11.376  0.3572 -0.3220  0.1373
    1TCq1    O614051   1.295   0.779  11.563  0.4065 -0.3193 -0.3013
    1TCq1    H114052   1.240   1.218  11.202 -1.3847  0.4917 -0.9251
    1TCq1    H214053   1.246   1.034  11.272 -0.4870  1.5891  0.0433
    1TCq1    H314054   1.537   0.845  11.519  0.8286  0.5738 -1.4845
    1TCq1    H414055   1.645   1.159  11.275 -0.9350  0.6285  0.8749
    2MPD1     C14056   2.118   0.811  11.723  0.2962 -0.4660  0.0820
    2MPD1    C114057   2.002   0.812  11.804  0.8775  0.1308  0.4504
    2MPD1    C214058   1.893   0.872  11.746  1.3397  0.4039  0.4682
    2MPD1    C314059   1.896   0.924  11.618  0.5782 -0.2562 -0.2649
    2MPD1    C414060   2.007   0.905  11.538  0.1077  0.3676 -0.6101
    2MPD1    C514061   2.116   0.848  11.594 -0.5295  0.4718  0.4675
    2MPD1     H14062   1.799   0.864  11.800 -1.2622 -0.2812 -4.1267
    2MPD1    H114063   2.004   0.914  11.430  2.0532  1.2646 -0.5863
    2MPD1    H214064   2.212   0.765  11.752  0.9024 -0.4262 -1.8408
    2MPD1    H314065   2.207   0.826  11.540 -1.1750  1.6611 -1.1414
    2MPD1     N14066   1.770   0.969  11.571 -1.0902 -0.0856 -0.1388
    2MPD1    H514067   1.695   0.973  11.638 -1.1306  0.3323 -0.2065
    2MPD1    N114068   2.013   0.789  11.945  0.1067 -0.0395  0.0045
    2MPD1    H614069   2.071   0.711  11.975  1.0661  0.7265  0.1782
    2MPD1    H714070   1.921   0.781  11.988  0.2768  0.3358  0.4478
    1TCq1    O114071   3.958   3.983   2.314  0.5155  0.2858  0.4047
    1TCq1    C114072   3.897   3.887   2.249  0.0190 -0.3478  0.3626
    1TCq1    O214073   3.936   3.770   2.257  0.6611 -0.1016 -0.0244
    1TCq1    C214074   3.864   3.957   2.123  0.1170 -0.0121  0.2583
    1TCq1    C314075   3.809   4.087   2.128 -0.0675  0.1106 -0.1437
    1TCq1    C414076   3.791   4.162   2.013  0.2165  0.2558 -0.3013
    1TCq1    C514077   3.857   4.117   1.897 -0.4436 -0.4369 -0.0059
    1TCq1    C614078   3.900   3.987   1.897  0.0500  0.9807  0.4134
    1TCq1    C714079   3.906   3.900   2.002  0.0768 -0.3965 -0.8444
    1TCq1    C814080   3.944   3.942   1.766 -0.1466 -0.2755 -0.2664
    1TCq1    O414081   3.925   4.013   1.667  0.5245  0.1857  0.2220
    1TCq1    C914082   3.782   4.302   2.023 -0.0858  0.6248  0.7077
    1TCq1    O514083   3.818   4.348   2.135 -0.6663 -0.3233 -0.4569
    1TCq1    O614084   3.755   4.372   1.926  0.4913 -0.1931 -0.5697
    1TCq1    H114085   3.938   4.077   2.298 -2.6472 -0.3523  0.5855
    1TCq1    H214086   3.777   4.117   2.227 -0.0734 -1.0245  0.2031
    1TCq1    H314087   3.868   4.179   1.809  3.2645  0.3645  1.0281
    1TCq1    H414088   3.931   3.795   1.990  0.2045 -0.5312  0.5233
    2MPD1     C14089   4.220   3.636   1.462  0.4946  0.5432  0.4045
    2MPD1    C114090   4.271   3.618   1.591 -0.7766  0.3348  0.6641
    2MPD1    C214091   4.206   3.697   1.688 -0.4979  0.7601  0.2806
    2MPD1    C314092   4.106   3.784   1.663  0.3406 -0.1571  0.4910
    2MPD1    C414093   4.063   3.804   1.532 -0.0370  0.3585 -0.2226
    2MPD1    C514094   4.128   3.737   1.432 -0.1553  0.6622 -0.1205
    2MPD1     H14095   4.221   3.681   1.794 -0.7747 -1.7139 -0.0438
    2MPD1    H114096   3.980   3.868   1.507 -0.6927 -0.8919 -1.2210
    2MPD1    H214097   4.253   3.579   1.377  0.7113  1.2224  0.0325
    2MPD1    H314098   4.099   3.749   1.328  1.5465  0.3112 -0.6441
    2MPD1     N14099   4.042   3.848   1.773  0.4034  0.6355 -0.0446
    2MPD1    H514100   4.078   3.818   1.863 -0.3727 -0.6308 -0.1546
    2MPD1    N114101   4.366   3.513   1.619 -0.4367 -0.2730  0.7249
    2MPD1    H614102   4.414   3.489   1.533  1.0814 -0.8656  1.7435
    2MPD1    H714103   4.433   3.534   1.693  0.0759  1.3939 -0.2113
    1MPD1     C14104   3.186   1.675  11.631  0.6659  1.2652  0.3706
    1MPD1    C114105   3.214   1.648  11.764  0.1466 -0.2283  0.4354
    1MPD1    C214106   3.262   1.745  11.849 -0.0570  0.6999  0.3993
    1MPD1    C314107   3.292   1.869  11.790  0.1291  0.1050 -0.1987
    1MPD1    C414108   3.260   1.897  11.664 -0.2269  0.5343  0.2126
    1MPD1    C514109   3.206   1.797  11.586 -0.1818  0.2953  0.3015
    1MPD1     H14110   3.274   1.728  11.955 -1.5661 -2.0207  0.1529
    1MPD1    H114111   3.269   1.999  11.628  1.6291  0.3364  0.0907
    1MPD1    H214112   3.139   1.606  11.561  2.5183 -1.3042  1.6580
    1MPD1    H314113   3.168   1.823  11.488  0.6019 -0.4104 -0.1885
    1MPD1     N14114   3.343   1.966  11.882  0.0748 -0.2893  0.3749
    1MPD1    H514115   3.370   1.938  11.975  0.6496  1.5399  0.7534
    1MPD1    N114116   3.176   1.521  11.816  0.2347  0.4214 -0.0215
    1MPD1    H614117   3.252   1.473  11.865  0.6391  0.1824 -0.8703
    1MPD1    H714118   3.152   1.456  11.741  0.3937 -0.4429  0.6811
    2MPD1     C14119   2.178   1.798  11.141 -0.3503  0.0472 -0.6411
    2MPD1    C114120   2.194   1.739  11.019  0.1340 -0.8241 -0.0287
    2MPD1    C214121   2.225   1.605  11.016 -0.3007  0.1169 -1.0364
    2MPD1    C314122   2.241   1.529  11.128  0.0208 -0.9320  0.2189
    2MPD1    C414123   2.239   1.587  11.250 -0.4921  0.7544  0.1657
    2MPD1    C514124   2.219   1.719  11.257 -0.3137  0.2460 -0.2277
    2MPD1     H14125   2.235   1.554  10.921 -0.4598 -0.1583 -0.9065
    2MPD1    H114126   2.238   1.524  11.339 -2.0063  0.9103  0.2659
    2MPD1    H214127   2.142   1.896  11.166  0.1543 -0.2359  1.1930
    2MPD1    H314128   2.203   1.763  11.355 -1.1321  1.9112 -1.0957
    2MPD1     N14129   2.263   1.387  11.126 -0.6265 -0.4458 -0.9371
    2MPD1    H514130   2.307   1.352  11.210 -0.7321  0.5991 -0.4503
    2MPD1    N114131   2.171   1.811  10.902  0.3026  0.1027  0.1957
    2MPD1    H614132   2.204   1.764  10.818 -0.8371 -1.6296  0.7259
    2MPD1    H714133   2.073   1.837  10.903  0.7904  2.0319 -3.0513
    3MPD1     C14134   2.070   0.632  10.481 -0.5189 -0.2832 -0.1618
    3MPD1    C114135   2.058   0.769  10.473  0.0162  0.4720  0.0441
    3MPD1    C214136   2.120   0.848  10.566  0.4597 -0.4755  0.4026
    3MPD1    C314137   2.179   0.789  10.671  0.6208 -0.2206  0.9595
    3MPD1    C414138   2.192   0.651  10.680 -0.0303 -0.6997 -0.2371
    3MPD1    C514139   2.140   0.577  10.578 -0.1843  0.2208  0.2835
    3MPD1     H14140   2.109   0.956  10.559  1.1726 -0.2522  2.7047
    3MPD1    H114141   2.240   0.599  10.762 -0.1157 -1.7046 -0.8289
    3MPD1    H214142   2.029   0.568  10.404  1.4432  1.9680 -3.1001
    3MPD1    H314143   2.138   0.469  10.576 -1.4851  0.2317  1.2577
    3MPD1     N14144   2.236   0.881  10.761  0.6740  0.4212  0.3510
    3MPD1    H514145   2.213   0.977  10.738 -0.4661  0.2484  0.7639
    3MPD1    N114146   1.984   0.819  10.364  0.1322 -0.4970 -0.6157
    3MPD1    H614147   1.928   0.897  10.398 -0.5486 -0.7769 -1.0972
    3MPD1    H714148   1.917   0.750  10.331  0.0196 -1.3521  1.4011
    4MPD2     C14149   3.500   2.149  11.293  0.1699 -0.4549 -0.1192
    4MPD2    C114150   3.513   2.056  11.394  0.0422 -0.2488 -0.0565
    4MPD2    C214151   3.487   1.925  11.371 -0.4747 -0.1925  0.4379
    4MPD2    C314152   3.435   1.888  11.243  0.5187  0.5397  0.0123
    4MPD2    C414153   3.419   1.986  11.145  0.1614  0.0695 -0.0457
    4MPD2    C514154   3.463   2.111  11.162  0.5199 -0.0361  0.2350
    4MPD2     H14155   3.493   1.847  11.446  0.8011 -1.7372 -1.2669
    4MPD2    H114156   3.374   1.970  11.048  1.2021  1.7041 -0.7906
    4MPD2    H214157   3.543   2.248  11.307  2.5187 -1.3228 -1.2591
    4MPD2    H314158   3.447   2.182  11.081  1.5740 -2.3596 -2.0209
    4MPD2     N14159   3.419   1.755  11.210  0.2096 -0.0632  0.1387
    4MPD2    H514160   3.435   1.686  11.283 -1.6106 -0.9150 -0.2812
    4MPD2    N114161   3.577   2.083  11.518  0.0628  0.6144 -0.1201
    4MPD2    H714162   3.598   2.001  11.575 -1.9752  1.7586  2.2581
    5TMC3    C114163   3.665   2.165  11.712 -0.0896  0.6459 -0.3025
    5TMC3    C214164   3.569   2.214  11.799 -0.6979  0.0537  0.4539
    5TMC3    C314165   3.517   2.125  11.893  0.3077  0.4623  0.7509
    5TMC3    C414166   3.703   2.033  11.732  0.8098  0.4578  0.3306
    5TMC3    C514167   3.658   1.951  11.834  1.0408 -0.2499  0.4204
    5TMC3    C614168   3.567   2.003  11.924  0.1435  0.0775 -0.1051
    5TMC3     C14169   3.631   2.192  11.573  0.7095  0.2405 -0.2836
    5TMC3     O14170   3.626   2.308  11.530  0.7010 -0.2271 -0.6758
    5TMC3     H14171   3.547   2.320  11.800 -1.4984 -0.1249  1.0576
    5TMC3    H114172   3.770   1.997  11.654  0.1156  0.9729 -0.5014
    5TMC3    H214173   3.540   1.959  12.019 -2.0364 -1.2851 -1.3614
    5TMC3    C714174   3.618   1.834  11.774 -0.1193  0.4430 -0.0409
    5TMC3    C814175   3.379   2.099  11.850 -0.4742  0.5573  0.1242
    5TMC3    O114176   3.638   1.826  11.654  0.1188 -0.2674 -0.3570
    5TMC3    O214177   3.346   2.167  11.751  0.3719 -0.4753  0.4367
    6TMC3    C114178   2.298   1.176  11.044  0.2145  0.0024  0.3878
    6TMC3    C214179   2.246   1.072  10.965 -0.4619  0.2323  0.2986
    6TMC3    C314180   2.322   0.958  10.958 -0.0374  0.0758 -0.6036
    6TMC3    C414181   2.409   1.157  11.124 -0.3668 -0.7435 -0.4185
    6TMC3    C514182   2.485   1.043  11.099  0.5712 -0.4060  0.0737
    6TMC3    C614183   2.442   0.947  11.016 -0.2708 -0.3820 -0.3330
    6TMC3     C14184   2.256   1.308  11.017  0.1505 -0.9694  0.4570
    6TMC3     O14185   2.208   1.331  10.905 -0.1497  0.0980 -0.2840
    6TMC3     H14186   2.151   1.071  10.912  1.7352  0.3636 -3.6231
    6TMC3    H114187   2.441   1.238  11.188  0.0889 -0.7690 -0.6103
    6TMC3    H214188   2.510   0.869  10.983 -0.1181 -0.1823 -0.4916
    6TMC3    C714189   2.625   1.070  11.114  0.0968  0.5074 -0.0496
    6TMC3    C814190   2.286   0.843  10.881 -0.8736  0.1663 -0.8445
    6TMC3    O114191   2.652   1.186  11.138  0.4410 -0.4335 -0.4102
    6TMC3    O214192   2.301   0.732  10.930 -0.5178  0.1865 -0.1649
    7MPD2     C14193   3.519   1.346  11.738  0.2906  0.0925  0.2218
    7MPD2    C114194   3.502   1.441  11.645  0.1247  0.5263  0.0049
    7MPD2    C214195   3.511   1.578  11.683  0.0359 -1.0612 -1.5723
    7MPD2    C314196   3.545   1.607  11.817 -0.1488 -0.0972 -0.6736
    7MPD2    C414197   3.532   1.506  11.917 -0.2748  0.2711  0.3096
    7MPD2    C514198   3.534   1.377  11.870  0.5280 -0.1194  0.7491
    7MPD2     H14199   3.498   1.653  11.605  0.9926  1.8494  1.0748
    7MPD2    H114200   3.550   1.531  12.021  0.8084  0.2518  0.1306
    7MPD2    H214201   3.520   1.239  11.719 -1.5113  0.2903 -1.0397
    7MPD2    H314202   3.538   1.296  11.942  2.6892 -0.8341 -0.1842
    7MPD2     N14203   3.579   1.736  11.858 -0.4671 -0.4661 -0.1301
    7MPD2    H514204   3.596   1.751  11.957 -0.5853 -0.0734 -0.1683
    7MPD2    N114205   3.474   1.395  11.518 -0.1943  0.2747  0.2316
    7MPD2    H714206   3.456   1.296  11.506 -0.3802  0.0941  1.9527
    8TMC3    C114207   3.428   1.423  11.290  0.0391  0.1469 -0.9678
    8TMC3    C214208   3.302   1.376  11.313  0.0711  0.2158  0.2144
    8TMC3    C314209   3.210   1.410  11.219  0.6372  0.5002  0.7738
    8TMC3    C414210   3.454   1.511  11.195 -0.7980  0.3929  0.0823
    8TMC3    C514211   3.357   1.560  11.111 -0.1666 -0.0184  0.3904
    8TMC3    C614212   3.239   1.498  11.121  0.6258  0.2595 -0.0819
    8TMC3     C14213   3.492   1.476  11.407 -0.6163 -0.1393  0.5724
    8TMC3     O14214   3.551   1.579  11.393 -0.7190 -0.2859  0.5445
    8TMC3     H14215   3.281   1.316  11.401  0.3711 -0.0679  0.0957
    8TMC3    H114216   3.556   1.536  11.166 -0.4552 -0.5289  0.4973
    8TMC3    H214217   3.169   1.527  11.044 -1.7647  0.5548  2.2048
    8TMC3    C714218   3.355   1.701  11.101  0.1941  0.2142  0.0817
    8TMC3    C814219   3.100   1.321  11.194  0.6955 -0.5096 -0.0120
    8TMC3    O114220   3.305   1.759  11.005  0.4091  0.5761  0.3752
    8TMC3    O214221   2.991   1.372  11.168 -0.1846  0.3703 -0.4459
    9MPD2     C14222   3.113   0.960  11.261 -0.1494  0.3698 -0.2952
    9MPD2    C114223   3.054   1.079  11.219 -0.1325 -0.1274  0.0881
    9MPD2    C214224   2.920   1.079  11.171  0.2064  0.0387 -0.9062
    9MPD2    C314225   2.840   0.966  11.172 -0.5055 -0.0810  0.1331
    9MPD2    C414226   2.900   0.850  11.219  0.8413 -0.5974 -0.0808
    9MPD2    C514227   3.037   0.847  11.255  0.6131 -0.8559 -0.3083
    9MPD2     H14228   2.890   1.175  11.131  3.6050  0.6847 -1.9208
    9MPD2    H114229   2.846   0.756  11.220  1.0698 -0.7261  0.2033
    9MPD2    H214230   3.215   0.953  11.297 -0.2326  2.3266  0.3691
    9MPD2    H314231   3.065   0.750  11.294 -1.3110 -0.6904  1.4919
    9MPD2     N14232   2.701   0.957  11.144 -0.2471 -0.3717  0.3727
    9MPD2    H514233   2.653   0.867  11.152 -1.0893  0.2407  2.3598
    9MPD2    N114234   3.137   1.188  11.216  0.4507 -0.3431 -0.5892
    9MPD2    H714235   3.235   1.172  11.235  0.0410 -2.2339 -0.1474
    1MPD1     C14236   2.723   4.558   0.181 -1.0313 -0.5652 -0.0995
    1MPD1    C114237   2.689   4.511   0.303  0.1234 -0.0748 -0.9462
    1MPD1    C214238   2.784   4.527   0.401  0.0273  0.7092  0.1495
    1MPD1    C314239   2.908   4.587   0.370 -1.0586  0.0924  0.1688
    1MPD1    C414240   2.938   4.628   0.239  0.5566  0.2711 -0.3983
    1MPD1    C514241   2.850   4.597   0.146 -0.0515  0.5729  0.8071
    1MPD1     H14242   2.761   4.489   0.499 -0.5917  2.8319  0.8236
    1MPD1    H114243   3.037   4.669   0.219  2.4330 -3.0749  2.1202
    1MPD1    H214244   2.651   4.552   0.100  2.3998 -0.6166 -3.0994
    1MPD1    H314245   2.874   4.624   0.044  0.3905 -3.3007 -0.1003
    1MPD1     N14246   3.005   4.614   0.470 -0.0544 -0.4110  0.2277
    1MPD1    H514247   3.092   4.656   0.438 -0.5069  0.6004  0.3418
    1MPD1    N114248   2.556   4.473   0.341  0.6152  0.3190 -0.4366
    1MPD1    H614249   2.565   4.419   0.427 -0.6070 -0.9471 -1.0911
    1MPD1    H714250   2.505   4.424   0.268 -1.4059  0.5802  0.8257
    2MPD1     C14251   3.424   4.624   1.494 -0.4286 -0.1474  0.7253
    2MPD1    C114252   3.511   4.685   1.404 -0.4582 -0.4691 -0.2178
    2MPD1    C214253   3.472   4.690   1.275 -0.1969  0.1132  0.1062
    2MPD1    C314254   3.352   4.628   1.225 -0.2212 -0.4177 -0.1186
    2MPD1    C414255   3.271   4.562   1.315 -0.2476 -0.6127  0.2837
    2MPD1    C514256   3.305   4.560   1.451  0.8342 -0.2149 -0.1299
    2MPD1     H14257   3.549   0.018   1.216 -0.8581 -0.8929 -1.5799
    2MPD1    H114258   3.178   4.513   1.287  0.1124 -0.9300 -0.3578
    2MPD1    H214259   3.444   4.618   1.600  0.6229  0.9697  0.5972
    2MPD1    H314260   3.245   4.488   1.505 -1.5549 -0.1274 -2.6364
    2MPD1     N14261   3.323   4.653   1.094 -0.0669 -0.1825  0.3121
    2MPD1    H514262   3.386   4.707   1.036  0.9052 -1.0996  0.5192
    2MPD1    N114263   3.641   4.713   1.442  0.2389 -0.9146 -0.0346
    2MPD1    H614264   3.643   0.013   1.542 -1.0201  0.3989 -0.2741
    2MPD1    H714265   3.686   0.067   1.389 -0.1924  0.2352  1.1928
    3TCq2    C114266   3.211   4.606   1.032  0.0142 -0.0047 -0.0982
    3TCq2    O214267   3.106   4.557   1.071 -0.3839 -0.4742  0.4639
    3TCq2    C214268   3.216   4.638   0.890  0.1154  0.2005 -0.4346
    3TCq2    C314269   3.323   4.694   0.832  0.0521  0.0365  0.0560
    3TCq2    C414270   3.326   4.705   0.698  0.1491 -0.7180  0.8177
    3TCq2    C514271   3.231   4.663   0.617  0.0339  0.0369  0.2681
    3TCq2    C614272   3.118   4.607   0.672  0.4919 -0.4110 -0.2402
    3TCq2    C714273   3.115   4.575   0.809  0.0488  0.2793 -0.2664
    3TCq2    C814274   2.989   4.602   0.603  0.1855 -0.5983  0.0395
    3TCq2    O414275   2.891   4.561   0.666 -0.5732 -0.2545 -0.1739
    3TCq2    C914276   3.433   0.057   0.640  0.2529  0.1103  0.2142
    3TCq2    O514277   3.413   0.100   0.523  0.3017 -0.5530  0.3584
    3TCq2    O614278   3.542   0.044   0.703  0.6901 -0.2805  0.0037
    3TCq2    H214279   3.389   0.036   0.890 -2.0518 -0.7781  3.3485
    3TCq2    H314280   3.248   4.679   0.512  2.2120  0.1728  0.6373
    3TCq2    H414281   3.025   4.533   0.852 -0.0683  0.5395 -0.2552
    1TCq1    O114282   4.584   4.419  13.659 -0.0705  0.1586 -0.7112
    1TCq1    C114283   4.478   4.353  13.601  0.1545  1.5200 -0.0184
    1TCq1    O214284   4.407   4.400  13.515 -0.3021  0.3951  0.1735
    1TCq1    C214285   4.536   4.221  13.617  0.3482  0.5111  0.5238
    1TCq1    C314286   4.591   4.165  13.731  0.0092 -0.5271 -0.4267
    1TCq1    C414287   4.651   4.038  13.722 -0.0025  0.1495 -0.3558
    1TCq1    C514288   4.661   3.968  13.602 -0.4765 -0.6600 -0.1258
    1TCq1    C614289   4.593   4.024  13.497 -0.0944  0.2610  0.6947
    1TCq1    C714290   4.521   4.143  13.505  0.3062  0.8874 -0.2610
    1TCq1    C814291   4.591   3.951  13.367  0.0667  0.5595 -0.9805
    1TCq1    O414292   4.490   3.973  13.302 -0.3031 -0.2043  0.1431
    1TCq1    C914293   4.686   3.976  13.847  0.4765 -0.7557  0.7498
    1TCq1    O514294   0.054   3.887  13.830 -0.8343  0.1923  0.3629
    1TCq1    O614295   4.622   4.008  13.951 -0.6183  0.3796 -0.0711
    1TCq1    H114296   4.637   4.361  13.718 -1.9816  1.1612  1.9677
    1TCq1    H214297   4.583   4.209  13.830  0.1656 -1.3718 -0.0479
    1TCq1    H314298   4.699   3.867  13.604  0.7820 -0.1611  1.2327
    1TCq1    H414299   4.463   4.173  13.419  1.4323 -1.2085 -1.7776
    2MPD2     C14300   4.614   3.745  13.167  0.4975  0.7618 -0.3010
    2MPD2    C114301   4.720   3.790  13.245 -0.0874 -0.4073  0.0918
    2MPD2    C214302   0.127   3.753  13.213 -0.1371 -0.4515  0.6980
    2MPD2    C314303   0.153   3.682  13.098  0.3715  0.4139 -0.4067
    2MPD2    C414304   0.047   3.644  13.015 -0.2570  0.0370 -0.2733
    2MPD2    C514305   4.636   3.666  13.054 -0.2791  0.6763  0.2620
    2MPD2     H14306   0.209   3.786  13.275 -0.9997  2.6217  0.1647
    2MPD2    H114307   0.060   3.588  12.923 -1.8196  2.3737 -1.8961
    2MPD2    H214308   4.508   3.764  13.177  0.7435  1.4080  1.1513
    2MPD2    H314309   4.552   3.630  12.995  0.2175  2.0660 -1.2983
    2MPD2     N14310   0.287   3.656  13.068  0.0296  0.1727 -0.4619
    2MPD2    H514311   0.355   3.702  13.128  1.6154 -0.8863 -1.4112
    2MPD2    N114312   4.704   3.864  13.359  0.7898 -0.1109  0.2609
    2MPD2    H714313   0.058   3.882  13.425  0.1590  2.5384  0.2806
    3TCq1    O114314   0.824   3.700  12.696  0.0585  0.1377  0.0384
    3TCq1    C114315   0.739   3.592  12.702  0.1435  0.2356  0.1345
    3TCq1    O214316   0.681   3.546  12.605  0.4210 -0.3654  0.0965
    3TCq1    C214317   0.676   3.608  12.834 -0.5856 -0.5677  0.3679
    3TCq1    C314318   0.752   3.620  12.951  0.3069 -0.7103 -0.2670
    3TCq1    C414319   0.683   3.623  13.072  0.6531  0.2746 -0.1182
    3TCq1    C514320   0.544   3.606  13.068  1.1710  0.3539 -0.0435
    3TCq1    C614321   0.480   3.593  12.952 -0.3333 -0.0766  0.2529
    3TCq1    C714322   0.542   3.585  12.836  0.1428 -0.4668  0.4267
    3TCq1    C814323   0.330   3.596  12.951  0.7119  0.1628 -0.1970
    3TCq1    O414324   0.271   3.550  12.853  0.2708  0.3293 -0.1457
    3TCq1    C914325   0.742   3.613  13.205  1.9251 -0.0983  0.2945
    3TCq1    O514326   0.672   3.651  13.302 -0.7303  0.1750  0.7430
    3TCq1    O614327   0.859   3.574  13.219 -0.1476  0.5212 -0.2706
    3TCq1    H114328   0.820   3.760  12.774 -0.6447 -0.4311  0.4455
    3TCq1    H214329   0.857   3.645  12.949  0.4587 -1.2939  0.6833
    3TCq1    H314330   0.509   3.578  13.166  0.2938  2.2325  0.1702
    3TCq1    H414331   0.491   3.573  12.741 -1.1048 -0.5991  1.1139
    1MPD2     C14332   0.122   0.611  15.603 -0.3122 -0.5366  0.0429
    1MPD2    C114333   0.155   0.532  15.499 -0.0161 -1.1139  0.4287
    1MPD2    C214334   0.286   0.494  15.475 -0.2308  0.0812 -0.3184
    1MPD2    C314335   0.387   0.552  15.563 -0.2387  0.3967 -0.2706
    1MPD2    C414336   0.346   0.612  15.679  0.2567 -0.1624 -0.0473
    1MPD2    C514337   0.220   0.658  15.691 -0.3225 -0.4588 -0.3133
    1MPD2     H14338   0.318   0.422  15.400  0.5786  0.0650  0.0457
    1MPD2    H114339   0.422   0.639  15.751  0.0040  0.4127  0.0044
    1MPD2    H214340   0.024   0.651  15.625  0.8579  0.4800  3.3932
    1MPD2    H314341   0.186   0.716  15.776 -0.8965 -2.6857  0.9497
    1MPD2     N14342   0.526   0.525  15.535 -0.0895  0.2700 -0.1368
    1MPD2    H514343   0.594   0.539  15.609 -0.7729  0.1769  0.5116
    1MPD2    N114344   0.043   0.485  15.424 -0.1968 -0.0313  0.0071
    1MPD2    H714345   4.669   0.508  15.453 -0.3226 -0.5904  0.0370
    2TMC3    C114346   4.657   0.308  15.303  0.3681 -0.6611  0.9649
    2TMC3    C214347   4.694   0.188  15.244 -0.4181 -0.7398 -0.3041
    2TMC3    C314348   4.651   0.141  15.118 -0.0238 -0.0252 -0.4856
    2TMC3    C414349   4.559   0.371  15.243 -0.1154  0.4115  0.5032
    2TMC3    C514350   4.508   0.325  15.126 -0.2834 -0.2030  0.2560
    2TMC3    C614351   4.553   0.212  15.059  0.5282 -0.4887 -0.1917
    2TMC3     C14352   0.055   0.385  15.331 -0.0570  0.3856 -0.1925
    2TMC3     O14353   0.159   0.333  15.281 -0.0428  0.7575  0.2117
    2TMC3     H14354   0.047   0.127  15.296 -1.5503 -1.4018  0.5292
    2TMC3    H114355   4.518   0.466  15.276 -0.0411  1.0750 -1.3122
    2TMC3    H214356   4.515   0.179  14.963 -0.9993 -3.0057  1.2762
    2TMC3    C714357   4.390   0.394  15.070 -0.1091 -0.3418  0.4480
    2TMC3    C814358   0.043   0.104  15.038  0.5635 -0.2981 -0.6175
    2TMC3    O114359   4.330   0.327  14.990  0.0815  0.2460 -0.1441
    2TMC3    O214360   0.024   0.075  14.918 -0.7556 -0.6676 -0.1352
    3TCq1    O114361   4.248   1.600  14.957  1.0421  0.1956 -0.5552
    3TCq1    C114362   4.223   1.547  15.079 -0.4372  0.2456 -0.1484
    3TCq1    O214363   4.129   1.577  15.149 -0.0224 -0.4860 -0.1571
    3TCq1    C214364   4.279   1.415  15.059  0.3762 -0.2299 -0.5098
    3TCq1    C314365   4.414   1.415  15.019  0.5130 -0.6404 -0.1081
    3TCq1    C414366   4.447   1.311  14.939  0.3121  0.2123  0.3893
    3TCq1    C514367   4.367   1.205  14.905 -0.9237  0.0603  0.0569
    3TCq1    C614368   4.239   1.214  14.959  0.9051  0.0269  0.5415
    3TCq1    C714369   4.193   1.322  15.026  0.1123  0.4839  0.0165
    3TCq1    C814370   4.169   1.091  14.991  0.6988  0.2321  0.1600
    3TCq1    O414371   4.055   1.101  15.034 -0.2145 -0.3069 -0.3934
    3TCq1    C914372   4.588   1.317  14.892 -0.3522  0.3021 -0.2593
    3TCq1    O514373   4.636   1.201  14.863 -0.2871 -0.2061  0.0751
    3TCq1    O614374   4.639   1.432  14.887 -0.0090 -0.2668 -0.2350
    3TCq1    H114375   4.323   1.552  14.915 -1.0755 -3.5193 -0.1161
    3TCq1    H214376   4.488   1.479  15.065  2.7679 -3.0902 -0.3081
    3TCq1    H314377   4.397   1.116  14.850  2.4731  0.8957  0.5696
    3TCq1    H414378   4.090   1.322  15.062 -0.4530 -2.1363 -1.6356
    4MPD2     C14379   4.093   0.802  15.005 -0.4098  0.0274 -0.7703
    4MPD2    C114380   4.221   0.847  15.028 -0.3553  0.8709 -0.0631
    4MPD2    C214381   4.326   0.754  15.054  0.6056  0.2431  0.1004
    4MPD2    C314382   4.294   0.625  15.047  0.3012 -0.2704 -0.3816
    4MPD2    C414383   4.164   0.576  15.023  0.2584  0.2398  0.3158
    4MPD2    C514384   4.061   0.668  15.014 -0.0200  0.2533 -0.2638
    4MPD2     H14385   4.430   0.779  15.066  1.0036 -2.5188  2.2784
    4MPD2    H114386   4.133   0.472  15.020 -0.5612  0.5424 -1.6410
    4MPD2    H214387   4.015   0.874  14.986  0.8915  2.0091  1.4136
    4MPD2    H314388   3.959   0.639  14.989 -0.1422 -0.6970  1.2945
    4MPD2     N14389   4.394   0.532  15.091 -0.5268  0.2345 -0.7247
    4MPD2    H514390   4.464   0.581  15.146  2.3544 -1.3936 -2.9150
    4MPD2    N114391   4.257   0.982  15.001 -0.4028  0.6420  0.1897
    4MPD2    H714392   4.357   0.994  14.990 -0.3424 -1.0181 -1.0082
    5TMC2    C114393   0.801   0.231  15.297  0.4575 -0.0472  0.1001
    5TMC2    C214394   0.834   0.172  15.423  0.2551 -0.1439  0.4150
    5TMC2    C314395   0.808   0.241  15.533  0.1030 -0.0093 -0.2217
    5TMC2    C414396   0.747   0.359  15.299 -0.3670 -0.7194 -0.4195
    5TMC2    C514397   0.708   0.420  15.421  0.1553  0.1749  0.1531
    5TMC2    C614398   0.741   0.360  15.539 -0.1933 -0.3064  0.0815
    5TMC2     C14399   0.742   0.144  15.205 -0.2946  0.2573  0.8213
    5TMC2     O14400   0.795   0.040  15.165  0.1260  0.4304 -0.1585
    5TMC2     H14401   0.890   0.079  15.422 -1.2971 -1.0825  2.5501
    5TMC2    H114402   0.728   0.404  15.203 -1.3166  0.6352  0.4006
    5TMC2    H214403   0.706   0.385  15.638 -0.9275 -0.8622 -0.0364
    5TMC2    C714404   0.571   0.473  15.415 -0.7641 -0.3370 -1.1544
    5TMC2    C814405   0.829   0.175  15.657  0.3628  0.0495 -0.1482
    5TMC2    O114406   0.508   0.452  15.308 -0.2347 -0.2910 -0.3461
    5TMC2    O214407   0.845   0.058  15.668  0.0230 -0.2590  0.7849
    5TMC2    O514408   0.918   0.261  15.705  0.2285  0.5859 -0.1460
    5TMC2    H514409   0.918   0.356  15.681 -1.5476  0.7232  0.4367
    6MPD2     C14410   0.313   0.011  14.956 -0.4999  0.1868  0.5040
    6MPD2    C114411   0.290   0.101  15.052 -0.0525 -0.4933  0.3560
    6MPD2    C214412   0.394   0.155  15.124  0.5737 -0.2825  0.3247
    6MPD2    C314413   0.519   0.119  15.104 -0.0152 -0.1489 -0.0395
    6MPD2    C414414   0.545   0.038  15.004  0.8177 -0.1158 -0.0120
    6MPD2    C514415   0.450   4.703  14.925  0.1609 -0.5796 -0.0059
    6MPD2     H14416   0.367   0.211  15.213  0.9852 -0.3825  0.5136
    6MPD2    H114417   0.644   0.018  14.965  1.1880  2.2272 -0.2997
    6MPD2    H214418   0.240   4.682  14.893 -2.2544  1.1451  1.7697
    6MPD2    H314419   0.488   4.636  14.849  0.4864 -0.1951 -0.1814
    6MPD2     N14420   0.615   0.186  15.184 -0.0457  0.2000  0.5809
    6MPD2    H514421   0.586   0.267  15.238 -2.5106  0.3458 -0.9530
    6MPD2    N114422   0.165   0.145  15.095  0.0914  0.4055 -0.0350
    6MPD2    H714423   0.155   0.216  15.166 -1.8309  0.8957 -0.8043
  945NH3     N114424   0.901   3.391   9.086  0.0547 -0.6618  0.7208
  945NH3     H214425   0.879   3.322   9.157 -0.1257 -0.7121  0.6159
  945NH3     H314426   0.982   3.362   9.034 -0.6138  0.9605 -1.2048
  945NH3     H414427   0.941   3.470   9.136  1.0741 -1.0962  0.5712
  946SOD     NA14428   4.081   1.571  15.374 -0.5612  0.0275 -0.2520
  947SOD     NA14429   0.536   2.851   2.564  0.1725 -0.1547  0.6019
  948SOD     NA14430   0.071   0.767  14.731  0.0979  0.1193  0.1055
  949SOD     NA14431   1.812   4.431  11.602  0.0705 -0.0506  0.1784
  950SOD     NA14432   4.153   4.716  10.176 -0.1817  0.2322  0.3104
  951SOD     NA14433   0.449   1.729   9.081  0.1133  0.1689 -0.0721
  952SOD     NA14434   2.936   1.972  11.028  0.4100 -0.1836  0.1264
  953SOD     NA14435   1.646   1.993  16.936 -0.5326 -0.5681 -0.1195
  954SOD     NA14436   2.107   3.160  12.983  0.2161 -0.0788  0.2278
  955SOD     NA14437   3.225   4.268   1.783  0.3518  0.1711 -0.2921
  956SOD     NA14438   3.898   2.849   1.384 -0.4076  0.6259 -0.0769
  957SOD     NA14439   4.240   3.675  10.517  0.1640  0.1256 -0.0407
  958SOD     NA14440   1.517   0.974  10.427 -0.2643 -0.1104 -0.4119
  959SOD     NA14441   1.942   3.659  14.227  0.4589 -0.0893 -0.6722
  960SOD     NA14442   0.352   3.338  10.337 -0.3023 -0.3598 -0.0266
  961SOD     NA14443   1.008   1.913   9.870 -0.3900  0.3436 -0.3512
  962SOD     NA14444   4.064   1.449   6.384  0.0955  0.6464  0.0107
  963SOD     NA14445   2.135   0.339  16.172 -0.1178  0.1749 -0.1112
  964SOD     NA14446   0.672   1.204   7.904  0.2732  0.4687  0.2330
  965SOD     NA14447   0.698   4.280  17.590 -0.3296 -0.1040  0.0711
  966SOD     NA14448   0.086   1.092  14.783 -0.2013 -0.0810 -0.4509
  967SOD     NA14449   0.476   2.768  10.387 -0.3476 -0.5028 -0.2206
  968SOD     NA14450   0.510   0.734   0.422 -0.1353  0.0220  0.0329
  969SOD     NA14451   1.687   3.050   2.086  0.2297  0.0214 -0.6345
  970SOD     NA14452   1.730   0.557  17.558  0.0417 -0.0769  0.4913
  971SOD     NA14453   1.566   3.757  14.440 -0.4898  0.0969  0.0414
  972SOD     NA14454   0.904   3.635  11.986 -0.3010  0.2077 -0.0719
  973SOD     NA14455   4.526   1.935   1.104 -0.6721  0.1829 -0.0975
  974SOD     NA14456   1.068   0.989   4.092 -0.3667  0.2307  0.0648
  975SOD     NA14457   0.629   3.822  11.666 -0.1741  0.0008 -0.1475
  976SOD     NA14458   2.447   2.792  14.338  0.0045 -0.0165  0.6798
  977SOD     NA14459   1.321   3.652  10.257 -0.3023 -0.3359  0.3474
  978SOD     NA14460   1.225   2.566  12.360  0.2590 -0.1193  0.1284
  979SOD     NA14461   3.815   3.048  13.844  0.2000  0.7006  0.0653
  980SOD     NA14462   2.812   2.850  14.902 -0.2229 -0.2974 -0.3898
  981SOD     NA14463   0.268   3.014  10.429  0.3069 -0.0537 -0.1610
  982SOD     NA14464   4.641   3.253  10.609  0.3933 -0.1012  0.5439
  983SOD     NA14465   3.360   2.852   0.894 -0.6373 -0.1398  0.3186
  984SOD     NA14466   1.046   3.991  12.355  0.0507  0.6499  0.5159
  985SOD     NA14467   4.585   2.143   5.484 -0.1340 -0.2981 -0.2914
  986SOD     NA14468   3.076   3.415   8.575  0.0058 -0.4156  0.2833
  987SOD     NA14469   2.501   0.085   0.763  0.7051  0.2034  0.0280
  988SOD     NA14470   2.673   0.413  12.720  0.1857  0.0730 -0.0708
  989SOD     NA14471   2.295   3.248   2.009  0.1731 -0.1496 -0.6594
  990SOD     NA14472   2.420   2.939   1.497  0.1816  0.2634  0.6205
  991SOD     NA14473   0.323   0.416  14.245 -0.0446 -0.0233  0.3146
  992SOD     NA14474   4.677   0.568   9.056  0.2734 -0.1448 -0.1177
  993SOD     NA14475   4.251   0.431   0.901 -0.0224  0.1119 -0.2949
  994SOD     NA14476   1.922   0.070  13.455  0.1399 -0.2676  0.1204
  995SOD     NA14477   3.139   4.398  16.123  0.1579  0.3581  0.4145
  996SOD     NA14478   0.325   1.732  10.862 -0.0684 -0.2231  0.0252
  997SOD     NA14479   1.026   4.017   0.303  0.2149 -0.4826  0.0790
  998SOD     NA14480   1.750   3.757  11.760 -0.2911 -0.0850 -0.3855
  999SOD     NA14481   1.126   2.209  17.356 -0.4304  0.0246  0.7902
 1000SOD     NA14482   0.256   0.155  11.830  0.0081 -0.2526 -0.0234
 1001SOD     NA14483   2.014   1.699   7.164 -0.0674 -0.0134 -0.0520
 1002SOD     NA14484   0.370   0.410  12.292  0.2673 -0.4109  0.0281
 1003SOD     NA14485   1.020   3.938  12.051 -0.3955  0.0016  0.6938
 1004SOD     NA14486   3.600   3.353  12.871 -0.3033 -0.0552  0.8052
 1005SOD     NA14487   1.285   4.110  13.886  0.0073 -0.1152  0.2714
 1006SOD     NA14488   4.017   2.139   8.943 -0.3945  0.6527 -0.0275
 1007SOD     NA14489   1.984   0.540   8.315  0.0539 -0.4815  0.6907
 1008SOD     NA14490   3.966   4.080  15.438 -0.8266  0.0791 -0.4921
 1009SOD     NA14491   1.486   0.167  15.037 -0.4320 -0.1224  0.1668
 1010SOD     NA14492   2.157   2.825   1.671 -0.1532 -0.0656  0.1958
 1011SOD     NA14493   3.086   1.714  14.030  0.0752 -0.2589  0.2883
 1012SOL     OW14494   0.827   0.580  14.877 -0.1983 -0.1616 -0.0591
 1012SOL    HW114495   0.812   0.634  14.955  3.0410  0.9018 -0.1686
 1012SOL    HW214496   0.852   0.648  14.814 -0.8789  1.5662  1.4994
 1013SOL     OW14497   3.731   4.240   5.674 -0.1746  0.5283  0.0277
 1013SOL    HW114498   3.787   4.301   5.625  0.8049 -0.7346 -0.4251
 1013SOL    HW214499   3.647   4.287   5.673 -0.6275 -0.2889 -2.6480
 1014SOL     OW14500   0.528   4.227   7.002 -0.1110 -0.0713  0.0495
 1014SOL    HW114501   0.609   4.180   7.024  0.5156  0.8653 -0.2445
 1014SOL    HW214502   0.549   4.257   6.913  1.6141 -0.3213  0.3696
 1015SOL     OW14503   2.000   4.587   4.200 -0.0162  0.1617  0.3606
 1015SOL    HW114504   2.028   4.671   4.237 -0.9271  1.1720 -1.2733
 1015SOL    HW214505   1.926   4.562   4.255  0.8887 -0.3103  1.3826
 1016SOL     OW14506   2.135   2.806  13.851 -0.1018  0.4915  0.1017
 1016SOL    HW114507   2.168   2.894  13.834 -1.2809  1.0174  0.5452
 1016SOL    HW214508   2.207   2.763  13.897  0.9921  1.6509 -0.5028
 1017SOL     OW14509   1.261   0.635   6.228  0.0382 -0.5161 -0.0850
 1017SOL    HW114510   1.209   0.558   6.206 -2.7939  1.1909  0.7512
 1017SOL    HW214511   1.309   0.607   6.306  2.0757  1.1244 -0.7537
 1018SOL     OW14512   2.838   1.643   1.414  0.4823  0.0272  0.2441
 1018SOL    HW114513   2.749   1.622   1.387 -0.9149  3.3385  2.3163
 1018SOL    HW214514   2.818   1.692   1.494 -0.6638 -0.9463  0.5486
 1019SOL     OW14515   2.144   1.529   5.779  0.0511 -0.7901  0.8830
 1019SOL    HW114516   2.105   1.479   5.850 -0.7225  1.2643  1.9078
 1019SOL    HW214517   2.128   1.620   5.806  1.7371  0.8397 -3.5476
 1020SOL     OW14518   3.329   0.064   4.270  0.2975  0.0300 -0.4070
 1020SOL    HW114519   3.359   0.154   4.255  0.7177  0.1243  0.9916
 1020SOL    HW214520   3.252   0.067   4.214  1.1501 -1.0288 -1.6326
 1021SOL     OW14521   3.322   4.376   9.351  0.5121 -0.2847  0.2153
 1021SOL    HW114522   3.410   4.337   9.357 -0.3990 -2.3981 -0.0480
 1021SOL    HW214523   3.326   4.427   9.270  1.0283 -1.4588 -0.5092
 1022SOL     OW14524   2.434   2.891   2.839 -0.6016  0.0379 -0.2601
 1022SOL    HW114525   2.365   2.833   2.870 -1.1393  0.2000 -1.1394
 1022SOL    HW214526   2.509   2.852   2.884 -0.5963 -1.9585 -1.9577
 1023SOL     OW14527   1.462   2.724   3.072  0.5558  0.3782 -0.6005
 1023SOL    HW114528   1.415   2.773   3.004  1.5385  0.3596 -1.2919
 1023SOL    HW214529   1.396   2.670   3.115  2.0333 -0.8368  0.1201
 1024SOL     OW14530   3.269   1.570   8.468 -0.0348  0.0553 -0.3967
 1024SOL    HW114531   3.344   1.628   8.483  1.6870 -2.5340  0.8683
 1024SOL    HW214532   3.308   1.486   8.444 -1.1253 -0.3820 -0.6384
 1025SOL     OW14533   1.599   3.172  12.608  0.3980  0.1306 -0.0150
 1025SOL    HW114534   1.515   3.137  12.578  1.0921 -0.4417 -1.2945
 1025SOL    HW214535   1.565   3.230  12.676  2.1089 -0.2443  1.1629
 1026SOL     OW14536   1.463   2.475   3.263 -0.1765  0.0862 -0.4259
 1026SOL    HW114537   1.512   2.503   3.186  1.4549  1.3428  1.0834
 1026SOL    HW214538   1.458   2.542   3.331  1.2278 -0.3616  0.0972
 1027SOL     OW14539   4.274   2.078   7.969 -0.1712  0.1427 -0.1470
 1027SOL    HW114540   4.179   2.091   7.966 -0.2599  0.3785  3.6584
 1027SOL    HW214541   4.280   1.984   7.987  2.9235  0.3477 -0.0025
 1028SOL     OW14542   1.379   4.239   3.030  0.0948 -0.8240  0.2330
 1028SOL    HW114543   1.465   4.281   3.030 -1.0369  1.4846  1.1985
 1028SOL    HW214544   1.405   4.147   3.026  0.8608 -0.5964 -0.1248
 1029SOL     OW14545   3.980   3.212  11.755  0.7270  0.1281 -0.2421
 1029SOL    HW114546   4.033   3.135  11.774  0.6430  0.6560  2.1356
 1029SOL    HW214547   3.906   3.169  11.712 -0.2633  0.4625  1.1573
 1030SOL     OW14548   0.734   4.568   5.759  0.0782  0.3078  0.3438
 1030SOL    HW114549   0.763   4.651   5.796  2.0696  0.2504 -1.0989
 1030SOL    HW214550   0.717   4.594   5.668  1.5449  1.8671  0.5168
 1031SOL     OW14551   0.682   4.456   7.556  0.1657 -0.0597  0.5592
 1031SOL    HW114552   0.747   4.386   7.561 -0.6577 -0.6743  2.3432
 1031SOL    HW214553   0.729   4.523   7.605  1.5461 -2.0438  1.9519
 1032SOL     OW14554   0.967   0.667   3.621  0.0518  0.3777  0.4010
 1032SOL    HW114555   1.046   0.710   3.653  0.8201 -0.4622 -0.3779
 1032SOL    HW214556   0.903   0.732   3.650  0.2227 -0.0239  1.6841
 1033SOL     OW14557   4.253   3.927   3.178 -0.6278 -0.3526 -0.7019
 1033SOL    HW114558   4.259   3.888   3.265 -1.8985  0.4340 -0.2710
 1033SOL    HW214559   4.180   3.985   3.194  0.9591  0.6935  2.7335
 1034SOL     OW14560   3.127   0.637   4.220  0.3910  0.2466 -0.1767
 1034SOL    HW114561   3.216   0.657   4.192  0.8321 -0.7372  0.5457
 1034SOL    HW214562   3.079   0.702   4.168  0.1108  0.2937  0.1419
 1035SOL     OW14563   2.973   0.863   1.007 -0.7177  0.3058  0.1087
 1035SOL    HW114564   3.018   0.785   0.974 -0.6692  0.6477 -0.6388
 1035SOL    HW214565   2.906   0.819   1.059  1.0161  0.3552  2.3846
 1036SOL     OW14566   3.789   1.348   3.455 -0.1941 -0.3021 -0.3008
 1036SOL    HW114567   3.736   1.309   3.525  2.8477 -2.4079  0.8290
 1036SOL    HW214568   3.874   1.308   3.472  0.4847  1.8773  1.4449
 1037SOL     OW14569   0.650   3.332   3.588  0.3179  0.5310  0.7586
 1037SOL    HW114570   0.609   3.411   3.621 -1.7486 -0.1572 -0.1909
 1037SOL    HW214571   0.718   3.364   3.529 -2.9144  2.2656 -1.9901
 1038SOL     OW14572   1.164   0.311   8.124  0.4565 -0.4030 -0.0766
 1038SOL    HW114573   1.204   0.305   8.038 -0.4085 -0.6600 -0.4671
 1038SOL    HW214574   1.084   0.359   8.104 -0.1327 -1.1628  0.4309
 1039SOL     OW14575   2.295   2.662  17.062  0.1748  0.0320 -0.0961
 1039SOL    HW114576   2.387   2.682  17.048  0.6355 -1.6315  0.5353
 1039SOL    HW214577   2.280   2.618  16.978  0.4103 -0.1763 -0.0262
 1040SOL     OW14578   0.683   2.104   4.063 -0.0780 -0.0845 -0.2127
 1040SOL    HW114579   0.695   2.162   4.138 -0.3832 -1.4876  0.9268
 1040SOL    HW214580   0.589   2.089   4.067 -0.5263  2.0847 -2.6787
 1041SOL     OW14581   0.326   2.227  17.234 -0.2847  0.3699  0.8278
 1041SOL    HW114582   0.263   2.208  17.164  1.4449  0.3963 -0.7091
 1041SOL    HW214583   0.355   2.318  17.227  1.3298 -0.3025 -1.0252
 1042SOL     OW14584   1.534   0.752   3.329 -0.2833 -0.3176  0.1433
 1042SOL    HW114585   1.602   0.694   3.365  0.6436  1.2578  0.9635
 1042SOL    HW214586   1.496   0.704   3.255  2.5709 -0.9052 -0.9282
 1043SOL     OW14587   4.588   0.660   9.635  0.2071  0.2712 -0.6814
 1043SOL    HW114588   4.654   0.729   9.626 -1.2717  1.9582  1.7726
 1043SOL    HW214589   4.619   0.594   9.572  1.1396  2.2170 -2.2416
 1044SOL     OW14590   0.863   1.548   0.566 -0.0822  0.5395  0.0551
 1044SOL    HW114591   0.846   1.572   0.474  1.8498 -0.6898 -0.6309
 1044SOL    HW214592   0.805   1.609   0.611  3.2858  2.3794  1.9159
 1045SOL     OW14593   3.402   1.124  11.519 -0.0577  0.4174  0.3517
 1045SOL    HW114594   3.438   1.092  11.436 -2.2419  1.1209 -0.8705
 1045SOL    HW214595   3.432   1.053  11.576 -2.2456  0.1532  1.1913
 1046SOL     OW14596   1.943   2.970  16.103 -0.7047 -0.3586 -0.1629
 1046SOL    HW114597   1.978   2.911  16.170  0.3168 -0.4367 -0.7633
 1046SOL    HW214598   2.022   2.991  16.054 -0.1547 -0.8561  0.5001
 1047SOL     OW14599   3.229   3.134   3.995 -0.2130  0.0811 -0.4010
 1047SOL    HW114600   3.323   3.124   3.977  0.1406  3.0980 -0.2984
 1047SOL    HW214601   3.192   3.060   3.948 -0.8216  0.7282 -0.9450
 1048SOL     OW14602   3.597   2.454   8.684 -0.3370  0.3680 -0.4760
 1048SOL    HW114603   3.635   2.527   8.733  0.6898  1.6651 -3.1913
 1048SOL    HW214604   3.586   2.495   8.598 -2.2782 -0.2238 -0.5091
 1049SOL     OW14605   1.937   0.052  12.256  0.4285  0.2724  0.1110
 1049SOL    HW114606   1.918   0.128  12.311 -0.7119  0.8523 -1.0903
 1049SOL    HW214607   1.851   0.032  12.219  2.0107  0.5887 -3.7085
 1050SOL     OW14608   4.716   2.793   3.021  0.6231  0.3334  0.3103
 1050SOL    HW114609   0.013   2.748   3.103 -2.9654  0.0343  0.8988
 1050SOL    HW214610   4.627   2.768   2.999 -0.2562  2.8491  0.9567
 1051SOL     OW14611   4.204   2.693   2.903 -0.0433  0.0284 -0.0845
 1051SOL    HW114612   4.156   2.768   2.868 -0.1828  0.7467  1.6328
 1051SOL    HW214613   4.149   2.656   2.973 -0.7373  1.7758  0.2883
 1052SOL     OW14614   2.388   0.710   3.401  0.1973  0.6847 -0.2390
 1052SOL    HW114615   2.304   0.694   3.357  1.0818  1.9462 -2.3658
 1052SOL    HW214616   2.449   0.645   3.366  0.2030  0.1418  0.7512
 1053SOL     OW14617   2.758   0.729   2.934 -0.7603 -0.8674  0.1689
 1053SOL    HW114618   2.727   0.682   3.011  2.4561 -0.2397  1.8449
 1053SOL    HW214619   2.818   0.672   2.886 -0.5730 -1.3288  0.9387
 1054SOL     OW14620   0.942   0.841  14.063  0.1337  0.5177 -0.1505
 1054SOL    HW114621   0.959   0.801  13.978 -2.6892  0.3464 -0.6208
 1054SOL    HW214622   0.980   0.782  14.128  1.5248  1.0197 -0.5089
 1055SOL     OW14623   0.136   2.733   8.899  0.5842 -0.3977  0.1743
 1055SOL    HW114624   0.184   2.784   8.964 -0.1809  0.9601 -0.3344
 1055SOL    HW214625   0.142   2.800   8.831 -0.5608 -1.2536 -0.7747
 1056SOL     OW14626   0.342   0.076  12.195  0.0100 -0.9496  0.1275
 1056SOL    HW114627   0.395   4.719  12.180 -0.8576 -1.2387 -1.4591
 1056SOL    HW214628   0.401   0.141  12.157 -0.4126 -0.4526  0.3054
 1057SOL     OW14629   3.715   2.638   3.686  0.1202 -0.0267 -0.7582
 1057SOL    HW114630   3.641   2.579   3.697 -0.6725  1.3004  0.9815
 1057SOL    HW214631   3.701   2.710   3.747  0.7643 -0.6331  0.0984
 1058SOL     OW14632   3.985   2.351   6.668 -0.8242  0.0308  0.2756
 1058SOL    HW114633   4.068   2.398   6.658 -0.5229 -0.4014  0.7273
 1058SOL    HW214634   4.022   2.263   6.671 -1.3194 -0.2710 -2.2376
 1059SOL     OW14635   0.646   0.190   0.509 -0.5332  0.0711  0.3666
 1059SOL    HW114636   0.578   0.180   0.442 -1.0775  0.5749  0.8326
 1059SOL    HW214637   0.601   0.139   0.577  0.1791 -0.3191  0.5488
 1060SOL     OW14638   0.473   4.226  17.518 -0.1071 -0.0364 -0.6244
 1060SOL    HW114639   0.416   4.191  17.587 -1.0256  1.3256 -0.6919
 1060SOL    HW214640   0.406   4.259  17.458 -1.2001 -2.0456 -0.5155
 1061SOL     OW14641   4.151   0.268   6.444  0.0025  0.3265  0.9406
 1061SOL    HW114642   4.119   0.186   6.482 -0.4253 -0.2430 -0.6248
 1061SOL    HW214643   4.247   0.261   6.440  0.0319  1.0388  0.4212
 1062SOL     OW14644   1.516   0.360   2.680  0.4009  0.2254 -0.1968
 1062SOL    HW114645   1.507   0.450   2.709 -1.4183  0.4502 -1.4169
 1062SOL    HW214646   1.516   0.306   2.759  1.8241  0.0942 -0.2928
 1063SOL     OW14647   2.534   0.524   7.057  0.6236 -0.3571 -0.0162
 1063SOL    HW114648   2.522   0.479   6.974  0.8267  0.2926 -0.3914
 1063SOL    HW214649   2.547   0.615   7.033  1.3162  0.0309  1.8101
 1064SOL     OW14650   1.499   1.739   5.074 -0.8160 -0.0907  0.4897
 1064SOL    HW114651   1.528   1.650   5.096  0.0362  0.1859  0.4799
 1064SOL    HW214652   1.405   1.736   5.095 -1.0801 -0.6746 -0.7653
 1065SOL     OW14653   1.130   2.990  13.547 -0.1622 -0.9899  0.1770
 1065SOL    HW114654   1.050   2.966  13.500 -1.1541 -0.0405  1.3816
 1065SOL    HW214655   1.190   2.966  13.477 -1.3363  0.5504 -1.3595
 1066SOL     OW14656   1.038   3.911   7.441 -0.1247  0.1425  0.1553
 1066SOL    HW114657   0.966   3.860   7.477  0.3441  1.1803  2.6184
 1066SOL    HW214658   1.100   3.901   7.513 -1.8914  0.9051  1.7935
 1067SOL     OW14659   0.665   1.129  10.998  0.2566 -0.3537  0.4919
 1067SOL    HW114660   0.634   1.047  10.962 -0.3243  0.1678 -0.1961
 1067SOL    HW214661   0.736   1.105  11.057  1.3468 -0.5502 -0.9032
 1068SOL     OW14662   2.874   3.248   5.579  0.0440  0.2411 -0.2017
 1068SOL    HW114663   2.832   3.295   5.508 -0.4782 -0.0174 -0.0620
 1068SOL    HW214664   2.811   3.191   5.623  0.2478 -0.8272 -1.2866
 1069SOL     OW14665   2.279   1.600   6.271 -0.0285  0.1109  0.2830
 1069SOL    HW114666   2.191   1.626   6.246 -0.1290  0.8390  1.4178
 1069SOL    HW214667   2.262   1.578   6.362  1.1971  0.1962  0.5323
 1070SOL     OW14668   4.571   0.717   8.553 -0.4376 -0.3406 -0.1347
 1070SOL    HW114669   4.619   0.778   8.609 -1.8696 -0.0613  0.8096
 1070SOL    HW214670   4.581   0.763   8.470 -0.9212 -0.9284 -0.5164
 1071SOL     OW14671   4.667   1.692   1.450  0.6159  0.0998 -0.7654
 1071SOL    HW114672   4.606   1.763   1.432  0.8770  0.6752  0.6047
 1071SOL    HW214673   0.024   1.743   1.472  0.1175  0.6022 -0.1626
 1072SOL     OW14674   3.150   0.312   4.320 -0.7276 -0.7495  0.8006
 1072SOL    HW114675   3.092   0.235   4.315 -1.9854  0.3103 -0.9811
 1072SOL    HW214676   3.189   0.316   4.233 -0.3944  1.2658  1.0438
 1073SOL     OW14677   4.186   2.135   6.294 -0.1586 -0.5525  0.0329
 1073SOL    HW114678   4.277   2.153   6.269 -0.3799 -0.7269 -0.9032
 1073SOL    HW214679   4.140   2.126   6.210 -1.7423  0.6000  0.7941
 1074SOL     OW14680   4.206   3.584   3.440  0.3709 -0.1277  0.1159
 1074SOL    HW114681   4.144   3.550   3.375  1.5786 -0.9415 -0.6132
 1074SOL    HW214682   4.247   3.661   3.400 -2.4130  0.9005 -0.7771
 1075SOL     OW14683   1.794   4.487   7.702  0.8336 -0.4384  0.1192
 1075SOL    HW114684   1.852   4.493   7.778 -0.9232  1.5096  1.2892
 1075SOL    HW214685   1.860   4.486   7.632  1.5373 -0.3361  0.7858
 1076SOL     OW14686   0.256   2.430   8.729 -0.0314  0.3697 -0.5175
 1076SOL    HW114687   0.285   2.484   8.656  2.5122 -0.4938 -0.1521
 1076SOL    HW214688   0.317   2.357   8.740  0.9538  1.1252 -0.9653
 1077SOL     OW14689   2.161   3.127   4.262 -0.0601 -0.0845 -0.3199
 1077SOL    HW114690   2.198   3.212   4.238 -0.5935  0.3415  0.3351
 1077SOL    HW214691   2.161   3.144   4.357 -2.4304 -0.3206 -0.2849
 1078SOL     OW14692   1.451   3.346   0.368 -0.8441  0.3659 -0.4528
 1078SOL    HW114693   1.478   3.330   0.278 -1.2814 -1.5428 -0.2565
 1078SOL    HW214694   1.447   3.252   0.389  0.4989  0.5022  0.4474
 1079SOL     OW14695   2.693   3.407   8.848  0.0022 -0.0957 -0.3387
 1079SOL    HW114696   2.646   3.324   8.853 -1.7968  0.7534 -3.3402
 1079SOL    HW214697   2.774   3.403   8.899  0.3830  1.0721 -0.8526
 1080SOL     OW14698   1.641   2.857   6.663  0.2250  0.1070 -0.2647
 1080SOL    HW114699   1.672   2.817   6.582 -0.4502  1.8648 -1.3984
 1080SOL    HW214700   1.623   2.781   6.717  1.2906 -2.0479 -2.9573
 1081SOL     OW14701   2.306   4.450  16.749  0.1124  0.7891 -0.2144
 1081SOL    HW114702   2.258   4.516  16.698 -0.0924  0.5860 -0.2825
 1081SOL    HW214703   2.239   4.412  16.806  1.1367 -0.9798 -0.2071
 1082SOL     OW14704   0.136   2.794   1.299 -0.2966  0.4180 -0.3149
 1082SOL    HW114705   0.226   2.825   1.286  0.3452 -0.3624  2.3048
 1082SOL    HW214706   0.160   2.706   1.330 -2.5879  0.1355  0.6693
 1083SOL     OW14707   1.733   0.278   3.704 -0.1883 -1.0610  0.2216
 1083SOL    HW114708   1.773   0.349   3.755  0.2747  0.7243 -2.6500
 1083SOL    HW214709   1.806   0.230   3.664 -0.8264 -1.2682 -0.6861
 1084SOL     OW14710   4.006   3.743   4.294 -0.1791 -0.1327  0.7992
 1084SOL    HW114711   4.089   3.771   4.333  0.6541 -0.7259 -0.5392
 1084SOL    HW214712   3.963   3.708   4.372  0.3912  1.1656  1.6974
 1085SOL     OW14713   4.386   3.578   4.998 -0.0379 -0.2968  0.0407
 1085SOL    HW114714   4.305   3.555   4.952 -0.0784  0.9061 -0.5060
 1085SOL    HW214715   4.455   3.575   4.932  1.3088 -1.3119  1.5083
 1086SOL     OW14716   1.381   3.976  17.353  0.1707  0.0019  0.5673
 1086SOL    HW114717   1.469   3.938  17.354  0.7972  1.3879 -1.1592
 1086SOL    HW214718   1.343   3.939  17.433 -0.1677 -0.1837  0.3187
 1087SOL     OW14719   0.255   1.934  13.588  0.5036  0.0837  0.0976
 1087SOL    HW114720   0.163   1.929  13.612 -0.0250  0.4825 -1.8275
 1087SOL    HW214721   0.300   1.925  13.672  0.3785  0.8075  0.2389
 1088SOL     OW14722   1.292   0.451  17.676 -0.2798  0.5828  0.4512
 1088SOL    HW114723   1.342   0.390   0.045 -1.4538 -0.0147  0.8660
 1088SOL    HW214724   1.245   0.503   0.057 -2.4910 -1.1409  0.2067
 1089SOL     OW14725   4.599   0.784   7.579  0.4036 -0.0140  0.6879
 1089SOL    HW114726   4.519   0.814   7.537  0.4337 -0.5536  0.2438
 1089SOL    HW214727   4.668   0.836   7.537 -0.6083  0.0298 -0.8900
 1090SOL     OW14728   3.621   4.182   7.594 -0.0248 -0.2657  0.1911
 1090SOL    HW114729   3.642   4.276   7.593 -0.2084 -0.2291 -0.1043
 1090SOL    HW214730   3.682   4.169   7.667  1.1342 -0.6941 -0.8549
 1091SOL     OW14731   4.219   3.900   4.395 -0.1440 -0.6507  0.1155
 1091SOL    HW114732   4.254   3.883   4.308 -0.4443 -2.9365  0.4548
 1091SOL    HW214733   4.292   3.868   4.449  2.4592  1.8793 -1.8692
 1092SOL     OW14734   2.263   4.003   5.001 -0.5558  0.2857 -0.3081
 1092SOL    HW114735   2.266   4.093   5.033  1.2562  0.2234 -0.3311
 1092SOL    HW214736   2.206   4.009   4.924 -1.8797 -1.8546  0.5136
 1093SOL     OW14737   2.653   3.582   2.694  0.3472 -0.0210  0.1427
 1093SOL    HW114738   2.745   3.607   2.690  0.3815 -0.1457  0.1511
 1093SOL    HW214739   2.624   3.589   2.603  3.3851  1.6388 -0.6914
 1094SOL     OW14740   3.551   4.617   6.496 -0.0683  0.3191  0.1304
 1094SOL    HW114741   3.525   4.618   6.588  1.3635 -0.5054  0.5561
 1094SOL    HW214742   3.538   4.523   6.478  0.0604 -0.3332  3.5052
 1095SOL     OW14743   2.117   0.912   3.436  0.0451 -0.1123  0.2852
 1095SOL    HW114744   2.140   0.968   3.361 -2.5970 -0.1177 -0.5159
 1095SOL    HW214745   2.149   0.958   3.514 -1.8313  0.6294  0.6038
 1096SOL     OW14746   2.869   4.296   7.505  0.2161  0.3466 -0.3458
 1096SOL    HW114747   2.867   4.206   7.536  2.8786 -0.3718 -2.1840
 1096SOL    HW214748   2.939   4.284   7.440 -0.6134 -4.1611 -0.4157
 1097SOL     OW14749   4.606   4.314  12.296  0.3409 -0.5938  0.5172
 1097SOL    HW114750   4.599   4.231  12.247 -2.8418  0.0983 -0.2055
 1097SOL    HW214751   4.695   4.344  12.276 -0.9593  3.0418  0.1668
 1098SOL     OW14752   1.740   0.210   4.988  0.2844  0.0767 -0.1792
 1098SOL    HW114753   1.800   0.236   4.918 -0.8947  0.4556 -1.0469
 1098SOL    HW214754   1.720   0.121   4.959 -2.4901  0.8489 -0.5753
 1099SOL     OW14755   1.401   3.225  13.176  0.0481  0.0414 -0.1323
 1099SOL    HW114756   1.377   3.318  13.182  0.3989  0.0437  1.4842
 1099SOL    HW214757   1.497   3.224  13.173 -0.0385  0.2112 -2.4207
 1100SOL     OW14758   4.613   2.962   6.833 -0.5763 -0.0738 -0.4147
 1100SOL    HW114759   4.672   2.889   6.814 -0.8692 -0.6633  0.9015
 1100SOL    HW214760   4.641   3.035   6.778 -0.5335  1.4788  1.6587
 1101SOL     OW14761   2.804   1.010   9.265 -0.8742  0.4033 -0.4485
 1101SOL    HW114762   2.763   1.049   9.187  1.2874  2.6410 -0.4667
 1101SOL    HW214763   2.801   0.921   9.231  0.6962  0.1065  0.1992
 1102SOL     OW14764   0.408   3.129   8.750  0.0223 -0.2102  0.0506
 1102SOL    HW114765   0.382   3.199   8.810 -1.1109  0.0878 -0.7928
 1102SOL    HW214766   0.338   3.064   8.757  1.0724 -1.5654 -1.9575
 1103SOL     OW14767   2.644   2.340   3.400  0.3931  0.3159  0.6558
 1103SOL    HW114768   2.582   2.414   3.394  0.3905  0.3238  0.7776
 1103SOL    HW214769   2.634   2.311   3.309  1.9353 -0.0528  0.6176
 1104SOL     OW14770   0.039   3.052  13.257  0.5813 -0.0558  0.2721
 1104SOL    HW114771   0.094   3.034  13.334  2.4617  0.6282 -0.8971
 1104SOL    HW214772   4.691   2.985  13.262  1.6961 -1.0168  2.7715
 1105SOL     OW14773   1.847   3.742   6.359 -0.0561  0.5568  0.3162
 1105SOL    HW114774   1.922   3.696   6.321  2.1033  0.6724  4.4343
 1105SOL    HW214775   1.785   3.672   6.337 -1.0747  1.2714  0.9113
 1106SOL     OW14776   0.851   0.099   2.913  0.6375 -0.1000  0.0879
 1106SOL    HW114777   0.943   0.120   2.898  1.0412 -2.6261 -0.8023
 1106SOL    HW214778   0.819   0.046   2.841 -0.9792 -2.4384  2.5167
 1107SOL     OW14779   3.278   4.560   5.088  0.1295 -0.4157  0.3553
 1107SOL    HW114780   3.291   4.599   5.001  1.3316  1.3648  1.3444
 1107SOL    HW214781   3.219   4.487   5.066  1.4863 -1.7379  1.0998
 1108SOL     OW14782   2.842   1.258   0.246 -0.0662 -0.0473  0.3947
 1108SOL    HW114783   2.845   1.267   0.151  0.6252 -0.2913  0.3946
 1108SOL    HW214784   2.760   1.217   0.270  0.0548 -0.6091 -0.1640
 1109SOL     OW14785   4.001   1.187   3.188  0.3750  0.1561  0.3536
 1109SOL    HW114786   3.981   1.119   3.252  1.5476  0.6350  1.2290
 1109SOL    HW214787   3.981   1.129   3.115 -1.5811 -1.3003  2.0707
 1110SOL     OW14788   1.110   4.196   2.521 -0.1844 -0.3123  0.1013
 1110SOL    HW114789   1.172   4.160   2.585  0.4283 -0.8383 -0.8014
 1110SOL    HW214790   1.121   4.291   2.527  0.0614 -0.4629  2.2586
 1111SOL     OW14791   1.893   0.596   8.116  0.1317  0.0492  0.0188
 1111SOL    HW114792   1.972   0.633   8.076 -0.3350 -0.5291 -1.4191
 1111SOL    HW214793   1.824   0.601   8.050 -0.3584 -0.0711  0.5197
 1112SOL     OW14794   2.168   4.626   0.042 -0.0524  0.0142 -0.1640
 1112SOL    HW114795   2.099   4.684   0.010  0.0428  0.7170  0.9297
 1112SOL    HW214796   2.217   4.606  17.646  3.1696  1.5480  1.4126
 1113SOL     OW14797   1.536   2.185   0.610 -0.1062  0.6947 -0.1548
 1113SOL    HW114798   1.610   2.141   0.653 -1.3264 -1.3928 -0.2239
 1113SOL    HW214799   1.574   2.273   0.603  0.0132  0.3728 -3.6253
 1114SOL     OW14800   1.805   2.778   4.582 -1.0477 -0.6541 -0.2634
 1114SOL    HW114801   1.734   2.730   4.625 -1.4324  0.6851  0.5944
 1114SOL    HW214802   1.882   2.722   4.587 -0.9303 -0.4466  0.2014
 1115SOL     OW14803   2.801   0.733   5.971  0.3439  0.0005 -0.0665
 1115SOL    HW114804   2.828   0.714   5.881 -2.9336  1.8432 -1.4291
 1115SOL    HW214805   2.709   0.708   5.977  0.4891 -1.0038 -1.8857
 1116SOL     OW14806   2.130   0.577   2.155 -0.3270 -0.2934 -0.2659
 1116SOL    HW114807   2.161   0.555   2.067  0.3093 -1.9400  0.3806
 1116SOL    HW214808   2.117   0.493   2.199  0.0261 -0.7778 -1.0852
 1117SOL     OW14809   3.045   3.478  11.358 -0.2645  0.1034  0.8368
 1117SOL    HW114810   3.115   3.414  11.347 -0.1394  0.8711 -2.6013
 1117SOL    HW214811   3.009   3.443  11.440 -1.6481  0.1512  0.2448
 1118SOL     OW14812   1.710   0.794   4.703 -0.2254  0.3033  0.1716
 1118SOL    HW114813   1.797   0.829   4.688 -1.5629  2.8503 -1.7283
 1118SOL    HW214814   1.660   0.854   4.647  0.6699  1.5028  0.6596
 1119SOL     OW14815   4.706   2.739   7.676 -0.1301 -0.0137 -0.2245
 1119SOL    HW114816   4.678   2.714   7.588  1.6756  0.3293 -0.9025
 1119SOL    HW214817   0.036   2.819   7.663  0.1726 -0.4982 -1.9819
 1120SOL     OW14818   1.241   2.708  13.211  0.4406 -0.5024 -0.2124
 1120SOL    HW114819   1.219   2.793  13.173  2.0742  0.0669  0.1170
 1120SOL    HW214820   1.254   2.739  13.301  0.1933  0.7952 -0.6286
 1121SOL     OW14821   2.931   0.655  11.534 -0.4497 -0.2145  0.0890
 1121SOL    HW114822   2.895   0.569  11.513 -0.2029 -0.3359  0.1615
 1121SOL    HW214823   2.999   0.630  11.597  0.2046 -1.6077 -1.1716
 1122SOL     OW14824   1.314   0.623   7.894 -0.1631  0.5275 -0.2462
 1122SOL    HW114825   1.229   0.630   7.849  0.6146  1.7959 -1.5074
 1122SOL    HW214826   1.295   0.653   7.983 -0.1005 -2.1721  0.6804
 1123SOL     OW14827   3.457   2.576   2.670 -0.4484 -0.0491 -0.0215
 1123SOL    HW114828   3.551   2.575   2.688 -0.5983  1.1878  0.8385
 1123SOL    HW214829   3.430   2.487   2.693  1.8311 -1.0899 -1.4145
 1124SOL     OW14830   0.170   3.470   5.968  0.0868  0.3384  0.0290
 1124SOL    HW114831   0.141   3.419   6.044  2.2798 -1.3819 -0.2890
 1124SOL    HW214832   0.223   3.535   6.014 -2.7561  1.4164  1.7619
 1125SOL     OW14833   4.219   4.483   8.898 -0.4965 -0.0743 -0.0023
 1125SOL    HW114834   4.218   4.413   8.964  3.1443  1.0546  1.2341
 1125SOL    HW214835   4.189   4.425   8.828  3.2015 -0.9917 -0.8121
 1126SOL     OW14836   3.984   0.351  17.254 -0.0523 -0.2301 -0.4446
 1126SOL    HW114837   4.067   0.397  17.266 -0.3986  0.5497 -1.0457
 1126SOL    HW214838   3.999   0.278  17.314  0.3135 -0.7721 -1.1893
 1127SOL     OW14839   4.050   1.745  14.187 -0.1736  0.1123 -0.2003
 1127SOL    HW114840   4.053   1.825  14.135  0.1003 -1.2915 -2.3372
 1127SOL    HW214841   4.061   1.776  14.278 -1.5168  0.8671 -0.3035
 1128SOL     OW14842   2.677   1.573   8.936  0.1415 -0.3815 -0.3479
 1128SOL    HW114843   2.724   1.519   8.872 -0.7317 -0.8416 -0.6010
 1128SOL    HW214844   2.605   1.516   8.965  1.6573 -1.5834  1.0220
 1129SOL     OW14845   4.604   0.526  13.945 -0.3445  0.0712 -0.2791
 1129SOL    HW114846   4.626   0.495  13.857  2.0747  1.9602 -0.3548
 1129SOL    HW214847   4.529   0.580  13.919  0.9772  1.2176 -1.6877
 1130SOL     OW14848   0.640   0.411  14.492  0.3275 -0.4126  0.3564
 1130SOL    HW114849   0.602   0.357  14.423 -0.0375  1.1057 -0.6323
 1130SOL    HW214850   0.602   0.498  14.486  0.2862 -0.5302 -1.0291
 1131SOL     OW14851   3.370   4.224   1.972 -0.4140  0.4169  0.0972
 1131SOL    HW114852   3.353   4.136   2.007  0.0726  0.7995  1.3206
 1131SOL    HW214853   3.406   4.260   2.053  3.3958 -2.6834 -0.2470
 1132SOL     OW14854   3.970   0.305   4.957 -0.5090 -0.4343  0.7665
 1132SOL    HW114855   4.038   0.369   4.979 -0.3988  0.0425 -0.9499
 1132SOL    HW214856   3.930   0.309   5.044  1.2978 -1.0550  1.6208
 1133SOL     OW14857   3.723   2.368  14.531  0.3602 -0.0463  0.4466
 1133SOL    HW114858   3.634   2.334  14.521  0.7966 -1.2613  0.7156
 1133SOL    HW214859   3.706   2.459  14.558 -3.0972 -0.3938 -0.5216
 1134SOL     OW14860   1.372   0.110   2.079 -0.7291 -0.1079  0.5578
 1134SOL    HW114861   1.428   0.067   2.014 -1.8734 -1.3978  0.4171
 1134SOL    HW214862   1.383   0.048   2.151  0.3529  1.6359  1.9131
 1135SOL     OW14863   4.252   3.412  10.789  0.3335 -0.0421  0.2701
 1135SOL    HW114864   4.190   3.386  10.721  1.0356 -0.2752 -0.2862
 1135SOL    HW214865   4.262   3.503  10.761 -1.2485 -0.1270 -0.5424
 1136SOL     OW14866   4.579   0.280   0.729 -0.1664 -0.2441 -0.0348
 1136SOL    HW114867   4.536   0.359   0.697  2.1259 -0.5022 -3.7157
 1136SOL    HW214868   4.566   0.288   0.823  1.0908  0.5999  0.0695
 1137SOL     OW14869   3.642   0.572   4.972 -0.5669  0.3467 -0.2201
 1137SOL    HW114870   3.666   0.602   4.884  0.7748  0.7970  0.2922
 1137SOL    HW214871   3.699   0.631   5.021 -1.4361 -0.1074  1.3350
 1138SOL     OW14872   2.504   3.966   6.860 -0.0347  0.2311 -0.5416
 1138SOL    HW114873   2.430   3.968   6.920  0.5500 -2.7551  0.3173
 1138SOL    HW214874   2.464   3.984   6.776 -0.7127  0.3977 -0.1783
 1139SOL     OW14875   4.249   3.070  17.297 -0.4860 -0.0690  0.6594
 1139SOL    HW114876   4.298   3.053  17.216 -1.6862  0.9654 -0.2940
 1139SOL    HW214877   4.288   3.000  17.350  1.1983  1.0759  0.9191
 1140SOL     OW14878   4.335   0.283  17.005 -0.1415 -0.1142  0.5396
 1140SOL    HW114879   4.342   0.258  17.098  0.7814  0.3903  0.6133
 1140SOL    HW214880   4.323   0.375  17.030 -1.0243  0.5774 -2.4380
 1141SOL     OW14881   1.253   2.123   1.001  0.2264 -0.1534  0.0316
 1141SOL    HW114882   1.244   2.068   0.923 -0.4798 -0.4800  0.3463
 1141SOL    HW214883   1.165   2.161   1.002  0.9905  1.6254  1.2777
 1142SOL     OW14884   2.292   2.931  17.424 -0.1710 -0.0167 -0.8023
 1142SOL    HW114885   2.338   2.889  17.352  0.9863 -0.1253  0.0091
 1142SOL    HW214886   2.343   2.888  17.492  0.9212 -0.9085 -2.1813
 1143SOL     OW14887   3.551   2.108   1.927  0.0671 -0.3204  0.2778
 1143SOL    HW114888   3.517   2.020   1.912  1.4497 -1.0128  1.2287
 1143SOL    HW214889   3.639   2.094   1.892  0.2710  1.3973  0.1010
 1144SOL     OW14890   1.895   1.302  16.830 -0.6479 -0.2318 -0.1050
 1144SOL    HW114891   1.986   1.328  16.839 -1.1892  0.8215  2.2239
 1144SOL    HW214892   1.856   1.389  16.821  1.5451  0.8555  0.8703
 1145SOL     OW14893   4.107   2.694   3.989 -0.4981 -0.2421  0.2613
 1145SOL    HW114894   4.201   2.696   3.975 -0.2420  0.7770  2.0755
 1145SOL    HW214895   4.081   2.786   3.984  2.5367  0.5667 -0.3440
 1146SOL     OW14896   2.721   2.569   0.500  0.1617  0.4014 -0.3109
 1146SOL    HW114897   2.652   2.514   0.539 -1.3966  3.7316  1.6000
 1146SOL    HW214898   2.754   2.510   0.432  0.8924  1.2246 -0.6669
 1147SOL     OW14899   4.489   0.444   8.457 -0.1435 -0.4711  0.5477
 1147SOL    HW114900   4.394   0.453   8.447 -0.2506 -2.2787 -0.2665
 1147SOL    HW214901   4.510   0.519   8.512  0.6839  1.2180 -2.0806
 1148SOL     OW14902   2.054   3.806  16.071 -0.2788  0.9517 -0.6131
 1148SOL    HW114903   2.061   3.796  15.976  1.1587 -2.3289 -0.1663
 1148SOL    HW214904   2.110   3.732  16.096 -1.9357  0.1400  0.6677
 1149SOL     OW14905   1.971   0.512   4.452 -0.5825 -0.1859  0.1384
 1149SOL    HW114906   1.933   0.513   4.364  0.9594 -2.5971 -0.5543
 1149SOL    HW214907   2.053   0.556   4.428 -1.2021  0.5814 -0.5486
 1150SOL     OW14908   1.180   0.415   0.350 -0.0427 -0.0748  0.1325
 1150SOL    HW114909   1.240   0.408   0.425 -1.9891  0.8911  1.7720
 1150SOL    HW214910   1.127   0.336   0.363 -0.7531  0.4738  0.5933
 1151SOL     OW14911   1.717   3.849   3.676 -0.0204 -0.0684 -0.2019
 1151SOL    HW114912   1.742   3.889   3.593 -1.1863 -0.9527 -0.9663
 1151SOL    HW214913   1.626   3.847   3.647  0.3204 -1.0684 -1.1909
 1152SOL     OW14914   3.694   4.464  12.738 -0.4678 -0.5278 -0.0603
 1152SOL    HW114915   3.766   4.488  12.679 -2.3619  0.3311 -1.9955
 1152SOL    HW214916   3.674   4.555  12.760 -0.8329 -0.4724 -0.6415
 1153SOL     OW14917   0.593   4.104   5.635  0.0645  0.1316 -0.2896
 1153SOL    HW114918   0.530   4.160   5.590  1.5132  3.0264  1.2645
 1153SOL    HW214919   0.646   4.164   5.687  1.9297 -0.6284 -1.3504
 1154SOL     OW14920   2.241   1.186  10.651  0.4780 -0.5015 -0.0528
 1154SOL    HW114921   2.198   1.270  10.666  0.1625 -0.7192  0.2582
 1154SOL    HW214922   2.270   1.208  10.563 -1.2243  0.7041 -0.3092
 1155SOL     OW14923   1.004   1.519   4.234  0.1089  0.0737  0.0916
 1155SOL    HW114924   1.011   1.582   4.305  0.6157 -0.2588  0.3423
 1155SOL    HW214925   0.951   1.560   4.166  1.0384 -2.2050 -1.9978
 1156SOL     OW14926   2.241   2.815  14.465 -0.3437  0.2099  0.2850
 1156SOL    HW114927   2.240   2.747  14.533  1.8063 -0.3685 -0.2518
 1156SOL    HW214928   2.188   2.880  14.511 -0.2233 -0.4918  1.4222
 1157SOL     OW14929   0.948   1.195  10.873 -0.2524 -0.0768 -0.2955
 1157SOL    HW114930   0.948   1.206  10.968 -1.5034 -0.0415 -0.3027
 1157SOL    HW214931   1.000   1.267  10.837 -0.6086  0.2741 -0.1011
 1158SOL     OW14932   2.123   2.929  12.805  0.1819  0.0997  0.1083
 1158SOL    HW114933   2.210   2.967  12.799 -0.3675  1.0940 -1.5394
 1158SOL    HW214934   2.138   2.878  12.885 -1.3105 -0.3840  0.0926
 1159SOL     OW14935   2.318   4.408  14.424  0.2733 -0.1767  0.6527
 1159SOL    HW114936   2.392   4.412  14.485  0.0141  2.1167  0.8160
 1159SOL    HW214937   2.274   4.491  14.443  0.2858 -0.0107 -0.0400
 1160SOL     OW14938   2.522   1.356  12.159  0.0702  0.2094 -0.0342
 1160SOL    HW114939   2.593   1.415  12.184  0.2137 -1.0323  2.3950
 1160SOL    HW214940   2.464   1.378  12.231  0.3887  3.4007 -0.7320
 1161SOL     OW14941   4.449   4.240   9.075  0.1276  0.2755 -0.4198
 1161SOL    HW114942   4.353   4.246   9.073  0.0258 -1.0754  0.1248
 1161SOL    HW214943   4.466   4.226   8.981 -0.9077 -1.9923 -0.2947
 1162SOL     OW14944   0.848   1.055  10.638 -0.1089  0.6576 -0.1561
 1162SOL    HW114945   0.908   1.115  10.683 -1.2895  0.9579  1.0457
 1162SOL    HW214946   0.845   0.971  10.683 -0.7932 -0.7215 -2.7856
 1163SOL     OW14947   0.035   3.223   5.832 -0.7053 -0.5206  0.2941
 1163SOL    HW114948   0.126   3.236   5.859 -0.7702  0.6475 -0.0080
 1163SOL    HW214949   4.709   3.277   5.896  0.8700  1.8892 -0.5558
 1164SOL     OW14950   2.234   1.814  13.200 -0.2469  0.2899 -0.0510
 1164SOL    HW114951   2.250   1.753  13.272  1.9108  1.3693  0.3709
 1164SOL    HW214952   2.161   1.862  13.238  1.1148  0.6988  2.0268
 1165SOL     OW14953   0.120   1.488  14.054 -0.5725 -0.0527  0.2364
 1165SOL    HW114954   0.195   1.437  14.024 -2.3382 -2.6941  0.2958
 1165SOL    HW214955   0.174   1.554  14.097  1.3226  0.6866 -3.3168
 1166SOL     OW14956   3.866   2.467   3.878  0.3068 -0.1599  0.5297
 1166SOL    HW114957   3.877   2.553   3.838 -1.0454  0.7016  2.0198
 1166SOL    HW214958   3.771   2.463   3.865  0.1981 -0.6734  1.5431
 1167SOL     OW14959   0.894   0.477  14.610  0.2051  0.3704 -0.1699
 1167SOL    HW114960   0.811   0.464  14.563 -0.3929  2.2847  0.3299
 1167SOL    HW214961   0.873   0.523  14.692 -0.0402 -0.3807  0.1849
 1168SOL     OW14962   3.993   1.615   6.235 -0.3376 -0.0268  0.0004
 1168SOL    HW114963   3.972   1.688   6.293  2.4295 -0.0820  1.0664
 1168SOL    HW214964   4.061   1.652   6.177  0.9138  1.4495  2.3893
 1169SOL     OW14965   1.971   1.642   8.562  0.0851 -0.1344  0.6583
 1169SOL    HW114966   1.888   1.683   8.537  0.8145  0.0120 -1.4775
 1169SOL    HW214967   2.033   1.656   8.491 -1.6527  0.6536 -0.7048
 1170SOL     OW14968   3.128   4.310   6.015 -0.3379 -0.1943 -1.0549
 1170SOL    HW114969   3.108   4.270   6.099 -0.0831  2.4430  0.2492
 1170SOL    HW214970   3.220   4.337   6.020 -0.4987  0.2487 -0.4762
 1171SOL     OW14971   1.766   1.134   4.439  0.3625 -0.0334 -0.1573
 1171SOL    HW114972   1.731   1.131   4.528  0.7630 -2.8040 -0.1077
 1171SOL    HW214973   1.738   1.223   4.418  0.9349  0.3651  0.7854
 1172SOL     OW14974   3.462   1.384   4.448 -0.1615  0.6308 -0.4042
 1172SOL    HW114975   3.483   1.302   4.493 -0.5598  0.0588 -1.2492
 1172SOL    HW214976   3.381   1.356   4.405  0.6090  0.8951 -2.0571
 1173SOL     OW14977   1.618   1.257   8.044  0.0059 -0.5123 -0.6669
 1173SOL    HW114978   1.597   1.279   7.954  0.4458 -1.3434 -0.9653
 1173SOL    HW214979   1.538   1.222   8.082  0.3960 -0.3952  0.2653
 1174SOL     OW14980   2.042   3.886  15.549  0.3696 -0.1264  0.2633
 1174SOL    HW114981   1.958   3.856  15.514  0.8252  1.3560 -2.1827
 1174SOL    HW214982   2.109   3.870  15.482  0.4586  2.9722 -0.4199
 1175SOL     OW14983   4.650   3.068   8.464  0.4585 -0.0690  0.0092
 1175SOL    HW114984   4.610   3.111   8.388  1.0071 -0.4746 -0.5166
 1175SOL    HW214985   0.022   3.078   8.438 -0.1040 -0.0601 -2.0289
 1176SOL     OW14986   4.029   2.996   8.156 -0.0115  0.1487  0.0300
 1176SOL    HW114987   4.003   3.070   8.101 -0.1307 -0.5555 -0.8528
 1176SOL    HW214988   4.062   3.036   8.237  1.4726  0.3230 -0.6637
 1177SOL     OW14989   3.761   2.073   4.173  0.7673 -0.1648  0.1486
 1177SOL    HW114990   3.749   2.167   4.181 -1.9370 -0.6419  1.5705
 1177SOL    HW214991   3.848   2.068   4.134  0.2381  1.2013 -1.2265
 1178SOL     OW14992   1.789   4.161   8.286 -0.6150  0.7025 -0.0188
 1178SOL    HW114993   1.708   4.184   8.242  0.4796  2.3346 -1.1855
 1178SOL    HW214994   1.769   4.193   8.374 -0.5689  0.7108 -0.0112
 1179SOL     OW14995   1.895   0.609   2.657  0.0430 -0.1265  0.0936
 1179SOL    HW114996   1.985   0.599   2.627  0.3560 -1.5494  1.4782
 1179SOL    HW214997   1.886   0.525   2.703 -0.4230 -0.4069 -0.5059
 1180SOL     OW14998   0.075   4.693   4.342 -0.2231 -0.2696 -0.2964
 1180SOL    HW114999   0.043   0.002   4.257 -1.9989 -0.6774  0.2327
 1180SOL    HW215000   4.708   4.694   4.380  1.2975  0.9402  3.1574
 1181SOL     OW15001   0.942   0.350   3.193  0.0789  0.0833 -0.0504
 1181SOL    HW115002   0.953   0.255   3.182 -0.3574  0.0131  0.1398
 1181SOL    HW215003   0.915   0.360   3.284 -1.0506  1.0265 -0.4874
 1182SOL     OW15004   0.011   4.522   3.716  0.4276 -0.3027 -0.0293
 1182SOL    HW115005   0.084   4.471   3.750  0.8062  0.8027  0.8394
 1182SOL    HW215006   0.044   4.612   3.713  1.3463 -0.5957  1.3551
 1183SOL     OW15007   2.635   0.367   4.316 -0.5541 -0.2684  0.1943
 1183SOL    HW115008   2.715   0.393   4.362 -1.6019 -1.2282  2.5363
 1183SOL    HW215009   2.672   0.338   4.232  1.2781  0.9979  0.5589
 1184SOL     OW15010   1.336   2.344   5.160  0.1354  0.5241  0.1847
 1184SOL    HW115011   1.251   2.350   5.116  0.2951 -1.2032 -0.3892
 1184SOL    HW215012   1.369   2.257   5.137  0.3569  1.0580 -1.5417
 1185SOL     OW15013   3.879   0.220   8.594 -0.1884  0.7770 -0.5146
 1185SOL    HW115014   3.938   0.293   8.615  1.9340 -1.4434  1.1324
 1185SOL    HW215015   3.888   0.165   8.671 -1.0606  2.1510  0.5713
 1186SOL     OW15016   0.379   2.035  13.897 -0.4249 -0.4423  0.6216
 1186SOL    HW115017   0.340   2.111  13.940  1.6240  0.2818  1.2280
 1186SOL    HW215018   0.452   2.018  13.958  1.3587  0.8075 -1.1489
 1187SOL     OW15019   4.145   1.009   8.090 -0.3324 -0.1219 -0.6712
 1187SOL    HW115020   4.150   0.944   8.160  2.0117  1.0561  0.2551
 1187SOL    HW215021   4.233   1.000   8.052 -0.6944  0.1044 -1.5716
 1188SOL     OW15022   3.407   1.508   9.538 -0.4835 -0.3323  0.6349
 1188SOL    HW115023   3.416   1.413   9.548 -1.8246 -0.4225  0.9694
 1188SOL    HW215024   3.358   1.515   9.620 -1.0757 -3.4312  0.5295
 1189SOL     OW15025   0.354   0.645   5.801  0.2821  0.5792  0.4266
 1189SOL    HW115026   0.440   0.659   5.841 -0.0503 -1.7414  1.9700
 1189SOL    HW215027   0.347   0.721   5.744 -0.1685 -0.6304 -1.1333
 1190SOL     OW15028   2.284   0.645   7.713 -0.0625  0.3208 -0.1126
 1190SOL    HW115029   2.220   0.630   7.783  0.5198 -2.0573 -0.0904
 1190SOL    HW215030   2.361   0.611   7.758  0.1198  0.9902  0.0913
 1191SOL     OW15031   0.556   2.782  11.179  0.2653  0.8382 -0.1506
 1191SOL    HW115032   0.645   2.807  11.155  1.0174 -1.8694 -0.1934
 1191SOL    HW215033   0.538   2.691  11.157  0.2972  0.7441  0.2117
 1192SOL     OW15034   3.444   3.220   0.437 -0.3259  0.1088 -0.3244
 1192SOL    HW115035   3.389   3.254   0.507 -0.3381  0.9472 -0.7332
 1192SOL    HW215036   3.530   3.216   0.479  1.0080 -2.5378 -3.3539
 1193SOL     OW15037   4.304   1.886   5.902  0.3292 -0.4912  0.3678
 1193SOL    HW115038   4.327   1.855   5.814  1.7228  0.7514  0.2985
 1193SOL    HW215039   4.209   1.891   5.895  0.3681 -1.2488 -0.6880
 1194SOL     OW15040   3.575   1.717   2.446 -0.0530  0.2890 -0.1045
 1194SOL    HW115041   3.667   1.703   2.466  0.0843  1.9465  0.4161
 1194SOL    HW215042   3.595   1.736   2.354 -0.3462  2.6375  0.2999
 1195SOL     OW15043   2.690   0.308   3.989 -0.0942 -0.1304 -0.6448
 1195SOL    HW115044   2.606   0.295   3.945 -0.2427 -0.4935 -0.2466
 1195SOL    HW215045   2.711   0.224   4.030 -0.5830  0.6164  1.1338
 1196SOL     OW15046   3.891   2.325   2.390  0.4398  0.3206 -0.3205
 1196SOL    HW115047   3.887   2.244   2.440 -0.2947 -0.4644 -1.6707
 1196SOL    HW215048   3.841   2.301   2.312 -2.1501  1.7945  0.8768
 1197SOL     OW15049   4.366   1.013   5.552 -0.1404 -0.0197 -0.3030
 1197SOL    HW115050   4.443   1.011   5.494 -0.1105  0.2431 -0.2769
 1197SOL    HW215051   4.405   0.975   5.630 -0.3109 -1.0060 -0.7078
 1198SOL     OW15052   3.698   3.997  10.727  0.4711 -0.1823  0.0810
 1198SOL    HW115053   3.693   3.983  10.822  1.2229 -0.1681  0.1237
 1198SOL    HW215054   3.652   3.916  10.704  3.2283 -1.6921 -0.1238
 1199SOL     OW15055   2.381   0.504   7.478  0.5273 -0.1064 -0.0684
 1199SOL    HW115056   2.329   0.582   7.460  1.3119  0.4637  0.1675
 1199SOL    HW215057   2.369   0.448   7.402 -1.1641 -1.6257  1.3002
 1200SOL     OW15058   2.277   2.189   5.399 -0.5591  0.1840  0.1913
 1200SOL    HW115059   2.279   2.095   5.381  1.3890  0.1582  0.5644
 1200SOL    HW215060   2.189   2.213   5.368 -0.4029 -0.1512 -0.4989
 1201SOL     OW15061   3.702   0.412  15.653  0.2289 -0.4461  0.5521
 1201SOL    HW115062   3.618   0.458  15.661 -0.2919 -1.1851 -0.7311
 1201SOL    HW215063   3.749   0.473  15.596  0.8847 -0.3659  1.1871
 1202SOL     OW15064   2.958   4.066   9.231  0.2746 -0.0175 -0.4359
 1202SOL    HW115065   2.964   4.011   9.309 -0.8363  1.3128  0.5845
 1202SOL    HW215066   2.867   4.093   9.245  0.7242  0.7198  1.0300
 1203SOL     OW15067   2.714   4.551   7.145  0.5858  0.5853  0.3169
 1203SOL    HW115068   2.709   4.642   7.173 -2.4577  0.2983  0.6981
 1203SOL    HW215069   2.625   4.522   7.162 -0.6596  2.8036 -2.5886
 1204SOL     OW15070   2.249   4.308   7.580 -0.3036  0.0592  0.1340
 1204SOL    HW115071   2.259   4.218   7.550  2.0497  0.0315  0.9608
 1204SOL    HW215072   2.338   4.343   7.572  0.5718 -1.9039  1.5015
 1205SOL     OW15073   4.055   3.001   4.069  0.0645 -0.4403  0.0163
 1205SOL    HW115074   4.142   2.964   4.053 -1.0407 -1.6534 -3.2616
 1205SOL    HW215075   4.075   3.093   4.084 -0.5716 -0.4311  0.7902
 1206SOL     OW15076   4.694   0.589   6.033 -0.0947  1.3303 -0.5908
 1206SOL    HW115077   4.671   0.581   6.126 -0.3111  0.7085 -0.7006
 1206SOL    HW215078   0.005   0.679   6.022  0.7594  0.8350 -2.1859
 1207SOL     OW15079   2.753   0.224  12.813 -0.1516  0.2287 -0.4664
 1207SOL    HW115080   2.826   0.211  12.873  0.0219 -1.7559 -1.1143
 1207SOL    HW215081   2.703   0.147  12.840  0.8783  0.1113  1.1269
 1208SOL     OW15082   2.418   0.403  17.486 -0.0867  0.7821  0.6950
 1208SOL    HW115083   2.345   0.466  17.488  0.5934  1.6517 -1.7940
 1208SOL    HW215084   2.416   0.381  17.393 -0.9444 -2.0936  1.4001
 1209SOL     OW15085   2.634   2.308   5.268  0.3581  0.1558  0.5550
 1209SOL    HW115086   2.661   2.387   5.314 -0.7460 -0.2766  1.9323
 1209SOL    HW215087   2.607   2.250   5.340 -0.1824 -0.8716 -0.4664
 1210SOL     OW15088   0.373   4.696   0.944  0.7569 -0.4717  0.4650
 1210SOL    HW115089   0.399   0.064   0.969 -1.2118  0.0871  0.5336
 1210SOL    HW215090   0.352   4.713   0.852  1.2712 -2.7072 -0.0534
 1211SOL     OW15091   1.141   0.361  17.454 -0.1120  0.9197 -0.3233
 1211SOL    HW115092   1.049   0.369  17.478 -0.5131 -0.8923 -1.3105
 1211SOL    HW215093   1.177   0.387  17.539 -0.9425 -1.7391  0.8226
 1212SOL     OW15094   4.568   1.479   2.674 -0.0724 -0.1694 -0.9861
 1212SOL    HW115095   4.473   1.467   2.677 -0.4272  2.1902 -2.4974
 1212SOL    HW215096   4.579   1.515   2.586  0.2192 -1.9155 -1.6631
 1213SOL     OW15097   3.777   0.402  17.626 -0.1870 -0.6301 -0.0953
 1213SOL    HW115098   3.772   0.375   0.033 -0.7750 -1.3303 -0.3341
 1213SOL    HW215099   3.726   0.336  17.579 -1.6094 -0.4523  1.2035
 1214SOL     OW15100   2.553   3.337  17.458 -0.0286  0.1297 -0.5349
 1214SOL    HW115101   2.472   3.294  17.484  0.0727 -0.2764 -0.8861
 1214SOL    HW215102   2.596   3.337  17.544 -1.3463 -1.2778  0.1183
 1215SOL     OW15103   1.244   4.339   3.995 -0.0102  0.0667  0.1702
 1215SOL    HW115104   1.282   4.251   3.983 -0.5942  0.0875 -1.8802
 1215SOL    HW215105   1.307   4.395   3.950 -0.4584 -0.1544 -0.7287
 1216SOL     OW15106   1.194   4.447   5.773 -0.2059  0.3249  0.7257
 1216SOL    HW115107   1.117   4.442   5.716  0.1489 -0.7679  0.3344
 1216SOL    HW215108   1.254   4.506   5.729  1.2767 -1.2067  0.7235
 1217SOL     OW15109   3.955   2.235  12.672 -0.7002 -0.0745 -0.8358
 1217SOL    HW115110   3.960   2.244  12.767 -1.9638  0.4328 -0.8111
 1217SOL    HW215111   4.038   2.274  12.647 -1.9702  0.9280 -3.5173
 1218SOL     OW15112   1.584   4.445   7.050 -0.1069 -0.0455  0.0894
 1218SOL    HW115113   1.673   4.413   7.038 -0.5559 -1.4896  0.6703
 1218SOL    HW215114   1.544   4.406   7.128  0.1594 -0.7860 -0.1441
 1219SOL     OW15115   4.225   0.303   8.192  0.5561  0.4108 -0.1583
 1219SOL    HW115116   4.231   0.368   8.122  0.1391  0.0881 -0.4970
 1219SOL    HW215117   4.309   0.257   8.185 -0.6596 -1.9782  0.9473
 1220SOL     OW15118   1.317   0.846  15.637 -0.0616  0.5221  0.1060
 1220SOL    HW115119   1.305   0.754  15.616 -2.0194  0.6580  0.6350
 1220SOL    HW215120   1.368   0.840  15.718 -0.3304 -0.1755  0.2168
 1221SOL     OW15121   2.103   1.603   4.978 -0.0950 -0.9734  0.3328
 1221SOL    HW115122   2.065   1.686   4.951 -0.2469 -1.6990 -1.6832
 1221SOL    HW215123   2.066   1.604   5.066 -1.7111 -0.9054 -0.3443
 1222SOL     OW15124   4.531   3.454  17.367 -0.4445 -0.1339  0.4656
 1222SOL    HW115125   4.474   3.388  17.406 -0.2688 -0.1648  0.6694
 1222SOL    HW215126   4.514   3.436  17.274  0.4785  1.7002 -0.0461
 1223SOL     OW15127   3.349   0.736  13.568  0.2295 -0.0227  0.1256
 1223SOL    HW115128   3.298   0.725  13.649 -1.8095 -0.9499 -1.3051
 1223SOL    HW215129   3.406   0.659  13.571 -3.1287 -2.5347 -1.3682
 1224SOL     OW15130   1.286   3.586  15.685  0.1701 -0.2563 -0.0216
 1224SOL    HW115131   1.240   3.524  15.628  0.1677 -0.8134  0.5990
 1224SOL    HW215132   1.240   3.670  15.683 -1.5248 -1.1921 -0.4475
 1225SOL     OW15133   1.172   3.678   9.047 -0.6926  0.0679  1.1807
 1225SOL    HW115134   1.215   3.597   9.018 -2.0706 -0.2987  0.1992
 1225SOL    HW215135   1.103   3.649   9.106 -2.2429  0.0642 -0.6624
 1226SOL     OW15136   0.495   4.013   4.147  0.0111 -0.0742 -0.5916
 1226SOL    HW115137   0.409   3.971   4.143 -0.2587  0.2878  1.4360
 1226SOL    HW215138   0.541   3.931   4.166 -0.8227 -0.8217 -1.8479
 1227SOL     OW15139   3.009   4.636   8.225 -0.3357  0.2053 -0.3191
 1227SOL    HW115140   2.950   4.655   8.298  0.1054  0.5545 -0.0505
 1227SOL    HW215141   2.954   4.575   8.177  0.8553 -0.6036 -0.6358
 1228SOL     OW15142   4.648   0.649  15.165 -0.2051  0.4725  0.3770
 1228SOL    HW115143   4.715   0.594  15.205  2.3549  1.8618 -2.0045
 1228SOL    HW215144   4.696   0.731  15.165  1.7936 -0.6904 -2.7732
 1229SOL     OW15145   0.757   1.870   3.945 -0.4846  0.3218 -0.4588
 1229SOL    HW115146   0.710   1.926   4.007  1.6300  0.9185  0.6404
 1229SOL    HW215147   0.714   1.889   3.862 -0.3005 -1.1235 -0.8859
 1230SOL     OW15148   0.940   0.285   7.521 -0.2178  0.3734  0.4236
 1230SOL    HW115149   1.029   0.315   7.504  0.3103  0.4788  3.4772
 1230SOL    HW215150   0.916   0.350   7.586  1.6701  1.0043  0.5023
 1231SOL     OW15151   0.719   2.407  12.188  0.3894  0.1223 -0.4507
 1231SOL    HW115152   0.633   2.391  12.149  0.5720  0.9091 -1.1755
 1231SOL    HW215153   0.750   2.485  12.141 -1.2582  1.7938  1.2239
 1232SOL     OW15154   2.016   0.210   4.039  0.3947 -0.1308  0.1421
 1232SOL    HW115155   1.943   0.148   4.035  0.7209 -0.4326 -1.3125
 1232SOL    HW215156   2.042   0.189   3.949  0.9183  0.0198  0.2547
 1233SOL     OW15157   0.565   1.888   4.976  0.1802  0.2472 -0.3701
 1233SOL    HW115158   0.620   1.896   5.053 -2.0505  0.1198  1.2465
 1233SOL    HW215159   0.505   1.817   4.999  1.7223 -0.5365  1.1241
 1234SOL     OW15160   4.343   3.064  10.738  0.3890  0.6305  0.2188
 1234SOL    HW115161   4.366   3.056  10.645  1.9410 -0.7845  0.7480
 1234SOL    HW215162   4.262   3.111  10.715 -1.1744 -1.1309  2.1401
 1235SOL     OW15163   0.178   2.587  11.705  0.5717 -0.5571 -0.0991
 1235SOL    HW115164   0.118   2.653  11.668  0.9256  1.4948  3.0028
 1235SOL    HW215165   0.186   2.622  11.793  2.4320 -0.9661 -0.1206
 1236SOL     OW15166   4.640   4.140   8.544 -0.2830 -0.5320 -0.2768
 1236SOL    HW115167   4.641   4.093   8.627  0.9424 -1.5038 -0.8386
 1236SOL    HW215168   0.006   4.123   8.506  0.6458  1.7529  0.8748
 1237SOL     OW15169   2.547   3.185  12.369  0.1754 -0.4077  0.8137
 1237SOL    HW115170   2.537   3.089  12.366  0.4316 -0.4367  0.8491
 1237SOL    HW215171   2.614   3.198  12.436  2.6361 -1.1542 -1.4909
 1238SOL     OW15172   0.208   4.435  11.585  0.8484 -0.2267  0.5853
 1238SOL    HW115173   0.270   4.365  11.565 -0.0284 -0.4544 -1.3192
 1238SOL    HW215174   0.185   4.461  11.496 -1.4698  1.5268  1.7172
 1239SOL     OW15175   3.882   1.364   8.009  0.8676 -0.0585  0.0962
 1239SOL    HW115176   3.812   1.327   7.954 -1.1201 -1.2784  3.3773
 1239SOL    HW215177   3.906   1.285   8.059 -0.3204  0.4457  1.4571
 1240SOL     OW15178   0.840   1.880   6.742 -0.1193 -0.4934 -0.2980
 1240SOL    HW115179   0.761   1.878   6.687 -0.0522  2.0726 -0.5221
 1240SOL    HW215180   0.906   1.852   6.679 -1.4632 -2.3268 -0.8742
 1241SOL     OW15181   2.151   3.979   9.659  0.5233 -0.0439 -0.0974
 1241SOL    HW115182   2.187   3.915   9.721  1.0467 -0.2584 -0.6127
 1241SOL    HW215183   2.098   4.037   9.712  0.4413  0.4159 -0.6836
 1242SOL     OW15184   2.490   0.940   6.471 -0.0667  0.0579 -0.1372
 1242SOL    HW115185   2.426   0.914   6.537 -0.4964  0.1696 -0.5101
 1242SOL    HW215186   2.435   0.943   6.392 -2.0208 -1.8610  1.1606
 1243SOL     OW15187   4.399   2.233  17.441 -0.7161 -0.2617  1.0949
 1243SOL    HW115188   4.305   2.230  17.419 -0.4638 -1.1198  0.1611
 1243SOL    HW215189   4.437   2.258  17.356 -0.6988  1.3397  1.5632
 1244SOL     OW15190   2.999   4.135   8.248 -0.1990 -0.3957 -0.1622
 1244SOL    HW115191   2.952   4.052   8.255  3.1368 -2.5819 -3.4428
 1244SOL    HW215192   2.968   4.157   8.160  1.8841  2.6480 -0.1249
 1245SOL     OW15193   1.921   3.328  15.066 -0.4818 -0.1132 -0.1814
 1245SOL    HW115194   1.994   3.338  15.126 -0.5210  1.1395 -0.3381
 1245SOL    HW215195   1.902   3.235  15.079 -0.4274 -0.2372 -1.0241
 1246SOL     OW15196   0.759   4.110   7.072  0.1115  0.6423 -0.4310
 1246SOL    HW115197   0.756   4.090   7.166 -1.0879 -0.6237 -0.7476
 1246SOL    HW215198   0.813   4.032   7.059  0.3260  0.8710 -0.9117
 1247SOL     OW15199   2.151   0.824   3.998 -0.8607  0.3855 -0.0096
 1247SOL    HW115200   2.187   0.737   3.978 -0.7262 -0.0468  2.1282
 1247SOL    HW215201   2.209   0.868   3.935  1.0237 -1.3824  0.4879
 1248SOL     OW15202   4.696   2.869   3.929 -0.2768 -0.1928 -0.2373
 1248SOL    HW115203   0.022   2.810   3.870  1.4837  1.1884 -0.2193
 1248SOL    HW215204   4.682   2.949   3.879  0.5467 -0.5099 -0.9656
 1249SOL     OW15205   3.572   0.214  15.514 -0.0747  0.4019 -0.5705
 1249SOL    HW115206   3.598   0.122  15.507 -2.4432 -0.2422 -0.9416
 1249SOL    HW215207   3.650   0.244  15.560 -1.1790 -1.5866  2.5964
 1250SOL     OW15208   2.193   1.466   4.706  0.1853  0.3022 -0.3695
 1250SOL    HW115209   2.186   1.515   4.788 -0.6226 -1.8929  0.8975
 1250SOL    HW215210   2.115   1.411   4.717  2.1223 -2.2885  0.4660
 1251SOL     OW15211   3.650   2.308   6.376 -0.4990 -1.3718 -0.6544
 1251SOL    HW115212   3.602   2.325   6.295  0.5550 -0.1435 -1.0196
 1251SOL    HW215213   3.635   2.215   6.391  1.5442 -1.7796 -1.1334
 1252SOL     OW15214   1.085   3.682   6.723  0.2549  0.2991  0.3550
 1252SOL    HW115215   1.153   3.667   6.657  0.1920 -1.3616  0.6787
 1252SOL    HW215216   1.138   3.692   6.802  1.6183  0.7665 -0.6112
 1253SOL     OW15217   1.790   2.042   5.425 -0.8551  0.1089  0.3444
 1253SOL    HW115218   1.790   2.049   5.329  1.7744 -0.1833  0.3109
 1253SOL    HW215219   1.789   2.133   5.454 -0.9054 -0.0342  0.7847
 1254SOL     OW15220   4.168   0.962   4.274  0.2955  0.5310  0.1871
 1254SOL    HW115221   4.237   0.914   4.228 -0.9502 -2.1208  1.0601
 1254SOL    HW215222   4.097   0.933   4.216  1.2086 -1.4437  0.0368
 1255SOL     OW15223   3.521   0.945  13.499 -0.3023  0.7116 -0.3101
 1255SOL    HW115224   3.448   0.885  13.515 -0.3881  0.7272 -0.6420
 1255SOL    HW215225   3.545   0.976  13.587  1.3289  0.1396 -0.5548
 1256SOL     OW15226   1.330   3.926   5.783 -0.1654 -0.2209 -0.2431
 1256SOL    HW115227   1.399   3.867   5.813  0.8251  0.5675 -0.9856
 1256SOL    HW215228   1.312   3.978   5.862 -0.0770  0.4034 -0.6346
 1257SOL     OW15229   4.433   0.585   3.618 -0.0492  0.2352  0.1572
 1257SOL    HW115230   4.484   0.659   3.651 -0.0630 -0.0800  0.8686
 1257SOL    HW215231   4.361   0.633   3.577 -0.9610  0.3455  1.9189
 1258SOL     OW15232   4.410   2.596   8.046 -0.1336 -0.4622  0.3663
 1258SOL    HW115233   4.367   2.681   8.037  0.2787 -0.0811  1.9677
 1258SOL    HW215234   4.437   2.595   7.954  1.5835  0.3824  0.8608
 1259SOL     OW15235   2.510   0.865   7.801 -0.4601  0.5326  0.4611
 1259SOL    HW115236   2.441   0.875   7.866  0.3573 -1.5678  1.6368
 1259SOL    HW215237   2.542   0.953   7.777  2.3369 -0.7652 -0.5750
 1260SOL     OW15238   0.287   1.582   9.063  0.0573 -0.0049  0.0233
 1260SOL    HW115239   0.228   1.603   8.991  1.7303 -0.2222 -1.3809
 1260SOL    HW215240   0.317   1.497   9.030  1.5648 -0.1855  1.8305
 1261SOL     OW15241   3.809   2.240   9.065 -0.5641  0.5663 -0.0135
 1261SOL    HW115242   3.778   2.189   9.140  4.6125 -1.5765  0.6162
 1261SOL    HW215243   3.743   2.309   9.072  1.2800  2.3244 -0.1140
 1262SOL     OW15244   0.914   4.652   8.325 -0.7032 -0.3823  0.3927
 1262SOL    HW115245   0.852   4.601   8.377  2.3759 -0.7534  3.6854
 1262SOL    HW215246   0.953   4.704   8.395 -0.4365  1.5255 -1.1784
 1263SOL     OW15247   4.088   1.809   2.909 -0.3975  0.8184 -0.5238
 1263SOL    HW115248   4.175   1.820   2.870  0.3969 -2.8754  0.1952
 1263SOL    HW215249   4.106   1.740   2.972 -1.7168  1.2179  0.2897
 1264SOL     OW15250   2.352   2.558   0.497  0.0236  0.2766  0.5618
 1264SOL    HW115251   2.405   2.634   0.471 -2.2171  1.5816 -0.1467
 1264SOL    HW215252   2.423   2.507   0.536  0.5801 -0.0226 -0.8341
 1265SOL     OW15253   0.158   3.886   6.272 -0.1536  0.4660 -0.2158
 1265SOL    HW115254   0.200   3.967   6.299  0.5543 -0.6974  2.1295
 1265SOL    HW215255   0.077   3.904   6.320  1.1715  0.4387  2.0010
 1266SOL     OW15256   1.507   2.010   1.543  0.5207 -0.3100  0.3369
 1266SOL    HW115257   1.440   2.037   1.479  0.8863 -1.0740 -0.3710
 1266SOL    HW215258   1.588   2.024   1.494  1.7819 -1.4115  2.0993
 1267SOL     OW15259   3.984   1.957  13.003  0.8170  0.5990 -0.7375
 1267SOL    HW115260   3.956   1.938  12.914  1.2374  0.3764 -0.8223
 1267SOL    HW215261   4.040   1.883  13.026 -0.5986 -0.0708  0.5163
 1268SOL     OW15262   1.182   2.871  11.802  0.6409 -0.6648  0.4988
 1268SOL    HW115263   1.217   2.816  11.732  0.1401  0.1936 -0.4327
 1268SOL    HW215264   1.095   2.833  11.817  0.2826 -1.1897 -2.7800
 1269SOL     OW15265   4.418   0.022  14.799 -0.1544 -0.7004 -0.3560
 1269SOL    HW115266   4.503   4.714  14.832  0.3265  0.1135 -0.8898
 1269SOL    HW215267   4.419   4.709  14.709 -2.1839 -0.5617 -0.4375
 1270SOL     OW15268   2.121   3.530   8.315  0.4923 -0.0722 -0.1205
 1270SOL    HW115269   2.099   3.618   8.349  0.0160  0.5276 -1.9988
 1270SOL    HW215270   2.037   3.485   8.327 -0.2313  1.2299 -0.2169
 1271SOL     OW15271   3.199   2.418   9.137 -0.1137  0.0286 -0.2226
 1271SOL    HW115272   3.232   2.482   9.074 -2.6386 -0.0783 -1.6467
 1271SOL    HW215273   3.232   2.340   9.093 -0.3951  0.5645 -1.4019
 1272SOL     OW15274   4.569   3.379  14.264  0.5458 -0.1599 -0.3557
 1272SOL    HW115275   4.508   3.342  14.328 -0.9883  0.6923 -1.3567
 1272SOL    HW215276   4.594   3.466  14.296  1.4692 -0.6759  0.3657
 1273SOL     OW15277   3.585   3.046   3.468 -0.3532  0.2945  0.1686
 1273SOL    HW115278   3.653   3.080   3.410 -0.5591 -0.7915 -0.7015
 1273SOL    HW215279   3.512   3.102   3.441 -0.8548 -0.3696  0.1444
 1274SOL     OW15280   4.428   1.175   4.201  0.5742 -0.0654  0.1191
 1274SOL    HW115281   4.423   1.271   4.204 -2.9027 -0.2583 -0.0140
 1274SOL    HW215282   4.382   1.155   4.120 -2.5049  0.3671  1.7408
 1275SOL     OW15283   1.959   3.970   8.190  0.5841 -0.3778  0.0816
 1275SOL    HW115284   2.044   4.013   8.204  0.5492 -0.1328 -0.4469
 1275SOL    HW215285   1.907   4.047   8.214  1.8268  0.8586 -1.1551
 1276SOL     OW15286   4.703   0.051   7.170  0.8970 -0.1975 -0.8105
 1276SOL    HW115287   4.635   0.007   7.120  0.4002  2.2208 -2.2683
 1276SOL    HW215288   0.059   4.718   7.149  0.4766 -0.7666 -0.8629
 1277SOL     OW15289   2.368   3.063   5.006 -0.3042 -0.4749  0.2014
 1277SOL    HW115290   2.368   3.077   5.100  1.2550  2.5726 -0.2504
 1277SOL    HW215291   2.417   2.981   4.995 -0.3720 -0.3185 -1.2824
 1278SOL     OW15292   3.798   4.154  11.743  0.0044  0.0028  0.0036
 1278SOL    HW115293   3.726   4.097  11.769 -1.0599 -0.4376 -3.8516
 1278SOL    HW215294   3.826   4.104  11.666  1.8335 -0.2159  0.8072
 1279SOL     OW15295   3.561   3.993  11.781  0.2281 -0.0393 -0.5529
 1279SOL    HW115296   3.577   3.899  11.768  3.7316  0.5815 -0.5237
 1279SOL    HW215297   3.529   3.988  11.871 -1.4653 -2.0034 -1.2482
 1280SOL     OW15298   2.817   2.673  13.536 -0.1046  0.1666 -0.2760
 1280SOL    HW115299   2.762   2.666  13.459  1.3601  0.8835 -1.4064
 1280SOL    HW215300   2.874   2.600  13.512  1.2893  1.1953 -0.1232
 1281SOL     OW15301   2.858   1.454  13.590  0.1020  0.3784  0.0970
 1281SOL    HW115302   2.770   1.492  13.590  0.3620  0.9809  0.7302
 1281SOL    HW215303   2.836   1.362  13.596  2.5725 -0.2322 -0.1131
 1282SOL     OW15304   1.870   3.641  10.715  0.4336 -0.1903  0.1389
 1282SOL    HW115305   1.917   3.624  10.796  1.8461 -0.4403 -0.7415
 1282SOL    HW215306   1.784   3.664  10.751  0.9045 -0.1554  1.2463
 1283SOL     OW15307   3.292   4.245  15.954  0.1273  0.5822  0.3724
 1283SOL    HW115308   3.332   4.331  15.965  2.5200 -0.5419  0.6188
 1283SOL    HW215309   3.255   4.247  15.865  0.4220  1.0023  0.2603
 1284SOL     OW15310   4.078   3.324   0.823 -0.2569 -0.0120 -0.4695
 1284SOL    HW115311   4.156   3.379   0.826 -0.2894 -0.1258  2.2666
 1284SOL    HW215312   4.088   3.257   0.891  0.4535 -1.6597 -2.1857
 1285SOL     OW15313   1.709   1.208   8.331  0.0469  0.5928  0.4970
 1285SOL    HW115314   1.779   1.270   8.355  1.0675 -0.3484 -0.0193
 1285SOL    HW215315   1.668   1.240   8.250 -2.2264  1.4045  1.9780
 1286SOL     OW15316   2.458   3.443  15.688 -0.6641  0.2619  0.2334
 1286SOL    HW115317   2.467   3.520  15.744 -3.0657  3.0119 -3.1637
 1286SOL    HW215318   2.443   3.381  15.760 -5.7860  0.7403 -0.3797
 1287SOL     OW15319   2.514   1.362  13.438 -0.8191 -0.3682 -0.6149
 1287SOL    HW115320   2.452   1.348  13.367  0.6558 -0.7438 -1.8383
 1287SOL    HW215321   2.588   1.312  13.403  0.1711  0.1024  0.7941
 1288SOL     OW15322   4.585   2.060   1.745  0.3713 -0.2470  0.1086
 1288SOL    HW115323   4.536   2.142   1.732  0.7920 -0.1224 -0.7108
 1288SOL    HW215324   4.602   2.045   1.652  2.3219 -1.4089  0.6383
 1289SOL     OW15325   0.958   0.551  13.273 -0.4677  0.1533  0.3866
 1289SOL    HW115326   1.017   0.480  13.249 -1.3243 -0.3319 -0.2961
 1289SOL    HW215327   1.003   0.630  13.242  2.3651 -1.0123  1.5049
 1290SOL     OW15328   2.289   0.292   1.554  1.0565 -0.2574 -0.1954
 1290SOL    HW115329   2.330   0.208   1.535 -0.6080 -0.6831 -1.9183
 1290SOL    HW215330   2.366   0.348   1.548 -0.3330  1.5134 -1.4855
 1291SOL     OW15331   4.055   2.212  11.106  0.0597  0.0697  0.5937
 1291SOL    HW115332   4.052   2.279  11.037  0.8327  0.4045  0.8861
 1291SOL    HW215333   4.128   2.227  11.166  0.4190  1.3023 -0.1499
 1292SOL     OW15334   1.336   2.969  14.418 -0.3142 -0.1268  0.1352
 1292SOL    HW115335   1.369   2.886  14.384 -0.5301  0.1717 -0.7899
 1292SOL    HW215336   1.344   3.018  14.336  2.0629  0.0773  0.4880
 1293SOL     OW15337   1.807   3.270   6.838  0.3740 -0.1151  0.4041
 1293SOL    HW115338   1.756   3.328   6.782 -0.0333  0.3819  1.2866
 1293SOL    HW215339   1.868   3.218   6.786 -1.9733 -0.0464 -2.3926
 1294SOL     OW15340   0.247   3.661  14.726 -0.2217 -0.5979  0.1278
 1294SOL    HW115341   0.284   3.620  14.648  2.7554  1.5910  0.3590
 1294SOL    HW215342   0.283   3.750  14.728 -1.4625 -0.0727 -0.8871
 1295SOL     OW15343   3.346   4.396   6.694  0.1642 -0.3118 -0.1066
 1295SOL    HW115344   3.403   4.469   6.718  1.0806 -1.7009  1.8684
 1295SOL    HW215345   3.268   4.405   6.749  1.0545 -1.9932  1.4274
 1296SOL     OW15346   2.215   2.417   6.006 -0.1302  0.0326 -0.3060
 1296SOL    HW115347   2.223   2.394   6.099 -2.3425  0.4390 -0.0151
 1296SOL    HW215348   2.234   2.511   5.997 -0.0288 -0.0873 -1.3108
 1297SOL     OW15349   0.029   1.907   8.660  0.2761  0.3804 -0.3622
 1297SOL    HW115350   0.086   1.980   8.685  1.1146 -0.8119  1.2458
 1297SOL    HW215351   0.008   1.935   8.571 -0.3813 -1.5326 -0.8032
 1298SOL     OW15352   2.618   0.070   5.892  0.4124 -0.4068  0.2605
 1298SOL    HW115353   2.604   0.159   5.924  0.1527  0.2342 -1.6242
 1298SOL    HW215354   2.687   0.079   5.827  0.4446 -1.9832  0.0786
 1299SOL     OW15355   2.660   4.378   3.339 -0.1239  0.0688  0.5129
 1299SOL    HW115356   2.629   4.289   3.323 -0.8789  0.7177 -1.6680
 1299SOL    HW215357   2.740   4.379   3.286  1.1150  3.2433  2.4368
 1300SOL     OW15358   2.195   2.377   5.746 -0.7948  0.1174 -0.1539
 1300SOL    HW115359   2.181   2.403   5.837  0.2517  3.3758 -0.9197
 1300SOL    HW215360   2.253   2.447   5.715  0.5134 -1.2328 -0.7395
 1301SOL     OW15361   1.991   3.693   8.787 -0.3708  0.0299  0.1858
 1301SOL    HW115362   2.022   3.602   8.789  1.0987  0.5284  0.1864
 1301SOL    HW215363   1.908   3.679   8.743 -0.8389 -0.5765  1.2544
 1302SOL     OW15364   1.997   3.852   5.918 -0.2656  0.2835  0.4425
 1302SOL    HW115365   2.042   3.863   5.834 -1.9087  2.3546 -0.1730
 1302SOL    HW215366   2.016   3.763   5.946 -0.3823 -0.0496 -0.5252
 1303SOL     OW15367   2.333   2.478  13.274 -0.2896 -0.0376 -0.5511
 1303SOL    HW115368   2.375   2.472  13.188  0.9434 -1.0000  0.1186
 1303SOL    HW215369   2.301   2.568  13.279  0.2020  0.1727 -1.0925
 1304SOL     OW15370   0.328   4.070   1.909  0.5429  0.6251  0.0049
 1304SOL    HW115371   0.371   3.997   1.953  2.0154  0.3971 -1.8071
 1304SOL    HW215372   0.317   4.129   1.984 -0.6347  1.9342 -1.1803
 1305SOL     OW15373   2.682   0.905   8.121 -0.8110  0.0028  0.0582
 1305SOL    HW115374   2.656   0.910   8.029 -0.9281 -1.8757 -0.0174
 1305SOL    HW215375   2.734   0.825   8.123 -0.6783  0.0422 -1.7386
 1306SOL     OW15376   3.336   2.552   1.361  0.0910  0.1614 -0.4534
 1306SOL    HW115377   3.361   2.545   1.269 -1.3186  1.4168 -0.9420
 1306SOL    HW215378   3.415   2.517   1.401  0.6016  0.3255 -1.3124
 1307SOL     OW15379   2.004   0.167   6.539  0.2854  0.3884 -0.3445
 1307SOL    HW115380   1.922   0.160   6.588  0.5535 -0.5607 -0.0221
 1307SOL    HW215381   2.053   0.098   6.585 -0.3659  0.2658  0.1811
 1308SOL     OW15382   4.714   0.573   0.544  0.1454 -0.5421 -0.0464
 1308SOL    HW115383   0.041   0.602   0.466 -0.6589  2.1168  0.4357
 1308SOL    HW215384   4.677   0.489   0.517  0.6797 -0.5636 -0.7156
 1309SOL     OW15385   2.423   2.091   3.123 -0.3804 -0.0590  0.1712
 1309SOL    HW115386   2.424   2.122   3.032 -0.3712 -1.7842 -0.4005
 1309SOL    HW215387   2.346   2.133   3.160 -1.0990 -0.6459 -0.6494
 1310SOL     OW15388   1.460   4.607   9.089  0.1055  0.0475  0.1846
 1310SOL    HW115389   1.417   4.560   9.159  0.0539  0.2030  0.2585
 1310SOL    HW215390   1.452   4.698   9.117  0.9532 -0.4439  1.9879
 1311SOL     OW15391   3.932   3.401  11.945  0.0318  0.6290  0.7529
 1311SOL    HW115392   3.958   3.354  11.866 -0.8006 -0.0227  0.8674
 1311SOL    HW215393   3.923   3.331  12.009  0.5863 -0.1914 -0.0714
 1312SOL     OW15394   4.476   1.687   7.599 -0.0192 -0.3352  0.2297
 1312SOL    HW115395   4.467   1.592   7.592 -0.1296 -0.2975 -0.1296
 1312SOL    HW215396   4.565   1.702   7.632 -0.0035  0.0966 -0.0015
 1313SOL     OW15397   0.962   2.452  15.888  0.1483  0.5742  0.3152
 1313SOL    HW115398   0.900   2.467  15.959 -1.3943  0.1884 -0.9655
 1313SOL    HW215399   0.924   2.501  15.815  0.8108  1.1327  0.3382
 1314SOL     OW15400   1.466   0.316  13.061 -0.2988 -0.1817  0.5006
 1314SOL    HW115401   1.510   0.384  13.111 -0.1519  0.2858 -0.2688
 1314SOL    HW215402   1.433   0.270  13.139 -2.1404 -0.9079 -0.7005
 1315SOL     OW15403   4.677   1.758   5.748 -0.3624 -0.6122  0.1644
 1315SOL    HW115404   4.656   1.676   5.703  1.9075 -1.6973  1.0813
 1315SOL    HW215405   4.652   1.740   5.839  1.1335 -0.1557  0.6650
 1316SOL     OW15406   0.075   2.360   2.765 -0.6939 -0.5376 -0.1464
 1316SOL    HW115407   4.706   2.388   2.786 -0.9332 -1.6330  0.2787
 1316SOL    HW215408   0.128   2.440   2.765 -2.0645  0.3730  4.2672
 1317SOL     OW15409   0.629   3.516   5.467  0.0139 -0.1641  0.1883
 1317SOL    HW115410   0.565   3.555   5.527  1.9364  0.1829  2.0039
 1317SOL    HW215411   0.576   3.461   5.409  0.8749 -0.5185 -0.2619
 1318SOL     OW15412   3.065   3.887   7.858  0.5478  0.4303 -0.6919
 1318SOL    HW115413   2.982   3.883   7.906  1.3473 -0.1242  0.6316
 1318SOL    HW215414   3.133   3.880   7.925 -0.1207 -1.5630 -0.2137
 1319SOL     OW15415   1.114   1.390  16.820  0.3185 -0.1619 -0.2225
 1319SOL    HW115416   1.033   1.344  16.839  0.1170  0.3476  0.1620
 1319SOL    HW215417   1.138   1.352  16.735 -3.1712  1.1788 -1.8134
 1320SOL     OW15418   3.349   1.765  10.506 -0.6903  0.2494  0.0016
 1320SOL    HW115419   3.394   1.773  10.590  0.7412 -1.4592 -0.6127
 1320SOL    HW215420   3.267   1.733  10.542 -1.7879  0.2453 -2.4572
 1321SOL     OW15421   0.345   1.123   5.970 -0.1148  0.1877 -0.1396
 1321SOL    HW115422   0.340   1.180   6.047 -0.0736  0.1141 -0.0824
 1321SOL    HW215423   0.374   1.185   5.904  1.2528 -0.7355 -0.3846
 1322SOL     OW15424   2.819   2.239  13.784  0.0491 -0.0539  0.3942
 1322SOL    HW115425   2.901   2.288  13.778  0.0543  0.0522  1.3041
 1322SOL    HW215426   2.867   2.157  13.794 -0.9017 -0.8245 -1.4834
 1323SOL     OW15427   3.879   4.483   4.461  0.2954  0.2177  0.6242
 1323SOL    HW115428   3.847   4.412   4.405  0.4574  0.3121  0.4117
 1323SOL    HW215429   3.886   4.554   4.397  0.6565 -1.0653 -0.7508
 1324SOL     OW15430   4.356   4.251   5.515 -0.3106  0.3756 -0.0149
 1324SOL    HW115431   4.381   4.307   5.588  1.8419  1.3028 -1.4824
 1324SOL    HW215432   4.439   4.243   5.468  0.2120  1.6538  0.6964
 1325SOL     OW15433   4.082   3.592  15.942 -0.0630 -0.2195  0.0389
 1325SOL    HW115434   3.994   3.610  15.975 -1.2985 -2.6898 -1.9165
 1325SOL    HW215435   4.138   3.637  16.006 -0.0030  0.9953 -0.8527
 1326SOL     OW15436   3.872   3.579   1.840  0.9759 -0.0011  0.7408
 1326SOL    HW115437   3.961   3.560   1.867  1.5164  0.3417 -0.8153
 1326SOL    HW215438   3.874   3.549   1.749  0.4462 -0.5713  0.9162
 1327SOL     OW15439   1.224   4.322   2.162 -0.2826  0.1576  0.0661
 1327SOL    HW115440   1.292   4.335   2.228 -1.4258  0.0423  1.2682
 1327SOL    HW215441   1.279   4.294   2.089 -0.5491  1.0082 -0.4573
 1328SOL     OW15442   3.040   1.368   5.418 -0.1842 -0.1440  0.1050
 1328SOL    HW115443   3.022   1.458   5.445 -1.3764 -0.6431  1.0162
 1328SOL    HW215444   3.047   1.325   5.504  1.4842 -2.9903 -1.4319
 1329SOL     OW15445   2.618   1.521   9.638 -0.0610 -0.6969  0.2694
 1329SOL    HW115446   2.541   1.508   9.693 -0.0001 -1.9630  0.0522
 1329SOL    HW215447   2.571   1.542   9.558  1.0921 -2.3856 -0.8604
 1330SOL     OW15448   0.370   3.248  12.714 -0.2375  0.2567 -0.5170
 1330SOL    HW115449   0.338   3.160  12.735  3.4542 -0.7516  0.8834
 1330SOL    HW215450   0.375   3.280  12.804 -1.0251  1.7852 -1.0149
 1331SOL     OW15451   2.622   2.914   8.866  0.4964 -0.3908 -0.6131
 1331SOL    HW115452   2.618   2.892   8.959  0.4564  0.1464 -0.4888
 1331SOL    HW215453   2.530   2.939   8.850  0.5034 -0.1697 -0.2936
 1332SOL     OW15454   0.641   2.798   2.348  0.4859 -0.2139 -0.5708
 1332SOL    HW115455   0.615   2.858   2.278 -0.0054  1.3963  0.9866
 1332SOL    HW215456   0.679   2.727   2.297  0.8046 -0.7698  0.4447
 1333SOL     OW15457   2.194   4.089   7.228  0.0633  0.0382 -0.0389
 1333SOL    HW115458   2.278   4.104   7.184  0.3089  0.8098  0.6694
 1333SOL    HW215459   2.224   4.070   7.317  0.3950  2.0409  0.2956
 1334SOL     OW15460   1.772   4.633   9.191 -0.7150 -0.5699  0.4456
 1334SOL    HW115461   1.795   4.552   9.236  1.1124  0.3360  1.1464
 1334SOL    HW215462   1.683   4.609   9.167 -1.2314  2.9239 -1.2269
 1335SOL     OW15463   3.499   4.289  12.669 -0.2263 -0.5077 -0.6045
 1335SOL    HW115464   3.575   4.232  12.678  0.9766  0.8518 -2.0744
 1335SOL    HW215465   3.540   4.372  12.644  1.6213 -1.0529  0.6873
 1336SOL     OW15466   0.996   2.491  11.663 -0.0473  0.3459  0.1050
 1336SOL    HW115467   0.943   2.423  11.703 -0.9067  0.2243 -1.2363
 1336SOL    HW215468   0.932   2.526  11.601 -0.5981  1.9738  1.6122
 1337SOL     OW15469   4.717   1.329   6.690  0.2141 -0.8894  0.6984
 1337SOL    HW115470   0.057   1.336   6.763 -1.1058  0.9324  1.5944
 1337SOL    HW215471   4.646   1.287   6.739 -0.4426 -1.4437 -0.7029
 1338SOL     OW15472   2.246   3.530  12.073  0.0840  0.1848  0.7962
 1338SOL    HW115473   2.294   3.516  12.154 -0.8342 -2.9738  0.7976
 1338SOL    HW215474   2.253   3.624  12.060  2.5257 -0.0884  0.2670
 1339SOL     OW15475   1.586   4.619   5.983  0.3600  0.4148 -0.7895
 1339SOL    HW115476   1.634   4.603   5.902 -0.9451  1.9315 -1.8817
 1339SOL    HW215477   1.496   4.633   5.952  0.7140  2.9234 -0.7435
 1340SOL     OW15478   4.354   2.025   0.216  0.0707  0.3299  0.1663
 1340SOL    HW115479   4.358   2.084   0.140  0.2626 -1.2017 -1.0104
 1340SOL    HW215480   4.312   2.075   0.286 -0.1675  0.6670 -0.2173
 1341SOL     OW15481   2.511   1.964   1.390 -0.5635 -0.1753  0.4407
 1341SOL    HW115482   2.537   1.909   1.463  1.2773 -2.1232 -1.6700
 1341SOL    HW215483   2.584   1.956   1.329  0.0155  1.3945  0.9582
 1342SOL     OW15484   3.503   3.304   8.823 -0.4090  0.4598 -0.6193
 1342SOL    HW115485   3.426   3.275   8.872  1.2449 -3.9900 -0.6852
 1342SOL    HW215486   3.545   3.333   8.903  0.2961  0.8733 -1.1437
 1343SOL     OW15487   2.324   1.717  12.493  0.0992  0.0278  0.3992
 1343SOL    HW115488   2.338   1.699  12.586 -2.0118  3.5000  1.3979
 1343SOL    HW215489   2.406   1.679  12.461 -0.4134  0.9177 -1.9999
 1344SOL     OW15490   2.730   0.654   4.202 -0.1755 -0.2664  0.2225
 1344SOL    HW115491   2.800   0.590   4.193  1.9578  2.2271 -0.8664
 1344SOL    HW215492   2.659   0.620   4.147 -0.1391  1.8428 -1.1375
 1345SOL     OW15493   0.451   3.097   9.618  0.2692  0.2736  0.2640
 1345SOL    HW115494   0.416   3.033   9.557 -0.1691 -1.1742  2.0195
 1345SOL    HW215495   0.369   3.122   9.661  1.0777  2.1711  0.7157
 1346SOL     OW15496   1.234   1.942   6.992  0.8318  0.4235 -0.8164
 1346SOL    HW115497   1.281   1.995   7.055 -0.3339  1.0692 -0.4867
 1346SOL    HW215498   1.222   1.859   7.039  2.1947  0.0445 -1.1388
 1347SOL     OW15499   4.561   2.705   5.933 -0.0458  0.4495  0.7011
 1347SOL    HW115500   4.487   2.766   5.925 -1.5726 -1.5649 -0.5394
 1347SOL    HW215501   4.597   2.726   6.019  2.0829  0.2676 -0.1632
 1348SOL     OW15502   1.868   2.348   0.756  0.1151  0.2325  0.1106
 1348SOL    HW115503   1.961   2.372   0.753  0.2613 -0.3765 -0.3222
 1348SOL    HW215504   1.871   2.263   0.712  1.8974 -0.4113  1.4840
 1349SOL     OW15505   3.183   4.281   7.054  0.1845 -0.6944  0.0542
 1349SOL    HW115506   3.123   4.259   6.983  1.3745 -3.3161 -0.1247
 1349SOL    HW215507   3.196   4.202   7.107  2.5261 -0.6025 -0.3947
 1350SOL     OW15508   1.080   2.462   9.768 -0.2968 -0.2784 -0.1788
 1350SOL    HW115509   1.053   2.392   9.827 -0.6229  1.2252  1.4356
 1350SOL    HW215510   1.000   2.513   9.756  1.5810  2.9566  1.1152
 1351SOL     OW15511   0.517   0.317   0.947  0.2420 -0.1704 -1.0194
 1351SOL    HW115512   0.494   0.292   1.037  0.9768  1.2250 -0.4502
 1351SOL    HW215513   0.436   0.295   0.902 -1.1628 -1.6696  2.2851
 1352SOL     OW15514   3.511   3.406   1.910  0.3365 -0.0831  0.3760
 1352SOL    HW115515   3.418   3.391   1.928 -0.3958  1.5618 -1.9851
 1352SOL    HW215516   3.508   3.470   1.838 -0.7250 -1.0367 -0.4302
 1353SOL     OW15517   1.686   2.687   2.707  0.6573  0.6114 -0.2357
 1353SOL    HW115518   1.689   2.780   2.685  0.3221  1.1997  2.2157
 1353SOL    HW215519   1.631   2.644   2.642  0.5505 -1.1817  1.0355
 1354SOL     OW15520   3.722   4.585   5.704  0.7776 -0.5202 -0.1024
 1354SOL    HW115521   3.724   4.586   5.800 -0.2991 -0.5388 -0.0751
 1354SOL    HW215522   3.632   4.617   5.696  0.5042 -1.8311 -2.2692
 1355SOL     OW15523   1.387   0.760   4.774 -0.1669  0.4387 -0.1116
 1355SOL    HW115524   1.354   0.707   4.702 -0.5649 -1.0117  1.1395
 1355SOL    HW215525   1.302   0.779   4.813  0.1996 -0.3153  1.0371
 1356SOL     OW15526   3.147   0.677   4.717  0.0477 -0.7510 -0.3309
 1356SOL    HW115527   3.127   0.760   4.673  1.1566 -0.5161 -0.3889
 1356SOL    HW215528   3.127   0.696   4.809  3.2089  1.7932 -0.1545
 1357SOL     OW15529   0.280   2.919   9.517  0.0643 -0.2367 -0.2918
 1357SOL    HW115530   0.212   2.985   9.523  0.0986 -0.1421 -0.9033
 1357SOL    HW215531   0.253   2.849   9.577 -0.6528  1.4125  1.2793
 1358SOL     OW15532   2.974   1.192   5.905  0.4253 -0.1366 -0.3758
 1358SOL    HW115533   2.882   1.218   5.905  0.5581  0.3317  0.0775
 1358SOL    HW215534   3.001   1.231   5.988  1.6967  0.1319 -0.9288
 1359SOL     OW15535   1.798   3.582   6.896 -0.7702 -0.4503  0.1335
 1359SOL    HW115536   1.893   3.578   6.888 -0.7458 -2.9121  1.6600
 1359SOL    HW215537   1.762   3.534   6.821  0.7102 -0.1068 -0.8047
 1360SOL     OW15538   1.691   0.127   4.271  0.0134 -0.6377  0.7419
 1360SOL    HW115539   1.681   0.114   4.176  2.5463  1.1977  0.2481
 1360SOL    HW215540   1.783   0.146   4.285 -0.1241 -0.5931  1.6061
 1361SOL     OW15541   4.479   3.526  15.957 -0.0439 -0.0311  0.0447
 1361SOL    HW115542   4.543   3.493  15.894  1.6599 -0.9140  2.2532
 1361SOL    HW215543   4.432   3.445  15.977 -0.7009  0.6875  1.3646
 1362SOL     OW15544   4.658   3.683  17.426 -0.1465  0.0701 -0.7754
 1362SOL    HW115545   4.578   3.735  17.437  0.6656  1.7405 -2.8736
 1362SOL    HW215546   4.622   3.597  17.405  1.2526 -1.2375  2.2086
 1363SOL     OW15547   4.412   4.348  10.587  0.7135  0.5060  0.4423
 1363SOL    HW115548   4.467   4.352  10.665 -2.9542  0.9065  3.0313
 1363SOL    HW215549   4.476   4.334  10.518 -0.6352 -3.1326 -0.0417
 1364SOL     OW15550   2.049   0.350  15.958 -0.2356  0.2982  0.2323
 1364SOL    HW115551   2.124   0.355  15.898 -0.8838 -0.5962 -0.6529
 1364SOL    HW215552   1.979   0.365  15.894  0.5841  1.9815 -0.2831
 1365SOL     OW15553   4.126   2.117   6.038  0.1618 -0.1246 -0.5031
 1365SOL    HW115554   4.162   2.181   5.976 -1.0810 -0.9069 -2.0585
 1365SOL    HW215555   4.090   2.050   5.980 -1.2450  1.6823 -1.7680
 1366SOL     OW15556   1.526   0.074  11.476 -0.3557  0.3594 -0.1971
 1366SOL    HW115557   1.521   0.122  11.559  1.5228 -1.5788  1.0532
 1366SOL    HW215558   1.558   0.132  11.407 -1.3299 -0.0811 -1.0245
 1367SOL     OW15559   0.518   4.065   8.117  0.3808  0.0739  0.1649
 1367SOL    HW115560   0.481   4.153   8.110 -0.6390 -0.3732 -0.0752
 1367SOL    HW215561   0.441   4.008   8.118  0.2298  0.2852  0.5130
 1368SOL     OW15562   1.231   3.250  11.679  0.8212 -0.3294 -0.1065
 1368SOL    HW115563   1.245   3.186  11.610 -0.5075 -0.0372 -0.6369
 1368SOL    HW215564   1.147   3.218  11.711  0.0981  0.1772 -1.4768
 1369SOL     OW15565   1.133   3.941  13.808  0.6208  0.2020  0.3250
 1369SOL    HW115566   1.143   3.881  13.883 -2.6168  1.3693  1.6956
 1369SOL    HW215567   1.073   3.893  13.752  2.0773 -0.5216 -0.6076
 1370SOL     OW15568   4.218   2.867  14.811 -0.4980  0.1329  0.0667
 1370SOL    HW115569   4.255   2.878  14.724  2.2125 -0.5124  1.1435
 1370SOL    HW215570   4.141   2.924  14.815 -1.9317 -1.8165  0.4302
 1371SOL     OW15571   3.466   2.344   3.420  0.0177  0.2289 -0.0617
 1371SOL    HW115572   3.540   2.362   3.361  0.0193  1.8239  0.4439
 1371SOL    HW215573   3.408   2.413   3.388  1.0773  1.1469  0.0115
 1372SOL     OW15574   3.031   1.453  14.842 -0.0863 -0.1975  0.1187
 1372SOL    HW115575   3.030   1.382  14.907 -1.1047  1.6569  2.1289
 1372SOL    HW215576   2.949   1.497  14.863  0.8388  1.2716  0.6511
 1373SOL     OW15577   0.227   2.294   7.291 -0.1634  0.0305  0.0052
 1373SOL    HW115578   0.240   2.200   7.278 -1.5439  0.0857 -1.7401
 1373SOL    HW215579   0.280   2.333   7.222 -2.7586  1.7195 -1.0346
 1374SOL     OW15580   1.408   3.496  13.258  0.6503  0.3184 -0.1534
 1374SOL    HW115581   1.498   3.528  13.269  0.8300 -0.9990  2.2258
 1374SOL    HW215582   1.380   3.529  13.343  0.0217  0.2680 -0.3446
 1375SOL     OW15583   0.496   0.820   7.059  0.0889 -0.6139 -0.3308
 1375SOL    HW115584   0.574   0.779   7.021  1.8532  3.2618 -0.9660
 1375SOL    HW215585   0.457   0.745   7.103 -0.3470 -0.5448 -0.5985
 1376SOL     OW15586   0.464   3.347   4.903 -0.5342  0.2408 -0.4522
 1376SOL    HW115587   0.486   3.304   4.820 -0.7377 -1.4318  0.3616
 1376SOL    HW215588   0.368   3.341   4.899 -0.7203  2.4990  1.0071
 1377SOL     OW15589   3.131   3.505   9.577 -0.2720  0.2077  0.1892
 1377SOL    HW115590   3.106   3.469   9.662  1.9227  1.1059  1.2238
 1377SOL    HW215591   3.046   3.507   9.534  0.4945  2.4204 -1.1918
 1378SOL     OW15592   3.551   1.022   3.023 -0.3731 -0.6684 -0.1688
 1378SOL    HW115593   3.515   1.110   3.020 -1.3700 -1.1094 -1.0533
 1378SOL    HW215594   3.636   1.023   2.980  0.6990 -0.0831  1.9559
 1379SOL     OW15595   3.663   0.681   2.677 -0.0123 -0.3805  0.5180
 1379SOL    HW115596   3.701   0.671   2.590  0.4963  0.1769  0.6761
 1379SOL    HW215597   3.605   0.756   2.662  0.7581  0.0668 -0.1789
 1380SOL     OW15598   1.720   2.339   4.027 -0.1313 -0.5082  0.2190
 1380SOL    HW115599   1.775   2.261   4.015  1.2333  0.7921 -1.9181
 1380SOL    HW215600   1.646   2.306   4.077 -2.1401  1.9010 -1.1930
 1381SOL     OW15601   3.616   0.755   3.556 -0.3768 -0.2479 -0.1994
 1381SOL    HW115602   3.559   0.729   3.484 -0.5118 -0.1299 -0.1362
 1381SOL    HW215603   3.669   0.676   3.559 -1.7365 -1.1456 -0.1088
 1382SOL     OW15604   2.781   2.275  16.889 -0.4422  0.7109 -0.0064
 1382SOL    HW115605   2.864   2.269  16.841 -0.9613  1.1032 -0.9474
 1382SOL    HW215606   2.799   2.331  16.965  0.4536 -0.2578  0.4859
 1383SOL     OW15607   0.075   1.582   4.634 -0.0243  0.3391 -0.2173
 1383SOL    HW115608   0.163   1.619   4.628 -0.1046  0.6925  0.7827
 1383SOL    HW215609   0.100   1.491   4.651 -2.5173 -0.5471 -1.2190
 1384SOL     OW15610   1.953   2.182   3.092  0.3905 -0.1803 -0.0363
 1384SOL    HW115611   2.047   2.200   3.085  0.3430  0.3998  0.8295
 1384SOL    HW215612   1.918   2.268   3.114  0.0623 -0.1066 -0.8712
 1385SOL     OW15613   0.554   4.025   9.862 -0.2637  0.0544  0.2764
 1385SOL    HW115614   0.540   4.113   9.827 -0.8186  0.2371  0.9535
 1385SOL    HW215615   0.627   4.038   9.923 -0.5161  2.7012  0.0350
 1386SOL     OW15616   4.083   2.901   1.221  0.0476  0.2702  0.7442
 1386SOL    HW115617   4.037   2.868   1.144  1.3733 -0.9371  0.4836
 1386SOL    HW215618   4.171   2.864   1.223  0.2107  0.6858  1.7327
 1387SOL     OW15619   4.144   0.646   3.946 -0.5206 -0.0219 -0.1019
 1387SOL    HW115620   4.094   0.565   3.953 -0.6814 -0.0728 -1.8610
 1387SOL    HW215621   4.130   0.664   3.853 -0.3890  0.1145 -0.0959
 1388SOL     OW15622   1.947   1.121   0.797  0.3010 -0.3466  0.4829
 1388SOL    HW115623   1.908   1.154   0.716 -0.0895 -0.4737  0.6215
 1388SOL    HW215624   1.888   1.046   0.799 -2.0080  1.3832 -3.2463
 1389SOL     OW15625   1.585   4.526  16.448  0.2651 -0.3926  0.0407
 1389SOL    HW115626   1.515   4.467  16.473  1.7666 -2.0687  0.2789
 1389SOL    HW215627   1.565   4.534  16.355 -1.5963  2.9389  0.7171
 1390SOL     OW15628   2.079   4.057   6.794  0.3542  0.2367 -0.7953
 1390SOL    HW115629   1.991   4.039   6.761 -0.0711  1.1970 -0.2037
 1390SOL    HW215630   2.075   4.006   6.876 -0.3820  2.3992  0.5186
 1391SOL     OW15631   3.948   4.580   2.192  0.5870  0.0169 -0.2706
 1391SOL    HW115632   3.919   4.490   2.181  0.2918  0.2222 -1.1608
 1391SOL    HW215633   4.039   4.583   2.164  0.0916  0.1170 -1.8567
 1392SOL     OW15634   4.506   0.889   8.239 -0.3656 -0.2781  0.4239
 1392SOL    HW115635   4.447   0.916   8.309 -0.7333 -0.2368  0.0935
 1392SOL    HW215636   4.589   0.924   8.272  0.6048 -1.1973 -1.0558
 1393SOL     OW15637   1.479   0.106   8.190  0.2332 -0.1800 -0.1900
 1393SOL    HW115638   1.518   0.019   8.183 -1.4462 -0.9770  0.1601
 1393SOL    HW215639   1.542   0.156   8.139  1.1502 -0.5934  0.5458
 1394SOL     OW15640   0.341   2.550   8.510 -0.0915 -0.2472 -0.7878
 1394SOL    HW115641   0.343   2.511   8.423  0.8498 -0.4403 -0.6805
 1394SOL    HW215642   0.329   2.645   8.503 -0.2908 -0.1895  0.2839
 1395SOL     OW15643   4.415   2.452   0.132  0.3308 -0.3724  0.1026
 1395SOL    HW115644   4.408   2.498   0.048 -1.3385  0.6725  0.8016
 1395SOL    HW215645   4.381   2.367   0.103  0.3902  0.4925 -2.5516
 1396SOL     OW15646   3.599   2.189   3.050 -0.3149 -0.6997  0.3673
 1396SOL    HW115647   3.566   2.259   2.995  1.1468 -1.7942 -1.9038
 1396SOL    HW215648   3.531   2.178   3.116 -0.8001  0.4956  0.0800
 1397SOL     OW15649   4.207   3.567   6.586  0.4077 -0.1424 -0.1636
 1397SOL    HW115650   4.138   3.500   6.584 -0.0098  0.2528  1.8180
 1397SOL    HW215651   4.166   3.615   6.514 -0.9234  2.8719  2.6358
 1398SOL     OW15652   0.515   4.191   7.726  0.1352  0.1717 -0.3009
 1398SOL    HW115653   0.593   4.203   7.671  0.4750  1.5289  0.4470
 1398SOL    HW215654   0.446   4.247   7.691 -0.9682  0.2873  2.0476
 1399SOL     OW15655   1.303   2.901   6.466 -0.0751  0.1986  0.5673
 1399SOL    HW115656   1.333   2.811   6.454 -1.7402 -0.0194 -1.8689
 1399SOL    HW215657   1.211   2.907   6.441 -1.2785 -2.2800  4.3460
 1400SOL     OW15658   0.429   4.313   2.656  0.1177  0.0862  0.6342
 1400SOL    HW115659   0.482   4.234   2.647  0.9225  0.9081 -1.7704
 1400SOL    HW215660   0.346   4.272   2.680  0.3837 -1.2484 -0.7620
 1401SOL     OW15661   1.068   0.189   5.949 -0.3798  0.2355 -0.6015
 1401SOL    HW115662   1.037   0.278   5.933 -1.2436 -0.2140 -1.4077
 1401SOL    HW215663   1.097   0.192   6.041 -0.7559  0.7141 -0.5010
 1402SOL     OW15664   2.218   3.467   3.928  0.5039 -0.3545  0.7143
 1402SOL    HW115665   2.249   3.382   3.895 -0.4092 -0.3543 -0.1498
 1402SOL    HW215666   2.284   3.523   3.888  1.0866 -0.1671  1.9419
 1403SOL     OW15667   3.409   3.028   3.169 -0.5509 -0.4995 -0.1565
 1403SOL    HW115668   3.466   2.994   3.238 -1.1698  3.2453  2.1636
 1403SOL    HW215669   3.383   3.109   3.212  2.4559  0.4856 -0.1999
 1404SOL     OW15670   3.624   1.168   7.184  0.0357 -0.8723 -0.1489
 1404SOL    HW115671   3.694   1.104   7.181 -0.2387 -1.1719 -0.1885
 1404SOL    HW215672   3.658   1.227   7.252 -0.5441  1.2262 -1.6870
 1405SOL     OW15673   1.596   2.329  16.606 -0.0571 -0.1609  0.0801
 1405SOL    HW115674   1.557   2.405  16.650 -0.0394  0.2221 -0.5624
 1405SOL    HW215675   1.537   2.305  16.534  1.2918 -0.0785 -1.0658
 1406SOL     OW15676   1.746   3.482  14.204 -0.4170  0.1191  0.5090
 1406SOL    HW115677   1.657   3.517  14.206 -0.1710  0.8630 -1.7756
 1406SOL    HW215678   1.746   3.405  14.261 -1.2479 -0.0550  0.2703
 1407SOL     OW15679   3.118   2.588  15.113  0.1077 -0.7823  0.4340
 1407SOL    HW115680   3.067   2.618  15.188 -0.3851  2.2362 -1.0922
 1407SOL    HW215681   3.051   2.581  15.045 -2.1597  1.9330  2.3592
 1408SOL     OW15682   0.747   4.184   6.318  0.3006 -0.3906  0.1110
 1408SOL    HW115683   0.680   4.194   6.385  0.2476  2.3003 -0.3244
 1408SOL    HW215684   0.828   4.195   6.368 -1.3550  1.0088  2.4406
 1409SOL     OW15685   3.710   0.830   8.320 -0.1329  0.1333  0.3534
 1409SOL    HW115686   3.654   0.840   8.397  0.8335 -0.1172  1.0898
 1409SOL    HW215687   3.796   0.839   8.361  0.4146 -0.2261 -0.7210
 1410SOL     OW15688   3.045   2.034   5.300 -0.4133 -0.2305  0.6364
 1410SOL    HW115689   3.134   2.067   5.294 -0.2621 -0.3870  2.0087
 1410SOL    HW215690   2.988   2.110   5.285  1.6549  0.7060 -2.4363
 1411SOL     OW15691   1.876   2.935  15.461 -0.1078 -0.2351  0.3481
 1411SOL    HW115692   1.826   2.858  15.487 -1.2923  0.0889 -0.9597
 1411SOL    HW215693   1.896   2.963  15.551  3.0664  0.8605 -0.6723
 1412SOL     OW15694   3.139   4.495  15.921  0.3006 -0.2619 -0.3175
 1412SOL    HW115695   3.152   4.585  15.951  1.1731  0.1009 -1.7910
 1412SOL    HW215696   3.113   4.508  15.830 -1.2411  0.2639  0.1999
 1413SOL     OW15697   1.233   1.286   1.535 -0.1497  0.1919  0.1097
 1413SOL    HW115698   1.166   1.217   1.538  1.5473 -1.5878 -2.8464
 1413SOL    HW215699   1.299   1.249   1.477  0.0927 -0.1544  0.6024
 1414SOL     OW15700   4.516   4.644   9.437  0.8999 -0.1928 -0.3749
 1414SOL    HW115701   4.490   4.552   9.435  0.9638 -0.2339  1.0095
 1414SOL    HW215702   4.584   4.639   9.369  0.1007 -1.9655 -1.0342
 1415SOL     OW15703   0.319   2.897   6.125 -0.0661 -0.1326 -0.0924
 1415SOL    HW115704   0.305   2.926   6.035 -2.2654  2.4182  1.0925
 1415SOL    HW215705   0.329   2.975   6.178 -0.0584  0.4141 -0.8986
 1416SOL     OW15706   2.326   1.160   5.041  0.5888  0.3402  0.0613
 1416SOL    HW115707   2.327   1.253   5.061 -0.5126  0.4282 -0.2995
 1416SOL    HW215708   2.255   1.154   4.977 -0.2700 -0.5938  1.1003
 1417SOL     OW15709   1.094   1.512   1.552  0.5052 -0.4338 -0.2444
 1417SOL    HW115710   1.070   1.507   1.644 -2.2333 -2.9863 -1.0929
 1417SOL    HW215711   1.134   1.428   1.530  1.7014  0.1802 -0.4135
 1418SOL     OW15712   2.890   1.809  14.059 -0.2778 -0.2341  0.7400
 1418SOL    HW115713   2.835   1.879  14.094 -1.0597 -0.7555  0.5736
 1418SOL    HW215714   2.821   1.743  14.056  0.0370 -0.5637  0.7980
 1419SOL     OW15715   3.360   2.842   7.940  0.1822 -0.2328 -0.4587
 1419SOL    HW115716   3.288   2.835   7.877  1.0230 -0.4064 -1.4043
 1419SOL    HW215717   3.429   2.784   7.908  0.4970 -1.0774  1.7511
 1420SOL     OW15718   0.692   0.929   8.530 -0.4167 -0.1359 -0.2792
 1420SOL    HW115719   0.782   0.961   8.533 -1.1760  1.9766  0.4570
 1420SOL    HW215720   0.695   0.843   8.570 -3.3446 -0.2266 -0.2859
 1421SOL     OW15721   4.533   1.846   7.393 -0.6339 -0.4608  0.1932
 1421SOL    HW115722   4.511   1.763   7.434  0.8767 -0.8185  0.3013
 1421SOL    HW215723   4.594   1.808   7.330 -1.3978 -0.8908 -0.2762
 1422SOL     OW15724   4.250   2.222   3.373  0.2580 -0.1511  0.3216
 1422SOL    HW115725   4.336   2.188   3.394  1.0785  1.1852 -0.8819
 1422SOL    HW215726   4.250   2.306   3.419 -0.6232 -0.7629  1.4289
 1423SOL     OW15727   4.181   2.931   3.528  0.2493 -0.0912 -0.3636
 1423SOL    HW115728   4.092   2.908   3.503  0.1561 -0.4359  0.2752
 1423SOL    HW215729   4.174   2.995   3.599  1.8798 -0.7004  0.3546
 1424SOL     OW15730   0.769   4.188  10.458 -0.1687  0.3166 -0.2888
 1424SOL    HW115731   0.679   4.193  10.428  0.0966  1.4315 -0.9305
 1424SOL    HW215732   0.779   4.276  10.494  1.3093 -0.4088  1.0658
 1425SOL     OW15733   1.715   3.226  15.871 -0.5452 -0.4093 -0.2534
 1425SOL    HW115734   1.727   3.257  15.961  0.4651  0.4876 -0.6905
 1425SOL    HW215735   1.749   3.304  15.825  2.2374  0.1744  2.7817
 1426SOL     OW15736   0.240   1.930   7.817 -0.3168  0.0372  0.1890
 1426SOL    HW115737   0.189   2.000   7.858 -2.1598 -1.0044 -0.3155
 1426SOL    HW215738   0.227   1.950   7.724  0.5124  1.3114  0.3518
 1427SOL     OW15739   0.288   2.699   7.790 -0.3365 -0.2922  0.3472
 1427SOL    HW115740   0.351   2.679   7.860 -0.9999 -0.9470  0.7599
 1427SOL    HW215741   0.343   2.736   7.722  0.4107 -0.2214  0.9909
 1428SOL     OW15742   3.903   4.680   6.727  0.0474  0.8162 -0.1091
 1428SOL    HW115743   3.847   4.685   6.804  1.6074  1.8935  0.9384
 1428SOL    HW215744   3.951   4.598   6.739  0.4387  1.2497  1.3000
 1429SOL     OW15745   2.866   2.282   7.691  0.0628  1.0394  0.1687
 1429SOL    HW115746   2.820   2.362   7.716  3.9622  3.4076 -0.2315
 1429SOL    HW215747   2.818   2.254   7.612  0.5874 -0.4234  0.3598
 1430SOL     OW15748   0.787   4.448   6.990 -0.3729 -0.0175  0.2465
 1430SOL    HW115749   0.842   4.516   6.951 -0.0356 -0.6149 -0.3275
 1430SOL    HW215750   0.858   4.404   7.037 -0.5043 -1.4745 -0.9093
 1431SOL     OW15751   4.235   4.537   4.909  0.1921 -0.0407  0.4902
 1431SOL    HW115752   4.314   4.482   4.904  0.2407  0.0881 -0.1715
 1431SOL    HW215753   4.213   4.540   4.816  0.0411 -0.8719  0.4964
 1432SOL     OW15754   4.306   0.563   5.991 -0.2673  0.8312 -0.3143
 1432SOL    HW115755   4.327   0.575   5.898 -0.2086  1.2075 -0.2540
 1432SOL    HW215756   4.314   0.650   6.029 -1.2063  0.0935  1.5325
 1433SOL     OW15757   3.738   4.313   5.025  0.1071 -0.5254  0.0873
 1433SOL    HW115758   3.780   4.294   5.109  1.2370  1.6374  0.0304
 1433SOL    HW215759   3.677   4.380   5.054  1.2402  0.1488  0.9017
 1434SOL     OW15760   0.920   3.737   3.907 -0.4897 -0.3956  0.6095
 1434SOL    HW115761   0.931   3.752   4.001  0.9444  0.3975  0.3069
 1434SOL    HW215762   0.955   3.648   3.902  0.2539 -0.0861  0.3794
 1435SOL     OW15763   1.411   0.625   3.691  0.5657  0.1993  0.0604
 1435SOL    HW115764   1.363   0.643   3.610  2.0244 -0.5126 -0.9606
 1435SOL    HW215765   1.389   0.545   3.737 -2.2213  0.7793 -0.3098
 1436SOL     OW15766   2.315   4.073   8.471 -0.4450 -0.2912  0.0615
 1436SOL    HW115767   2.404   4.045   8.492  0.4181  2.5929  0.1866
 1436SOL    HW215768   2.269   4.097   8.551  0.5690 -1.7572  1.0817
 1437SOL     OW15769   3.881   4.254   2.396 -0.0534 -0.3928 -0.4324
 1437SOL    HW115770   3.791   4.286   2.409  0.0050 -1.3833  2.3595
 1437SOL    HW215771   3.889   4.288   2.307  0.1958 -1.3183 -0.7660
 1438SOL     OW15772   1.586   0.974  14.853  0.1199  0.1039  0.4291
 1438SOL    HW115773   1.552   1.028  14.782 -1.6805 -0.0419  1.1789
 1438SOL    HW215774   1.670   0.945  14.817  0.1813 -0.5389  1.0785
 1439SOL     OW15775   2.632   4.602   8.207 -0.2400  0.4990 -0.5043
 1439SOL    HW115776   2.570   4.612   8.135  1.7217  3.2191 -1.8235
 1439SOL    HW215777   2.575   4.626   8.280 -0.3761 -1.4016  0.0063
 1440SOL     OW15778   3.147   2.010   1.281  0.3699 -0.5530 -0.3835
 1440SOL    HW115779   3.192   2.094   1.280 -1.9684  0.6857 -1.2959
 1440SOL    HW215780   3.123   1.999   1.373 -1.4989 -3.2236 -1.1619
 1441SOL     OW15781   1.074   0.140  17.196 -0.5192  0.4436 -0.6380
 1441SOL    HW115782   1.024   0.182  17.126  0.2204  1.3069 -0.6535
 1441SOL    HW215783   1.106   0.214  17.248 -1.4080  0.4178 -0.0618
 1442SOL     OW15784   4.076   2.724   7.327 -0.1514  0.1773  0.9585
 1442SOL    HW115785   4.007   2.705   7.391 -2.4911 -0.9889 -1.9325
 1442SOL    HW215786   4.082   2.636   7.289 -0.0410 -0.5337  2.6179
 1443SOL     OW15787   3.766   4.503  12.180 -0.2644  0.0182 -0.0119
 1443SOL    HW115788   3.762   4.582  12.126 -0.8709 -1.1815 -1.7246
 1443SOL    HW215789   3.777   4.440  12.109 -3.1016 -1.0980  0.5244
 1444SOL     OW15790   0.539   4.344   6.169 -0.6284  0.0178 -0.3331
 1444SOL    HW115791   0.468   4.409   6.175  0.5177  1.2756 -0.4033
 1444SOL    HW215792   0.555   4.327   6.262  0.7576  1.2199 -0.3662
 1445SOL     OW15793   1.106   4.533  14.685  0.5361  0.2716  0.1299
 1445SOL    HW115794   1.100   4.452  14.634  0.2198 -0.0534  0.6818
 1445SOL    HW215795   1.015   4.560  14.671  0.5741  0.2387 -0.1849
 1446SOL     OW15796   2.397   1.975   2.733  0.3298 -0.1762  0.0024
 1446SOL    HW115797   2.400   1.910   2.663  2.2417  0.1825 -0.2363
 1446SOL    HW215798   2.312   2.016   2.715  0.9900  0.9111 -0.6399
 1447SOL     OW15799   2.527   3.067  16.007  0.0539 -0.1452 -0.0738
 1447SOL    HW115800   2.506   3.000  15.942 -0.9577  1.6568 -1.6173
 1447SOL    HW215801   2.510   3.023  16.090 -3.5450 -1.1914 -1.3378
 1448SOL     OW15802   1.701   0.759   9.611 -0.0572 -0.2118  0.6755
 1448SOL    HW115803   1.741   0.837   9.573  0.4535 -0.4734  0.6719
 1448SOL    HW215804   1.646   0.735   9.537  0.2907  1.7176 -0.2067
 1449SOL     OW15805   3.669   1.958   3.727  0.3484 -0.2394 -1.0314
 1449SOL    HW115806   3.732   1.902   3.680 -0.2780 -0.1440 -1.9877
 1449SOL    HW215807   3.673   2.043   3.683 -0.1562  0.0586 -0.5073
 1450SOL     OW15808   0.533   3.780   9.103  0.2165  0.2559 -0.0309
 1450SOL    HW115809   0.474   3.762   9.177 -0.0661 -1.4325 -0.6646
 1450SOL    HW215810   0.479   3.843   9.056 -2.4190 -3.2247 -1.6582
 1451SOL     OW15811   2.688   0.958  14.701 -0.6874 -0.6635  0.4985
 1451SOL    HW115812   2.712   0.888  14.762 -1.4967 -1.9660 -0.6788
 1451SOL    HW215813   2.593   0.947  14.705 -0.6363 -1.8767 -1.5922
 1452SOL     OW15814   1.294   4.026   8.040  0.2037  0.1272  0.4084
 1452SOL    HW115815   1.307   4.100   8.100 -0.7008  1.4445 -1.0345
 1452SOL    HW215816   1.203   4.010   8.067 -0.7185  0.5049 -2.5176
 1453SOL     OW15817   4.527   3.858   9.058  0.0730  0.2221 -0.4969
 1453SOL    HW115818   4.514   3.919   8.986 -3.7085 -0.1288 -0.0910
 1453SOL    HW215819   4.463   3.796   9.023  1.4520 -0.1676 -2.3157
 1454SOL     OW15820   0.689   3.545   2.941  0.6711  0.0002 -0.4620
 1454SOL    HW115821   0.699   3.536   2.846  2.2283  1.4067 -0.4490
 1454SOL    HW215822   0.780   3.568   2.961  0.9115 -1.4112  0.0439
 1455SOL     OW15823   4.114   0.811   9.025 -0.1969  0.1359  0.2861
 1455SOL    HW115824   4.128   0.890   8.974 -0.1029 -1.9439 -2.8943
 1455SOL    HW215825   4.113   0.743   8.958 -1.7369  1.2465 -0.7944
 1456SOL     OW15826   2.885   3.386   2.430  0.3539 -0.4199 -0.0253
 1456SOL    HW115827   2.845   3.453   2.486  0.6877  1.4806 -2.0806
 1456SOL    HW215828   2.940   3.337   2.491 -0.2853  1.3286  1.9502
 1457SOL     OW15829   0.773   0.695  15.120  0.2267  0.0326 -0.3275
 1457SOL    HW115830   0.857   0.651  15.132 -0.4581 -1.3177 -0.5407
 1457SOL    HW215831   0.754   0.702  15.213  1.3548  2.5360 -0.2713
 1458SOL     OW15832   4.063   2.221   8.461  0.0825 -0.2033 -0.0743
 1458SOL    HW115833   3.991   2.232   8.523  0.2416  1.3352 -0.1708
 1458SOL    HW215834   4.136   2.262   8.507 -0.7728 -0.9032  1.9092
 1459SOL     OW15835   1.531   1.188   9.641  0.2238 -0.0121 -0.6179
 1459SOL    HW115836   1.464   1.222   9.701 -0.2704 -2.0371 -0.0521
 1459SOL    HW215837   1.594   1.146   9.699 -0.9172 -0.3260  0.3988
 1460SOL     OW15838   3.959   4.281  14.571 -0.5175  0.4135  0.4945
 1460SOL    HW115839   4.027   4.243  14.516 -1.3837  0.5504 -0.6746
 1460SOL    HW215840   3.962   4.374  14.548  2.9716  0.0525 -0.3720
 1461SOL     OW15841   2.605   3.751  15.428 -0.7333  0.3971  0.6855
 1461SOL    HW115842   2.682   3.724  15.378 -0.2284  0.2316  1.5368
 1461SOL    HW215843   2.644   3.723  15.511  0.4768  0.2711  0.0837
 1462SOL     OW15844   1.295   2.224   7.427 -0.4306  0.2714 -0.2436
 1462SOL    HW115845   1.322   2.316   7.419 -0.9414  0.4095 -0.3549
 1462SOL    HW215846   1.235   2.238   7.500 -0.1696  2.0216 -0.3713
 1463SOL     OW15847   2.753   3.378   5.396 -0.4103 -0.1464 -0.1179
 1463SOL    HW115848   2.708   3.460   5.417 -0.7062 -1.0680  2.8708
 1463SOL    HW215849   2.688   3.338   5.338  0.1749 -1.1597 -0.0578
 1464SOL     OW15850   1.212   4.496  17.359 -0.1123  0.3916 -0.0955
 1464SOL    HW115851   1.275   4.496  17.432  0.2677  0.0726 -0.4223
 1464SOL    HW215852   1.209   4.403  17.337 -1.1011  0.5366 -0.5435
 1465SOL     OW15853   2.053   4.243   5.783  0.2811  0.2852  0.3014
 1465SOL    HW115854   2.094   4.325   5.753  2.1216 -0.2304  1.3857
 1465SOL    HW215855   2.130   4.202   5.823  0.4630 -0.5350 -0.8739
 1466SOL     OW15856   2.189   4.500   6.274 -0.0745  1.1619 -0.2657
 1466SOL    HW115857   2.187   4.594   6.257 -1.5955  1.2378  0.2835
 1466SOL    HW215858   2.096   4.485   6.292  0.3704 -1.4558 -0.2036
 1467SOL     OW15859   1.037   0.045   2.030 -0.2079 -0.0500  0.1739
 1467SOL    HW115860   1.115   0.064   1.976 -0.8105  1.1853 -0.2666
 1467SOL    HW215861   1.050   4.671   2.035  2.2719  0.3577  1.6245
 1468SOL     OW15862   4.166   4.139   4.003  0.3602  0.2079  0.4296
 1468SOL    HW115863   4.162   4.064   3.944 -1.0269  1.4628 -1.0625
 1468SOL    HW215864   4.235   4.119   4.067 -1.1254 -1.2992  1.5412
 1469SOL     OW15865   1.084   0.981   2.052  0.0292  0.3804  0.6250
 1469SOL    HW115866   1.087   0.914   1.983 -2.3737  1.0296 -0.1132
 1469SOL    HW215867   1.134   0.943   2.124 -0.2532  0.6146  0.9460
 1470SOL     OW15868   1.632   2.849  10.245  0.1143 -0.6457  0.1770
 1470SOL    HW115869   1.621   2.777  10.183  0.1865  1.9943 -2.8800
 1470SOL    HW215870   1.555   2.902  10.222  0.2625 -0.2475  0.5847
 1471SOL     OW15871   4.247   4.055  10.384 -0.1496 -0.7189 -0.1024
 1471SOL    HW115872   4.207   4.046  10.471  2.3025 -0.8699  1.0178
 1471SOL    HW215873   4.183   4.119  10.353 -0.5380 -1.3532 -0.6053
 1472SOL     OW15874   3.574   3.252   4.185  0.5434 -0.2798  0.0675
 1472SOL    HW115875   3.597   3.218   4.271  0.8895 -0.7707 -0.2162
 1472SOL    HW215876   3.554   3.340   4.216  1.1407  0.8279 -2.6727
 1473SOL     OW15877   0.979   1.032   8.633  0.2231 -0.3097  0.0360
 1473SOL    HW115878   0.959   0.940   8.613 -0.0247  0.4555 -3.2332
 1473SOL    HW215879   1.046   1.061   8.570 -0.2502 -1.1955 -0.8807
 1474SOL     OW15880   3.612   1.841   9.099  0.0649  0.2628  0.0455
 1474SOL    HW115881   3.574   1.889   9.026 -0.6924  0.0293  0.2828
 1474SOL    HW215882   3.560   1.761   9.103  1.2058 -0.4926 -0.0334
 1475SOL     OW15883   1.761   2.187  13.613  0.3561 -0.3280 -0.2273
 1475SOL    HW115884   1.748   2.133  13.691  3.5643  0.0278  0.5283
 1475SOL    HW215885   1.674   2.172  13.574  0.5971  2.0048 -1.6472
 1476SOL     OW15886   3.945   4.059   6.113  0.0636  0.4904  0.0161
 1476SOL    HW115887   3.930   4.131   6.174  1.2965  0.8189 -0.0626
 1476SOL    HW215888   3.863   4.010   6.112  0.3154  0.0419  0.7578
 1477SOL     OW15889   0.093   4.064   4.888 -0.1766  0.0558 -0.3538
 1477SOL    HW115890   0.062   3.974   4.897  1.2554 -0.3612  0.3814
 1477SOL    HW215891   0.081   4.092   4.797 -4.1784 -2.4168 -0.5788
 1478SOL     OW15892   2.533   3.989  15.568 -0.0214  0.6302  0.0971
 1478SOL    HW115893   2.622   4.000  15.600 -0.7285  2.0549  1.5787
 1478SOL    HW215894   2.536   3.914  15.508  3.3873  1.4548 -0.7262
 1479SOL     OW15895   2.666   2.818   2.995  0.1072 -0.7008 -0.1816
 1479SOL    HW115896   2.733   2.758   2.964 -0.0294 -0.3738 -1.1190
 1479SOL    HW215897   2.655   2.790   3.086 -1.0302  1.6208  0.4063
 1480SOL     OW15898   2.949   1.264   3.159  0.2118 -0.3770  0.3638
 1480SOL    HW115899   2.911   1.340   3.203  1.4673  0.7479 -0.5280
 1480SOL    HW215900   3.041   1.276   3.180  1.0141  0.1607 -3.6228
 1481SOL     OW15901   0.144   3.551   9.835 -0.0487  0.1175  0.9886
 1481SOL    HW115902   0.136   3.473   9.890 -0.5030 -0.6479 -0.1740
 1481SOL    HW215903   0.091   3.518   9.763  1.5106 -0.0044 -0.1125
 1482SOL     OW15904   1.356   2.915  10.197  0.3825 -0.1658  0.6324
 1482SOL    HW115905   1.302   2.938  10.273 -1.9000  1.1777 -1.3978
 1482SOL    HW215906   1.308   2.837  10.171  1.4115  0.1432 -2.1613
 1483SOL     OW15907   2.435   0.006   0.548  0.0034  0.1299 -0.2234
 1483SOL    HW115908   2.439   4.636   0.517  1.8381 -0.6297  2.2830
 1483SOL    HW215909   2.398   0.037   0.465  1.6188 -1.0615 -1.3803
 1484SOL     OW15910   1.574   3.061   3.105 -0.5328  0.0602  0.3558
 1484SOL    HW115911   1.560   3.023   3.018 -0.4128  1.9465 -0.4833
 1484SOL    HW215912   1.517   2.996   3.146 -1.6757  0.5616 -0.4145
 1485SOL     OW15913   0.375   0.162   9.453  0.6336 -0.1778 -0.3141
 1485SOL    HW115914   0.381   0.097   9.523 -0.8299 -1.2348 -1.1518
 1485SOL    HW215915   0.306   0.119   9.401 -0.8781  2.5293 -0.5441
 1486SOL     OW15916   4.597   0.174   2.630  0.3210  0.7613 -0.6124
 1486SOL    HW115917   4.561   0.126   2.706  2.3282  0.8181  0.3697
 1486SOL    HW215918   4.519   0.181   2.575 -1.0612 -2.3073  0.8867
 1487SOL     OW15919   2.007   2.343   4.236  0.0022  0.1641  0.0012
 1487SOL    HW115920   2.062   2.380   4.167  1.9158  0.6121  1.7759
 1487SOL    HW215921   1.976   2.262   4.197  0.0672  0.2063 -0.1394
 1488SOL     OW15922   0.452   3.639   5.623 -0.5133 -0.6158  0.1365
 1488SOL    HW115923   0.358   3.623   5.623 -0.3001 -1.8857  0.2351
 1488SOL    HW215924   0.482   3.577   5.690  0.1390  0.5947  0.9705
 1489SOL     OW15925   0.754   0.417  10.275 -0.1061 -0.5555  0.5461
 1489SOL    HW115926   0.840   0.379  10.259 -0.4982 -0.9353 -0.6419
 1489SOL    HW215927   0.789   0.477  10.342 -0.4427  1.4617 -1.0665
 1490SOL     OW15928   1.680   2.787  12.796 -0.4670  0.1625  0.9701
 1490SOL    HW115929   1.635   2.776  12.712  1.4767 -0.3105 -0.0042
 1490SOL    HW215930   1.771   2.786  12.768 -1.1735  0.6613 -1.3940
 1491SOL     OW15931   2.842   1.808  10.675 -0.2586 -0.2063 -0.1253
 1491SOL    HW115932   2.824   1.856  10.755 -0.7514  0.2499 -0.5065
 1491SOL    HW215933   2.776   1.847  10.616 -0.7891  1.0016  1.2702
 1492SOL     OW15934   4.005   2.516  11.585 -0.1811 -0.0592  0.1719
 1492SOL    HW115935   4.033   2.587  11.527 -0.5569  0.1741  0.2780
 1492SOL    HW215936   3.930   2.486  11.534  0.0103  1.5844 -1.0817
 1493SOL     OW15937   0.050   0.431   2.506 -0.1169 -0.4523 -0.6188
 1493SOL    HW115938   0.049   0.336   2.489  0.5401 -0.5243 -0.2648
 1493SOL    HW215939   0.121   0.414   2.568  0.7913  0.2430 -1.4794
 1494SOL     OW15940   1.968   3.526  10.228 -0.1217 -0.8482  0.1912
 1494SOL    HW115941   2.036   3.587  10.256 -0.6164  0.0694 -0.6340
 1494SOL    HW215942   2.001   3.442  10.262 -0.9958 -1.0094  0.6524
 1495SOL     OW15943   0.792   3.764   9.063  0.4984  0.2956  0.1515
 1495SOL    HW115944   0.699   3.786   9.063  0.6105  0.7273 -1.1475
 1495SOL    HW215945   0.825   3.813   9.138  1.4373 -1.2148  0.7295
 1496SOL     OW15946   1.485   1.654   2.635  0.3470 -0.4849 -0.0781
 1496SOL    HW115947   1.437   1.615   2.707 -2.1997 -0.9457 -2.0298
 1496SOL    HW215948   1.474   1.744   2.665 -0.7562 -1.4439  2.3583
 1497SOL     OW15949   3.323   0.940   6.328 -0.1850  0.6838 -0.0306
 1497SOL    HW115950   3.407   0.895   6.332 -0.5642  0.0555  0.7445
 1497SOL    HW215951   3.274   0.892   6.394  0.4130  2.3105  1.6110
 1498SOL     OW15952   4.451   3.141   2.917  0.2539  0.2790  0.9736
 1498SOL    HW115953   4.530   3.114   2.964  0.3121 -1.3485 -0.0531
 1498SOL    HW215954   4.392   3.080   2.961 -0.0333  0.6909  1.1590
 1499SOL     OW15955   1.058   3.299   4.540 -0.1429  0.0012  0.2751
 1499SOL    HW115956   1.123   3.233   4.565  0.9455  1.2374  0.7331
 1499SOL    HW215957   0.977   3.277   4.586 -2.0650  2.7863 -1.7834
 1500SOL     OW15958   3.800   4.012   4.758  0.0983  0.2521 -0.0476
 1500SOL    HW115959   3.811   4.009   4.663 -1.1643  0.5142 -0.2083
 1500SOL    HW215960   3.858   4.083   4.785 -0.8104  0.5724  1.0730
 1501SOL     OW15961   2.676   4.708  15.072 -0.1391  0.9167 -0.6363
 1501SOL    HW115962   2.686   0.081  15.094 -1.4114  0.1925  3.1468
 1501SOL    HW215963   2.642   0.001  14.984  0.1452 -0.4206 -0.9488
 1502SOL     OW15964   0.298   4.235   4.302 -0.1243 -0.3843 -0.0903
 1502SOL    HW115965   0.314   4.313   4.249 -0.2809  0.5022  1.1573
 1502SOL    HW215966   0.270   4.286   4.378 -2.5255  0.8419 -1.8045
 1503SOL     OW15967   1.820   1.936   3.098 -0.2350  0.2233 -0.9347
 1503SOL    HW115968   1.777   1.960   3.181  0.7054  1.0464 -0.6846
 1503SOL    HW215969   1.871   2.016   3.084 -0.0655  0.2468 -0.1714
 1504SOL     OW15970   3.053   3.169  17.353  0.2548  0.1228  0.3021
 1504SOL    HW115971   3.079   3.095  17.298 -1.1042 -1.0689  1.2536
 1504SOL    HW215972   3.015   3.131  17.432  0.8565  0.2557  0.6533
 1505SOL     OW15973   4.489   2.458   9.190 -0.4762  0.2836 -1.1916
 1505SOL    HW115974   4.434   2.489   9.261  0.7954  1.2612 -0.6352
 1505SOL    HW215975   4.562   2.519   9.201 -1.7781  1.7637 -0.7929
 1506SOL     OW15976   3.093   3.546   4.336 -0.2984 -0.3108 -0.5226
 1506SOL    HW115977   3.117   3.550   4.429 -1.2530 -2.8852 -0.1835
 1506SOL    HW215978   3.155   3.480   4.306 -0.2624 -0.3222 -0.4255
 1507SOL     OW15979   4.190   3.302   8.655  0.5879  0.1338  0.4457
 1507SOL    HW115980   4.274   3.267   8.684  0.8949  0.7646  0.3242
 1507SOL    HW215981   4.200   3.395   8.678 -2.5398  0.4792  0.3509
 1508SOL     OW15982   4.521   4.075   5.857  0.7241 -0.1562 -0.0142
 1508SOL    HW115983   4.462   4.085   5.782  3.9696  0.0553 -2.5588
 1508SOL    HW215984   4.556   4.164   5.865  1.8011 -0.3443 -2.6634
 1509SOL     OW15985   2.662   1.520   6.511  0.1126  0.7252  0.5947
 1509SOL    HW115986   2.648   1.609   6.477 -2.5020  0.1683  0.1841
 1509SOL    HW215987   2.615   1.471   6.444 -0.9780  1.3571  0.8918
 1510SOL     OW15988   2.060   2.296  14.260 -0.1699  0.3924  0.0827
 1510SOL    HW115989   2.130   2.326  14.319  0.1524 -1.2611  0.5387
 1510SOL    HW215990   2.093   2.327  14.176 -0.4658  0.1547 -0.1194
 1511SOL     OW15991   1.785   1.480  10.610  0.0749  0.0577  0.1394
 1511SOL    HW115992   1.748   1.567  10.627  0.7439  0.6311 -1.2823
 1511SOL    HW215993   1.711   1.440  10.564 -0.0553 -1.1186  1.3949
 1512SOL     OW15994   1.518   1.868   9.950 -0.1154  0.1025  0.1884
 1512SOL    HW115995   1.529   1.951   9.996  0.0207  0.3742 -0.3228
 1512SOL    HW215996   1.609   1.853   9.920 -0.0446 -0.1718  0.5453
 1513SOL     OW15997   3.694   4.166  12.365 -0.1628 -0.2054 -0.2916
 1513SOL    HW115998   3.690   4.261  12.361 -0.5657 -0.2328 -0.5533
 1513SOL    HW215999   3.711   4.176  12.459 -1.1083 -2.3849  0.1139
 1514SOL     OW16000   4.291   1.350   3.328 -0.3598 -0.3777 -0.1224
 1514SOL    HW116001   4.340   1.318   3.404 -1.6803  2.5826  1.9659
 1514SOL    HW216002   4.264   1.264   3.294  0.6897 -1.2958  1.3543
 1515SOL     OW16003   0.507   2.070   7.755 -0.1712  0.0033 -0.7146
 1515SOL    HW116004   0.465   2.156   7.748 -2.5295 -1.3512 -3.3091
 1515SOL    HW216005   0.445   2.021   7.809 -0.2466  1.2027  0.2831
 1516SOL     OW16006   4.649   1.792   9.001 -0.6827 -0.1757  0.4146
 1516SOL    HW116007   0.023   1.785   8.990 -0.4656  1.3541  1.3737
 1516SOL    HW216008   4.636   1.879   9.038 -1.6106  1.1199 -3.0104
 1517SOL     OW16009   1.948   0.314   7.816 -0.1566  0.1282 -0.6567
 1517SOL    HW116010   1.859   0.330   7.849 -0.0977  0.9124 -0.8603
 1517SOL    HW216011   1.942   0.236   7.761  0.0704 -0.8505  0.7210
 1518SOL     OW16012   2.346   3.808   0.512  0.3513 -0.1917  0.0442
 1518SOL    HW116013   2.355   3.836   0.421  0.7010  0.2401  0.2125
 1518SOL    HW216014   2.409   3.736   0.508 -2.0244 -2.2484 -0.3138
 1519SOL     OW16015   1.651   0.811   8.540 -0.0063 -0.1266  0.8245
 1519SOL    HW116016   1.624   0.726   8.573 -0.1335 -0.8482 -1.1555
 1519SOL    HW216017   1.620   0.804   8.449 -0.8433  2.5739  0.8973
 1520SOL     OW16018   4.545   2.401  11.133 -0.2201 -0.2009  0.3424
 1520SOL    HW116019   4.532   2.422  11.041 -0.9437 -2.4096 -0.0601
 1520SOL    HW216020   4.607   2.330  11.116  1.3334  1.5545 -1.2959
 1521SOL     OW16021   0.990   4.608  15.828 -0.2344  0.8134 -0.4225
 1521SOL    HW116022   0.938   4.533  15.800  1.1743  0.3360 -1.7529
 1521SOL    HW216023   0.945   4.682  15.787 -0.6889  0.2111 -1.0157
 1522SOL     OW16024   4.223   0.004   9.801 -0.3824 -0.1794  0.3812
 1522SOL    HW116025   4.250   4.680   9.721  1.4891 -2.4607  2.2503
 1522SOL    HW216026   4.156   4.663   9.829  1.3217 -2.2153 -0.0329
 1523SOL     OW16027   1.835   2.205   5.911 -0.0983  0.5301 -0.0078
 1523SOL    HW116028   1.868   2.263   5.842  1.3013  0.9106  1.0020
 1523SOL    HW216029   1.921   2.171   5.936  0.1047  1.0558 -0.0032
 1524SOL     OW16030   2.059   2.662   7.460  0.3879 -0.4625  0.6116
 1524SOL    HW116031   2.038   2.736   7.403  0.3156 -1.1215 -0.2187
 1524SOL    HW216032   2.032   2.697   7.544  0.2907  1.8379 -0.3840
 1525SOL     OW16033   3.029   2.818   1.267  0.4808 -0.4426 -0.0747
 1525SOL    HW116034   2.988   2.761   1.202 -1.7554  1.1077 -0.0141
 1525SOL    HW216035   2.955   2.878   1.271  0.3924 -0.6251  1.2097
 1526SOL     OW16036   3.331   1.347   6.132  0.1699 -0.3354  0.6751
 1526SOL    HW116037   3.333   1.291   6.210 -1.5785 -0.4098  0.6587
 1526SOL    HW216038   3.237   1.346   6.118  0.1980  0.2499  0.4525
 1527SOL     OW16039   4.515   2.632   8.305  0.3942 -0.4741  0.3202
 1527SOL    HW116040   4.440   2.623   8.364 -1.7590 -0.0623 -2.3478
 1527SOL    HW216041   4.487   2.604   8.218  3.7255 -1.7349 -0.3366
 1528SOL     OW16042   2.038   0.209   6.261 -0.1477  0.9447  0.1432
 1528SOL    HW116043   2.121   0.161   6.261  0.3565  1.8190  1.0088
 1528SOL    HW216044   1.999   0.186   6.346  3.3920 -0.4353  1.4187
 1529SOL     OW16045   0.293   0.121   4.252 -0.5041 -0.0063  0.2972
 1529SOL    HW116046   0.217   0.074   4.286 -0.1839  0.0108  1.0251
 1529SOL    HW216047   0.267   0.151   4.165  0.7103  0.9017  0.2374
 1530SOL     OW16048   3.632   0.882   8.596 -0.1114  0.1254  0.4445
 1530SOL    HW116049   3.658   0.958   8.649 -0.1075  0.9399 -0.7388
 1530SOL    HW216050   3.571   0.850   8.663  1.1047 -2.6620  0.2417
 1531SOL     OW16051   0.454   4.420  11.202 -0.1453 -0.1144 -0.3399
 1531SOL    HW116052   0.494   4.343  11.161 -0.1953 -0.3791  0.1135
 1531SOL    HW216053   0.526   4.482  11.216 -0.8308  0.9579 -1.5122
 1532SOL     OW16054   2.148   3.729   7.957 -0.2065  0.0165  0.5461
 1532SOL    HW116055   2.158   3.791   8.029  0.4855 -0.7748  1.1388
 1532SOL    HW216056   2.186   3.653   8.002 -0.1973 -0.6405 -0.5804
 1533SOL     OW16057   1.283   3.232   7.326  0.5329 -0.6025 -0.0173
 1533SOL    HW116058   1.204   3.211   7.375  0.4364 -0.8875 -0.2951
 1533SOL    HW216059   1.250   3.238   7.237 -1.6545  4.1946  1.1349
 1534SOL     OW16060   3.124   1.986  11.168  0.2412 -0.3886 -0.0962
 1534SOL    HW116061   3.120   2.053  11.237  2.1824  0.6925 -1.0225
 1534SOL    HW216062   3.216   1.961  11.176 -0.6147 -3.1697  0.9034
 1535SOL     OW16063   0.079   0.688   7.122  0.0763 -0.0009  0.4460
 1535SOL    HW116064   0.103   0.668   7.032  0.0211 -1.2591  0.7118
 1535SOL    HW216065   0.016   0.760   7.123  0.1158  0.0395 -1.0795
 1536SOL     OW16066   3.177   1.175  12.344 -0.0329 -0.0354 -0.2403
 1536SOL    HW116067   3.165   1.228  12.424  0.8890 -0.1782 -0.0045
 1536SOL    HW216068   3.088   1.172  12.309 -0.3220 -0.7299  0.5459
 1537SOL     OW16069   2.777   0.992   4.991  1.1256  0.5599  0.3939
 1537SOL    HW116070   2.687   1.011   4.966  1.8486  0.0775 -2.6368
 1537SOL    HW216071   2.765   0.898   5.005 -0.1783  0.5628 -0.6874
 1538SOL     OW16072   2.164   0.530   3.351 -0.0658  0.3233  0.3940
 1538SOL    HW116073   2.165   0.464   3.421  1.7518 -0.3736 -0.3091
 1538SOL    HW216074   2.168   0.461   3.285  1.0181  1.4754 -0.7122
 1539SOL     OW16075   2.488   2.335   7.367  0.3345 -0.3109 -0.1998
 1539SOL    HW116076   2.515   2.420   7.335  1.0320 -0.3399  0.3265
 1539SOL    HW216077   2.412   2.354   7.422 -0.8009 -2.2155 -1.0930
 1540SOL     OW16078   3.101   1.523  13.486  0.0368  0.3375 -0.1446
 1540SOL    HW116079   3.157   1.445  13.494 -2.5159 -1.3012  1.5809
 1540SOL    HW216080   3.014   1.490  13.509 -0.2913  2.3846  1.5081
 1541SOL     OW16081   1.624   4.050  14.114  0.3765 -0.2100 -0.0079
 1541SOL    HW116082   1.564   3.976  14.123 -0.0615 -0.0637 -1.7780
 1541SOL    HW216083   1.569   4.114  14.070  1.8254  0.2268 -1.1994
 1542SOL     OW16084   1.782   3.251   9.972  0.1406 -0.1864 -0.2104
 1542SOL    HW116085   1.873   3.238   9.944  0.2901  0.7384 -0.1662
 1542SOL    HW216086   1.744   3.215   9.892  0.4761 -0.4745 -0.2399
 1543SOL     OW16087   2.514   2.212   2.861 -0.3336 -0.2551 -0.0427
 1543SOL    HW116088   2.493   2.293   2.815  0.0408 -0.3755 -0.4326
 1543SOL    HW216089   2.489   2.155   2.788 -0.8240 -2.0141  1.5045
 1544SOL     OW16090   1.847   1.753   1.235 -0.2365  0.2429  0.1711
 1544SOL    HW116091   1.916   1.808   1.196  1.1483 -2.1052 -0.6819
 1544SOL    HW216092   1.777   1.788   1.180  0.8593 -1.0252 -2.0045
 1545SOL     OW16093   2.352   4.329  17.330 -0.5663 -0.1282  0.2427
 1545SOL    HW116094   2.384   4.249  17.371 -2.0236  0.4646  2.5949
 1545SOL    HW216095   2.357   4.301  17.239  0.5153 -0.7446  0.4850
 1546SOL     OW16096   0.389   2.370  15.556  0.2467 -0.0097 -0.0811
 1546SOL    HW116097   0.432   2.424  15.623  0.8726 -0.0454 -0.4518
 1546SOL    HW216098   0.439   2.379  15.475 -1.1098  0.0538 -0.9180
 1547SOL     OW16099   0.662   2.900   2.063 -0.2058  0.1983  0.0561
 1547SOL    HW116100   0.644   2.816   2.022  2.8815 -0.7101  0.5671
 1547SOL    HW216101   0.754   2.908   2.040  0.3674  0.6135  2.4632
 1548SOL     OW16102   4.163   4.288   7.324 -0.3196  0.0142  0.1191
 1548SOL    HW116103   4.184   4.270   7.232 -0.5752 -0.1228  0.0891
 1548SOL    HW216104   4.203   4.216   7.372  1.0752  0.6832 -0.0333
 1549SOL     OW16105   2.742   4.540   2.964 -0.1158 -0.1835 -0.0020
 1549SOL    HW116106   2.728   4.562   2.872 -1.6493 -0.4522  0.1725
 1549SOL    HW216107   2.753   4.622   3.012  1.8900  0.1340 -1.0202
 1550SOL     OW16108   1.848   4.003   2.981  0.1857 -0.1508 -0.3353
 1550SOL    HW116109   1.789   3.993   3.056  0.7655 -0.4731  0.0704
 1550SOL    HW216110   1.813   4.084   2.944 -1.6390 -0.9359 -0.3399
 1551SOL     OW16111   2.045   0.780   7.275  0.2943  0.5237  0.0422
 1551SOL    HW116112   2.108   0.794   7.346  3.6628 -4.4744 -1.9222
 1551SOL    HW216113   2.055   0.861   7.225 -2.2314 -0.4146 -1.9895
 1552SOL     OW16114   0.767   4.118   7.599  0.3442  0.1107  0.0334
 1552SOL    HW116115   0.793   4.042   7.651 -2.1586  0.0083  1.1357
 1552SOL    HW216116   0.842   4.177   7.606 -1.4620  2.1554  2.2223
 1553SOL     OW16117   4.265   0.219   0.798 -0.0242 -0.0579  0.0682
 1553SOL    HW116118   4.319   0.142   0.777 -0.6600 -0.8562  1.3340
 1553SOL    HW216119   4.177   0.180   0.803  0.3005 -0.5912  1.6368
 1554SOL     OW16120   2.903   1.511   5.660 -0.1945  0.4768  0.0565
 1554SOL    HW116121   2.939   1.423   5.662 -1.1724  0.0279 -1.8687
 1554SOL    HW216122   2.985   1.559   5.646  0.3220  0.0013  1.4088
 1555SOL     OW16123   4.158   3.428  11.690  0.0099  0.7959  0.3764
 1555SOL    HW116124   4.200   3.443  11.775 -0.1293 -3.1772  1.1306
 1555SOL    HW216125   4.160   3.333  11.706  1.1982  0.8972  0.8401
 1556SOL     OW16126   2.259   3.313  10.537  0.0285 -0.5424  0.0622
 1556SOL    HW116127   2.332   3.348  10.487 -1.1679  0.4999 -0.9863
 1556SOL    HW216128   2.306   3.289  10.616 -1.9975 -1.8259  0.8772
 1557SOL     OW16129   0.678   0.142   5.378  0.2755 -0.3550 -0.0059
 1557SOL    HW116130   0.587   0.128   5.405 -0.7715  0.5857 -3.1042
 1557SOL    HW216131   0.698   0.218   5.432 -3.0210  0.1796  0.4950
 1558SOL     OW16132   1.608   0.794   6.589 -0.5151  0.0933  0.6696
 1558SOL    HW116133   1.613   0.771   6.682  0.4023  0.0267  0.6001
 1558SOL    HW216134   1.700   0.789   6.566 -0.9929 -1.9393 -0.8115
 1559SOL     OW16135   3.681   3.570   8.283  0.2934  0.3414  0.2143
 1559SOL    HW116136   3.624   3.624   8.228 -1.0267  0.3172  1.5603
 1559SOL    HW216137   3.633   3.488   8.271 -0.1648  0.7935 -1.1215
 1560SOL     OW16138   1.559   2.948   8.072  0.1285 -0.7450  0.1166
 1560SOL    HW116139   1.482   3.004   8.087  0.4541 -0.1935 -0.2609
 1560SOL    HW216140   1.541   2.886   8.143 -0.8154 -2.2303 -1.4462
 1561SOL     OW16141   3.954   1.778   7.357  0.3382  0.3219  0.3302
 1561SOL    HW116142   4.012   1.852   7.373  1.9851 -1.2184  1.5518
 1561SOL    HW216143   3.989   1.700   7.401 -2.7440 -0.5250  1.3263
 1562SOL     OW16144   1.264   1.875   6.073 -0.7667 -0.4121  0.4421
 1562SOL    HW116145   1.263   1.857   6.167  0.2455  0.0839  0.5594
 1562SOL    HW216146   1.233   1.965   6.082 -2.1619 -0.8973  0.4523
 1563SOL     OW16147   0.253   3.968   8.083 -0.0784  0.9897 -0.4674
 1563SOL    HW116148   0.168   3.933   8.057 -0.8283  2.3537  0.1442
 1563SOL    HW216149   0.287   3.892   8.129 -1.0850  0.5948 -0.3706
 1564SOL     OW16150   3.906   3.094  10.373  0.1280 -0.0660  0.2898
 1564SOL    HW116151   3.832   3.045  10.336 -0.1408  0.5710 -0.0133
 1564SOL    HW216152   3.869   3.178  10.346  0.1747  0.4213  1.7864
 1565SOL     OW16153   1.528   0.055   6.640 -0.3947 -0.1839 -0.1147
 1565SOL    HW116154   1.468   0.049   6.566  0.3124 -3.3096 -0.4137
 1565SOL    HW216155   1.521   4.690   6.684 -0.6181  0.0414  0.2946
 1566SOL     OW16156   3.578   3.995   3.888 -0.2899 -0.1250 -0.2282
 1566SOL    HW116157   3.488   3.966   3.868  0.0373 -0.9045 -0.5694
 1566SOL    HW216158   3.626   3.939   3.826 -2.0898 -1.0705 -0.7774
 1567SOL     OW16159   3.813   4.645   4.863  0.1574 -0.4747  0.1255
 1567SOL    HW116160   3.743   4.600   4.816 -0.2408  1.1502 -0.8186
 1567SOL    HW216161   3.876   4.574   4.874 -2.0824 -2.0303  3.0214
 1568SOL     OW16162   3.483   0.695   3.314  0.3164 -0.5115 -0.6143
 1568SOL    HW116163   3.462   0.672   3.224 -1.0026  1.2891 -0.7674
 1568SOL    HW216164   3.417   0.642   3.360  0.1360  1.1417  1.0580
 1569SOL     OW16165   2.347   0.795  12.313  0.3141 -0.3992  0.1466
 1569SOL    HW116166   2.301   0.798  12.397  1.7618 -2.0080  0.9992
 1569SOL    HW216167   2.281   0.747  12.264  0.2798 -0.1766 -0.0223
 1570SOL     OW16168   3.779   4.266   8.096  0.2560  0.1057 -0.3027
 1570SOL    HW116169   3.722   4.251   8.171  0.0370 -1.1020 -0.7102
 1570SOL    HW216170   3.869   4.248   8.123  0.8770  1.5919 -1.3479
 1571SOL     OW16171   4.356   1.852   2.831 -0.0147 -0.5641 -0.4257
 1571SOL    HW116172   4.347   1.780   2.894 -0.1614  0.2741  0.5016
 1571SOL    HW216173   4.449   1.839   2.817  0.1935  0.8735 -0.3388
 1572SOL     OW16174   1.126   0.757   7.076 -0.1106  0.2219  0.1019
 1572SOL    HW116175   1.136   0.672   7.119  1.4569  0.9329  1.1625
 1572SOL    HW216176   1.158   0.727   6.991  0.8860 -2.2518  1.3420
 1573SOL     OW16177   2.181   1.477   9.633 -0.2082  0.1918 -0.1370
 1573SOL    HW116178   2.205   1.535   9.560 -1.6533  1.9470  0.7935
 1573SOL    HW216179   2.223   1.394   9.610 -0.4376  0.3107 -1.0026
 1574SOL     OW16180   4.271   1.495   8.196  0.9144 -0.4903 -0.0382
 1574SOL    HW116181   4.190   1.543   8.216  0.4421 -2.1546  2.0840
 1574SOL    HW216182   4.329   1.542   8.256  1.6095  0.3847 -1.3938
 1575SOL     OW16183   1.561   3.516   4.792  0.2071 -0.5549 -0.3779
 1575SOL    HW116184   1.600   3.442   4.838 -0.4171 -1.1284 -0.7582
 1575SOL    HW216185   1.617   3.589   4.817 -0.2887 -0.1030 -0.5960
 1576SOL     OW16186   1.000   1.037  13.164  0.1289  0.0545  0.1090
 1576SOL    HW116187   0.996   0.943  13.146  0.1187  0.1987 -0.6472
 1576SOL    HW216188   0.931   1.069  13.106 -0.0392  2.8312  1.8206
 1577SOL     OW16189   1.370   1.278  16.205  0.0246  0.0716 -0.4990
 1577SOL    HW116190   1.344   1.250  16.118 -0.6813  1.8672 -0.8676
 1577SOL    HW216191   1.450   1.228  16.221 -0.2376 -0.6778 -1.5437
 1578SOL     OW16192   0.939   0.996  12.047 -0.2463 -0.5759 -0.0494
 1578SOL    HW116193   0.996   0.924  12.019 -0.1583 -1.3058  2.0020
 1578SOL    HW216194   0.984   1.013  12.129  2.5700 -0.6148 -1.5786
 1579SOL     OW16195   2.926   1.603  11.320 -0.1126 -0.0830 -0.3596
 1579SOL    HW116196   2.933   1.521  11.270  2.2725  0.7776 -1.4223
 1579SOL    HW216197   2.920   1.571  11.410  0.3305 -0.8560 -0.6015
 1580SOL     OW16198   0.356   1.966  17.352  0.4536 -0.2424 -0.4686
 1580SOL    HW116199   0.326   2.054  17.330 -2.0917 -0.9339  0.1641
 1580SOL    HW216200   0.272   1.932  17.385 -0.3547  2.2213  0.0345
 1581SOL     OW16201   3.972   2.062   4.005 -0.3090  0.0130  0.3222
 1581SOL    HW116202   3.952   2.095   3.917  0.1810 -0.9526 -0.1413
 1581SOL    HW216203   4.054   2.110   4.020  0.2172  0.0025 -2.4792
 1582SOL     OW16204   3.161   3.513   1.318  0.4046 -0.1864 -0.0348
 1582SOL    HW116205   3.074   3.545   1.296  0.4180  0.2074  0.4886
 1582SOL    HW216206   3.161   3.507   1.414  0.3606 -0.9432 -0.0766
 1583SOL     OW16207   2.578   1.477   8.505 -0.1911 -0.0360  0.2380
 1583SOL    HW116208   2.521   1.399   8.503 -0.5307  0.0959  3.9513
 1583SOL    HW216209   2.661   1.441   8.476 -0.4887 -1.5993  1.2762
 1584SOL     OW16210   4.190   2.581  15.049 -0.6864  0.3498  0.3587
 1584SOL    HW116211   4.123   2.563  15.115  0.2573  1.0989  1.5280
 1584SOL    HW216212   4.136   2.565  14.971 -1.1843  1.1337  0.5470
 1585SOL     OW16213   4.705   3.493  10.652 -0.0033 -0.2455  1.0838
 1585SOL    HW116214   0.056   3.445  10.610 -1.1945  0.6646 -2.0175
 1585SOL    HW216215   0.048   3.547  10.699  1.0775  0.9916 -1.7688
 1586SOL     OW16216   0.127   0.327   6.271 -1.0181  0.0686  0.4385
 1586SOL    HW116217   0.069   0.330   6.194 -0.7598  0.7411  0.2689
 1586SOL    HW216218   0.208   0.318   6.221 -0.2989  1.8589  1.2845
 1587SOL     OW16219   3.276   1.899   6.170 -0.3397  0.0387  0.1023
 1587SOL    HW116220   3.238   1.986   6.185  1.4017  1.0501 -1.3046
 1587SOL    HW216221   3.309   1.920   6.082 -0.9607  0.1692 -0.1034
 1588SOL     OW16222   3.838   1.559  11.133  0.0664 -0.2181  0.0584
 1588SOL    HW116223   3.921   1.604  11.120  0.7535 -1.6106 -0.3079
 1588SOL    HW216224   3.803   1.626  11.192 -1.3914  0.4417 -1.5748
 1589SOL     OW16225   0.864   2.950   6.162  0.3102  0.7497  0.2709
 1589SOL    HW116226   0.927   3.014   6.192  2.0503 -0.8858  0.1166
 1589SOL    HW216227   0.776   2.989   6.162  0.2497  0.6125  0.8312
 1590SOL     OW16228   2.508   1.122  10.736  0.1812 -0.6024 -0.3434
 1590SOL    HW116229   2.516   1.047  10.677  2.5315 -0.1680 -0.6012
 1590SOL    HW216230   2.417   1.148  10.721  1.0050  2.4469  0.0172
 1591SOL     OW16231   3.364   2.159   6.862  0.5897 -0.7166  0.2894
 1591SOL    HW116232   3.358   2.210   6.943  2.7779 -0.3288  0.1973
 1591SOL    HW216233   3.330   2.075   6.894 -0.5966 -0.0097  0.8770
 1592SOL     OW16234   4.316   3.470   7.414  0.1203 -0.8554  0.8685
 1592SOL    HW116235   4.302   3.426   7.498 -0.8706  1.3162  1.8514
 1592SOL    HW216236   4.408   3.458   7.390  0.4557  0.9500  1.2795
 1593SOL     OW16237   4.699   2.608   8.494 -0.5374  0.3072  0.1957
 1593SOL    HW116238   4.641   2.618   8.418 -0.1733 -3.1478 -0.5595
 1593SOL    HW216239   4.652   2.663   8.556  1.1288 -0.0447  1.7565
 1594SOL     OW16240   2.247   0.829   4.267  0.4706 -0.1511  0.3241
 1594SOL    HW116241   2.193   0.830   4.188  1.4592 -0.7057 -0.3630
 1594SOL    HW216242   2.336   0.846   4.235 -0.0792  1.1067 -0.5530
 1595SOL     OW16243   1.894   1.434   2.073  0.8194 -0.2908  0.3068
 1595SOL    HW116244   1.839   1.424   1.995  2.9725  2.1189 -1.5341
 1595SOL    HW216245   1.960   1.497   2.044 -1.3436  1.7934  0.0052
 1596SOL     OW16246   3.093   2.069   8.286  0.3698  0.3723  0.1192
 1596SOL    HW116247   3.085   2.067   8.381  0.2794  0.4705  0.1134
 1596SOL    HW216248   3.007   2.101   8.259  0.6291  2.5610  1.8587
 1597SOL     OW16249   4.347   1.637   1.469  0.4005 -0.2519  0.1589
 1597SOL    HW116250   4.255   1.611   1.477  0.4905 -0.8020 -0.6197
 1597SOL    HW216251   4.374   1.630   1.561  1.6054 -0.4111 -0.2091
 1598SOL     OW16252   2.465   4.052  10.594  0.2446  0.0234 -0.3245
 1598SOL    HW116253   2.384   4.104  10.587 -0.3421 -0.7258  0.8913
 1598SOL    HW216254   2.448   3.999  10.671 -1.6855 -0.5893 -1.1707
 1599SOL     OW16255   1.789   0.329   2.651 -0.2017  0.3471  0.2613
 1599SOL    HW116256   1.695   0.317   2.637 -0.1992 -0.6513  1.0683
 1599SOL    HW216257   1.824   0.304   2.566  1.4486  1.1450  0.7020
 1600SOL     OW16258   0.164   4.353  12.161  0.6488 -0.4421  1.0755
 1600SOL    HW116259   0.134   4.276  12.112  2.4268  0.0633 -0.7847
 1600SOL    HW216260   0.180   4.302  12.241  1.7013 -0.9170  0.5606
 1601SOL     OW16261   2.973   2.684   7.105  0.1496  0.0402 -0.4699
 1601SOL    HW116262   3.061   2.692   7.070  0.6629  1.3854  1.0972
 1601SOL    HW216263   2.921   2.729   7.039  0.2646 -1.2474 -1.4254
 1602SOL     OW16264   4.102   1.748   2.629 -0.2666 -0.4461 -0.2312
 1602SOL    HW116265   4.077   1.822   2.685  1.4137  0.8537 -1.1754
 1602SOL    HW216266   4.115   1.784   2.541  1.5351 -3.4979 -1.2160
 1603SOL     OW16267   0.516   3.429  12.371 -0.5157 -0.3745  0.1032
 1603SOL    HW116268   0.574   3.362  12.335  2.0275  2.0310 -0.2440
 1603SOL    HW216269   0.567   3.460  12.445  0.6707 -0.0929 -0.8303
 1604SOL     OW16270   1.556   1.572  10.220 -0.7777 -0.4780 -0.3299
 1604SOL    HW116271   1.475   1.586  10.172 -2.1196 -1.8802  1.5563
 1604SOL    HW216272   1.575   1.661  10.251 -1.6793 -0.7804  1.1084
 1605SOL     OW16273   3.475   2.047   4.148 -0.5119  0.0937 -0.2818
 1605SOL    HW116274   3.564   2.060   4.116 -0.6111  1.4752  0.0019
 1605SOL    HW216275   3.434   2.079   4.068 -2.8517  1.7426  1.5810
 1606SOL     OW16276   4.339   1.011  11.363  0.3347  0.1895 -0.5297
 1606SOL    HW116277   4.363   0.919  11.363 -2.8513 -0.6469  2.3708
 1606SOL    HW216278   4.306   1.020  11.453  1.4693 -2.1179  0.1156
 1607SOL     OW16279   1.236   3.325   3.795  0.1867 -0.0815  0.2246
 1607SOL    HW116280   1.319   3.368   3.775 -0.3043 -0.2765 -2.2879
 1607SOL    HW216281   1.240   3.256   3.729 -1.2079  0.8179 -0.8131
 1608SOL     OW16282   1.853   3.259   4.666 -0.4008 -0.4686 -0.0917
 1608SOL    HW116283   1.925   3.250   4.604 -2.4221  0.0733 -2.4918
 1608SOL    HW216284   1.794   3.191   4.634 -1.0665 -0.0199  0.1916
 1609SOL     OW16285   3.855   4.186  15.792 -0.9534  0.3104 -0.2659
 1609SOL    HW116286   3.932   4.203  15.738 -1.0844 -2.3981 -1.3279
 1609SOL    HW216287   3.886   4.095  15.797 -2.3612 -0.1920 -0.8019
 1610SOL     OW16288   1.321   1.305   2.520 -0.0326 -0.5860  0.6367
 1610SOL    HW116289   1.318   1.217   2.481 -0.4999 -0.7650  1.0686
 1610SOL    HW216290   1.291   1.278   2.607  1.2364  0.0561  1.2724
 1611SOL     OW16291   2.689   3.646   5.333 -0.2313  0.0197 -0.6350
 1611SOL    HW116292   2.638   3.703   5.275  0.7602 -0.2651 -1.7802
 1611SOL    HW216293   2.740   3.701   5.392 -1.8993  0.5613  0.2941
 1612SOL     OW16294   3.355   3.178   7.382 -0.4095 -0.5481  0.3408
 1612SOL    HW116295   3.400   3.094   7.395 -1.4059 -1.0358  0.6843
 1612SOL    HW216296   3.424   3.243   7.393 -1.4864  0.8246 -1.0290
 1613SOL     OW16297   0.176   1.083   4.039  0.5887  0.2462  0.4849
 1613SOL    HW116298   0.248   1.116   3.987  2.5299 -0.6152  2.6272
 1613SOL    HW216299   0.110   1.137   3.996 -0.3337  0.9784  2.7747
 1614SOL     OW16300   4.496   0.743   0.683  0.2999  0.4184  0.5408
 1614SOL    HW116301   4.437   0.806   0.723 -1.8042 -0.3499 -1.3936
 1614SOL    HW216302   4.529   0.779   0.600 -1.2129  2.8385  0.9861
 1615SOL     OW16303   0.145   0.618   7.753 -0.2086 -0.3288 -0.0889
 1615SOL    HW116304   0.096   0.685   7.801  1.8562  1.8711 -1.0193
 1615SOL    HW216305   0.138   0.548   7.818 -2.2427  2.5002  2.7259
 1616SOL     OW16306   4.429   4.670   4.253  0.0576  0.3016 -0.2046
 1616SOL    HW116307   4.343   4.629   4.252  0.5595 -0.7528  0.5503
 1616SOL    HW216308   4.411   0.025   4.309  1.3042  0.4865 -0.0394
 1617SOL     OW16309   3.977   3.056   1.443  0.1253 -0.2306  0.7353
 1617SOL    HW116310   4.073   3.054   1.450  0.1372 -0.0129  0.6221
 1617SOL    HW216311   3.951   3.131   1.495 -2.3162 -0.4500 -0.1578
 1618SOL     OW16312   0.955   3.951  14.227 -0.2567 -0.0906  0.8653
 1618SOL    HW116313   0.937   3.879  14.167  0.9822  0.9364 -0.7600
 1618SOL    HW216314   0.877   3.954  14.282 -0.7841  0.3200  0.0908
 1619SOL     OW16315   3.777   3.829   0.804 -0.4868  0.2542 -0.3792
 1619SOL    HW116316   3.726   3.886   0.862 -1.8783  0.9589 -2.3005
 1619SOL    HW216317   3.846   3.883   0.765  0.4387  0.0534  0.9769
 1620SOL     OW16318   1.701   2.105   5.178  0.0162 -0.3943  0.3586
 1620SOL    HW116319   1.756   2.042   5.131  1.5550 -0.1529  1.8131
 1620SOL    HW216320   1.615   2.073   5.152  0.5893 -2.3106  0.8158
 1621SOL     OW16321   3.507   0.894  11.632 -0.0467  0.5652 -0.7716
 1621SOL    HW116322   3.440   0.869  11.568 -2.0474  1.4782  0.9735
 1621SOL    HW216323   3.539   0.808  11.659 -0.1838  0.5901 -0.5246
 1622SOL     OW16324   0.174   0.777   4.077 -0.3810 -0.9661  0.1655
 1622SOL    HW116325   0.266   0.766   4.097 -0.6607 -0.8982  1.4855
 1622SOL    HW216326   0.162   0.871   4.066  1.3388 -0.5989  1.6133
 1623SOL     OW16327   1.045   0.184   0.398 -0.2554 -0.5082 -0.0221
 1623SOL    HW116328   1.014   0.096   0.421 -1.9582 -0.3412 -1.6720
 1623SOL    HW216329   0.972   0.242   0.423  1.5342  2.2056 -1.1487
 1624SOL     OW16330   1.261   0.452  12.897 -0.3167  0.3513  0.0611
 1624SOL    HW116331   1.193   0.396  12.933  0.7153 -0.8634  0.1250
 1624SOL    HW216332   1.334   0.422  12.952  0.3527  1.3797 -0.2580
 1625SOL     OW16333   0.937   2.805   5.357 -0.1369  0.3791 -0.2396
 1625SOL    HW116334   0.989   2.730   5.330  1.0212  0.6386  1.2682
 1625SOL    HW216335   0.934   2.842   5.269  0.6360 -0.8829 -0.7821
 1626SOL     OW16336   0.020   0.370   4.187  0.2034 -0.1633  0.0764
 1626SOL    HW116337   0.029   0.459   4.152 -1.1113  0.3892  1.1685
 1626SOL    HW216338   0.078   0.371   4.263 -2.1666  1.7839  1.8439
 1627SOL     OW16339   0.349   2.835   3.058 -0.4784 -0.3160 -0.0103
 1627SOL    HW116340   0.291   2.759   3.066  1.7006 -1.8240  1.6455
 1627SOL    HW216341   0.418   2.787   3.104  0.1164  1.4168  0.9003
 1628SOL     OW16342   2.409   2.292   3.697 -0.8811  0.0407  0.3044
 1628SOL    HW116343   2.330   2.343   3.717  0.0190  0.1160  3.5752
 1628SOL    HW216344   2.472   2.363   3.684 -0.7470 -0.1056  0.1433
 1629SOL     OW16345   1.411   0.482   1.008 -0.1583 -0.4016 -0.1471
 1629SOL    HW116346   1.408   0.563   0.958 -0.8675 -0.9021 -0.9084
 1629SOL    HW216347   1.341   0.504   1.069 -0.2810 -1.0021 -0.0758
 1630SOL     OW16348   1.468   0.458  16.462 -0.3538  0.5120  0.0802
 1630SOL    HW116349   1.459   0.550  16.435  0.6418  0.5487 -0.1193
 1630SOL    HW216350   1.397   0.411  16.419 -1.2468 -0.5932  2.7385
 1631SOL     OW16351   0.127   1.351   6.403 -0.3270  0.0041  0.2809
 1631SOL    HW116352   0.176   1.395   6.473  1.6185 -0.3124 -0.8575
 1631SOL    HW216353   0.173   1.268   6.392 -1.9977 -1.0732  1.5364
 1632SOL     OW16354   0.880   4.305   2.223 -0.2962  0.7369  0.2499
 1632SOL    HW116355   0.826   4.274   2.150 -0.3207  1.3821 -0.0011
 1632SOL    HW216356   0.906   4.222   2.263 -0.0186 -0.6410 -2.7840
 1633SOL     OW16357   3.880   1.158   9.242 -1.0056 -0.0206  0.7207
 1633SOL    HW116358   3.947   1.171   9.175 -1.1823 -0.7577  0.3991
 1633SOL    HW216359   3.912   1.077   9.282 -2.3626 -0.8263  0.1617
 1634SOL     OW16360   1.427   4.572  15.375  0.5905  0.7071  0.0652
 1634SOL    HW116361   1.383   4.509  15.433  2.2056  0.5730  1.1569
 1634SOL    HW216362   1.413   4.524  15.294  1.3973 -1.8204  1.4257
 1635SOL     OW16363   0.875   2.881   7.554 -0.3378 -0.1523 -0.2098
 1635SOL    HW116364   0.780   2.888   7.553 -0.3707 -0.2401  2.2114
 1635SOL    HW216365   0.904   2.965   7.517  0.8401 -0.4978 -0.0779
 1636SOL     OW16366   2.295   0.089   4.387  0.4041  0.0998  0.1652
 1636SOL    HW116367   2.234   0.162   4.389 -0.7427 -0.9330  2.7675
 1636SOL    HW216368   2.368   0.128   4.434  0.1969 -1.7034  1.9497
 1637SOL     OW16369   1.039   2.263   1.768  0.1513 -0.1454 -0.1004
 1637SOL    HW116370   1.005   2.271   1.679 -0.0611 -0.3743 -0.0409
 1637SOL    HW216371   1.131   2.244   1.750  0.0554  0.9096 -1.6951
 1638SOL     OW16372   0.597   1.137   4.477  0.1941  0.2361  0.4292
 1638SOL    HW116373   0.665   1.205   4.475 -0.0174  0.4519  0.7209
 1638SOL    HW216374   0.652   1.060   4.493  1.0347  0.4133 -1.6562
 1639SOL     OW16375   3.979   4.075   6.529 -0.1204 -0.1875  0.2397
 1639SOL    HW116376   4.073   4.090   6.522 -0.3041  0.6760 -0.4822
 1639SOL    HW216377   3.963   3.982   6.539  2.8418 -0.6692  0.4362
 1640SOL     OW16378   3.551   4.492   5.106 -0.2567  0.0413  0.1177
 1640SOL    HW116379   3.588   4.580   5.115 -0.0908  0.1503 -1.6055
 1640SOL    HW216380   3.461   4.512   5.133 -0.2107 -1.7173  1.5662
 1641SOL     OW16381   3.239   3.641   5.167  0.0468 -0.0938  0.6298
 1641SOL    HW116382   3.217   3.571   5.107 -1.1321 -0.5796  1.6301
 1641SOL    HW216383   3.191   3.626   5.249 -2.7874  1.2992 -0.7952
 1642SOL     OW16384   2.563   3.561   3.871  0.1665  0.2003 -0.3193
 1642SOL    HW116385   2.633   3.620   3.902  0.2820 -0.2972  0.3550
 1642SOL    HW216386   2.498   3.609   3.820 -0.6193 -0.4331  0.0908
 1643SOL     OW16387   0.898   2.005   6.072  0.1383  0.0008 -0.4496
 1643SOL    HW116388   0.988   2.038   6.080  0.1290 -0.3638  1.1950
 1643SOL    HW216389   0.902   1.937   6.138  2.9462 -0.5731 -1.1997
 1644SOL     OW16390   2.416   1.484   3.277  0.1841  0.5509  0.2334
 1644SOL    HW116391   2.463   1.535   3.211  0.0574  0.8167  0.3497
 1644SOL    HW216392   2.422   1.533   3.358  1.0019 -0.3504  0.7227
 1645SOL     OW16393   2.123   0.607  17.077 -0.5977 -0.0570  0.0946
 1645SOL    HW116394   2.218   0.602  17.079 -0.6025 -0.6464 -1.2696
 1645SOL    HW216395   2.112   0.701  17.091  1.3503  0.4578 -1.8295
 1646SOL     OW16396   1.866   1.389   8.026 -0.1614  0.5280 -1.0052
 1646SOL    HW116397   1.826   1.471   8.056  1.2266  1.1875 -0.9088
 1646SOL    HW216398   1.786   1.340   8.011  0.1442 -0.2112 -0.2202
 1647SOL     OW16399   1.715   0.272  13.992  0.1819 -0.1020 -0.4861
 1647SOL    HW116400   1.794   0.224  14.013 -0.4492 -2.1540 -2.8421
 1647SOL    HW216401   1.685   0.220  13.918 -0.4319  2.9885 -2.3906
 1648SOL     OW16402   1.239   4.556  15.760 -0.1066  0.2435 -0.7732
 1648SOL    HW116403   1.283   4.496  15.820  2.3085  1.8767 -0.9086
 1648SOL    HW216404   1.152   4.565  15.797  0.5144  1.1660  0.4672
 1649SOL     OW16405   1.479   1.157   4.148  0.7308  0.1735  0.1487
 1649SOL    HW116406   1.539   1.094   4.188  1.0260  2.5725  3.4756
 1649SOL    HW216407   1.442   1.208   4.220 -3.4109 -4.0875  1.0696
 1650SOL     OW16408   0.688   2.120   7.545 -0.7215  0.2311 -0.3286
 1650SOL    HW116409   0.608   2.108   7.597 -0.2388  0.7826  0.5419
 1650SOL    HW216410   0.756   2.097   7.608 -1.7548 -1.1098  0.3096
 1651SOL     OW16411   0.074   1.211  13.897  0.2519 -0.1320  0.3819
 1651SOL    HW116412   0.051   1.212  13.804  0.1420 -0.1631  0.4086
 1651SOL    HW216413   0.167   1.236  13.895  0.4047 -0.6646  0.6604
 1652SOL     OW16414   1.826   2.455   3.141 -0.3280  0.2312  0.3797
 1652SOL    HW116415   1.767   2.518   3.100  0.1477  0.7520  0.4898
 1652SOL    HW216416   1.835   2.490   3.230  1.2204  1.5272 -0.2795
 1653SOL     OW16417   0.225   1.237   0.658 -0.2123  0.5086  0.2669
 1653SOL    HW116418   0.184   1.321   0.635  1.1976  1.0374 -0.3070
 1653SOL    HW216419   0.313   1.263   0.686  0.2598 -0.4608 -0.3231
 1654SOL     OW16420   3.775   0.942   7.691 -0.2501  0.1068  0.4775
 1654SOL    HW116421   3.856   0.984   7.664 -1.2822  0.4640 -2.1258
 1654SOL    HW216422   3.717   0.976   7.622 -0.5474 -0.7312  0.3112
 1655SOL     OW16423   3.433   4.353   5.689  0.9970  0.1332  0.2156
 1655SOL    HW116424   3.372   4.348   5.616  1.7984 -4.3441 -0.1458
 1655SOL    HW216425   3.414   4.436   5.731 -1.0272  0.2781 -1.0244
 1656SOL     OW16426   2.979   3.284  10.081  0.2219 -0.6527 -0.2807
 1656SOL    HW116427   2.954   3.225  10.151  0.7220 -0.4688  0.0515
 1656SOL    HW216428   2.985   3.218  10.012  1.8732 -1.0822  0.2780
 1657SOL     OW16429   1.195   2.661   8.412  0.3637 -0.1987 -0.6326
 1657SOL    HW116430   1.234   2.604   8.345 -0.0047 -1.1493 -0.0366
 1657SOL    HW216431   1.105   2.629   8.405 -0.0566  0.9983 -0.7039
 1658SOL     OW16432   4.668   2.200   3.853 -0.3120 -0.1432 -0.4449
 1658SOL    HW116433   4.578   2.192   3.822  0.0825 -1.7588 -1.2163
 1658SOL    HW216434   4.670   2.288   3.889 -0.9075 -1.2344  2.2818
 1659SOL     OW16435   1.460   1.599   2.191 -0.1922  0.3174  0.3893
 1659SOL    HW116436   1.527   1.667   2.198  0.0880 -0.1696  2.4072
 1659SOL    HW216437   1.433   1.600   2.283  0.1042 -1.2428  0.5007
 1660SOL     OW16438   2.773   3.525   0.125 -0.1852  0.4851 -0.7186
 1660SOL    HW116439   2.819   3.584   0.184 -0.3508  0.0687 -0.1723
 1660SOL    HW216440   2.781   3.439   0.166  1.3788  1.0594  0.1634
 1661SOL     OW16441   2.247   2.094   5.079  0.2216 -0.6550 -0.2562
 1661SOL    HW116442   2.230   2.094   4.985 -1.4853  1.4134  0.0795
 1661SOL    HW216443   2.260   1.999   5.088  0.6728 -0.6023 -0.3424
 1662SOL     OW16444   3.175   3.356  17.551 -0.2576  0.3334  0.2330
 1662SOL    HW116445   3.118   3.280  17.536  0.3106 -0.0366 -0.0568
 1662SOL    HW216446   3.112   3.428  17.559  2.6919  2.8857  0.7489
 1663SOL     OW16447   2.144   3.174  12.493  0.2752 -0.3022  0.3708
 1663SOL    HW116448   2.053   3.147  12.505 -0.1660  0.0490 -2.1074
 1663SOL    HW216449   2.188   3.090  12.505  1.1943  0.0215 -0.7220
 1664SOL     OW16450   1.319   0.871  13.951 -0.5539  0.2962  0.2238
 1664SOL    HW116451   1.317   0.963  13.924 -2.8822  0.1958  0.0211
 1664SOL    HW216452   1.242   0.828  13.914 -0.2841 -0.5527  0.6623
 1665SOL     OW16453   2.678   4.622   6.891  0.0888 -0.5799  0.0883
 1665SOL    HW116454   2.666   4.576   6.974 -1.6204  1.0990  0.7452
 1665SOL    HW216455   2.703   4.709   6.922  0.7502 -0.3236 -1.1687
 1666SOL     OW16456   4.677   0.226   7.931 -0.1197  0.3595  0.1713
 1666SOL    HW116457   4.688   0.133   7.953  2.7574  0.2775 -1.5808
 1666SOL    HW216458   0.033   0.237   7.874 -0.4435 -0.1709 -0.3636
 1667SOL     OW16459   1.216   3.298   0.897 -0.1619  0.4896 -0.4474
 1667SOL    HW116460   1.145   3.284   0.959  2.7237 -0.7085  2.6122
 1667SOL    HW216461   1.278   3.241   0.943  0.5027  1.2714 -0.3769
 1668SOL     OW16462   2.143   3.944   2.659  0.2327  0.3705 -0.6578
 1668SOL    HW116463   2.148   3.999   2.582 -0.0455 -0.2353 -1.1126
 1668SOL    HW216464   2.229   3.902   2.661  0.3894  0.7418  0.5940
 1669SOL     OW16465   3.027   3.268   3.170 -0.1522  0.4427 -0.3594
 1669SOL    HW116466   2.957   3.247   3.232 -0.5937 -0.0013 -1.0090
 1669SOL    HW216467   3.003   3.226   3.087  0.3915  1.1606 -0.8771
 1670SOL     OW16468   1.578   3.804   7.885  0.0213  0.5334 -0.2590
 1670SOL    HW116469   1.645   3.748   7.923 -0.0947  1.6094  1.5505
 1670SOL    HW216470   1.608   3.893   7.904 -2.1029  1.2938 -0.4577
 1671SOL     OW16471   1.049   3.359   2.310  0.3764  0.5857 -0.2525
 1671SOL    HW116472   1.082   3.351   2.220 -0.3819  0.7580 -0.5490
 1671SOL    HW216473   1.122   3.384   2.366  0.5900  1.4128 -0.9038
 1672SOL     OW16474   2.014   3.362   2.650  0.1008  0.3113 -0.3757
 1672SOL    HW116475   1.993   3.310   2.728  0.5000  1.9783  0.8509
 1672SOL    HW216476   1.962   3.440   2.672 -0.3979 -0.1183 -0.0243
 1673SOL     OW16477   0.387   4.623   7.387  0.3631 -0.5954 -0.1797
 1673SOL    HW116478   0.416   4.702   7.432 -0.1415  0.0531 -1.0052
 1673SOL    HW216479   0.468   4.591   7.346  0.8322  0.0425  0.2568
 1674SOL     OW16480   3.773   1.297   8.523 -0.0512  0.5538  0.2597
 1674SOL    HW116481   3.746   1.362   8.587 -2.5573 -1.4599  1.2351
 1674SOL    HW216482   3.754   1.349   8.445 -2.3005 -0.9980 -0.2390
 1675SOL     OW16483   2.266   0.580   4.015 -0.2162  1.2587  0.7951
 1675SOL    HW116484   2.229   0.548   4.097  0.0934 -0.3232  0.3214
 1675SOL    HW216485   2.352   0.607   4.047  0.4190 -1.4649  1.3720
 1676SOL     OW16486   4.367   4.167  15.663  0.0524  0.4562  0.5576
 1676SOL    HW116487   4.442   4.206  15.707  0.4506 -0.6260  0.8288
 1676SOL    HW216488   4.382   4.073  15.669 -0.0417  0.4279  0.3353
 1677SOL     OW16489   2.941   0.302   7.609  0.3600 -0.0987  0.1438
 1677SOL    HW116490   2.926   0.394   7.588  0.4437 -0.3611 -1.0304
 1677SOL    HW216491   2.994   0.306   7.689  1.4405 -2.1480 -0.4649
 1678SOL     OW16492   1.135   3.532   8.585  0.4789  0.5661  0.3272
 1678SOL    HW116493   1.170   3.462   8.531 -0.5571 -1.3724  2.1559
 1678SOL    HW216494   1.053   3.493   8.616  0.1088  0.1989 -1.1147
 1679SOL     OW16495   1.936   2.548   5.834 -0.4798  0.2711  0.4792
 1679SOL    HW116496   1.938   2.483   5.763 -0.1555  1.8295 -0.9383
 1679SOL    HW216497   1.994   2.611   5.792 -0.7144  0.4433  0.4098
 1680SOL     OW16498   3.684   3.382  13.102  0.1029 -0.1802 -0.0192
 1680SOL    HW116499   3.711   3.312  13.160  0.7187  3.4171  3.9929
 1680SOL    HW216500   3.638   3.433  13.169 -2.5628 -2.9352  0.2544
 1681SOL     OW16501   4.283   1.915   0.592  0.2171 -0.0580  0.3711
 1681SOL    HW116502   4.270   1.970   0.515  0.3263  1.2052  1.2647
 1681SOL    HW216503   4.314   1.832   0.554  1.1364  1.1888 -1.5803
 1682SOL     OW16504   4.340   3.110  16.859  0.3941  0.3594  0.3352
 1682SOL    HW116505   4.423   3.155  16.849  1.6998 -1.6983  1.7883
 1682SOL    HW216506   4.299   3.113  16.773 -2.1934  1.3765  1.5953
 1683SOL     OW16507   3.609   2.976   1.945 -0.2174  0.0218  0.3140
 1683SOL    HW116508   3.656   3.043   1.993 -0.6678  0.1980  0.5123
 1683SOL    HW216509   3.580   2.916   2.015 -0.5755  1.2393  1.2091
 1684SOL     OW16510   0.981   1.483   9.211 -0.8621  0.1456  0.6387
 1684SOL    HW116511   1.063   1.435   9.223 -1.3615 -0.9418 -0.2336
 1684SOL    HW216512   0.909   1.420   9.215 -1.3016  0.5022 -1.6029
 1685SOL     OW16513   4.360   1.021   5.015  0.0875  0.1169  0.0901
 1685SOL    HW116514   4.417   0.992   4.944 -1.4114  0.2394 -1.1612
 1685SOL    HW216515   4.285   1.033   4.957  0.6809  0.5343 -0.5988
 1686SOL     OW16516   1.979   1.284   1.359  0.2237  0.5565  0.1185
 1686SOL    HW116517   1.893   1.324   1.375  0.9109  2.5198 -1.1138
 1686SOL    HW216518   1.995   1.211   1.419  0.1947 -0.2302 -0.8447
 1687SOL     OW16519   4.146   2.536   2.472 -0.0651  0.2233 -0.0093
 1687SOL    HW116520   4.133   2.462   2.413 -0.3387  0.3788 -0.1485
 1687SOL    HW216521   4.241   2.543   2.465 -0.0275  0.4344  0.7012
 1688SOL     OW16522   1.032   2.411   2.319 -0.3305  0.1631 -0.0878
 1688SOL    HW116523   1.073   2.396   2.234  0.1992 -0.6183  0.3054
 1688SOL    HW216524   0.940   2.392   2.302  0.4185 -2.5891 -1.0714
 1689SOL     OW16525   0.671   0.571   4.816 -0.0930 -0.0211 -0.0485
 1689SOL    HW116526   0.720   0.566   4.898 -0.9306 -0.0037  0.4476
 1689SOL    HW216527   0.608   0.638   4.841 -1.2018 -0.3175 -2.1256
 1690SOL     OW16528   3.250   3.292   3.764  0.0124  0.2985  0.3777
 1690SOL    HW116529   3.215   3.268   3.849 -2.7453 -3.8346 -1.9518
 1690SOL    HW216530   3.229   3.386   3.766  0.6920  0.4748 -0.6327
 1691SOL     OW16531   3.082   3.513  11.729 -0.0022  0.0834 -0.4587
 1691SOL    HW116532   3.153   3.574  11.708 -1.1657  2.0503  1.3753
 1691SOL    HW216533   3.134   3.447  11.775  0.2789  0.6348  0.0263
 1692SOL     OW16534   4.169   0.183   7.213 -0.0460  0.9218  0.0113
 1692SOL    HW116535   4.206   0.269   7.235  0.7729  1.0205 -1.7705
 1692SOL    HW216536   4.231   0.135   7.268  0.1081  3.1240  1.7877
 1693SOL     OW16537   0.166   4.518   7.496  0.4337 -0.3011  0.4083
 1693SOL    HW116538   0.244   4.552   7.453 -0.1832 -1.4175 -1.6000
 1693SOL    HW216539   0.106   4.513   7.422  0.0752  1.1550  0.6169
 1694SOL     OW16540   0.682   4.171   8.328 -0.0388  0.0294  0.2798
 1694SOL    HW116541   0.607   4.120   8.358  0.1110 -1.4277 -1.8065
 1694SOL    HW216542   0.704   4.124   8.248  1.6916  0.0985  0.7073
 1695SOL     OW16543   3.587   0.491  16.727  1.3675  0.0178 -0.6250
 1695SOL    HW116544   3.663   0.487  16.669  0.2349 -0.9349 -2.0364
 1695SOL    HW216545   3.511   0.498  16.669  1.8487  0.4793 -1.1973
 1696SOL     OW16546   0.844   0.368   0.458 -0.4802  0.7762  0.2078
 1696SOL    HW116547   0.808   0.427   0.524 -1.0300 -0.5185  1.0579
 1696SOL    HW216548   0.785   0.293   0.460  0.9617 -0.3569  0.5855
 1697SOL     OW16549   3.037   1.363   6.113 -0.1267  0.0187  0.2181
 1697SOL    HW116550   2.972   1.344   6.181  1.1746 -0.3099  1.3691
 1697SOL    HW216551   3.015   1.452   6.085 -0.8085 -0.5741 -1.1258
 1698SOL     OW16552   4.014   1.096   6.054 -0.2785 -0.1564  0.0964
 1698SOL    HW116553   3.965   1.021   6.090  0.0268 -1.0159 -1.2548
 1698SOL    HW216554   3.957   1.127   5.983 -0.7356 -0.1434  0.4678
 1699SOL     OW16555   1.454   0.255  14.590 -0.1387  0.1387 -1.0905
 1699SOL    HW116556   1.389   0.323  14.573  2.4551  2.7520 -0.4914
 1699SOL    HW216557   1.542   0.285  14.568  2.1062 -3.8353  2.5505
 1700SOL     OW16558   0.278   2.238   5.030  0.4420  0.0558  0.0997
 1700SOL    HW116559   0.225   2.317   5.022  0.5463  0.2882  1.8858
 1700SOL    HW216560   0.218   2.172   5.065 -0.1933  0.2859 -0.5535
 1701SOL     OW16561   2.525   0.445  16.845 -0.5529  0.1041  0.4994
 1701SOL    HW116562   2.592   0.479  16.785  0.1228 -0.5881  0.8570
 1701SOL    HW216563   2.456   0.417  16.785 -0.9266  2.1717 -0.0295
 1702SOL     OW16564   3.572   4.711  15.792 -0.3072 -0.4973  0.1436
 1702SOL    HW116565   3.590   0.026  15.879  0.1811  0.0200 -0.1675
 1702SOL    HW216566   3.491   0.038  15.773  0.3487 -0.0925 -1.6964
 1703SOL     OW16567   3.132   0.937  13.412  0.1869 -0.5679  0.2207
 1703SOL    HW116568   3.155   1.029  13.422  0.8294 -0.8694  1.5522
 1703SOL    HW216569   3.055   0.933  13.355  0.2880 -1.1344  0.1154
 1704SOL     OW16570   4.620   1.162   4.742 -0.0131 -0.6901  0.0847
 1704SOL    HW116571   4.672   1.184   4.665  0.0094  0.3117  0.3837
 1704SOL    HW216572   4.592   1.071   4.738 -0.7818 -0.3552 -2.2200
 1705SOL     OW16573   2.449   3.531   6.721  0.5955  0.4853  0.1993
 1705SOL    HW116574   2.507   3.474   6.670 -1.0512 -0.8704 -0.1302
 1705SOL    HW216575   2.394   3.567   6.651  0.4581 -0.5373 -0.2131
 1706SOL     OW16576   0.912   2.079   2.515  0.5536 -0.1972 -0.2515
 1706SOL    HW116577   0.932   2.094   2.423 -1.2794  3.1373 -0.0951
 1706SOL    HW216578   0.996   2.072   2.562  1.1954 -1.6684 -1.6166
 1707SOL     OW16579   1.816   4.105   3.754  0.3067 -0.4121 -0.1549
 1707SOL    HW116580   1.859   4.026   3.786 -0.6589 -0.1243  1.8600
 1707SOL    HW216581   1.726   4.080   3.773 -0.3302  0.8356 -1.4577
 1708SOL     OW16582   3.696   3.531   5.146  0.3159  0.0786  0.2917
 1708SOL    HW116583   3.682   3.626   5.154  0.0416 -0.1177  2.1534
 1708SOL    HW216584   3.690   3.500   5.236 -0.0086 -2.1292 -0.5114
 1709SOL     OW16585   4.086   4.634   3.107  0.5162 -0.0102 -0.2033
 1709SOL    HW116586   4.038   4.715   3.125  1.2466  0.4337 -0.2468
 1709SOL    HW216587   4.147   4.631   3.181 -1.1975 -2.0947  1.1319
 1710SOL     OW16588   4.492   4.297  13.204  0.3794 -0.0454  0.2121
 1710SOL    HW116589   4.436   4.262  13.134 -1.5222  2.5968  0.4081
 1710SOL    HW216590   4.423   4.345  13.250  0.5431 -0.2706  0.6896
 1711SOL     OW16591   1.984   1.791   2.561  0.1418  0.3036  0.5848
 1711SOL    HW116592   2.061   1.847   2.563  0.7280 -0.5780  2.9608
 1711SOL    HW216593   2.008   1.736   2.635  3.5518  0.4339 -0.4623
 1712SOL     OW16594   4.511   0.700   9.893  0.4549 -0.7247  0.0185
 1712SOL    HW116595   4.541   0.615   9.925  2.3083 -0.4483 -0.9401
 1712SOL    HW216596   4.540   0.689   9.802  2.4716 -1.0761  0.7062
 1713SOL     OW16597   2.096   1.595   3.623  0.0397  0.4917 -0.1036
 1713SOL    HW116598   2.062   1.604   3.534 -0.0113  1.6565  0.0303
 1713SOL    HW216599   2.151   1.673   3.636 -0.0335  0.2174  1.9034
 1714SOL     OW16600   1.036   0.730   1.592 -0.1415 -0.5935  0.4729
 1714SOL    HW116601   0.998   0.751   1.677 -0.1483  0.6808  0.1430
 1714SOL    HW216602   1.060   0.637   1.598  0.5804 -0.3255  1.7383
 1715SOL     OW16603   1.803   1.889   8.724  0.0404 -0.6063 -0.3601
 1715SOL    HW116604   1.769   1.887   8.634 -1.0148 -0.0143  0.0345
 1715SOL    HW216605   1.895   1.877   8.700  0.1225 -0.3264 -0.1810
 1716SOL     OW16606   4.623   4.297   2.525  0.1991 -0.2004 -0.5959
 1716SOL    HW116607   4.616   4.392   2.540  2.4569  0.0755 -1.3759
 1716SOL    HW216608   4.573   4.253   2.594 -1.1660  0.7300 -1.0024
 1717SOL     OW16609   3.155   4.449   2.449 -0.0943  0.2368 -0.3816
 1717SOL    HW116610   3.070   4.445   2.491  0.6036  0.1211  1.0030
 1717SOL    HW216611   3.193   4.365   2.474  0.4262  0.3352 -0.8198
 1718SOL     OW16612   2.384   2.380  17.188 -0.4358  0.2543  0.1877
 1718SOL    HW116613   2.449   2.336  17.134 -0.7890  0.1186 -0.1289
 1718SOL    HW216614   2.443   2.437  17.237  1.2318 -1.2053 -0.1295
 1719SOL     OW16615   0.431   0.532  11.209  0.6116  0.2885  0.3685
 1719SOL    HW116616   0.516   0.571  11.191 -0.0232  1.8484  0.7270
 1719SOL    HW216617   0.369   0.586  11.159 -1.2414 -1.4989  0.7077
 1720SOL     OW16618   0.836   1.853   6.308 -0.0201  0.4142  1.3431
 1720SOL    HW116619   0.833   1.924   6.372 -1.3053 -0.2218  1.9749
 1720SOL    HW216620   0.873   1.777   6.352 -0.4288 -1.1882 -1.0459
 1721SOL     OW16621   0.102   0.369   9.187 -0.4770 -0.0244 -0.7523
 1721SOL    HW116622   0.083   0.285   9.146  0.6997 -0.2389 -0.8740
 1721SOL    HW216623   0.197   0.363   9.199 -0.6464 -1.6842 -0.2412
 1722SOL     OW16624   4.688   1.104   2.919  0.4779  0.4975 -0.4004
 1722SOL    HW116625   0.011   1.146   2.844  0.1319  1.5173 -0.0333
 1722SOL    HW216626   4.640   1.178   2.957  0.6573  1.7986 -2.7033
 1723SOL     OW16627   3.870   0.369   1.058 -0.0067 -0.0055 -0.3973
 1723SOL    HW116628   3.781   0.384   1.090 -0.1854 -0.3167 -0.7313
 1723SOL    HW216629   3.913   0.310   1.120 -0.7941  1.0426  1.1123
 1724SOL     OW16630   2.569   1.812   1.586  0.7697 -0.2057  0.3984
 1724SOL    HW116631   2.569   1.719   1.609 -1.6149 -0.4458 -0.5476
 1724SOL    HW216632   2.661   1.836   1.589  0.6004  0.6250 -0.8140
 1725SOL     OW16633   0.632   2.301   4.646 -0.3340  0.2531  0.2972
 1725SOL    HW116634   0.554   2.303   4.591 -0.8137  0.5660  0.9899
 1725SOL    HW216635   0.585   2.264   4.721 -0.8227  1.8520  0.7672
 1726SOL     OW16636   0.990   3.601  17.151 -0.6499  0.0108 -0.3880
 1726SOL    HW116637   0.973   3.513  17.119 -0.1544  0.2453 -1.2706
 1726SOL    HW216638   1.085   3.595  17.161 -0.9837  0.3676  3.3041
 1727SOL     OW16639   1.271   1.270   4.371 -0.2617  0.1089 -0.1899
 1727SOL    HW116640   1.180   1.298   4.370 -0.5348 -0.7826  0.0158
 1727SOL    HW216641   1.291   1.238   4.459  1.0351  0.3418 -0.3984
 1728SOL     OW16642   2.148   2.711   1.034 -0.2182  0.2169 -0.0380
 1728SOL    HW116643   2.160   2.754   1.119 -0.4486  0.2135 -0.0036
 1728SOL    HW216644   2.082   2.644   1.049  2.0879 -1.4474  2.5594
 1729SOL     OW16645   0.954   1.357  15.978  0.2733  0.4465  0.4329
 1729SOL    HW116646   0.919   1.416  16.044  0.5497  1.3751 -0.2424
 1729SOL    HW216647   0.983   1.284  16.034  0.4962  0.9829  1.0191
 1730SOL     OW16648   3.363   1.970   5.939  0.4092 -0.0541  0.4903
 1730SOL    HW116649   3.335   2.060   5.925 -3.5711 -1.3927 -0.3154
 1730SOL    HW216650   3.459   1.969   5.937  0.4027  1.0662 -0.2194
 1731SOL     OW16651   3.912   3.192  16.073 -0.1438  0.3464  0.5055
 1731SOL    HW116652   3.896   3.142  16.153  0.6600 -0.4322  0.1791
 1731SOL    HW216653   3.838   3.156  16.025  1.1696 -1.8666  0.1468
 1732SOL     OW16654   0.432   2.084   7.117  0.4410  0.2810  0.1747
 1732SOL    HW116655   0.481   2.166   7.116  1.2116 -0.1856 -0.1990
 1732SOL    HW216656   0.494   2.021   7.154  0.8734 -0.0508 -1.1113
 1733SOL     OW16657   1.610   3.242   2.218  0.1034 -0.2658  0.5303
 1733SOL    HW116658   1.553   3.314   2.191  1.1665  0.8046  1.1758
 1733SOL    HW216659   1.683   3.285   2.262 -0.0914  2.3359 -1.7276
 1734SOL     OW16660   1.372   4.441   6.517  0.0585 -0.0212  0.6037
 1734SOL    HW116661   1.326   4.417   6.437 -0.8791  2.1680  0.4846
 1734SOL    HW216662   1.362   4.535   6.502 -1.1738 -0.1755  0.5248
 1735SOL     OW16663   0.317   1.564   0.579 -0.3486  0.0299  0.0996
 1735SOL    HW116664   0.328   1.569   0.674 -1.0244  1.3585  0.1039
 1735SOL    HW216665   0.385   1.500   0.557  0.3377  0.3034  1.4205
 1736SOL     OW16666   3.258   2.227  10.878 -0.5283  0.1676  0.2712
 1736SOL    HW116667   3.283   2.165  10.810 -0.5191  1.9955 -1.3863
 1736SOL    HW216668   3.341   2.263  10.908  0.3080  0.2162 -2.1575
 1737SOL     OW16669   1.416   0.851  11.807  0.2929 -0.0229 -0.1726
 1737SOL    HW116670   1.458   0.766  11.814  1.3193  0.4422 -0.6898
 1737SOL    HW216671   1.384   0.832  11.719  0.3567 -3.8988  0.6617
 1738SOL     OW16672   1.249   1.596   9.356  0.5002  0.0727 -0.2212
 1738SOL    HW116673   1.311   1.537   9.399  0.0591  0.0752  0.4219
 1738SOL    HW216674   1.284   1.592   9.267 -1.6478  1.3042 -1.1305
 1739SOL     OW16675   4.152   1.386   1.448 -0.0308 -0.1235  0.0619
 1739SOL    HW116676   4.187   1.297   1.444 -0.2921 -0.1889 -0.7383
 1739SOL    HW216677   4.057   1.379   1.457  0.0183 -0.3680  0.3592
 1740SOL     OW16678   2.010   4.413   9.107  0.1189  0.2830  0.0642
 1740SOL    HW116679   2.021   4.491   9.052  1.9546 -0.7836 -1.0568
 1740SOL    HW216680   1.995   4.349   9.038  0.6609 -1.2371  1.3671
 1741SOL     OW16681   2.510   0.057   5.401  0.3387  0.3254 -0.8068
 1741SOL    HW116682   2.509   4.682   5.397 -3.0522  0.4527 -3.5148
 1741SOL    HW216683   2.597   0.082   5.431  0.4206  1.6268 -2.0771
 1742SOL     OW16684   1.638   2.689  13.831  0.0474  0.7951 -0.2209
 1742SOL    HW116685   1.712   2.747  13.816  0.4521  0.5343  0.7501
 1742SOL    HW216686   1.679   2.614  13.787 -0.7000 -1.0497  2.1974
 1743SOL     OW16687   3.618   0.296   8.305  0.3858 -0.0620 -0.0543
 1743SOL    HW116688   3.582   0.245   8.233  1.3278  0.3614 -0.8217
 1743SOL    HW216689   3.678   0.235   8.349  1.8520  0.5107 -1.2588
 1744SOL     OW16690   0.691   1.569   3.708  0.3166 -0.2826 -0.6319
 1744SOL    HW116691   0.712   1.623   3.784 -0.2555  0.0735 -0.7244
 1744SOL    HW216692   0.606   1.601   3.677  0.1468 -1.2843 -1.2244
 1745SOL     OW16693   4.571   0.104  15.515  0.3305 -0.2569 -0.4161
 1745SOL    HW116694   4.514   0.075  15.444 -1.6870  1.2839  0.5839
 1745SOL    HW216695   4.563   0.026  15.570  1.1290  1.0351  1.5116
 1746SOL     OW16696   3.352   2.495   2.000  0.2745  0.2565 -0.0826
 1746SOL    HW116697   3.294   2.419   2.003  2.1698 -1.1136  1.0690
 1746SOL    HW216698   3.407   2.480   2.076  0.0569 -2.2540 -0.4278
 1747SOL     OW16699   0.056   0.006  10.531 -0.3032 -0.3047 -0.3150
 1747SOL    HW116700   4.713   4.685  10.589  1.5050 -1.5932  0.7220
 1747SOL    HW216701   0.009   0.088  10.520  0.4368  0.2414  0.5748
 1748SOL     OW16702   1.332   3.087   8.170  0.0220 -0.0509 -0.3105
 1748SOL    HW116703   1.348   3.055   8.259 -1.1863 -0.4268 -0.2246
 1748SOL    HW216704   1.248   3.048   8.145 -0.9482  0.8659  1.5109
 1749SOL     OW16705   4.284   2.276  11.257  0.4688  0.3671 -0.0471
 1749SOL    HW116706   4.282   2.344  11.324 -0.3940 -0.7336  1.0485
 1749SOL    HW216707   4.357   2.297  11.199 -0.4874  2.1038 -0.6193
 1750SOL     OW16708   2.404   2.976   8.013  0.5685 -0.6814 -0.0807
 1750SOL    HW116709   2.355   3.056   8.033  2.6240  0.6267 -0.2583
 1750SOL    HW216710   2.474   2.972   8.078  0.2153 -0.8071  0.2890
 1751SOL     OW16711   0.326   1.701   4.685  0.1897  0.6805  0.2865
 1751SOL    HW116712   0.329   1.797   4.685 -0.1680  0.6923 -0.1406
 1751SOL    HW216713   0.331   1.691   4.780  1.8023  2.3847  0.3922
 1752SOL     OW16714   3.459   2.550   5.528  0.9861 -0.0660  0.1171
 1752SOL    HW116715   3.442   2.507   5.445  0.1603 -0.3929  0.4495
 1752SOL    HW216716   3.552   2.568   5.518  0.4159  1.4133 -2.4924
 1753SOL     OW16717   1.043   4.078   3.393 -0.0060 -0.2209 -0.1799
 1753SOL    HW116718   1.129   4.049   3.361  0.8475  0.2205  1.7524
 1753SOL    HW216719   0.990   3.999   3.381  1.0553 -1.2306  1.8195
 1754SOL     OW16720   0.191   3.603   5.699 -0.5220 -0.5684  0.2178
 1754SOL    HW116721   0.162   3.513   5.681 -1.4217 -0.1463 -0.4444
 1754SOL    HW216722   0.195   3.590   5.794  0.0546  0.3476  0.3136
 1755SOL     OW16723   0.511   0.567  10.204  0.7890  0.4598 -0.1938
 1755SOL    HW116724   0.600   0.534  10.220  1.4568  2.4869  0.1786
 1755SOL    HW216725   0.476   0.564  10.293  1.3364  3.1579  0.0933
 1756SOL     OW16726   3.722   1.558   8.409 -0.2861 -0.1773  0.0463
 1756SOL    HW116727   3.755   1.559   8.498 -1.6966  2.5415  0.5343
 1756SOL    HW216728   3.790   1.597   8.353  0.3448 -1.5451 -0.1383
 1757SOL     OW16729   0.760   2.148  10.173  0.0492  0.2784  0.0597
 1757SOL    HW116730   0.818   2.219  10.201 -0.0592 -0.7341  2.8158
 1757SOL    HW216731   0.717   2.200  10.105  0.9379  0.2742 -0.5064
 1758SOL     OW16732   1.937   2.966  11.263 -0.6646  0.3349  0.1775
 1758SOL    HW116733   1.857   2.916  11.249 -0.2463  0.1509 -1.6172
 1758SOL    HW216734   1.987   2.893  11.300 -2.8507 -1.2744 -0.0454
 1759SOL     OW16735   3.314   1.900   6.994 -0.2325  0.5764 -0.2325
 1759SOL    HW116736   3.346   1.887   7.083 -0.6050 -0.6476 -0.2798
 1759SOL    HW216737   3.225   1.868   7.009  0.6734 -1.4997  0.6600
 1760SOL     OW16738   1.929   1.162  14.239  0.3305  0.3248  0.1698
 1760SOL    HW116739   1.874   1.239  14.254  0.0826  0.5329 -1.7004
 1760SOL    HW216740   2.000   1.195  14.294  1.2758 -2.5689  0.6465
 1761SOL     OW16741   2.928   4.717   1.161 -0.1892 -0.5816  0.5697
 1761SOL    HW116742   2.881   4.653   1.215 -2.4342  2.1715  1.8476
 1761SOL    HW216743   2.990   4.655   1.123  0.0829  0.2886 -0.3932
 1762SOL     OW16744   0.866   1.122   3.670  0.0798 -0.1919  0.4287
 1762SOL    HW116745   0.881   1.128   3.576  2.7164  2.7065  1.0405
 1762SOL    HW216746   0.915   1.198   3.700 -1.2342  0.4650  0.9204
 1763SOL     OW16747   4.686   0.645  13.089  0.4609  0.5679  0.2489
 1763SOL    HW116748   4.623   0.701  13.043 -0.8914 -2.4352 -1.5257
 1763SOL    HW216749   4.686   0.565  13.036  0.7429 -1.4884  3.4082
 1764SOL     OW16750   0.894   0.710  17.679  0.0678 -0.8914 -0.0962
 1764SOL    HW116751   0.881   0.658   0.073  0.6514  0.3275  0.7948
 1764SOL    HW216752   0.922   0.789   0.039 -0.4067 -0.3193 -0.7993
 1765SOL     OW16753   0.907   0.282  17.634  0.2822 -0.5440  0.2593
 1765SOL    HW116754   0.849   0.335  17.578  1.3841  0.5259  0.1267
 1765SOL    HW216755   0.911   0.341   0.024 -1.3648 -1.5586  1.1269
 1766SOL     OW16756   1.134   1.775  10.547  0.3949 -0.2816  0.6543
 1766SOL    HW116757   1.218   1.763  10.503 -1.2233 -0.1012 -2.4882
 1766SOL    HW216758   1.074   1.772  10.473  1.8551 -1.7798 -0.4644
 1767SOL     OW16759   4.001   1.054   1.234 -0.3593  0.5560  0.4648
 1767SOL    HW116760   3.945   0.978   1.215  0.8417 -0.4925  1.1167
 1767SOL    HW216761   3.958   1.083   1.314  0.2490  2.0770  0.2258
 1768SOL     OW16762   2.318   0.480  16.114 -0.1426  0.1954 -0.4735
 1768SOL    HW116763   2.368   0.532  16.177 -0.9204 -1.8380  1.8220
 1768SOL    HW216764   2.388   0.447  16.059 -0.4458  3.0675 -2.5774
 1769SOL     OW16765   3.167   1.144   8.360  0.3804  0.2717 -0.3064
 1769SOL    HW116766   3.115   1.106   8.289 -0.7188  2.0020 -0.4297
 1769SOL    HW216767   3.175   1.237   8.340  2.4850  0.4430  1.3593
 1770SOL     OW16768   4.571   0.485   0.085  0.4667 -0.1525  0.2764
 1770SOL    HW116769   4.606   0.508  17.684  0.9147  1.7920  0.9785
 1770SOL    HW216770   4.488   0.532   0.088  0.4459 -0.1565 -0.2362
 1771SOL     OW16771   0.951   2.105   2.890 -0.2060  0.7343 -0.0045
 1771SOL    HW116772   1.000   2.182   2.861  0.2929  0.5739  0.4252
 1771SOL    HW216773   1.006   2.057   2.952 -0.7448 -0.9332 -0.8141
 1772SOL     OW16774   2.400   3.619   9.194 -0.0625 -0.1156  0.2797
 1772SOL    HW116775   2.445   3.641   9.113 -1.1383  0.2715 -0.2155
 1772SOL    HW216776   2.417   3.525   9.186  0.5352 -0.0515  0.7814
 1773SOL     OW16777   2.545   3.356   9.187  0.2113 -0.3590 -0.0499
 1773SOL    HW116778   2.602   3.281   9.202  1.3341  0.8207  1.6872
 1773SOL    HW216779   2.579   3.429   9.240  0.9993 -0.7773  0.0141
 1774SOL     OW16780   0.539   4.251   0.612  0.4728  0.8032 -0.4311
 1774SOL    HW116781   0.584   4.178   0.568  1.2043  1.8907 -1.4818
 1774SOL    HW216782   0.554   4.320   0.547  0.5883  0.3115 -0.9281
 1775SOL     OW16783   0.413   1.399   8.864  0.3490  0.3614  0.3559
 1775SOL    HW116784   0.495   1.365   8.900  0.5533  1.4236  0.8881
 1775SOL    HW216785   0.371   1.321   8.829  1.3833 -0.1595  0.2542
 1776SOL     OW16786   0.486   2.910   2.827  0.6918 -0.2730 -0.1712
 1776SOL    HW116787   0.435   2.880   2.902  1.6624 -0.6576  0.3419
 1776SOL    HW216788   0.562   2.949   2.871 -1.9239  2.4347  1.9584
 1777SOL     OW16789   0.133   0.474   7.994  0.1326  0.0280  0.0960
 1777SOL    HW116790   0.102   0.460   8.084  1.7450  2.4893  1.0357
 1777SOL    HW216791   0.126   0.388   7.954  1.0894 -0.3982  0.8412
 1778SOL     OW16792   1.030   1.085  10.435  0.0317  0.3776  0.3786
 1778SOL    HW116793   0.966   1.077  10.506  1.8647 -3.5804  1.6386
 1778SOL    HW216794   1.072   1.163  10.470  1.4484 -0.1602 -0.1196
 1779SOL     OW16795   0.377   0.483   6.096 -0.2491  0.3227 -0.4979
 1779SOL    HW116796   0.314   0.476   6.024 -1.0748 -0.2283  0.2829
 1779SOL    HW216797   0.443   0.519   6.037 -0.5711  1.2061 -0.3185
 1780SOL     OW16798   3.455   1.725  15.625 -0.3251  0.1559  0.7707
 1780SOL    HW116799   3.537   1.743  15.671 -0.8247 -0.3478  1.8613
 1780SOL    HW216800   3.433   1.812  15.592 -0.3953 -0.4327 -0.7436
 1781SOL     OW16801   0.226   1.443   3.555 -0.1973 -0.2533 -0.4207
 1781SOL    HW116802   0.308   1.429   3.509  0.9840  1.5154  1.1438
 1781SOL    HW216803   0.174   1.364   3.539  0.7132 -0.1828 -3.6108
 1782SOL     OW16804   3.076   2.232  13.057  0.5753  0.1744  0.5094
 1782SOL    HW116805   3.079   2.228  13.153 -0.5643 -1.6211  0.4779
 1782SOL    HW216806   3.096   2.140  13.042 -0.1157  0.2096 -0.6004
 1783SOL     OW16807   2.634   1.782   6.418 -0.1559 -0.6666  0.2287
 1783SOL    HW116808   2.541   1.804   6.421  0.0301 -0.0600  1.3799
 1783SOL    HW216809   2.660   1.774   6.326  1.2204  1.2717  0.4554
 1784SOL     OW16810   0.669   0.881   7.423  0.0968  0.1599  0.1703
 1784SOL    HW116811   0.654   0.809   7.362 -3.3246  0.9170  0.1298
 1784SOL    HW216812   0.717   0.937   7.361 -0.9854  1.4446  0.5110
 1785SOL     OW16813   1.821   0.758  17.603  0.5994  0.4685 -0.1440
 1785SOL    HW116814   1.833   0.846  17.567 -0.2009  0.1999 -1.0821
 1785SOL    HW216815   1.842   0.773   0.010  1.5116 -2.7426  0.1823
 1786SOL     OW16816   1.443   1.964  17.065 -0.0744 -0.2204  0.3657
 1786SOL    HW116817   1.442   1.928  17.153  1.3196 -0.2272  0.3881
 1786SOL    HW216818   1.377   2.033  17.072  1.3142  1.4030 -2.3973
 1787SOL     OW16819   1.820   1.617   2.414 -0.5277 -0.8797 -0.6644
 1787SOL    HW116820   1.885   1.670   2.459 -0.2830 -2.2652  0.6057
 1787SOL    HW216821   1.776   1.671   2.347  0.0726 -3.9829 -3.5450
 1788SOL     OW16822   2.248   3.303   8.749 -0.6140  0.1291  0.4648
 1788SOL    HW116823   2.188   3.345   8.811 -0.1497 -0.9546  1.6505
 1788SOL    HW216824   2.187   3.280   8.679 -0.1769 -0.6188  0.3399
 1789SOL     OW16825   0.740   0.715   0.496  0.0391  0.2705  0.0416
 1789SOL    HW116826   0.831   0.684   0.501 -0.1218 -0.0957  0.7139
 1789SOL    HW216827   0.761   0.805   0.522  0.5498 -0.4039  2.0215
 1790SOL     OW16828   2.340   0.220   9.939  0.0576 -0.0456  0.0277
 1790SOL    HW116829   2.402   0.265   9.996  2.0324 -2.3171 -0.2994
 1790SOL    HW216830   2.305   0.148   9.991 -0.6932 -0.9760 -1.7583
 1791SOL     OW16831   4.046   3.708   6.256  0.5991  0.3255 -0.2824
 1791SOL    HW116832   3.995   3.682   6.333 -1.4515  0.6397 -1.5148
 1791SOL    HW216833   3.989   3.674   6.187 -1.4445  2.9140  0.1002
 1792SOL     OW16834   2.315   1.580   2.558  0.0515  0.3217  0.0077
 1792SOL    HW116835   2.299   1.508   2.496 -0.6371  1.0549 -0.6704
 1792SOL    HW216836   2.410   1.571   2.557 -0.1896 -2.3611  2.5265
 1793SOL     OW16837   3.751   3.928   8.861  0.2024  0.8213 -0.1921
 1793SOL    HW116838   3.816   3.992   8.830  0.8828  1.4320  2.5322
 1793SOL    HW216839   3.674   3.977   8.833 -1.5435 -2.2831 -0.8483
 1794SOL     OW16840   0.812   3.367  14.496  0.3805  0.2024  0.0995
 1794SOL    HW116841   0.895   3.325  14.473 -0.1370 -1.4225  1.1605
 1794SOL    HW216842   0.848   3.433  14.556  0.3755  0.1322  0.1796
 1795SOL     OW16843   2.913   3.848   6.082  0.0752 -0.0533  0.3668
 1795SOL    HW116844   3.005   3.873   6.090 -0.4668  1.9379  0.5141
 1795SOL    HW216845   2.888   3.936   6.054 -2.6261 -0.0061  2.9794
 1796SOL     OW16846   4.241   4.523   5.897 -0.3938  0.2380 -0.1927
 1796SOL    HW116847   4.169   4.477   5.941 -0.5056 -0.8648 -1.5409
 1796SOL    HW216848   4.231   4.613   5.929  2.0155  0.3073  0.3270
 1797SOL     OW16849   1.780   3.723  14.526 -0.1256  0.2202  0.1850
 1797SOL    HW116850   1.809   3.701  14.615 -1.3078  1.0122  0.7703
 1797SOL    HW216851   1.866   3.740  14.490 -0.0097  0.3013  0.4986
 1798SOL     OW16852   4.220   3.460   6.874 -0.2353 -0.4186  0.2596
 1798SOL    HW116853   4.224   3.514   6.795  0.8408  0.3008  0.8077
 1798SOL    HW216854   4.250   3.374   6.846  0.0888 -1.3311  3.4317
 1799SOL     OW16855   3.471   4.432  17.207  0.5834  0.0239  0.7546
 1799SOL    HW116856   3.551   4.436  17.259  1.4774  1.0644 -0.7018
 1799SOL    HW216857   3.425   4.513  17.229 -1.3026 -0.2472 -2.1930
 1800SOL     OW16858   1.705   1.015   8.761 -0.8197 -0.2298 -0.5317
 1800SOL    HW116859   1.729   0.979   8.676 -1.4600 -3.0061  0.4887
 1800SOL    HW216860   1.768   1.088   8.764 -1.5690  0.3660  0.9268
 1801SOL     OW16861   4.259   3.143   2.661 -0.1031 -0.1707  0.1685
 1801SOL    HW116862   4.195   3.213   2.656  1.4455  1.1416 -1.3975
 1801SOL    HW216863   4.342   3.190   2.671  0.1173 -0.0444 -2.3387
 1802SOL     OW16864   1.595   1.729   1.893  0.0695 -0.1062  0.7123
 1802SOL    HW116865   1.529   1.680   1.842 -1.4754  0.7354  1.8871
 1802SOL    HW216866   1.575   1.814   1.855  2.3667 -0.0880 -0.4081
 1803SOL     OW16867   1.988   2.733  12.349 -0.2112  1.1944 -0.2197
 1803SOL    HW116868   1.898   2.755  12.325  0.0077  2.6787  0.3248
 1803SOL    HW216869   1.971   2.649  12.392  1.4912  1.4237  0.8772
 1804SOL     OW16870   4.306   1.849   8.510  0.0322  0.3878 -0.7276
 1804SOL    HW116871   4.237   1.887   8.455  0.0486  0.3423 -0.7780
 1804SOL    HW216872   4.379   1.827   8.453  1.1635 -0.9548  1.2520
 1805SOL     OW16873   3.021   3.323   3.557 -0.2173 -0.5136 -0.3005
 1805SOL    HW116874   2.980   3.237   3.559 -1.0808 -0.0793  1.0158
 1805SOL    HW216875   3.103   3.305   3.603  0.2964 -0.6033 -1.2651
 1806SOL     OW16876   1.458   1.157   8.410  0.0966  0.3236 -0.0045
 1806SOL    HW116877   1.439   1.165   8.503 -0.8721  0.9481 -0.2612
 1806SOL    HW216878   1.553   1.169   8.406  0.1640 -0.6671 -1.7162
 1807SOL     OW16879   0.188   2.135   3.717  0.1266  0.2724  0.2603
 1807SOL    HW116880   0.252   2.194   3.756  1.1672  0.3367 -1.5568
 1807SOL    HW216881   0.107   2.143   3.767  0.1128  2.7534 -0.1572
 1808SOL     OW16882   4.686   1.552   1.842 -0.1871  0.1444 -0.0557
 1808SOL    HW116883   4.634   1.630   1.863  1.5648  1.5801 -1.0082
 1808SOL    HW216884   0.054   1.583   1.825  0.1028 -0.5149  0.2784
 1809SOL     OW16885   4.328   1.831  13.201  0.9339 -0.0633  0.2388
 1809SOL    HW116886   4.268   1.846  13.129  1.9676 -0.1443 -0.6408
 1809SOL    HW216887   4.350   1.740  13.183 -1.8663 -0.7205  0.2017
 1810SOL     OW16888   4.108   2.485   5.032 -0.2255  0.1640  0.6694
 1810SOL    HW116889   4.182   2.440   4.992  0.1196  0.6352  0.7824
 1810SOL    HW216890   4.060   2.519   4.957 -0.6213 -0.6990  0.5296
 1811SOL     OW16891   1.306   0.966  10.333  0.1794 -0.0953  0.2721
 1811SOL    HW116892   1.231   1.008  10.375  1.4165  4.3944 -1.9574
 1811SOL    HW216893   1.282   0.926  10.249 -0.8153 -0.0474  0.5332
 1812SOL     OW16894   2.816   0.895  10.209  1.0334  0.1249  0.0076
 1812SOL    HW116895   2.834   0.805  10.238  1.6967 -0.0098 -0.8098
 1812SOL    HW216896   2.777   0.920  10.293 -0.7722 -0.6780 -0.5888
 1813SOL     OW16897   0.186   0.041   8.059 -0.2046 -0.0770  0.4986
 1813SOL    HW116898   0.161   0.105   8.126  2.6929  0.5777  0.9622
 1813SOL    HW216899   0.198   0.102   7.986 -1.7458 -0.2630  0.0817
 1814SOL     OW16900   4.462   1.225  13.719  0.5976 -0.1495  0.5689
 1814SOL    HW116901   4.512   1.261  13.645 -0.9619  1.9792  0.5672
 1814SOL    HW216902   4.504   1.142  13.739 -0.7709 -0.6711  1.2505
 1815SOL     OW16903   2.645   4.057   4.765 -0.5234  0.4295  0.1685
 1815SOL    HW116904   2.566   4.086   4.812 -2.7390  0.9451 -3.9010
 1815SOL    HW216905   2.698   4.134   4.746 -1.5097  0.9086 -0.6428
 1816SOL     OW16906   3.296   1.784   1.185  0.2294  0.0040 -0.7589
 1816SOL    HW116907   3.249   1.864   1.207 -1.2975 -1.5013  1.4412
 1816SOL    HW216908   3.227   1.719   1.174 -0.1404 -0.0755  2.2289
 1817SOL     OW16909   1.248   1.638   8.636 -0.1864  0.1026 -0.3424
 1817SOL    HW116910   1.274   1.565   8.692 -0.5004  1.8766  2.1310
 1817SOL    HW216911   1.190   1.673   8.704 -0.5784 -0.9054 -0.1649
 1818SOL     OW16912   3.411   3.124   6.077  0.1168 -0.1519 -0.2533
 1818SOL    HW116913   3.334   3.124   6.019  0.5325  1.5763 -0.8209
 1818SOL    HW216914   3.467   3.191   6.037  1.2995 -1.3365 -0.5769
 1819SOL     OW16915   1.273   1.748  17.074  0.5996  0.1072  0.1417
 1819SOL    HW116916   1.321   1.798  17.008  0.0671  1.8044  1.0355
 1819SOL    HW216917   1.336   1.735  17.145  0.0929 -0.9357  0.4042
 1820SOL     OW16918   2.627   1.735  11.294 -0.5181  0.8922 -0.4673
 1820SOL    HW116919   2.579   1.705  11.371  1.8134  0.1207  0.6821
 1820SOL    HW216920   2.591   1.821  11.272 -0.2729  1.5785  1.9074
 1821SOL     OW16921   1.339   2.507  11.950  0.2676  0.4725  0.6444
 1821SOL    HW116922   1.336   2.420  11.910 -1.8957 -0.2342  2.3645
 1821SOL    HW216923   1.330   2.554  11.867 -1.4446  0.3507  0.7578
 1822SOL     OW16924   0.188   1.396   8.203 -0.1936 -0.4515 -0.7286
 1822SOL    HW116925   0.105   1.425   8.239  1.3643  0.7968  1.8669
 1822SOL    HW216926   0.236   1.366   8.281  1.1143  1.6457 -0.7411
 1823SOL     OW16927   4.703   1.989   3.578 -0.1031 -0.1875  0.8027
 1823SOL    HW116928   0.056   2.032   3.621 -1.0366  0.8955  1.3118
 1823SOL    HW216929   4.654   1.952   3.651 -0.6381 -3.4562 -1.2334
 1824SOL     OW16930   3.882   1.002   5.753  0.8858  0.1867  0.5665
 1824SOL    HW116931   3.843   1.086   5.776  0.3337 -0.0464  0.4879
 1824SOL    HW216932   3.972   1.022   5.729  0.6484  1.7641  1.0202
 1825SOL     OW16933   3.340   3.970   6.297  0.0545 -0.0519  0.0627
 1825SOL    HW116934   3.430   3.953   6.271  0.3475  0.5125  0.7177
 1825SOL    HW216935   3.344   4.049   6.350 -1.3832  0.7218 -0.9564
 1826SOL     OW16936   3.640   0.172   9.562  0.8111  0.0631 -0.2323
 1826SOL    HW116937   3.626   0.133   9.476  1.6555  0.7483 -0.6860
 1826SOL    HW216938   3.717   0.124   9.592  1.1460  0.2203 -0.8392
 1827SOL     OW16939   0.919   1.176   6.613  0.1944 -0.1717 -0.5427
 1827SOL    HW116940   0.947   1.185   6.704 -1.1931 -3.6123  0.2066
 1827SOL    HW216941   0.891   1.085   6.609  1.3820 -0.4336 -2.8273
 1828SOL     OW16942   0.268   4.523   4.230  0.1352 -0.5040 -0.2456
 1828SOL    HW116943   0.348   4.562   4.266 -1.3425  0.8535  1.5742
 1828SOL    HW216944   0.195   4.578   4.258 -0.1769 -1.0746  0.0725
 1829SOL     OW16945   0.575   2.632   1.967 -0.2534  0.1302 -0.3579
 1829SOL    HW116946   0.538   2.678   1.891 -1.1100 -2.0986 -1.3131
 1829SOL    HW216947   0.500   2.577   1.991 -0.1872  0.1158 -0.1842
 1830SOL     OW16948   1.111   0.410   8.735 -0.0563 -0.1868  0.7710
 1830SOL    HW116949   1.037   0.467   8.714 -1.6860 -1.6085  2.5377
 1830SOL    HW216950   1.087   0.333   8.684  0.9432 -0.3773  0.5884
 1831SOL     OW16951   2.846   1.912   7.646 -0.5455 -0.7379 -0.4758
 1831SOL    HW116952   2.755   1.920   7.675 -0.5211 -2.2514  0.0118
 1831SOL    HW216953   2.891   1.989   7.683 -0.1249 -0.1300 -2.2561
 1832SOL     OW16954   4.308   1.776   8.076 -0.0459 -0.5873 -0.2313
 1832SOL    HW116955   4.217   1.762   8.051  0.4843 -0.0921 -2.3977
 1832SOL    HW216956   4.355   1.713   8.021 -0.6298 -2.9604  1.9911
 1833SOL     OW16957   0.759   0.763   1.840 -0.4444  0.5164  0.2983
 1833SOL    HW116958   0.682   0.723   1.800 -1.0735  1.1653  0.8603
 1833SOL    HW216959   0.733   0.855   1.838 -1.0026  0.3633  0.8903
 1834SOL     OW16960   4.041   4.511  11.838 -0.1098 -0.0076 -0.0526
 1834SOL    HW116961   4.105   4.541  11.774 -0.4354  1.3001  0.2465
 1834SOL    HW216962   4.099   4.483  11.909  0.8592  0.2298 -0.7482
 1835SOL     OW16963   0.709   4.152  13.316  0.5439 -0.0927 -0.1762
 1835SOL    HW116964   0.802   4.175  13.314  0.9853 -1.8390  0.2327
 1835SOL    HW216965   0.701   4.132  13.410  0.9276  0.5682 -0.0058
 1836SOL     OW16966   0.367   4.562   2.541 -0.3560 -0.5386 -0.3973
 1836SOL    HW116967   0.411   4.478   2.555  1.0555  0.3896  0.7460
 1836SOL    HW216968   0.441   4.619   2.523  1.0578 -1.8142  1.4637
 1837SOL     OW16969   1.894   0.722   5.981  0.2285 -0.5118 -0.6137
 1837SOL    HW116970   1.839   0.748   5.907 -0.2178  0.2900  0.0014
 1837SOL    HW216971   1.978   0.697   5.944  0.5138 -0.0324 -0.3009
 1838SOL     OW16972   4.467   0.128  10.928  0.2882 -0.0362  0.2034
 1838SOL    HW116973   4.550   0.096  10.893  1.0015  0.3768  1.5354
 1838SOL    HW216974   4.416   0.057  10.888 -0.4684  0.5177  0.1941
 1839SOL     OW16975   1.610   4.208   5.459 -0.5749  0.4405 -0.1390
 1839SOL    HW116976   1.537   4.161   5.500 -1.5664  0.4415 -1.8874
 1839SOL    HW216977   1.686   4.179   5.509 -0.4296 -1.0100 -1.2084
 1840SOL     OW16978   1.686   4.089  17.424  0.8739  0.2755  0.1310
 1840SOL    HW116979   1.664   3.996  17.426  2.7171 -0.1539  0.0784
 1840SOL    HW216980   1.684   4.093  17.329 -1.8789 -1.5343  0.0907
 1841SOL     OW16981   0.800   1.707   6.983 -0.0553 -0.1317  0.2423
 1841SOL    HW116982   0.878   1.653   6.987  0.4077  0.5314  0.1524
 1841SOL    HW216983   0.832   1.765   6.914  0.6737 -2.0764 -1.0504
 1842SOL     OW16984   3.696   1.487   8.709  0.2809  0.0980 -0.0023
 1842SOL    HW116985   3.635   1.548   8.752 -1.0481  0.4338 -2.3510
 1842SOL    HW216986   3.748   1.439   8.773  1.4052  1.1086 -0.1554
 1843SOL     OW16987   0.662   3.237  14.743  0.2368 -0.4083 -0.4202
 1843SOL    HW116988   0.663   3.154  14.696  2.0178 -0.0546 -0.9859
 1843SOL    HW216989   0.626   3.282  14.666 -0.5677  1.0694  0.8330
 1844SOL     OW16990   4.192   2.628  16.311 -0.4245  0.2304 -0.0775
 1844SOL    HW116991   4.152   2.677  16.240 -0.3363  2.1378  1.1911
 1844SOL    HW216992   4.151   2.659  16.392 -1.1270  0.9545 -0.7164
 1845SOL     OW16993   2.141   2.529   4.587 -0.1007  0.1181  0.3498
 1845SOL    HW116994   2.135   2.454   4.645  0.3648  0.0501  0.3094
 1845SOL    HW216995   2.227   2.555   4.620 -0.6990  1.7648  0.6129
 1846SOL     OW16996   3.733   1.987   2.586  0.0693  0.1245  0.3966
 1846SOL    HW116997   3.673   1.981   2.661  0.5038  0.0600  0.7406
 1846SOL    HW216998   3.819   2.002   2.625  0.6358 -4.0114  0.6904
 1847SOL     OW16999   4.708   0.626   3.912 -0.1927 -0.3629  0.5538
 1847SOL    HW117000   0.040   0.547   3.912 -1.4956 -1.2276 -0.2359
 1847SOL    HW217001   0.047   0.682   3.963 -0.7166 -0.4698  1.2888
 1848SOL     OW17002   4.272   4.210   2.485 -0.8013 -0.1870 -0.0308
 1848SOL    HW117003   4.321   4.164   2.553  0.2150 -0.0956 -0.6884
 1848SOL    HW217004   4.185   4.213   2.524 -0.3720  4.1553  0.4858
 1849SOL     OW17005   0.922   1.161  11.159 -0.6364 -0.6213  0.3856
 1849SOL    HW117006   0.978   1.086  11.141 -3.1176 -1.6920 -2.9033
 1849SOL    HW217007   0.976   1.218  11.213 -1.1726 -0.1479  0.4277
 1850SOL     OW17008   3.469   1.813   2.209  0.0471 -0.3532 -0.4409
 1850SOL    HW117009   3.451   1.726   2.172  0.8705 -1.5962  2.1185
 1850SOL    HW217010   3.527   1.846   2.140 -1.8738 -0.5010 -2.1490
 1851SOL     OW17011   4.522   0.370   3.041 -0.2369  0.3094  0.2771
 1851SOL    HW117012   4.529   0.415   3.125  3.9581  0.8484 -0.3507
 1851SOL    HW217013   4.439   0.404   3.008 -0.9377 -2.1505 -0.4307
 1852SOL     OW17014   1.590   4.556   4.095 -0.3569  0.4842 -0.6765
 1852SOL    HW117015   1.635   4.584   4.174 -1.2324  1.4954 -0.5383
 1852SOL    HW217016   1.503   4.562   4.136  0.2614 -1.7096  0.9390
 1853SOL     OW17017   4.293   4.553   0.745  0.0833  0.8120 -0.0351
 1853SOL    HW117018   4.373   4.599   0.719 -0.8393  0.3605 -3.6248
 1853SOL    HW217019   4.277   4.590   0.832 -1.9385  1.4427 -0.6730
 1854SOL     OW17020   3.805   1.979   6.950  0.6956 -0.5088 -0.1702
 1854SOL    HW117021   3.895   2.001   6.925  0.8771 -0.5937  0.4157
 1854SOL    HW217022   3.760   1.952   6.870 -1.1693  2.7643 -0.2593
 1855SOL     OW17023   1.440   1.896   3.301  0.1318 -0.4377 -0.0099
 1855SOL    HW117024   1.416   1.832   3.234  0.9649  0.6331 -1.3265
 1855SOL    HW217025   1.443   1.842   3.380  0.6937  1.8291  1.5273
 1856SOL     OW17026   3.435   2.254  16.994  0.6018 -0.2116 -0.0082
 1856SOL    HW117027   3.472   2.272  17.080 -2.9930  0.0151  1.5158
 1856SOL    HW217028   3.346   2.223  17.012  0.3426  0.8687  0.5368
 1857SOL     OW17029   0.361   1.516   3.857  0.1904 -0.0839 -0.4676
 1857SOL    HW117030   0.311   1.442   3.822 -4.1176  2.1223  1.0679
 1857SOL    HW217031   0.395   1.558   3.778  0.0707 -0.8537 -0.9334
 1858SOL     OW17032   0.889   0.950   0.594 -0.0764  0.2507 -0.2294
 1858SOL    HW117033   0.932   1.034   0.576  0.2971  0.5559  2.1814
 1858SOL    HW217034   0.875   0.961   0.688 -0.7628 -3.3725  0.0657
 1859SOL     OW17035   3.250   0.869   3.123 -0.0899  0.8855 -0.8173
 1859SOL    HW117036   3.236   0.955   3.163  2.6031  1.2079 -0.5663
 1859SOL    HW217037   3.345   0.863   3.113 -0.1010 -2.6477  0.9564
 1860SOL     OW17038   3.654   4.662  15.537 -0.0089  0.6135  0.8003
 1860SOL    HW117039   3.628   4.674  15.628  0.6107 -1.8459  1.2929
 1860SOL    HW217040   3.736   4.710  15.528  0.1168  0.1083 -0.8265
 1861SOL     OW17041   3.096   3.118   0.139  0.1115 -0.3275 -0.5304
 1861SOL    HW117042   3.170   3.175   0.156 -0.6306  0.3857  0.3283
 1861SOL    HW217043   3.075   3.091   0.229  1.8178 -2.1126 -0.6553
 1862SOL     OW17044   3.862   0.767   7.332 -0.4810 -0.2627 -0.4688
 1862SOL    HW117045   3.853   0.703   7.402 -1.4362  1.8211  1.2822
 1862SOL    HW217046   3.957   0.783   7.332 -0.7457  1.3637 -0.8215
 1863SOL     OW17047   1.156   3.153   5.408 -0.8420 -0.4160  0.1038
 1863SOL    HW117048   1.134   3.246   5.405  2.9947  0.5698  1.4308
 1863SOL    HW217049   1.218   3.149   5.335  1.6372  2.2672  2.0747
 1864SOL     OW17050   2.422   4.406  10.954  0.0762 -0.2794  0.3769
 1864SOL    HW117051   2.390   4.393  10.865  0.8181  1.5730 -0.1403
 1864SOL    HW217052   2.344   4.395  11.009 -1.5685 -1.5295 -2.1952
 1865SOL     OW17053   1.118   3.354   6.795 -0.7302  0.3758  0.0520
 1865SOL    HW117054   1.117   3.400   6.879 -1.3459  0.3010  0.0918
 1865SOL    HW217055   1.189   3.292   6.810 -1.0188  0.0858  0.2167
 1866SOL     OW17056   4.179   3.630  11.492  0.3566 -0.1442  0.7566
 1866SOL    HW117057   4.173   3.569  11.565 -2.0074 -0.7173  0.0633
 1866SOL    HW217058   4.142   3.585  11.416 -0.0171  2.6319 -0.6897
 1867SOL     OW17059   3.130   2.835   6.603  0.1812  0.4626  0.8007
 1867SOL    HW117060   3.041   2.860   6.630 -0.2586 -0.2778  0.0174
 1867SOL    HW217061   3.171   2.834   6.690 -0.0072 -0.9310  0.8665
 1868SOL     OW17062   2.013   2.987  17.012 -0.0169  0.2093 -0.1875
 1868SOL    HW117063   2.011   2.974  17.107 -1.4703  0.5122 -0.1811
 1868SOL    HW217064   2.089   3.042  16.991 -0.5354  0.7390 -0.6298
 1869SOL     OW17065   2.035   4.413   8.431 -0.0170 -0.0827  0.1439
 1869SOL    HW117066   2.128   4.408   8.455  0.1611 -1.0910 -0.7880
 1869SOL    HW217067   1.999   4.332   8.467 -1.7846  0.6745  0.0714
 1870SOL     OW17068   0.257   0.334   2.654 -0.1358  0.3605  0.0699
 1870SOL    HW117069   0.324   0.371   2.712  0.5192  1.0526 -1.1157
 1870SOL    HW217070   0.225   0.261   2.708  0.4919 -1.7689 -2.4180
 1871SOL     OW17071   1.294   0.701   8.696 -0.0772 -0.4269 -0.7060
 1871SOL    HW117072   1.376   0.746   8.674 -2.3511  3.2961 -1.5636
 1871SOL    HW217073   1.273   0.744   8.779 -1.3104 -1.7209 -0.3442
 1872SOL     OW17074   1.376   1.543   7.791  0.4482  0.1603 -0.2175
 1872SOL    HW117075   1.423   1.463   7.814 -1.5179 -0.8393  0.2845
 1872SOL    HW217076   1.441   1.612   7.781 -0.1075  0.7264  0.1028
 1873SOL     OW17077   4.349   2.052   2.435  0.6735  0.3838 -0.5086
 1873SOL    HW117078   4.416   1.989   2.463  2.3771  2.3570 -0.1620
 1873SOL    HW217079   4.307   2.062   2.520 -0.8875 -1.0706 -1.0895
 1874SOL     OW17080   0.323   1.702   2.696 -0.6637  0.3173 -0.1304
 1874SOL    HW117081   0.406   1.728   2.735 -0.3577 -0.9000  0.0140
 1874SOL    HW217082   0.322   1.612   2.728 -0.2535  0.7123  1.0172
 1875SOL     OW17083   4.630   1.441   7.979  0.3599  0.0021  0.4147
 1875SOL    HW117084   4.557   1.499   7.960  0.1108 -0.8545 -1.2419
 1875SOL    HW217085   4.610   1.407   8.066  1.7352 -0.0970  0.6928
 1876SOL     OW17086   1.503   1.528   9.843 -0.0916  0.7615 -0.2430
 1876SOL    HW117087   1.466   1.465   9.905  1.1004  2.6393  2.3898
 1876SOL    HW217088   1.555   1.585   9.900 -1.7921  2.0290  0.0343
 1877SOL     OW17089   4.295   1.656   9.213  0.0316  0.5414 -0.5828
 1877SOL    HW117090   4.363   1.723   9.209 -0.6043  1.2278  0.1152
 1877SOL    HW217091   4.334   1.584   9.262  0.1673  0.5524 -0.6751
 1878SOL     OW17092   1.895   1.496   4.155 -0.0817 -0.2628  0.3044
 1878SOL    HW117093   1.850   1.470   4.075  0.9384  0.2158 -0.4310
 1878SOL    HW217094   1.833   1.486   4.228  1.0795 -2.2264  1.0281
 1879SOL     OW17095   1.260   0.656  10.812 -0.0471  0.2159 -0.0316
 1879SOL    HW117096   1.212   0.738  10.814  0.4592  0.4679  2.6516
 1879SOL    HW217097   1.291   0.649  10.722 -0.5190 -1.2508 -0.0922
 1880SOL     OW17098   4.277   3.441   4.364 -0.3630  0.5125  0.4265
 1880SOL    HW117099   4.327   3.486   4.295  0.4033 -1.2620 -0.1713
 1880SOL    HW217100   4.262   3.508   4.431 -0.3903 -0.8002  1.7164
 1881SOL     OW17101   2.939   4.714  15.199 -0.1410 -0.0194 -0.4838
 1881SOL    HW117102   2.846   4.713  15.175 -0.3726  0.1873  0.4274
 1881SOL    HW217103   2.983   4.680  15.121  0.4947  0.0315 -0.1455
 1882SOL     OW17104   0.616   1.105   3.389  0.1932  0.5636 -0.4228
 1882SOL    HW117105   0.554   1.107   3.462  1.8226 -0.6672  0.9959
 1882SOL    HW217106   0.559   1.119   3.313 -2.3445 -1.3948  1.1461
 1883SOL     OW17107   2.712   1.012   3.432 -0.6367 -0.2065 -0.0183
 1883SOL    HW117108   2.682   1.102   3.417 -1.9062 -0.4214  1.1958
 1883SOL    HW217109   2.633   0.969   3.400 -0.1404 -0.8321 -0.4168
 1884SOL     OW17110   3.146   3.990   5.835 -0.3851 -0.5913 -0.0755
 1884SOL    HW117111   3.140   3.915   5.893  1.3741 -0.3279  0.4392
 1884SOL    HW217112   3.223   4.034   5.871 -1.5189  0.8971  0.5545
 1885SOL     OW17113   1.814   0.596   3.269 -0.5251  0.2848  0.4373
 1885SOL    HW117114   1.866   0.637   3.338  0.0996 -2.7886  1.7869
 1885SOL    HW217115   1.871   0.605   3.192 -1.1858  2.3334  0.1945
 1886SOL     OW17116   3.394   0.394  15.945  0.6079 -0.1938  0.4540
 1886SOL    HW117117   3.460   0.463  15.943 -1.8712  2.0800 -2.5244
 1886SOL    HW217118   3.316   0.448  15.937  2.5435  2.6012  0.1481
 1887SOL     OW17119   4.666   4.063   2.140  0.0161  0.0718  0.8559
 1887SOL    HW117120   4.610   4.034   2.211  1.6665 -0.6827  1.8311
 1887SOL    HW217121   4.619   4.145   2.122  0.9122  0.4132  0.0517
 1888SOL     OW17122   2.384   1.877   6.441 -0.0208 -0.0441  0.4923
 1888SOL    HW117123   2.307   1.934   6.436  0.2769  0.2413 -0.8161
 1888SOL    HW217124   2.430   1.918   6.513  0.2285  0.3635  0.1005
 1889SOL     OW17125   3.723   0.445   8.620  0.2417  0.4850  0.5359
 1889SOL    HW117126   3.747   0.365   8.572 -2.2056 -1.1551  2.0074
 1889SOL    HW217127   3.804   0.484   8.653 -1.6375  1.4773  3.9067
 1890SOL     OW17128   1.448   0.738  14.913  0.5158 -0.1384  0.2990
 1890SOL    HW117129   1.488   0.822  14.893  1.9037 -0.5496  1.3821
 1890SOL    HW217130   1.456   0.729  15.008 -0.1299  0.2396  0.3929
 1891SOL     OW17131   4.423   0.682   7.785  0.1685 -0.0055 -0.0627
 1891SOL    HW117132   4.499   0.692   7.728 -0.1883  2.6628 -0.0776
 1891SOL    HW217133   4.466   0.694   7.869 -0.8163  1.5125  0.2283
 1892SOL     OW17134   1.950   1.625  16.719 -0.6669  0.1511 -0.0049
 1892SOL    HW117135   2.004   1.687  16.671  2.2831 -1.1238  1.6650
 1892SOL    HW217136   1.868   1.674  16.713  0.0833  1.4934  0.7146
 1893SOL     OW17137   2.482   2.267   6.869 -0.0254  0.4250 -0.0417
 1893SOL    HW117138   2.525   2.271   6.954 -0.6039  1.3677  0.2085
 1893SOL    HW217139   2.562   2.274   6.817  1.2530  0.4989  1.9704
 1894SOL     OW17140   3.771   2.360  17.051 -0.0174  0.0401 -0.4939
 1894SOL    HW117141   3.835   2.367  17.121  0.3814 -0.4758 -0.8059
 1894SOL    HW217142   3.721   2.281  17.073 -0.8109  0.5888 -0.3126
 1895SOL     OW17143   2.937   1.031  12.130 -0.3313 -0.1975 -0.3559
 1895SOL    HW117144   2.851   1.047  12.090 -0.1050  1.7829 -0.0324
 1895SOL    HW217145   3.004   1.093  12.101 -0.4325  0.4128  0.7032
 1896SOL     OW17146   0.984   0.752  13.061  0.2588  0.5846 -0.5169
 1896SOL    HW117147   0.906   0.742  13.006 -0.9444 -0.0690  1.2745
 1896SOL    HW217148   1.060   0.738  13.005  2.0618  0.6756  1.9035
 1897SOL     OW17149   1.345   3.880   7.487  0.1945  0.0727  0.8820
 1897SOL    HW117150   1.399   3.802   7.472  0.7747  0.4118  1.2286
 1897SOL    HW217151   1.359   3.896   7.580 -1.7924 -0.0642  1.2061
 1898SOL     OW17152   0.763   1.754   2.001 -0.3238 -0.6985 -0.2098
 1898SOL    HW117153   0.728   1.758   2.090  0.1439 -0.5362 -0.0333
 1898SOL    HW217154   0.777   1.660   1.985  0.9055 -0.3646 -1.0947
 1899SOL     OW17155   4.135   1.537   7.461  0.2610  0.0334  0.3130
 1899SOL    HW117156   4.143   1.459   7.517  0.1239 -0.0708  0.1867
 1899SOL    HW217157   4.210   1.520   7.404  1.5012  2.5511  1.1535
 1900SOL     OW17158   0.338   1.163   7.366  0.0448  0.1650  0.7062
 1900SOL    HW117159   0.327   1.070   7.345  2.2489  0.0063  0.3214
 1900SOL    HW217160   0.276   1.171   7.439  1.2923  1.2541  1.6523
 1901SOL     OW17161   2.195   4.239  14.632  0.0496 -0.4013  1.1051
 1901SOL    HW117162   2.225   4.269  14.717 -2.6839  1.7263  1.3052
 1901SOL    HW217163   2.252   4.300  14.585 -0.3163 -2.1427 -1.6189
 1902SOL     OW17164   4.015   2.967   3.002 -0.4348  0.3415 -0.0468
 1902SOL    HW117165   3.926   2.930   3.002 -0.6904  0.9601 -2.2870
 1902SOL    HW217166   4.048   2.945   2.916 -0.6173  0.6439 -0.1957
 1903SOL     OW17167   2.873   3.098   4.127  0.3312 -0.2088  0.1789
 1903SOL    HW117168   2.902   3.186   4.147  0.1025 -1.1965  4.8485
 1903SOL    HW217169   2.931   3.080   4.053 -0.1952  1.4137 -0.6231
 1904SOL     OW17170   4.276   4.586   9.585 -0.1029  0.2061  0.1684
 1904SOL    HW117171   4.320   4.502   9.596  1.5347  1.2147  1.2412
 1904SOL    HW217172   4.355   4.631   9.554  0.1624 -0.5901 -0.3186
 1905SOL     OW17173   2.913   4.031  11.093 -0.0050  0.9913  0.1130
 1905SOL    HW117174   2.882   3.988  11.173  0.1332 -1.9530 -1.4237
 1905SOL    HW217175   2.827   4.056  11.060 -0.1834  0.7265  0.3779
 1906SOL     OW17176   0.640   4.101   5.079 -0.3540  0.2176  0.4550
 1906SOL    HW117177   0.604   4.044   5.147 -0.0448  1.4806  1.6796
 1906SOL    HW217178   0.565   4.107   5.020  1.5022 -1.5804 -2.0943
 1907SOL     OW17179   4.400   3.592   4.170  0.1631  0.1634 -0.4098
 1907SOL    HW117180   4.415   3.682   4.196 -0.6218  0.3436 -0.5878
 1907SOL    HW217181   4.439   3.581   4.083 -0.2297 -1.9597 -0.3372
 1908SOL     OW17182   3.717   0.023   5.121  0.1364  0.3323  0.1368
 1908SOL    HW117183   3.747   4.709   5.038 -0.6225 -1.9747  0.8270
 1908SOL    HW217184   3.744   0.115   5.126 -0.9408  0.7331 -1.6529
 1909SOL     OW17185   0.730   2.713   6.346  0.1201  0.0586  0.1191
 1909SOL    HW117186   0.815   2.668   6.342 -0.3651 -0.8956  0.8090
 1909SOL    HW217187   0.754   2.801   6.377 -0.0711  0.4701 -0.9047
 1910SOL     OW17188   4.694   4.513   2.157  0.0434  0.9227  0.3945
 1910SOL    HW117189   0.031   4.450   2.113 -0.8926 -0.6592  1.4467
 1910SOL    HW217190   0.026   4.530   2.235  0.9564  1.6933 -0.3931
 1911SOL     OW17191   3.459   2.404  13.732 -0.7962  0.0010  0.7596
 1911SOL    HW117192   3.393   2.453  13.781 -0.3869  1.3115 -0.0131
 1911SOL    HW217193   3.541   2.427  13.777  0.2457 -1.5161 -0.3490
 1912SOL     OW17194   3.683   4.474  16.407  0.3822 -0.0731 -0.0637
 1912SOL    HW117195   3.697   4.566  16.384  2.2306  0.2946  2.4614
 1912SOL    HW217196   3.673   4.448  16.316 -0.3045 -1.3182  0.3595
 1913SOL     OW17197   2.651   3.523   9.913  0.2438  0.1989  0.5466
 1913SOL    HW117198   2.659   3.435   9.876 -1.7958  1.0747 -1.9880
 1913SOL    HW217199   2.637   3.495  10.004  0.7599  0.7499  0.8006
 1914SOL     OW17200   3.352   2.415   8.819 -0.3206  0.3062  0.3422
 1914SOL    HW117201   3.433   2.436   8.772 -1.0792 -0.0606 -1.1275
 1914SOL    HW217202   3.319   2.502   8.841 -0.9515  0.1916 -0.1434
 1915SOL     OW17203   1.388   2.004   0.156 -0.2896  0.0444 -0.4573
 1915SOL    HW117204   1.444   2.077   0.184  0.5711 -1.7653  2.5664
 1915SOL    HW217205   1.346   1.983   0.239 -0.4131  0.7583 -0.3371
 1916SOL     OW17206   4.313   0.020   7.370  0.2374  0.6686 -0.0527
 1916SOL    HW117207   4.283   4.684   7.298  1.0757  0.6649 -0.4095
 1916SOL    HW217208   4.283   4.697   7.449  1.3571  1.1395  0.6330
 1917SOL     OW17209   0.650   3.830   6.303  0.5651  0.4293 -0.5069
 1917SOL    HW117210   0.723   3.789   6.255 -0.8134 -0.6093 -1.7241
 1917SOL    HW217211   0.603   3.757   6.343 -1.4129  0.7214 -2.2783
 1918SOL     OW17212   4.130   1.509  12.729 -0.1336  0.0317 -0.6841
 1918SOL    HW117213   4.035   1.517  12.721 -0.0613  1.0419 -0.4640
 1918SOL    HW217214   4.131   1.433  12.787  0.9987  1.5117  1.2154
 1919SOL     OW17215   0.863   3.805  11.194  0.0116  0.0658  0.2262
 1919SOL    HW117216   0.906   3.864  11.257  1.3272  0.4928 -1.0775
 1919SOL    HW217217   0.854   3.865  11.120  0.4521  0.3247  0.3827
 1920SOL     OW17218   2.461   0.108   1.217  0.9945  0.2115 -0.2200
 1920SOL    HW117219   2.533   0.044   1.215  1.3032  0.5588 -0.1941
 1920SOL    HW217220   2.389   0.046   1.203  2.0166 -1.3652  1.4046
 1921SOL     OW17221   3.138   0.093   3.218 -0.1901 -0.0481  0.0408
 1921SOL    HW117222   3.233   0.087   3.233 -0.0848  0.0563 -0.5510
 1921SOL    HW217223   3.128   0.150   3.142  0.0921  1.1218  0.8904
 1922SOL     OW17224   0.774   2.509  16.080 -0.1847  0.5326 -0.6349
 1922SOL    HW117225   0.701   2.552  16.034 -1.1525 -1.7495 -1.2255
 1922SOL    HW217226   0.729   2.466  16.153  1.9167  0.5879  0.6791
 1923SOL     OW17227   0.690   0.133   6.345 -0.1842 -0.4624  0.2708
 1923SOL    HW117228   0.638   0.167   6.271  0.7555 -1.3265 -0.7769
 1923SOL    HW217229   0.623   0.144   6.413 -0.6907  0.2196 -0.3307
 1924SOL     OW17230   2.332   4.152   5.651 -0.1314  0.4997 -0.7098
 1924SOL    HW117231   2.377   4.228   5.688  1.0734 -0.6023  0.0741
 1924SOL    HW217232   2.299   4.110   5.731 -0.8750  0.4035 -1.0682
 1925SOL     OW17233   4.538   2.187   7.985 -0.1520  0.3288 -0.1201
 1925SOL    HW117234   4.526   2.214   8.076 -0.5648 -0.2932  0.0138
 1925SOL    HW217235   4.456   2.144   7.959 -0.3668  0.2616  0.6477
 1926SOL     OW17236   0.747   2.010   8.279  0.4393 -0.0978 -0.4926
 1926SOL    HW117237   0.668   2.009   8.226  0.0076  0.2940  0.1435
 1926SOL    HW217238   0.751   2.103   8.300  0.8539 -0.9204  3.1188
 1927SOL     OW17239   1.033   0.361   6.514 -0.0619 -0.2608  0.6808
 1927SOL    HW117240   1.013   0.392   6.602 -1.2519  1.0190 -0.0494
 1927SOL    HW217241   1.110   0.306   6.529 -0.8888 -1.6363 -0.1380
 1928SOL     OW17242   3.855   2.667   8.366 -0.0484 -0.2416  0.0880
 1928SOL    HW117243   3.872   2.734   8.433  3.7554 -0.5385 -0.6226
 1928SOL    HW217244   3.826   2.718   8.290 -1.8630 -1.1507  0.1648
 1929SOL     OW17245   3.688   0.894   6.795  0.2284 -0.2666  0.3393
 1929SOL    HW117246   3.647   0.952   6.859  0.5260 -0.0351  0.3223
 1929SOL    HW217247   3.739   0.836   6.851  1.1773  0.3187  0.0868
 1930SOL     OW17248   3.416   3.252   3.340 -0.2000  0.3866  0.3480
 1930SOL    HW117249   3.340   3.307   3.317  0.1055  0.3550 -0.7467
 1930SOL    HW217250   3.487   3.316   3.342 -0.4377  0.6904 -0.5751
 1931SOL     OW17251   4.141   1.997   0.807 -0.4210  0.5727  0.4566
 1931SOL    HW117252   4.183   1.982   0.722  0.9422  0.5758  1.1222
 1931SOL    HW217253   4.082   2.067   0.780  0.1513  0.7067 -0.4621
 1932SOL     OW17254   0.039   0.192   6.917  0.6635 -0.3245 -0.2567
 1932SOL    HW117255   0.085   0.250   6.978 -0.4504 -0.6009  0.8507
 1932SOL    HW217256   0.007   0.129   6.982  1.1793  2.8106  3.0405
 1933SOL     OW17257   3.505   3.519   3.067  0.3544  0.0701 -0.4047
 1933SOL    HW117258   3.508   3.601   3.115  1.0048 -1.5955  2.3916
 1933SOL    HW217259   3.462   3.543   2.985 -1.8988  1.2946  1.1459
 1934SOL     OW17260   3.934   2.447  13.889 -0.2952  0.7569  0.2831
 1934SOL    HW117261   3.945   2.366  13.839 -0.2936  1.9619 -1.7076
 1934SOL    HW217262   3.989   2.422  13.963  0.1746  1.4093  0.1637
 1935SOL     OW17263   4.209   1.708   6.918 -0.4828  0.5834  0.2299
 1935SOL    HW117264   4.230   1.770   6.988  2.7590 -0.0580 -0.1428
 1935SOL    HW217265   4.163   1.649   6.978  0.6575 -1.5044 -0.9353
 1936SOL     OW17266   0.810   0.054   9.691 -0.3900 -0.0882  0.1381
 1936SOL    HW117267   0.761   0.127   9.652  2.4870  1.4740 -0.5606
 1936SOL    HW217268   0.841   0.101   9.769 -1.2852  0.6078  0.0788
 1937SOL     OW17269   2.893   0.103  15.439  0.3080 -0.3802  0.0533
 1937SOL    HW117270   2.840   0.170  15.397 -0.9252 -0.2180  1.9081
 1937SOL    HW217271   2.935   0.070  15.359 -0.1835 -1.4025  0.2116
 1938SOL     OW17272   3.040   1.816   6.820  0.3044  0.4882  0.0037
 1938SOL    HW117273   3.088   1.735   6.839 -1.5094 -0.3691  0.9781
 1938SOL    HW217274   3.092   1.845   6.745  1.0794 -1.6956 -0.3082
 1939SOL     OW17275   3.933   2.996   7.727  0.4548  0.3097  0.3226
 1939SOL    HW117276   3.878   3.034   7.659  2.4859  0.3592 -1.2945
 1939SOL    HW217277   3.991   2.941   7.674 -2.3996 -2.7049  0.3496
 1940SOL     OW17278   2.834   3.808   8.674 -0.3026  0.9212  0.5563
 1940SOL    HW117279   2.780   3.731   8.691  1.2882 -0.8650 -2.4043
 1940SOL    HW217280   2.785   3.848   8.602 -1.0028 -0.9004  0.0271
 1941SOL     OW17281   1.012   4.159  12.158 -0.8962  0.4014 -0.0259
 1941SOL    HW117282   1.015   4.246  12.118  1.8929  0.3271  0.0084
 1941SOL    HW217283   0.919   4.157  12.181 -0.8748 -1.1594 -0.0555
 1942SOL     OW17284   2.357   3.181   0.870  0.2724 -0.1268  0.0663
 1942SOL    HW117285   2.332   3.102   0.917 -3.0276  0.0965 -1.3179
 1942SOL    HW217286   2.290   3.246   0.892 -0.7652 -1.6163  1.3211
 1943SOL     OW17287   4.358   2.969   2.041 -0.6241  0.0852  0.1417
 1943SOL    HW117288   4.443   2.999   2.010  0.5445 -0.7914  2.4889
 1943SOL    HW217289   4.378   2.876   2.032  1.5848  0.4077  1.9053
 1944SOL     OW17290   0.918   2.362  15.388 -0.1830 -0.2240 -0.0899
 1944SOL    HW117291   0.994   2.336  15.439 -1.6091 -0.2762  2.0051
 1944SOL    HW217292   0.936   2.311  15.309 -1.2465 -0.9681  0.1438
 1945SOL     OW17293   3.402   3.060  10.979 -0.2024  0.0477  0.0228
 1945SOL    HW117294   3.452   2.984  10.952 -0.8228 -0.4934  0.3984
 1945SOL    HW217295   3.445   3.101  11.055 -1.5872  0.0532  0.8160
 1946SOL     OW17296   0.637   4.152   3.804  0.1141  0.4269  0.2210
 1946SOL    HW117297   0.629   4.201   3.885 -0.9061 -1.9308  1.5324
 1946SOL    HW217298   0.732   4.141   3.795 -0.0872 -1.0337 -0.2759
 1947SOL     OW17299   3.191   2.305   2.819  0.8698  0.5166  0.4358
 1947SOL    HW117300   3.175   2.315   2.913  0.1256 -0.5063  0.4163
 1947SOL    HW217301   3.100   2.306   2.792  1.2523 -2.1352 -0.9742
 1948SOL     OW17302   4.500   0.331   7.537 -0.0970  0.2061  0.3258
 1948SOL    HW117303   4.585   0.376   7.534 -1.0512  1.8671 -1.3963
 1948SOL    HW217304   4.494   0.293   7.450 -2.1876 -1.3484  1.1530
 1949SOL     OW17305   1.358   2.120  12.235  0.0533 -0.1616  0.1392
 1949SOL    HW117306   1.284   2.130  12.295  0.9060  3.3703  0.5755
 1949SOL    HW217307   1.354   2.025  12.223 -0.3744  0.0388 -1.3074
 1950SOL     OW17308   3.311   1.747  17.629  0.3479  0.1127 -0.7654
 1950SOL    HW117309   3.270   1.764   0.030  1.4237  2.9531 -0.7919
 1950SOL    HW217310   3.386   1.695  17.656  0.8120  0.6033 -1.1201
 1951SOL     OW17311   2.899   4.099   3.328  0.0211  0.1672  0.2508
 1951SOL    HW117312   2.984   4.071   3.292 -0.4769 -2.6187  1.1909
 1951SOL    HW217313   2.902   4.047   3.408  0.3124 -0.1626  0.0308
 1952SOL     OW17314   4.705   2.055  10.662  0.5222  0.0222 -0.0264
 1952SOL    HW117315   4.630   2.069  10.719  0.8171 -2.7882  1.0380
 1952SOL    HW217316   0.024   2.142  10.655 -2.5278  1.2158 -2.5612
 1953SOL     OW17317   1.147   3.797   4.212 -0.4634 -0.5662 -0.0601
 1953SOL    HW117318   1.058   3.792   4.247 -0.2300 -1.8121  0.3436
 1953SOL    HW217319   1.180   3.709   4.229 -0.3275  0.0133  2.7215
 1954SOL     OW17320   3.398   2.103   4.574  0.3457 -0.6013 -0.9272
 1954SOL    HW117321   3.315   2.150   4.564  1.2800  1.2166 -0.0242
 1954SOL    HW217322   3.382   2.033   4.510  0.4136  0.1322 -1.7415
 1955SOL     OW17323   0.091   3.893  12.108 -0.1130 -0.0227  0.2545
 1955SOL    HW117324   0.168   3.857  12.064 -0.4421 -0.1371 -0.2285
 1955SOL    HW217325   0.100   3.845  12.191 -0.9151  0.7444  0.7798
 1956SOL     OW17326   1.966   0.986   2.464 -0.0779  0.1546  0.4302
 1956SOL    HW117327   2.000   0.915   2.409 -0.8252  0.4707 -0.4463
 1956SOL    HW217328   1.886   1.001   2.413 -0.0738  2.2862  1.0507
 1957SOL     OW17329   1.863   4.223  10.181 -0.1957  0.0098 -0.4470
 1957SOL    HW117330   1.861   4.152  10.116 -0.0156 -0.0238 -0.4149
 1957SOL    HW217331   1.773   4.202  10.204  0.1364  0.2337  1.0237
 1958SOL     OW17332   4.375   1.153  17.424  0.3523  0.0010 -0.0992
 1958SOL    HW117333   4.415   1.219  17.480 -3.1599  1.4372  0.7750
 1958SOL    HW217334   4.450   1.103  17.394  0.4053 -0.4260  0.7297
 1959SOL     OW17335   1.487   1.345   6.064  0.2680  0.4182  0.1079
 1959SOL    HW117336   1.570   1.345   6.017  0.7123 -0.0321  0.8900
 1959SOL    HW217337   1.512   1.307   6.149  0.8919  1.1773  0.2611
 1960SOL     OW17338   1.645   3.319  11.042 -0.0747  0.0214  0.3247
 1960SOL    HW117339   1.569   3.373  11.021  0.2750  0.3470 -0.1200
 1960SOL    HW217340   1.631   3.251  10.976 -0.7798  0.2407  0.2425
 1961SOL     OW17341   3.167   2.661   0.880  0.0749 -0.1748  0.1541
 1961SOL    HW117342   3.079   2.689   0.852 -1.1850 -3.7786  0.5314
 1961SOL    HW217343   3.192   2.601   0.811  1.1683  0.0161  0.3889
 1962SOL     OW17344   2.188   4.609   8.072  0.6530 -0.4135  0.5831
 1962SOL    HW117345   2.279   4.583   8.060  0.3280 -0.2642 -2.3084
 1962SOL    HW217346   2.186   4.656   8.155 -0.0965 -0.9681  0.8808
 1963SOL     OW17347   0.214   2.599   4.465 -0.3590 -0.2197  0.1220
 1963SOL    HW117348   0.240   2.671   4.408 -0.4937 -1.3423 -1.3617
 1963SOL    HW217349   0.124   2.581   4.439 -0.8438  1.8003  0.3986
 1964SOL     OW17350   0.530   4.270   7.437 -0.1029  0.4555 -0.6127
 1964SOL    HW117351   0.587   4.346   7.448  1.8287 -0.7178 -2.5734
 1964SOL    HW217352   0.455   4.294   7.492 -0.3903 -0.3023 -0.6789
 1965SOL     OW17353   0.820   1.409   7.909 -0.1928  0.5263  0.0342
 1965SOL    HW117354   0.913   1.416   7.885  0.3194 -1.4825  1.3793
 1965SOL    HW217355   0.792   1.500   7.918  1.2693  0.9496  0.3285
 1966SOL     OW17356   3.108   4.340  13.528  0.2523  0.8195 -0.1364
 1966SOL    HW117357   3.081   4.421  13.485  1.4482  1.3335  0.0611
 1966SOL    HW217358   3.202   4.361  13.530  0.9035 -2.1148 -0.1081
 1967SOL     OW17359   2.925   2.282  10.680  0.5412 -0.6030  0.7548
 1967SOL    HW117360   2.904   2.207  10.626  1.5593  1.2668 -2.2678
 1967SOL    HW217361   2.844   2.333  10.686  0.8760  0.0098  0.1213
 1968SOL     OW17362   2.244   4.197   5.398  0.0848 -0.5568 -0.2910
 1968SOL    HW117363   2.275   4.173   5.485  1.0993  1.1963 -0.1724
 1968SOL    HW217364   2.199   4.278   5.422  2.2682  0.6688 -0.3504
 1969SOL     OW17365   3.437   2.744   8.314  0.1917 -0.7309  0.1421
 1969SOL    HW117366   3.414   2.749   8.407  1.4167 -0.6959  0.4396
 1969SOL    HW217367   3.376   2.802   8.269  0.3993 -1.2457 -0.7960
 1970SOL     OW17368   2.045   2.778  14.832 -0.6517  0.4884 -0.3497
 1970SOL    HW117369   1.952   2.785  14.850 -0.5969  0.6559 -0.1301
 1970SOL    HW217370   2.075   2.810  14.917 -0.8654  0.0697 -0.1119
 1971SOL     OW17371   4.094   3.447   7.108 -0.2514  0.0063  0.3341
 1971SOL    HW117372   4.129   3.517   7.164  0.3673 -0.1598  0.1531
 1971SOL    HW217373   4.137   3.466   7.024 -0.0672 -1.3099  0.1278
 1972SOL     OW17374   2.607   2.212   4.826  0.1626 -0.2558 -0.3239
 1972SOL    HW117375   2.526   2.167   4.801 -0.6399  1.3395 -0.5899
 1972SOL    HW217376   2.673   2.143   4.815  0.6325  0.6266 -3.1159
 1973SOL     OW17377   0.874   0.482   2.947 -0.1810 -0.2892 -0.8289
 1973SOL    HW117378   0.917   0.459   3.029 -0.6997  0.1828 -0.4264
 1973SOL    HW217379   0.800   0.422   2.944  0.9094 -1.6390 -0.9990
 1974SOL     OW17380   2.226   2.895   0.770  0.1879 -0.3464 -0.1958
 1974SOL    HW117381   2.223   2.800   0.763 -1.4351 -0.2046 -1.5457
 1974SOL    HW217382   2.273   2.914   0.689 -0.7022 -1.0907 -0.8914
 1975SOL     OW17383   3.021   0.615   2.355 -0.2417 -0.7028 -0.0404
 1975SOL    HW117384   3.040   0.557   2.428  1.2905  0.2412  0.3006
 1975SOL    HW217385   2.946   0.569   2.316 -1.9364 -0.3680  2.8523
 1976SOL     OW17386   3.763   3.612   8.551  0.6729 -0.3632  0.1808
 1976SOL    HW117387   3.740   3.528   8.592 -0.0024  0.2873  1.1497
 1976SOL    HW217388   3.743   3.586   8.462 -0.9592 -1.9018  0.9937
 1977SOL     OW17389   3.083   4.684   3.438  0.4135 -0.0145  0.2262
 1977SOL    HW117390   3.058   0.038   3.493 -1.9738 -0.3101 -0.4616
 1977SOL    HW217391   3.110   0.006   3.356  0.6793  0.0446  0.3455
 1978SOL     OW17392   3.696   4.528   8.862  0.5193 -0.4968 -0.2141
 1978SOL    HW117393   3.607   4.503   8.886  0.2952 -0.1980 -0.7349
 1978SOL    HW217394   3.682   4.589   8.790  0.3984 -0.9387 -0.5670
 1979SOL     OW17395   3.318   2.228  17.321  0.8558  0.3228  0.1652
 1979SOL    HW117396   3.259   2.164  17.281  2.2970 -0.4105 -0.7649
 1979SOL    HW217397   3.308   2.199  17.412 -2.2908  0.2431 -0.2131
 1980SOL     OW17398   1.956   3.879   7.199 -0.1693  0.0967 -0.1399
 1980SOL    HW117399   2.018   3.868   7.127 -0.6840  3.1152 -1.0200
 1980SOL    HW217400   1.985   3.966   7.225 -1.9806  1.5807 -3.1777
 1981SOL     OW17401   2.225   2.029   2.392  0.0114 -0.0403  0.5726
 1981SOL    HW117402   2.285   1.967   2.433  2.0808 -0.6450 -3.3009
 1981SOL    HW217403   2.186   1.969   2.329 -0.5068 -0.3908  1.2295
 1982SOL     OW17404   1.935   3.041   6.291  0.2699 -0.5473 -0.2495
 1982SOL    HW117405   1.916   2.964   6.237  2.5078 -1.7161  0.6297
 1982SOL    HW217406   2.022   3.015   6.323 -0.0922  0.9339  1.9456
 1983SOL     OW17407   2.722   0.967   6.185  0.4312 -0.0407 -0.6552
 1983SOL    HW117408   2.801   0.946   6.234  0.8702  0.4936 -1.1288
 1983SOL    HW217409   2.729   0.921   6.101  1.1078  2.0672 -1.7583
 1984SOL     OW17410   4.273   0.440  17.335  0.4352  0.8727  0.3273
 1984SOL    HW117411   4.359   0.459  17.298  0.2987 -2.0192 -1.4108
 1984SOL    HW217412   4.266   0.345  17.330 -0.4865  1.0180 -1.2539
 1985SOL     OW17413   2.953   2.940   8.861  0.5729  0.2000  0.5483
 1985SOL    HW117414   2.933   3.034   8.854  0.6877  0.1161 -0.9564
 1985SOL    HW217415   2.893   2.894   8.802  0.0714 -0.6134  1.6883
 1986SOL     OW17416   2.158   3.376  15.195 -0.4196  0.5746 -0.0940
 1986SOL    HW117417   2.195   3.325  15.267 -2.6912 -2.4615 -1.0787
 1986SOL    HW217418   2.237   3.417  15.160  0.8787 -0.7048  1.3042
 1987SOL     OW17419   2.335   1.549   7.698  0.3849 -0.3291 -0.3344
 1987SOL    HW117420   2.337   1.606   7.621  2.9500  0.0571  0.0254
 1987SOL    HW217421   2.309   1.605   7.771 -0.1460 -2.5334  1.1610
 1988SOL     OW17422   1.852   1.024   8.486 -0.3726 -0.3141 -0.0553
 1988SOL    HW117423   1.797   0.946   8.496 -1.4993  0.4144 -0.6250
 1988SOL    HW217424   1.793   1.079   8.436 -1.5493 -1.7578 -0.2670
 1989SOL     OW17425   3.101   0.097   9.473  0.3596 -0.4413  0.0826
 1989SOL    HW117426   3.169   0.071   9.534  1.2412  1.2864 -0.1891
 1989SOL    HW217427   3.133   0.064   9.389 -1.0891  1.6853 -1.3011
 1990SOL     OW17428   3.039   3.946   3.883  0.2095  0.1449  0.5281
 1990SOL    HW117429   3.101   4.014   3.860 -0.4742 -0.0947 -1.9891
 1990SOL    HW217430   3.048   3.969   3.975 -0.8582  0.5102  0.5424
 1991SOL     OW17431   0.677   3.999   9.597 -0.1029  0.8531 -0.1278
 1991SOL    HW117432   0.588   4.030   9.617 -0.1615 -0.8737  2.2816
 1991SOL    HW217433   0.672   3.906   9.578 -0.1122  0.4785  1.7260
 1992SOL     OW17434   1.745   3.738  11.494 -0.3644 -0.2940  0.0977
 1992SOL    HW117435   1.660   3.770  11.467 -0.9538  1.6304  4.2360
 1992SOL    HW217436   1.736   3.647  11.467  0.1500  0.1719 -1.6740
 1993SOL     OW17437   3.822   1.645   2.464  0.0051 -1.0169  0.2201
 1993SOL    HW117438   3.863   1.561   2.444  1.0344 -0.8798  1.7940
 1993SOL    HW217439   3.856   1.666   2.551  1.8824  0.2083 -0.8084
 1994SOL     OW17440   2.655   2.708  15.242 -0.8194  0.6136  1.2081
 1994SOL    HW117441   2.716   2.643  15.276  0.7093  1.2258 -0.3362
 1994SOL    HW217442   2.670   2.688  15.150 -0.7888  1.0521  1.1136
 1995SOL     OW17443   4.446   3.584  14.625  0.1577  0.0361  0.3893
 1995SOL    HW117444   4.514   3.530  14.667  0.6542 -0.1232 -0.6099
 1995SOL    HW217445   4.401   3.520  14.569  1.2076 -0.3192 -0.0500
 1996SOL     OW17446   2.044   4.635   7.854 -0.1669  0.4873  0.7355
 1996SOL    HW117447   2.055   4.540   7.851  2.4543  0.8636 -1.2089
 1996SOL    HW217448   2.087   4.652   7.938  1.0593 -1.6444  0.5393
 1997SOL     OW17449   2.147   1.323   2.805  0.9077 -0.0520  0.2497
 1997SOL    HW117450   2.113   1.307   2.717  2.2566  1.5072 -0.5621
 1997SOL    HW217451   2.091   1.398   2.828 -0.6725 -1.2282  0.1904
 1998SOL     OW17452   4.564   2.344   5.392  0.1743 -0.5495  0.4552
 1998SOL    HW117453   4.482   2.392   5.400  1.5480  2.2228 -1.9428
 1998SOL    HW217454   4.618   2.423   5.403 -0.9876  0.5496 -1.7296
 1999SOL     OW17455   0.701   4.030   0.526  0.4153 -0.1298 -0.4543
 1999SOL    HW117456   0.659   3.964   0.581 -1.6675  2.3978  0.9882
 1999SOL    HW217457   0.792   4.002   0.536 -0.0743 -2.0010 -1.3328
 2000SOL     OW17458   0.555   0.753   0.190  0.0334 -0.3320  0.3716
 2000SOL    HW117459   0.519   0.830   0.147  0.0348 -0.2810  0.4618
 2000SOL    HW217460   0.573   0.691   0.120  2.5776 -0.2755  0.9572
 2001SOL     OW17461   0.140   1.659   8.848 -0.7452 -0.0999  0.4099
 2001SOL    HW117462   0.083   1.718   8.798 -1.7496 -1.8483 -0.4927
 2001SOL    HW217463   0.136   1.590   8.782  2.1381 -0.2323  0.3718
 2002SOL     OW17464   2.173   1.403   7.536 -0.0265  0.1406 -0.2854
 2002SOL    HW117465   2.175   1.307   7.542 -3.1181 -0.0194 -1.9136
 2002SOL    HW217466   2.258   1.431   7.568  1.6209 -3.0172 -1.8896
 2003SOL     OW17467   4.688   1.654   9.470 -0.1833 -0.3207  0.1689
 2003SOL    HW117468   4.718   1.719   9.534 -0.4496  1.6206 -1.6824
 2003SOL    HW217469   4.625   1.707   9.421 -0.6558 -0.5340  0.5493
 2004SOL     OW17470   1.211   2.997  13.193  0.2041  0.3129 -0.1013
 2004SOL    HW117471   1.135   3.055  13.188 -1.1847 -1.3058  2.5878
 2004SOL    HW217472   1.281   3.063  13.189  0.9770 -0.5202 -0.3096
 2005SOL     OW17473   2.848   0.852  13.477 -0.1289  0.1429  0.3016
 2005SOL    HW117474   2.934   0.881  13.507  0.4750 -1.6749  0.3275
 2005SOL    HW217475   2.797   0.866  13.557  0.3568 -0.2213  0.6726
 2006SOL     OW17476   1.719   0.849  15.387 -0.0868 -0.4144  0.4396
 2006SOL    HW117477   1.776   0.849  15.464  0.2892 -0.5017  0.1654
 2006SOL    HW217478   1.781   0.855  15.314 -1.6754  1.7756 -0.7147
 2007SOL     OW17479   2.537   2.381   1.015  0.2701 -0.8309 -0.1870
 2007SOL    HW117480   2.564   2.468   1.047  0.9642 -0.8861 -0.6194
 2007SOL    HW217481   2.489   2.347   1.090 -0.2433  1.5883  0.5841
 2008SOL     OW17482   2.410   0.888   6.192  0.4585  0.3268 -0.1404
 2008SOL    HW117483   2.450   0.828   6.129  0.0676 -0.7398  0.6307
 2008SOL    HW217484   2.476   0.957   6.204 -0.6060  1.2300  0.4992
 2009SOL     OW17485   2.258   2.009   0.334  0.4564 -0.0476  0.1319
 2009SOL    HW117486   2.233   1.981   0.246  0.3245 -1.5459  0.6596
 2009SOL    HW217487   2.174   1.987   0.376 -0.1928  0.3639 -0.9487
 2010SOL     OW17488   2.462   4.655  15.604 -0.6504 -0.5736 -0.1542
 2010SOL    HW117489   2.450   4.681  15.513  2.0297 -1.0497 -0.6577
 2010SOL    HW217490   2.442   0.015  15.653 -0.7379 -0.0177 -1.1007
 2011SOL     OW17491   1.348   2.537   8.208 -0.3973  0.4128 -0.1176
 2011SOL    HW117492   1.404   2.467   8.176  2.2895  1.0919  3.1087
 2011SOL    HW217493   1.266   2.510   8.167  0.9343  1.1441 -3.3273
 2012SOL     OW17494   3.438   1.089   4.271  0.2381  0.3021 -0.8476
 2012SOL    HW117495   3.480   1.004   4.282  0.2494  0.3680 -0.3816
 2012SOL    HW217496   3.367   1.071   4.332  0.6764  1.3628 -0.0059
 2013SOL     OW17497   3.592   1.198  12.679 -0.5638  0.6656  0.2121
 2013SOL    HW117498   3.509   1.244  12.662  0.2651  1.8631 -0.5758
 2013SOL    HW217499   3.573   1.115  12.636  2.2587 -0.1309  0.5582
 2014SOL     OW17500   2.770   3.185   9.273 -0.0081  0.1316  0.5014
 2014SOL    HW117501   2.799   3.118   9.211 -0.6238  0.1645  0.1865
 2014SOL    HW217502   2.841   3.205   9.335  0.8262 -0.9196 -0.1118
 2015SOL     OW17503   0.014   2.517   8.807 -0.5996 -0.1206  0.2153
 2015SOL    HW117504   0.042   2.596   8.852 -1.0329  0.2336 -0.1296
 2015SOL    HW217505   0.097   2.498   8.764  0.2558  2.3270  0.7886
 2016SOL     OW17506   4.414   0.116   1.826  0.3133 -0.0743 -0.4028
 2016SOL    HW117507   4.496   0.121   1.776 -1.0133 -3.0808 -2.8463
 2016SOL    HW217508   4.370   0.038   1.792  0.5324  0.3027 -1.5523
 2017SOL     OW17509   1.642   0.767  10.398  0.0832 -0.2897  0.2324
 2017SOL    HW117510   1.688   0.710  10.336  0.8842  0.2592  0.3202
 2017SOL    HW217511   1.576   0.706  10.431  0.7274 -1.0180  0.1817
 2018SOL     OW17512   1.020   1.873   3.670 -0.1826  0.7688 -0.1632
 2018SOL    HW117513   1.050   1.958   3.703 -0.5096  0.7107  0.2774
 2018SOL    HW217514   1.032   1.827   3.753  0.1823  1.4095  0.1408
 2019SOL     OW17515   3.571   2.837   5.698  0.6037 -1.0842 -0.2771
 2019SOL    HW117516   3.642   2.785   5.660 -0.3690 -1.6744 -1.2775
 2019SOL    HW217517   3.609   2.826   5.785  1.0185  0.0562 -0.3035
 2020SOL     OW17518   1.796   3.496   6.025 -0.2161 -0.3413 -0.3106
 2020SOL    HW117519   1.739   3.513   5.949  2.0448 -3.9630 -2.7710
 2020SOL    HW217520   1.761   3.417   6.067 -0.2204 -1.0343 -1.6333
 2021SOL     OW17521   0.280   4.011   2.328  0.1412  0.4671 -0.0462
 2021SOL    HW117522   0.234   4.061   2.395  0.5541  0.4562  0.2462
 2021SOL    HW217523   0.209   3.960   2.288 -0.1422 -0.5071  1.7024
 2022SOL     OW17524   3.521   2.309   9.132 -0.0009 -0.0680 -0.1443
 2022SOL    HW117525   3.532   2.399   9.101  3.1952 -0.6310 -0.6717
 2022SOL    HW217526   3.548   2.328   9.221  1.9173  0.2138 -0.7809
 2023SOL     OW17527   4.000   2.103   2.595 -0.2696 -0.4828  0.5055
 2023SOL    HW117528   3.997   2.034   2.528 -2.0532  0.6610 -0.5882
 2023SOL    HW217529   4.091   2.100   2.623  0.0787  0.4008 -0.5532
 2024SOL     OW17530   4.630   2.002   9.685  0.1782  0.2163  0.1254
 2024SOL    HW117531   4.574   2.027   9.612  1.2199  3.4194  0.3776
 2024SOL    HW217532   4.713   2.029   9.645 -1.5427  3.7430 -1.0461
 2025SOL     OW17533   4.456   2.480   4.456 -0.4200  0.0254  0.4765
 2025SOL    HW117534   4.443   2.425   4.534 -0.4293  1.3346  1.3966
 2025SOL    HW217535   4.380   2.470   4.399  1.3461 -0.8678 -1.7415
 2026SOL     OW17536   2.742   3.590   7.635  0.4175 -0.0978 -0.3598
 2026SOL    HW117537   2.681   3.522   7.663 -0.5624  1.9799  2.5505
 2026SOL    HW217538   2.686   3.666   7.619 -0.9658 -1.4070 -1.7304
 2027SOL     OW17539   2.278   1.044   3.656  0.3999  0.0569  0.4423
 2027SOL    HW117540   2.186   1.066   3.670  0.5228  1.9942 -1.8308
 2027SOL    HW217541   2.317   1.130   3.642  1.6952 -0.9671 -2.2055
 2028SOL     OW17542   0.046   4.481   5.896 -0.0290 -0.6807  0.7912
 2028SOL    HW117543   0.137   4.461   5.873 -0.4585 -2.9181  1.0084
 2028SOL    HW217544   0.036   4.559   5.842  0.1187 -0.7663  0.6360
 2029SOL     OW17545   0.099   3.462   9.148  0.3198  0.2140  0.1176
 2029SOL    HW117546   0.052   3.545   9.158 -0.8064 -0.3772 -0.1901
 2029SOL    HW217547   0.080   3.415   9.229 -0.5105 -1.1121 -0.8341
 2030SOL     OW17548   1.836   4.331   6.980 -0.6538  0.1988 -0.1514
 2030SOL    HW117549   1.840   4.235   6.986 -1.2510  0.3564  2.9623
 2030SOL    HW217550   1.833   4.344   6.886  1.2681  1.3118 -0.0511
 2031SOL     OW17551   2.497   0.223   4.533  0.2184 -0.5625  0.2786
 2031SOL    HW117552   2.541   0.305   4.511  2.6779 -0.9710  3.7147
 2031SOL    HW217553   2.570   0.162   4.515 -1.2446 -1.6944 -1.8011
 2032SOL     OW17554   1.847   2.826   3.756 -0.6332  0.0698  0.0085
 2032SOL    HW117555   1.819   2.916   3.770  2.1386  0.8018  0.8425
 2032SOL    HW217556   1.848   2.812   3.661 -1.0060  0.9273 -0.1242
 2033SOL     OW17557   1.864   0.068   8.992  0.3379  0.8062  0.0292
 2033SOL    HW117558   1.825   0.026   9.069  2.1079 -0.7775  0.0672
 2033SOL    HW217559   1.796   0.135   8.983  0.8485  1.3451  0.1480
 2034SOL     OW17560   2.128   2.699  13.572 -0.0963 -0.1833 -0.2358
 2034SOL    HW117561   2.108   2.697  13.666  2.4686  1.2759  0.3524
 2034SOL    HW217562   2.210   2.650  13.569  0.0033 -0.0840  0.6241
 2035SOL     OW17563   4.133   3.566   8.749 -0.4799  0.0163 -0.1251
 2035SOL    HW117564   4.070   3.636   8.729 -0.6364 -0.2167 -0.4566
 2035SOL    HW217565   4.085   3.516   8.815 -0.1867  1.0124  0.8440
 2036SOL     OW17566   2.334   3.215  17.499  0.2581 -0.3444 -0.3557
 2036SOL    HW117567   2.321   3.142  17.438 -0.2828  0.2572 -0.9511
 2036SOL    HW217568   2.289   3.188  17.579  3.9533 -1.9773  1.2056
 2037SOL     OW17569   4.137   3.159   1.969  0.0331  0.2315  0.3660
 2037SOL    HW117570   4.205   3.122   2.024  1.0470  1.4656 -0.0781
 2037SOL    HW217571   4.165   3.118   1.887 -1.6404  0.6488 -0.4176
 2038SOL     OW17572   1.633   1.855   7.019  0.2376 -0.1579  0.0607
 2038SOL    HW117573   1.666   1.924   6.961 -0.4756  1.0842  1.1491
 2038SOL    HW217574   1.686   1.872   7.097 -1.1590  1.4095  0.6740
 2039SOL     OW17575   1.032   1.753   9.407  0.2874  0.3070 -0.0748
 2039SOL    HW117576   1.005   1.797   9.327 -1.3718 -1.1131 -0.2846
 2039SOL    HW217577   1.101   1.691   9.382  0.3306  0.3344 -0.0235
 2040SOL     OW17578   3.438   1.873  13.626  0.5804  0.2651 -0.9365
 2040SOL    HW117579   3.349   1.840  13.613  0.7421 -0.2124 -0.8314
 2040SOL    HW217580   3.417   1.966  13.622 -1.5161 -0.2041 -0.8846
 2041SOL     OW17581   1.120   0.170   2.880  0.2775 -0.1484  0.5693
 2041SOL    HW117582   1.158   0.256   2.860  1.8011 -0.9875 -0.1492
 2041SOL    HW217583   1.173   0.131   2.949  1.7293  0.1651 -0.3406
 2042SOL     OW17584   2.860   0.864   8.579 -0.1260 -0.1908 -0.1923
 2042SOL    HW117585   2.785   0.871   8.520 -0.5185  0.8239  0.4158
 2042SOL    HW217586   2.888   0.952   8.605 -2.3744  1.0748 -2.0715
 2043SOL     OW17587   2.965   3.529   1.997 -0.0361  0.1101 -0.1819
 2043SOL    HW117588   2.902   3.497   2.061  0.8798 -1.5592 -0.0981
 2043SOL    HW217589   2.911   3.576   1.934  0.7399 -0.3240 -1.1778
 2044SOL     OW17590   0.522   2.978   5.821 -0.1629  0.3101 -0.2455
 2044SOL    HW117591   0.597   2.972   5.762 -0.0358  0.4439 -0.0966
 2044SOL    HW217592   0.517   2.888   5.852  0.2817  0.8912  1.5158
 2045SOL     OW17593   0.364   2.349   9.629  0.1945  0.1715 -0.2044
 2045SOL    HW117594   0.434   2.340   9.694  0.8607  0.0503 -0.9432
 2045SOL    HW217595   0.398   2.289   9.563  1.0182 -0.4640  0.8079
 2046SOL     OW17596   2.299   2.444   0.869 -0.7416 -0.1715  0.3355
 2046SOL    HW117597   2.392   2.449   0.891 -0.9127  0.4348  0.9510
 2046SOL    HW217598   2.263   2.506   0.933  1.6531  1.6911 -0.1076
 2047SOL     OW17599   2.857   3.997  13.690  0.3501  0.1620  0.1014
 2047SOL    HW117600   2.881   4.053  13.616  0.4711 -0.3594 -0.2586
 2047SOL    HW217601   2.859   4.056  13.764  0.1667  0.3379 -0.0348
 2048SOL     OW17602   4.257   0.063   5.752  0.5208  0.3948  0.4964
 2048SOL    HW117603   4.226   0.152   5.735 -1.3655 -0.6658 -1.6384
 2048SOL    HW217604   4.197   0.034   5.821  0.7928  0.3298  0.7048
 2049SOL     OW17605   3.624   1.154  12.146  0.2369 -0.4005 -0.3691
 2049SOL    HW117606   3.537   1.191  12.162  1.0330  0.7355  1.3604
 2049SOL    HW217607   3.612   1.075  12.198 -0.7908 -0.8997 -1.3731
 2050SOL     OW17608   0.424   2.776   9.872 -0.0628  0.1024 -0.1312
 2050SOL    HW117609   0.418   2.868   9.901  2.1480 -0.7559  3.1751
 2050SOL    HW217610   0.348   2.767   9.815 -0.0943  1.3538 -0.2873
 2051SOL     OW17611   1.815   0.321  14.929  0.4385 -0.2770 -0.6344
 2051SOL    HW117612   1.841   0.280  14.846 -0.4493 -1.5942 -0.2640
 2051SOL    HW217613   1.760   0.257  14.975 -0.3065 -0.3839 -1.6837
 2052SOL     OW17614   2.628   2.352   5.917 -0.0346  0.9545 -0.0742
 2052SOL    HW117615   2.644   2.258   5.913  0.5425  1.0685 -0.3884
 2052SOL    HW217616   2.629   2.379   5.825 -3.8082  1.2752 -0.0287
 2053SOL     OW17617   4.101   2.294   8.791 -0.3990  0.5388 -0.0324
 2053SOL    HW117618   4.023   2.348   8.803 -0.3635  0.5035  0.3661
 2053SOL    HW217619   4.152   2.349   8.732  1.2387 -0.3668  0.5052
 2054SOL     OW17620   2.718   0.961   3.070  0.6817 -0.9459  0.1337
 2054SOL    HW117621   2.733   0.882   3.018 -2.9716 -1.8720  0.4987
 2054SOL    HW217622   2.750   0.929   3.155  0.1639  1.7381  1.3474
 2055SOL     OW17623   3.860   0.420   4.746  0.3140  0.5333 -0.1276
 2055SOL    HW117624   3.825   0.352   4.688  0.2630  1.4244 -1.1287
 2055SOL    HW217625   3.886   0.372   4.825  0.4667  3.5877  1.6464
 2056SOL     OW17626   3.420   1.096  15.771  0.5302  0.5854  0.2055
 2056SOL    HW117627   3.472   1.175  15.759 -0.3942  1.4810  2.1004
 2056SOL    HW217628   3.445   1.047  15.692  1.0255  2.3367 -0.7194
 2057SOL     OW17629   2.714   1.846   8.881 -0.0450 -0.2614  0.4071
 2057SOL    HW117630   2.743   1.852   8.971  1.5374 -0.2852 -0.1039
 2057SOL    HW217631   2.680   1.757   8.887  0.0962 -0.2205  1.6222
 2058SOL     OW17632   1.111   2.881   9.418  0.6352 -0.3919  0.5212
 2058SOL    HW117633   1.130   2.815   9.352 -0.2024 -0.3385  0.2242
 2058SOL    HW217634   1.016   2.869   9.411  0.4218  2.8371 -2.3142
 2059SOL     OW17635   1.076   0.441  14.396  0.0008  0.0437 -0.5277
 2059SOL    HW117636   1.158   0.454  14.444 -1.3475  0.8179  1.5252
 2059SOL    HW217637   1.012   0.463  14.463  0.0614 -0.6899 -0.2292
 2060SOL     OW17638   0.077   1.127   7.203  0.2740  0.0778 -0.6069
 2060SOL    HW117639   0.103   1.060   7.139 -1.7011  0.6786 -2.0343
 2060SOL    HW217640   0.159   1.176   7.199  0.9758 -0.9537  1.1556
 2061SOL     OW17641   1.860   3.657   7.522  0.2447 -0.7932  0.1402
 2061SOL    HW117642   1.901   3.692   7.601  0.0096  2.5914 -1.2594
 2061SOL    HW217643   1.771   3.669   7.554 -0.5831 -0.0600 -2.5227
 2062SOL     OW17644   3.149   0.322   5.929 -0.2987  0.4586 -0.8485
 2062SOL    HW117645   3.099   0.317   5.848  0.2326  1.9508 -1.2616
 2062SOL    HW217646   3.198   0.404   5.920  0.2450  0.0699 -1.4142
 2063SOL     OW17647   4.574   0.083   6.326 -0.1104 -0.4993 -0.5222
 2063SOL    HW117648   4.613   4.718   6.338  1.6837  0.3455 -0.3431
 2063SOL    HW217649   4.595   0.097   6.234  3.2911  0.1483  0.3589
 2064SOL     OW17650   4.150   4.251   7.035 -0.3749 -0.2244  0.0876
 2064SOL    HW117651   4.182   4.178   6.982  2.6504  0.0220  1.5770
 2064SOL    HW217652   4.058   4.226   7.044 -1.1196  1.8972 -1.7204
 2065SOL     OW17653   1.061   2.896   6.979 -0.2031  0.4595  0.0547
 2065SOL    HW117654   1.140   2.888   6.925 -0.3913  0.1889 -0.1839
 2065SOL    HW217655   1.093   2.884   7.069  2.2101  0.3172 -0.8309
 2066SOL     OW17656   4.488   3.821   5.020  0.0550  0.6483 -0.0210
 2066SOL    HW117657   4.426   3.749   5.009 -0.4000  1.1680 -0.8182
 2066SOL    HW217658   4.523   3.835   4.932 -0.6203  1.2981 -0.1784
 2067SOL     OW17659   3.933   4.463  11.480 -0.3084 -0.1741  0.4050
 2067SOL    HW117660   3.991   4.411  11.535  1.0961  0.8102 -0.1467
 2067SOL    HW217661   3.879   4.398  11.435 -1.9066  2.0810 -0.9272
 2068SOL     OW17662   4.434   2.874   6.567  0.3609  0.1312 -0.2137
 2068SOL    HW117663   4.404   2.882   6.657  1.0801 -0.0079  0.0344
 2068SOL    HW217664   4.471   2.962   6.566  2.4646 -0.7603  0.1883
 2069SOL     OW17665   3.208   2.416   0.695 -0.1675 -0.6404 -0.3617
 2069SOL    HW117666   3.137   2.447   0.640  0.0409  0.0130 -0.2608
 2069SOL    HW217667   3.178   2.332   0.731  0.8534 -0.3801  1.1241
 2070SOL     OW17668   2.540   1.004   1.006 -0.0588 -0.0943 -0.1947
 2070SOL    HW117669   2.515   1.089   1.042  4.0836  1.3627 -0.8290
 2070SOL    HW217670   2.528   0.942   1.078  0.1320  0.9601  0.7365
 2071SOL     OW17671   2.969   4.341   2.155 -0.1222 -0.0613 -0.1521
 2071SOL    HW117672   2.981   4.313   2.246 -1.6236  2.3360  0.7488
 2071SOL    HW217673   2.883   4.381   2.160  0.0823  0.2229  1.0949
 2072SOL     OW17674   0.751   1.852  10.157 -0.6431 -0.2899  0.1343
 2072SOL    HW117675   0.752   1.935  10.204 -1.9689  1.1964 -2.4638
 2072SOL    HW217676   0.769   1.882  10.068  0.7967  0.3866  0.6610
 2073SOL     OW17677   4.134   4.325   5.397 -0.2748  0.2035 -0.2136
 2073SOL    HW117678   4.205   4.278   5.442  0.1636  0.8686 -0.2061
 2073SOL    HW217679   4.084   4.367   5.467 -0.2422  2.4269 -1.5064
 2074SOL     OW17680   4.657   0.665  14.878  0.3634 -0.0636  0.0695
 2074SOL    HW117681   4.638   0.572  14.874 -2.2190  0.4078  2.0507
 2074SOL    HW217682   4.624   0.693  14.963 -1.8360 -0.7990 -0.5424
 2075SOL     OW17683   2.486   0.043  12.133 -0.4478  0.2862 -0.0799
 2075SOL    HW117684   2.560   0.008  12.084 -0.4894  2.2722 -1.5443
 2075SOL    HW217685   2.519   0.017  12.219  1.1070 -1.7046 -1.2659
 2076SOL     OW17686   1.669   3.466   4.188 -0.4048 -0.4296 -0.6005
 2076SOL    HW117687   1.625   3.546   4.159 -2.1987 -0.9426  0.7006
 2076SOL    HW217688   1.745   3.489   4.241 -0.9349  0.3860 -0.1884
 2077SOL     OW17689   1.135   4.543   9.076  0.1156 -0.1747 -0.4357
 2077SOL    HW117690   1.166   4.468   9.126 -0.0325  0.9799  1.3676
 2077SOL    HW217691   1.168   4.526   8.988  2.1441 -2.5927  0.7874
 2078SOL     OW17692   2.950   2.732   2.910  0.0260  0.4378 -0.0257
 2078SOL    HW117693   3.006   2.806   2.932  0.6344  0.4376 -1.5744
 2078SOL    HW217694   2.982   2.696   2.828 -1.6927 -1.4620  0.1364
 2079SOL     OW17695   3.255   1.756   5.800  0.0480  0.1868 -0.3268
 2079SOL    HW117696   3.271   1.848   5.779 -0.5975  0.8750  2.2632
 2079SOL    HW217697   3.325   1.734   5.861 -0.6080 -0.0043  0.3553
 2080SOL     OW17698   0.897   3.978   1.115 -0.3476 -0.3498 -0.3638
 2080SOL    HW117699   0.958   3.908   1.094  0.8661  0.1374  1.4695
 2080SOL    HW217700   0.914   4.045   1.049  0.8514  2.5835  2.9171
 2081SOL     OW17701   2.134   0.323   7.229 -0.2564 -0.0240 -0.2591
 2081SOL    HW117702   2.062   0.267   7.202  0.3258 -1.0571  0.3240
 2081SOL    HW217703   2.138   0.323   7.325 -0.0986 -0.3569 -0.2680
 2082SOL     OW17704   2.921   1.360   1.982  0.4363  0.7423  0.5263
 2082SOL    HW117705   2.860   1.364   2.056  0.2242  2.5853  0.2350
 2082SOL    HW217706   2.966   1.279   2.007  2.8527  1.2269 -2.3125
 2083SOL     OW17707   1.448   3.916  13.852 -1.0726 -0.4023 -0.2505
 2083SOL    HW117708   1.449   3.866  13.933 -1.8331 -0.7699 -0.4662
 2083SOL    HW217709   1.517   3.874  13.801 -0.7428  3.7735 -3.2480
 2084SOL     OW17710   1.881   0.395   5.647  0.3168  0.2168  0.5307
 2084SOL    HW117711   1.818   0.334   5.686  0.5623  1.3126  2.6608
 2084SOL    HW217712   1.941   0.414   5.720 -0.4414  2.0141  0.6834
 2085SOL     OW17713   3.036   2.084   6.917  0.4665  0.0209  0.0522
 2085SOL    HW117714   3.015   1.991   6.912 -2.6689  0.6483  1.6232
 2085SOL    HW217715   2.966   2.121   6.864  1.8513 -2.7299 -3.6808
 2086SOL     OW17716   0.147   4.707   1.657  0.6884 -0.4701 -0.3394
 2086SOL    HW117717   0.192   0.036   1.589 -2.3739  0.9464 -1.3048
 2086SOL    HW217718   0.232   4.687   1.696 -0.7592 -1.1128  2.4941
 2087SOL     OW17719   1.591   2.187   6.393 -0.4722  0.0972 -0.3150
 2087SOL    HW117720   1.639   2.117   6.348  0.3694  0.3511  0.1795
 2087SOL    HW217721   1.614   2.187   6.486 -0.1427 -2.1537 -0.3919
 2088SOL     OW17722   0.729   1.400   9.004 -0.2610 -0.5053  0.3496
 2088SOL    HW117723   0.768   1.327   9.053  1.8359  0.0591 -0.5004
 2088SOL    HW217724   0.785   1.407   8.927 -1.9645  1.2088 -0.7453
 2089SOL     OW17725   2.590   1.665   3.025  0.0372 -0.0277 -0.3198
 2089SOL    HW117726   2.632   1.684   2.941  0.2650 -0.5786 -0.3299
 2089SOL    HW217727   2.505   1.707   3.011  0.6621  0.9022 -1.3185
 2090SOL     OW17728   1.055   0.728   8.056 -0.1801 -0.3213 -0.5138
 2090SOL    HW117729   1.009   0.803   8.093  2.1649 -0.4287  2.6059
 2090SOL    HW217730   1.129   0.738   8.115 -0.6941 -0.4927  0.1585
 2091SOL     OW17731   1.763   0.706  14.838  0.3684 -0.0905  0.0916
 2091SOL    HW117732   1.733   0.648  14.909  0.8357 -2.2991 -1.5062
 2091SOL    HW217733   1.717   0.672  14.761 -0.8432 -0.7843  1.1197
 2092SOL     OW17734   4.163   2.906   7.612 -0.6172 -0.4162 -0.5795
 2092SOL    HW117735   4.179   2.825   7.660 -3.4557 -0.7997 -0.2796
 2092SOL    HW217736   4.193   2.982   7.663  3.0350 -1.1428 -1.6292
 2093SOL     OW17737   2.827   2.172  11.191  0.4287  0.0904  0.3583
 2093SOL    HW117738   2.904   2.189  11.245 -1.1821  5.1559  1.0626
 2093SOL    HW217739   2.757   2.186  11.255 -0.7011 -0.3602 -0.7765
 2094SOL     OW17740   1.080   2.458  12.497  0.2112  0.2880  0.2585
 2094SOL    HW117741   1.028   2.437  12.575 -0.5800 -1.0530 -0.6253
 2094SOL    HW217742   1.028   2.521  12.447  0.9000 -0.1326 -0.9709
 2095SOL     OW17743   2.684   4.419   0.765 -0.2348  0.0688 -0.1921
 2095SOL    HW117744   2.654   4.497   0.813 -0.9060  0.0730 -0.6205
 2095SOL    HW217745   2.763   4.460   0.729  0.2315 -0.2722  0.4333
 2096SOL     OW17746   1.510   0.292   2.233 -0.1259  0.0303  0.5394
 2096SOL    HW117747   1.434   0.278   2.177 -0.8592  1.6513  1.1151
 2096SOL    HW217748   1.475   0.353   2.299  0.0328  2.3117 -1.4852
 2097SOL     OW17749   3.799   0.037  14.641  0.4901 -0.2887 -0.0542
 2097SOL    HW117750   3.733   0.040  14.711 -0.3063  2.5813 -0.8987
 2097SOL    HW217751   3.867   0.092  14.678 -1.3514  0.7692  1.7968
 2098SOL     OW17752   0.071   3.775   5.045  0.0645  0.2972 -0.3609
 2098SOL    HW117753   0.091   3.840   5.112  2.2672  2.3951 -3.0594
 2098SOL    HW217754   4.698   3.758   5.058  0.2526  1.8430  2.9036
 2099SOL     OW17755   1.786   0.546   4.664 -0.3236  0.2361 -0.0596
 2099SOL    HW117756   1.823   0.550   4.576  1.6375  2.3689  0.8787
 2099SOL    HW217757   1.758   0.637   4.668  1.7354  0.8610 -0.0992
 2100SOL     OW17758   1.278   4.324   8.634 -0.1023 -0.6628 -0.3077
 2100SOL    HW117759   1.304   4.378   8.560 -1.5079 -1.2512 -1.2302
 2100SOL    HW217760   1.354   4.267   8.647  0.6674  1.0031  2.6352
 2101SOL     OW17761   0.059   0.070  10.839  0.0131  0.2082 -0.5254
 2101SOL    HW117762   0.124   0.132  10.873 -0.9568  0.9834 -0.0595
 2101SOL    HW217763   0.008   0.117  10.773  0.1852  0.4490 -0.4868
 2102SOL     OW17764   0.818   1.118   7.709 -0.6751 -1.0079  0.0507
 2102SOL    HW117765   0.785   1.159   7.629 -1.4000  0.6639  1.2096
 2102SOL    HW217766   0.912   1.127   7.692 -0.6945 -1.2021 -0.1605
 2103SOL     OW17767   4.572   3.082  15.950  0.3485  0.0086  0.1057
 2103SOL    HW117768   4.489   3.121  15.977  0.8304  1.4734 -0.5419
 2103SOL    HW217769   4.545   3.043  15.866 -0.3041  2.0952 -0.6530
 2104SOL     OW17770   0.061   0.837   8.708 -0.4528  0.1547  0.3171
 2104SOL    HW117771   0.039   0.780   8.781 -0.3099 -1.3832 -0.8506
 2104SOL    HW217772   0.154   0.812   8.715  0.3124  3.4489  2.0953
 2105SOL     OW17773   2.293   1.271   6.704 -0.2394 -0.1090  0.5430
 2105SOL    HW117774   2.319   1.188   6.745  0.9783 -0.0064 -0.0332
 2105SOL    HW217775   2.270   1.223   6.625 -1.6549 -0.5851  1.2389
 2106SOL     OW17776   3.163   3.319   7.264 -0.4691 -0.0828 -0.1174
 2106SOL    HW117777   3.192   3.403   7.300 -0.1865 -0.1616 -0.1610
 2106SOL    HW217778   3.231   3.262   7.300  0.3771  1.4077  0.6235
 2107SOL     OW17779   4.371   3.136   0.643 -0.5347 -0.0154  0.0134
 2107SOL    HW117780   4.401   3.053   0.605  1.1189  0.0096  1.2654
 2107SOL    HW217781   4.455   3.176   0.668  0.1354 -1.8157  0.6803
 2108SOL     OW17782   0.090   2.124   7.924 -0.0540  0.0426 -0.1286
 2108SOL    HW117783   0.008   2.143   7.971 -1.2133 -0.2372 -2.0206
 2108SOL    HW217784   0.065   2.156   7.838 -0.3009  0.4312  0.0854
 2109SOL     OW17785   0.437   0.736   4.174 -0.0610  0.1310 -0.4084
 2109SOL    HW117786   0.528   0.761   4.160  0.5517 -0.0026  3.3138
 2109SOL    HW217787   0.426   0.758   4.267 -1.1667 -0.2716 -0.4407
 2110SOL     OW17788   0.736   1.761   7.399 -0.5363 -0.8011  0.8220
 2110SOL    HW117789   0.802   1.692   7.401  1.2426  0.7945 -2.8792
 2110SOL    HW217790   0.784   1.831   7.443 -1.9758 -0.1430  1.3372
 2111SOL     OW17791   0.083   1.515   7.452 -0.4742 -0.2573 -0.3555
 2111SOL    HW117792   0.058   1.552   7.367 -0.8557  1.0552  0.3312
 2111SOL    HW217793   0.138   1.442   7.421  0.2914  0.4239 -0.5987
 2112SOL     OW17794   4.505   2.918   0.568  0.8233  0.0650 -0.1470
 2112SOL    HW117795   4.596   2.935   0.545  0.9378 -0.2249  0.1026
 2112SOL    HW217796   4.470   2.895   0.482  0.8191 -1.1946  0.1985
 2113SOL     OW17797   3.136   3.050  14.843 -0.0023  0.5539  0.3044
 2113SOL    HW117798   3.145   3.008  14.757  2.0736  1.3127  0.1585
 2113SOL    HW217799   3.041   3.058  14.835  0.2045  0.5008 -2.3116
 2114SOL     OW17800   0.712   1.460   8.483 -0.7622 -0.1831 -0.0247
 2114SOL    HW117801   0.729   1.465   8.389  2.6200 -0.1586  0.6130
 2114SOL    HW217802   0.617   1.444   8.477 -0.5677 -1.4251  0.2703
 2115SOL     OW17803   1.491   0.510   1.810  0.1278 -0.6465  0.0420
 2115SOL    HW117804   1.487   0.572   1.884  2.0487 -0.7077  0.2058
 2115SOL    HW217805   1.409   0.462   1.819 -0.2138 -0.0566  0.1379
 2116SOL     OW17806   1.494   0.126  12.840  0.9393 -0.4706 -0.0618
 2116SOL    HW117807   1.429   0.185  12.804  1.4546  1.2907  1.8969
 2116SOL    HW217808   1.487   0.147  12.933 -1.9731  0.4784 -0.5067
 2117SOL     OW17809   3.379   3.004   7.044 -0.4277  0.1432  0.4090
 2117SOL    HW117810   3.339   3.089   7.028 -0.1849  0.6804  2.6598
 2117SOL    HW217811   3.471   3.029   7.049  0.0286 -1.3387 -0.3946
 2118SOL     OW17812   3.353   2.017   9.301  0.1454  0.2416  0.1521
 2118SOL    HW117813   3.402   1.954   9.354  2.7411  2.9655  0.9824
 2118SOL    HW217814   3.337   2.086   9.366  2.4661  0.2661  0.7039
 2119SOL     OW17815   2.819   0.479   2.826 -0.0212  0.1746  0.5163
 2119SOL    HW117816   2.771   0.411   2.874 -0.1972  0.3237  0.5504
 2119SOL    HW217817   2.893   0.440   2.781 -1.4311 -1.6068 -0.2627
 2120SOL     OW17818   1.838   0.247   3.326  0.1649 -0.1138 -0.2442
 2120SOL    HW117819   1.892   0.316   3.364  1.6545 -0.3229 -1.9934
 2120SOL    HW217820   1.839   0.270   3.233  1.0292  2.5521  0.4265
 2121SOL     OW17821   0.597   2.064   2.617 -0.0729  0.6803 -0.2092
 2121SOL    HW117822   0.647   2.008   2.558 -1.3304 -0.6533  0.0076
 2121SOL    HW217823   0.543   2.108   2.551  1.0880  0.9182 -0.9941
 2122SOL     OW17824   0.286   4.489   6.192 -0.4533 -0.4787  0.1325
 2122SOL    HW117825   0.281   4.536   6.275 -1.3686  0.1478 -0.2788
 2122SOL    HW217826   0.278   4.560   6.129 -1.3206 -0.8506 -0.1883
 2123SOL     OW17827   3.937   3.941  15.831 -0.2111  0.4602 -0.1256
 2123SOL    HW117828   3.990   3.867  15.801 -0.3648 -0.1956  1.2562
 2123SOL    HW217829   3.940   3.925  15.925 -2.7423  1.7428  0.1574
 2124SOL     OW17830   2.042   3.909   6.189  0.6430 -0.0121  0.0784
 2124SOL    HW117831   1.953   3.933   6.215  0.7749  0.4582  0.0870
 2124SOL    HW217832   2.035   3.898   6.095  0.0177 -0.9897  0.2372
 2125SOL     OW17833   1.245   1.795  11.680  0.1922  0.3549 -0.2268
 2125SOL    HW117834   1.311   1.837  11.625  1.0890  1.8829  1.9803
 2125SOL    HW217835   1.202   1.734  11.620 -1.9939  0.3937  1.2841
 2126SOL     OW17836   4.334   3.798  15.393 -0.1446  0.3218 -0.3763
 2126SOL    HW117837   4.267   3.729  15.403  1.8326 -1.9125 -2.4937
 2126SOL    HW217838   4.331   3.832  15.482  3.5048 -1.4460  0.4098
 2127SOL     OW17839   3.964   1.565   4.043 -0.4907 -0.2142  0.0745
 2127SOL    HW117840   4.055   1.584   4.018 -0.9327  1.6485 -0.1590
 2127SOL    HW217841   3.917   1.541   3.963 -0.2572 -2.3400  0.5837
 2128SOL     OW17842   3.751   0.462   3.634  0.2786 -0.0665 -0.4073
 2128SOL    HW117843   3.723   0.406   3.562 -1.8064 -1.3241  1.3687
 2128SOL    HW217844   3.806   0.404   3.687 -1.2541 -0.8535  0.3463
 2129SOL     OW17845   1.189   0.562  15.450 -0.1929 -0.1180 -0.7160
 2129SOL    HW117846   1.215   0.603  15.368 -2.1783  1.0176 -0.7594
 2129SOL    HW217847   1.209   0.469  15.436  0.0168 -0.1470 -0.2324
 2130SOL     OW17848   0.579   2.095   6.561  0.5925  0.0304 -0.5609
 2130SOL    HW117849   0.586   2.154   6.636  0.9481 -0.9528  0.1755
 2130SOL    HW217850   0.490   2.062   6.568  0.9289 -0.5445  0.9239
 2131SOL     OW17851   3.214   1.060   4.044  0.3884 -0.4053  0.2409
 2131SOL    HW117852   3.242   1.124   3.979 -3.3266 -1.8012 -2.7904
 2131SOL    HW217853   3.272   1.062   4.120  0.7389 -1.6990  0.0145
 2132SOL     OW17854   2.670   1.776   5.119  0.2635 -0.0299  0.1790
 2132SOL    HW117855   2.664   1.812   5.208  1.1100 -2.9230  1.4006
 2132SOL    HW217856   2.635   1.687   5.127 -0.3594  0.3729  2.0038
 2133SOL     OW17857   4.184   0.112  14.070  0.8509 -0.5004 -0.5594
 2133SOL    HW117858   4.228   0.178  14.015  0.5357 -0.5394 -0.8559
 2133SOL    HW217859   4.259   0.100  14.128  2.2131 -1.3637 -2.4948
 2134SOL     OW17860   0.033   1.557   3.687 -0.1809  0.6280  0.0169
 2134SOL    HW117861   4.715   1.469   3.693  2.6522 -0.7246 -1.2730
 2134SOL    HW217862   0.115   1.541   3.640 -0.1067  2.1459 -0.3644
 2135SOL     OW17863   1.717   1.516   4.359  0.0700 -0.3639  0.0523
 2135SOL    HW117864   1.681   1.462   4.430 -1.8736  1.1675  0.2208
 2135SOL    HW217865   1.642   1.539   4.306 -0.3376  0.3316  0.9296
 2136SOL     OW17866   2.070   3.305  10.347  0.5110  0.2790 -0.4333
 2136SOL    HW117867   2.047   3.213  10.353 -0.6102  0.8090  3.5103
 2136SOL    HW217868   2.154   3.307  10.394 -1.5299  2.6248  3.0815
 2137SOL     OW17869   0.279   1.432  11.910 -0.2121 -0.1782  0.2338
 2137SOL    HW117870   0.239   1.464  11.830 -1.5043 -0.9150  0.5891
 2137SOL    HW217871   0.338   1.506  11.922 -1.4375  1.0105 -1.1432
 2138SOL     OW17872   1.469   3.906  17.017  0.0384  0.4917 -0.1373
 2138SOL    HW117873   1.543   3.946  17.063 -0.1692 -1.9507  2.3358
 2138SOL    HW217874   1.495   3.898  16.925 -0.1159 -0.8303 -0.0602
 2139SOL     OW17875   3.819   2.589   2.465  0.7043  0.4414  0.1410
 2139SOL    HW117876   3.867   2.507   2.475  0.7515 -0.0264 -3.9701
 2139SOL    HW217877   3.802   2.587   2.371  1.4613 -0.8230  0.0249
 2140SOL     OW17878   2.812   1.430  10.366 -0.2030  0.3683 -0.3277
 2140SOL    HW117879   2.789   1.473  10.448  2.0883  0.1676  0.4140
 2140SOL    HW217880   2.907   1.435  10.363 -0.1745  0.3417  0.4337
 2141SOL     OW17881   0.211   4.460  17.185 -0.8031 -0.4533 -0.3487
 2141SOL    HW117882   0.189   4.410  17.263 -0.3222 -1.3448 -0.7903
 2141SOL    HW217883   0.153   4.421  17.119 -1.7215  2.9871 -1.5811
 2142SOL     OW17884   2.928   1.297  13.264 -0.3185 -0.4692  0.3560
 2142SOL    HW117885   2.881   1.377  13.242  0.1479  0.0911  1.4068
 2142SOL    HW217886   2.997   1.331  13.321  0.2984 -1.6821  0.3330
 2143SOL     OW17887   3.710   0.732   2.389 -0.2587  0.0179 -0.7390
 2143SOL    HW117888   3.726   0.760   2.298  0.3207 -0.8357 -0.9062
 2143SOL    HW217889   3.715   0.638   2.372  0.5601 -0.5487  2.6852
 2144SOL     OW17890   1.851   0.088   8.655  0.4104 -0.7377  0.1491
 2144SOL    HW117891   1.945   0.077   8.670  0.7281  1.6893 -0.0187
 2144SOL    HW217892   1.820   0.162   8.707 -1.5919  0.0151 -2.0961
 2145SOL     OW17893   2.215   4.696   2.460 -0.4765 -0.0730 -0.3635
 2145SOL    HW117894   2.154   4.627   2.488 -0.9603  0.1547 -0.8529
 2145SOL    HW217895   2.226   4.669   2.369 -4.2161 -1.4438 -0.4387
 2146SOL     OW17896   1.728   2.505   4.962  0.4370 -0.3254 -0.2650
 2146SOL    HW117897   1.811   2.526   4.917 -1.4988  1.8448 -2.8534
 2146SOL    HW217898   1.694   2.594   4.953 -0.5915 -0.6761  0.2763
 2147SOL     OW17899   1.643   4.596   9.780  0.4413  0.4504 -0.1078
 2147SOL    HW117900   1.687   4.525   9.732 -1.4056  1.1582 -2.8191
 2147SOL    HW217901   1.636   4.558   9.867  0.5508  0.6029 -0.0340
 2148SOL     OW17902   0.841   0.055   3.882  0.3436  0.1303 -0.0250
 2148SOL    HW117903   0.859   0.132   3.937  1.0076 -1.7044  2.3319
 2148SOL    HW217904   0.832   4.703   3.945  1.7022  2.0014  2.3150
 2149SOL     OW17905   3.564   2.940   2.432 -0.1619 -0.0136  0.5753
 2149SOL    HW117906   3.489   2.910   2.381 -0.0622 -1.2169  1.1480
 2149SOL    HW217907   3.524   3.004   2.492 -0.5879  0.2386  0.0203
 2150SOL     OW17908   0.484   4.441   1.550 -0.5459 -0.1920 -0.4473
 2150SOL    HW117909   0.507   4.488   1.630 -0.6477 -0.5243 -0.2184
 2150SOL    HW217910   0.530   4.357   1.555 -0.0415  0.0693 -0.8147
 2151SOL     OW17911   1.129   1.039   7.934  0.6303 -0.4297  0.5293
 2151SOL    HW117912   1.210   0.994   7.909  0.1390 -0.9571 -0.1388
 2151SOL    HW217913   1.118   1.101   7.862 -1.5133 -1.8298 -0.3733
 2152SOL     OW17914   1.823   2.261   4.504 -0.5646 -0.1334  0.0375
 2152SOL    HW117915   1.894   2.310   4.462  1.9013 -1.8098  2.2387
 2152SOL    HW217916   1.866   2.176   4.498  0.4125  0.2284  1.6291
 2153SOL     OW17917   0.433   0.161   7.447 -0.1269  0.4112 -0.4866
 2153SOL    HW117918   0.364   0.188   7.506 -1.4950 -2.9976 -0.5340
 2153SOL    HW217919   0.384   0.157   7.364  0.2117 -2.1202 -0.5625
 2154SOL     OW17920   0.036   3.121   9.016 -0.0813  0.7750 -0.1583
 2154SOL    HW117921   0.089   3.130   9.095 -0.9995  4.0766  0.0796
 2154SOL    HW217922   4.672   3.099   9.056  0.4358  0.3760  0.7102
 2155SOL     OW17923   4.377   3.298   3.227 -0.2659 -0.1498  0.0233
 2155SOL    HW117924   4.365   3.336   3.314 -2.3345  2.1514 -1.2476
 2155SOL    HW217925   4.290   3.270   3.197 -0.9481  0.7255  1.1789
 2156SOL     OW17926   3.600   4.400  15.781 -0.5234 -0.4407  0.4201
 2156SOL    HW117927   3.696   4.397  15.782 -0.4795  0.8689  0.7646
 2156SOL    HW217928   3.583   4.493  15.798  0.0194 -0.6391  2.0347
 2157SOL     OW17929   1.622   2.091   2.666 -0.5095  0.0229  0.2329
 2157SOL    HW117930   1.565   2.127   2.598 -2.0669 -0.8420  1.0720
 2157SOL    HW217931   1.651   2.023   2.606 -0.6482  2.3212 -2.4352
 2158SOL     OW17932   1.194   1.758   7.686 -0.0589 -0.3423  0.4237
 2158SOL    HW117933   1.247   1.678   7.689  1.4016  0.6158 -0.0555
 2158SOL    HW217934   1.223   1.804   7.607  0.8803 -0.1480  0.8871
 2159SOL     OW17935   1.660   2.897   2.276 -0.0674 -0.1590 -0.4671
 2159SOL    HW117936   1.594   2.827   2.269  0.5258 -1.1433  3.7507
 2159SOL    HW217937   1.722   2.848   2.330 -1.0228 -0.6100  0.2141
 2160SOL     OW17938   2.047   4.522   6.882  0.0872 -0.4198  0.2834
 2160SOL    HW117939   2.014   4.452   6.824  1.2399  0.9993 -2.0538
 2160SOL    HW217940   2.090   4.464   6.945  0.6451  0.7854  0.9857
 2161SOL     OW17941   2.417   2.670   7.475  0.1348  0.1567 -0.2901
 2161SOL    HW117942   2.402   2.764   7.466  0.0124 -0.0352 -2.1996
 2161SOL    HW217943   2.512   2.669   7.460  0.5363  0.0513  2.2046
 2162SOL     OW17944   0.529   2.340   0.825 -0.4254 -0.4442  1.3471
 2162SOL    HW117945   0.458   2.395   0.791  0.4668  0.5728  1.1031
 2162SOL    HW217946   0.595   2.348   0.756 -1.9094  2.2661  0.2465
 2163SOL     OW17947   1.233   3.460   0.155 -0.4256 -0.0372  0.1589
 2163SOL    HW117948   1.245   3.410   0.236  0.6567 -0.1203 -0.0496
 2163SOL    HW217949   1.158   3.515   0.180 -2.7580 -2.7399 -0.9382
 2164SOL     OW17950   3.949   0.201   2.724  0.3727  0.2984 -0.0165
 2164SOL    HW117951   3.859   0.225   2.743  0.1382 -0.0817 -0.6627
 2164SOL    HW217952   3.931   0.156   2.642  1.4264 -2.3950  1.2103
 2165SOL     OW17953   1.669   3.438  14.982 -0.1006 -0.0554  0.7846
 2165SOL    HW117954   1.644   3.349  14.955 -1.4099  0.6020 -0.1548
 2165SOL    HW217955   1.747   3.417  15.034  0.2172 -0.8321  0.0074
 2166SOL     OW17956   2.264   2.123   5.700 -0.8032  0.3036  0.0712
 2166SOL    HW117957   2.249   2.217   5.714  2.2674  0.6411  1.1311
 2166SOL    HW217958   2.179   2.105   5.661 -1.3661  1.4962  0.7494
 2167SOL     OW17959   2.423   2.028   6.167 -0.0124  0.2280  0.1131
 2167SOL    HW117960   2.434   1.957   6.231 -1.0382 -0.8858 -0.9301
 2167SOL    HW217961   2.502   2.079   6.179  0.4094 -0.5075  0.5056
 2168SOL     OW17962   2.297   0.121   0.861  0.0502 -0.2978  0.3453
 2168SOL    HW117963   2.227   0.175   0.823 -0.2348 -1.2509 -0.4687
 2168SOL    HW217964   2.269   0.138   0.952 -1.0823 -0.2879 -0.0018
 2169SOL     OW17965   0.385   3.951   7.755 -0.2404  0.1485  0.2509
 2169SOL    HW117966   0.299   3.988   7.773 -1.3963 -2.0198 -0.8654
 2169SOL    HW217967   0.444   4.027   7.759  1.2584 -1.0621  0.9329
 2170SOL     OW17968   3.388   0.827  12.790  0.1284 -0.3625 -0.4825
 2170SOL    HW117969   3.364   0.917  12.771  0.9202  0.0334  0.3718
 2170SOL    HW217970   3.409   0.829  12.884  2.2760 -1.9485 -0.8954
 2171SOL     OW17971   3.284   4.371   5.484  0.0391 -0.2866  0.2904
 2171SOL    HW117972   3.288   4.305   5.415 -1.3663  1.6450 -1.6448
 2171SOL    HW217973   3.223   4.436   5.448  0.9104  0.4612  0.1630
 2172SOL     OW17974   0.328   1.161   0.397 -0.0810  0.1879 -0.3194
 2172SOL    HW117975   0.333   1.084   0.454 -1.8170  0.1218 -0.2341
 2172SOL    HW217976   0.363   1.227   0.456  0.4600 -1.8924  1.6866
 2173SOL     OW17977   3.659   2.861   6.842 -0.0688  0.1487  0.1426
 2173SOL    HW117978   3.635   2.798   6.774  1.0765 -0.1778  0.0464
 2173SOL    HW217979   3.661   2.797   6.913  1.0827 -0.7641 -0.7237
 2174SOL     OW17980   3.776   3.100   3.272  0.5896 -0.7199 -0.0505
 2174SOL    HW117981   3.757   3.189   3.242  1.7014 -0.1823  0.8239
 2174SOL    HW217982   3.778   3.034   3.203 -1.3153  1.0170 -1.7816
 2175SOL     OW17983   2.202   0.019   0.281  0.2985 -0.4361 -0.4243
 2175SOL    HW117984   2.298   0.024   0.284  0.3318 -0.6334 -1.2200
 2175SOL    HW217985   2.189   4.682   0.205 -4.4354  0.0953 -0.0110
 2176SOL     OW17986   1.434   2.730   3.656 -0.5131 -0.1341  0.2026
 2176SOL    HW117987   1.374   2.795   3.619 -0.6192  0.4877  1.4851
 2176SOL    HW217988   1.486   2.782   3.717  0.9259 -0.4200 -0.7788
 2177SOL     OW17989   3.998   3.050  15.137  0.4806  0.2493 -0.0977
 2177SOL    HW117990   4.047   2.997  15.200  1.9830  1.9528  0.1645
 2177SOL    HW217991   4.025   3.140  15.158  1.1297  0.4834 -1.9358
 2178SOL     OW17992   2.360   0.269   5.532  0.2649  0.2921 -0.2743
 2178SOL    HW117993   2.296   0.205   5.563  0.8914 -0.8310 -1.2886
 2178SOL    HW217994   2.423   0.218   5.481  0.4203  0.0431  0.1727
 2179SOL     OW17995   3.402   3.841   5.339 -0.4722 -0.4054  0.7499
 2179SOL    HW117996   3.333   3.874   5.282  0.1355 -0.3192  0.0580
 2179SOL    HW217997   3.453   3.815   5.262 -2.7357 -2.8166  0.0895
 2180SOL     OW17998   0.323   3.768   5.127  0.2554 -0.1038 -0.3658
 2180SOL    HW117999   0.249   3.756   5.067  0.5375 -1.2459 -0.4869
 2180SOL    HW218000   0.291   3.814   5.205 -1.6232 -0.8911 -0.6656
 2181SOL     OW18001   3.115   4.667   2.734  0.3156  0.0597  0.1623
 2181SOL    HW118002   3.199   4.655   2.690  0.3417 -0.5124  0.3609
 2181SOL    HW218003   3.122   0.040   2.752 -2.2424  0.1991  0.3371
 2182SOL     OW18004   0.395   2.352   4.510  0.0611  0.0427  0.1397
 2182SOL    HW118005   0.348   2.426   4.549  0.2834  1.3145 -1.9928
 2182SOL    HW218006   0.361   2.351   4.421 -1.4699 -0.7402  0.7419
 2183SOL     OW18007   2.769   3.707  15.650 -0.0247  0.0212 -0.0378
 2183SOL    HW118008   2.829   3.654  15.597  0.8356 -1.5091  2.4612
 2183SOL    HW218009   2.816   3.790  15.656  3.1264 -1.5893 -2.3545
 2184SOL     OW18010   3.579   0.523  10.787 -0.5906  0.2764  0.1193
 2184SOL    HW118011   3.656   0.466  10.796  0.2135  1.7057  2.1001
 2184SOL    HW218012   3.613   0.608  10.813 -0.6061  0.9278 -1.9967
 2185SOL     OW18013   0.852   1.099  14.330 -0.2901 -0.6041 -0.2389
 2185SOL    HW118014   0.793   1.072  14.399  0.8932  2.1947  1.8980
 2185SOL    HW218015   0.800   1.168  14.288  0.0525 -0.4394 -0.3980
 2186SOL     OW18016   1.738   4.255   1.024 -0.2410 -1.0866 -0.4830
 2186SOL    HW118017   1.706   4.273   0.935  0.9541 -0.3786 -0.7811
 2186SOL    HW218018   1.816   4.212   0.988  1.9145  2.5025 -0.1760
 2187SOL     OW18019   1.766   1.216   6.027 -0.4793 -0.8755  0.0757
 2187SOL    HW118020   1.707   1.147   5.997 -1.8583  0.6291 -0.7153
 2187SOL    HW218021   1.855   1.188   6.009  0.2611 -0.0369  2.3789
 2188SOL     OW18022   0.545   3.262   7.785 -0.0817 -0.2989  0.4454
 2188SOL    HW118023   0.529   3.287   7.876  0.0846 -1.2196  0.7302
 2188SOL    HW218024   0.497   3.179   7.792  0.3703 -0.8405 -2.8567
 2189SOL     OW18025   3.989   0.081   4.717  0.2339  0.0201  0.0276
 2189SOL    HW118026   3.950   0.054   4.800 -1.1564 -2.1325 -1.3320
 2189SOL    HW218027   3.924   0.145   4.685  0.8018  0.8914  0.6252
 2190SOL     OW18028   3.349   3.070  17.421  0.0854 -0.1106 -0.6172
 2190SOL    HW118029   3.349   3.129  17.497 -2.5880 -0.2015 -0.5492
 2190SOL    HW218030   3.271   3.022  17.449  0.4361 -0.3926 -0.1175
 2191SOL     OW18031   1.665   2.022   4.031 -0.6152 -0.2793  0.1855
 2191SOL    HW118032   1.596   1.957   4.021 -2.5167  1.9461 -1.2573
 2191SOL    HW218033   1.613   2.087   4.079  1.4398  1.9944 -0.6463
 2192SOL     OW18034   0.304   1.940   6.887  0.4351 -0.8019 -0.1559
 2192SOL    HW118035   0.362   1.955   6.961  1.4355  1.0839 -1.3170
 2192SOL    HW218036   0.355   1.983   6.818  1.9131 -0.9931  0.8316
 2193SOL     OW18037   0.475   1.126  14.312 -0.1969  0.2678  0.8424
 2193SOL    HW118038   0.528   1.088  14.382 -0.0604 -0.5839  0.2650
 2193SOL    HW218039   0.542   1.190  14.287 -1.5779  0.1843 -3.1140
 2194SOL     OW18040   0.612   3.231   2.527  0.4127  0.1281 -0.2611
 2194SOL    HW118041   0.630   3.137   2.533  1.2278  0.1682 -1.9801
 2194SOL    HW218042   0.699   3.268   2.539  0.5361 -0.3662  0.3373
 2195SOL     OW18043   3.419   0.367   3.008 -0.3054 -0.4457 -0.0182
 2195SOL    HW118044   3.364   0.368   2.929  0.4931  1.8324 -0.5639
 2195SOL    HW218045   3.438   0.274   3.012  1.4243 -0.0712  0.2999
 2196SOL     OW18046   1.186   2.064   2.649 -0.0044 -0.4703  0.0519
 2196SOL    HW118047   1.248   2.106   2.589 -1.9602  0.9731 -0.9586
 2196SOL    HW218048   1.171   2.135   2.712 -1.0116 -1.9002  1.3982
 2197SOL     OW18049   2.963   4.143   7.274 -0.8548 -0.4419 -0.3652
 2197SOL    HW118050   2.936   4.208   7.208  1.1992  2.3934  1.6038
 2197SOL    HW218051   3.045   4.105   7.244 -0.5068  1.0572 -1.3199
 2198SOL     OW18052   2.710   3.776   7.342  0.3103  0.5376 -0.5912
 2198SOL    HW118053   2.760   3.805   7.265  0.7348  0.7908 -0.2248
 2198SOL    HW218054   2.621   3.771   7.308  0.1622 -0.4061 -0.0552
 2199SOL     OW18055   3.754   3.184   2.074 -0.1147  0.0495  0.4625
 2199SOL    HW118056   3.692   3.257   2.069  0.1597  0.4378  2.7584
 2199SOL    HW218057   3.770   3.177   2.168 -0.7569  1.9203  0.7040
 2200SOL     OW18058   4.039   3.815  14.395  0.1220 -0.0798  0.1231
 2200SOL    HW118059   3.985   3.892  14.415  0.7812 -0.4333  3.1591
 2200SOL    HW218060   3.969   3.750  14.395  2.0055 -2.0917  0.0742
 2201SOL     OW18061   2.275   3.791   0.790 -0.2829 -0.3222  0.0004
 2201SOL    HW118062   2.366   3.787   0.819  0.2377 -1.5941 -1.8208
 2201SOL    HW218063   2.289   3.786   0.695  0.0367  3.1620 -0.1429
 2202SOL     OW18064   3.423   2.558   0.709 -0.0270  0.2748  0.5856
 2202SOL    HW118065   3.495   2.505   0.743 -0.8317 -0.7690  0.6455
 2202SOL    HW218066   3.362   2.488   0.687  3.7996 -3.0226  0.4501
 2203SOL     OW18067   1.306   2.255   1.639 -0.4951  0.6644 -0.9333
 2203SOL    HW118068   1.370   2.305   1.589 -2.2444  1.2878 -2.5717
 2203SOL    HW218069   1.249   2.221   1.570 -0.6349  0.3800 -0.6782
 2204SOL     OW18070   3.059   0.451   6.935 -0.0828 -0.0378 -1.1414
 2204SOL    HW118071   2.978   0.401   6.931  0.1051 -0.4563  0.2633
 2204SOL    HW218072   3.036   0.522   6.996  1.4208  1.9724 -2.9040
 2205SOL     OW18073   1.003   1.716  17.064  0.1074 -0.0188  0.3340
 2205SOL    HW118074   1.011   1.647  17.129 -1.2466 -0.2742  0.2328
 2205SOL    HW218075   1.090   1.756  17.064  1.2291 -2.4966 -0.1246
 2206SOL     OW18076   3.699   1.708   7.001  0.3109 -0.8282 -0.1216
 2206SOL    HW118077   3.643   1.660   7.062 -0.3952  1.4468  1.0261
 2206SOL    HW218078   3.712   1.798   7.029  0.3295 -1.6197  2.4055
 2207SOL     OW18079   1.391   2.475   3.783 -0.2101 -0.2935  0.2794
 2207SOL    HW118080   1.397   2.563   3.747  1.4668 -0.6726 -0.3686
 2207SOL    HW218081   1.305   2.454   3.746 -0.0653 -0.2065 -0.1124
 2208SOL     OW18082   3.243   2.869   5.917  0.0777  0.7428 -0.5200
 2208SOL    HW118083   3.223   2.962   5.914  0.3822  0.8647  0.8892
 2208SOL    HW218084   3.291   2.862   5.834 -2.2670  0.0404 -1.8131
 2209SOL     OW18085   0.332   0.740   8.776  0.3119  0.4037 -0.5101
 2209SOL    HW118086   0.381   0.667   8.738 -1.9800 -2.3114  1.7372
 2209SOL    HW218087   0.338   0.720   8.870 -0.6981  0.7405 -0.3734
 2210SOL     OW18088   1.769   3.287   8.536 -0.3713 -0.2098 -0.0126
 2210SOL    HW118089   1.787   3.251   8.623  1.1002 -3.7156 -1.7626
 2210SOL    HW218090   1.724   3.211   8.498  0.3910 -0.3954 -0.5286
 2211SOL     OW18091   0.405   3.493  15.632 -0.0731 -0.4459 -0.5596
 2211SOL    HW118092   0.403   3.503  15.537  1.6350  3.8924 -0.1320
 2211SOL    HW218093   0.314   3.507  15.659 -0.4083  1.4539 -2.5700
 2212SOL     OW18094   0.563   4.320   2.346  0.0486  0.6719 -0.3175
 2212SOL    HW118095   0.574   4.381   2.418 -0.9926  0.9545 -0.3947
 2212SOL    HW218096   0.598   4.241   2.387 -0.3308  2.2753  3.1038
 2213SOL     OW18097   0.238   4.616   4.571  0.0709 -0.0351 -0.6367
 2213SOL    HW118098   0.192   4.561   4.635  1.4532 -1.7478 -1.0941
 2213SOL    HW218099   0.176   4.605   4.499  1.5615  0.2373 -1.9562
 2214SOL     OW18100   2.807   1.464   6.918  0.2070  0.4059  0.0031
 2214SOL    HW118101   2.821   1.545   6.870 -0.3141  1.4329  1.6135
 2214SOL    HW218102   2.740   1.427   6.860  2.0504 -2.3193 -0.3893
 2215SOL     OW18103   3.881   4.162   6.837 -0.1675 -0.8432  0.0259
 2215SOL    HW118104   3.932   4.242   6.826 -0.1579 -0.5887  1.8948
 2215SOL    HW218105   3.902   4.123   6.752  0.8954  0.9276 -0.5355
 2216SOL     OW18106   1.998   3.069  13.173  0.3179 -0.1868 -0.8253
 2216SOL    HW118107   2.016   3.057  13.266 -1.0600  1.6081 -0.3229
 2216SOL    HW218108   1.909   3.037  13.158  0.4037  0.4726 -2.7117
 2217SOL     OW18109   3.249   2.918   1.078  0.1581  0.3304 -0.4434
 2217SOL    HW118110   3.173   2.885   1.126 -0.7072  1.5397 -0.9805
 2217SOL    HW218111   3.267   2.984   1.145 -0.2076  2.0321 -2.0301
 2218SOL     OW18112   0.950   1.554   6.039  0.1634 -0.0280  0.1457
 2218SOL    HW118113   0.875   1.533   6.094  0.4520 -0.2656  0.4458
 2218SOL    HW218114   0.914   1.630   5.993 -1.2051 -0.5255  0.3758
 2219SOL     OW18115   3.130   0.977  14.272 -0.2984 -0.1867  0.2791
 2219SOL    HW118116   3.077   1.028  14.333  1.7754  1.6881  0.4939
 2219SOL    HW218117   3.212   0.969  14.320 -1.6008  1.7267  2.8566
 2220SOL     OW18118   1.269   0.465   8.935 -0.3709  0.2962 -0.1183
 2220SOL    HW118119   1.206   0.524   8.976 -0.2207  0.1838  0.2735
 2220SOL    HW218120   1.217   0.439   8.859 -2.4025  2.2419  0.6118
 2221SOL     OW18121   2.779   3.133   8.775 -0.0098 -0.0745 -0.3339
 2221SOL    HW118122   2.722   3.067   8.816  1.0693  1.0083  2.8676
 2221SOL    HW218123   2.726   3.200   8.733  1.0874 -0.8467 -2.9242
 2222SOL     OW18124   0.911   1.619  13.638 -0.4124  0.0771 -0.1278
 2222SOL    HW118125   0.831   1.671  13.624 -0.3209  0.2941  0.1493
 2222SOL    HW218126   0.903   1.573  13.554  1.1825 -1.4139  0.5416
 2223SOL     OW18127   2.530   4.242   3.616  0.2251 -0.2311  0.1328
 2223SOL    HW118128   2.552   4.161   3.661  1.5250 -0.1098 -0.2932
 2223SOL    HW218129   2.610   4.246   3.565 -0.2449  1.1888 -0.4974
 2224SOL     OW18130   4.623   2.292   8.953  0.5856  0.7141  0.3619
 2224SOL    HW118131   4.642   2.372   8.904 -2.4612  1.8492  1.0230
 2224SOL    HW218132   4.536   2.267   8.921  0.7679  1.1635 -0.5024
 2225SOL     OW18133   1.607   0.397   6.434  0.1130 -1.0466 -0.2458
 2225SOL    HW118134   1.660   0.471   6.404 -1.0699 -0.8727 -1.8784
 2225SOL    HW218135   1.653   0.368   6.513  1.2672 -2.3474 -1.4103
 2226SOL     OW18136   0.433   0.520   6.805  0.1134  0.1882  0.8606
 2226SOL    HW118137   0.447   0.611   6.827  0.1275  0.6890 -1.1769
 2226SOL    HW218138   0.498   0.477   6.861 -0.1614 -0.5240  0.6411
 2227SOL     OW18139   1.849   3.502  11.147 -0.0861  0.1065  0.2572
 2227SOL    HW118140   1.823   3.505  11.239 -1.1254  0.7114 -0.0639
 2227SOL    HW218141   1.807   3.420  11.123  0.3297 -0.0568  0.0855
 2228SOL     OW18142   2.816   3.656   4.521  0.3164  0.5036 -0.1609
 2228SOL    HW118143   2.774   3.693   4.443 -1.3753  0.4320  0.7259
 2228SOL    HW218144   2.822   3.733   4.578  2.4378  1.0053 -1.0315
 2229SOL     OW18145   0.335   0.893  10.576 -0.1641 -0.3403 -0.3775
 2229SOL    HW118146   0.274   0.865  10.508 -0.6624 -1.2498  0.4498
 2229SOL    HW218147   0.335   0.988  10.563 -1.0237 -0.3420 -0.3975
 2230SOL     OW18148   3.878   0.013   9.037  0.6756 -0.6035 -0.2448
 2230SOL    HW118149   3.917   4.667   9.093 -0.2166 -0.7765  0.1789
 2230SOL    HW218150   3.834   0.059   9.109 -0.6324 -1.4563 -0.5031
 2231SOL     OW18151   2.072   2.066   7.735 -0.1984  0.0154 -0.0544
 2231SOL    HW118152   2.132   2.139   7.747  1.3278 -1.5018  1.4936
 2231SOL    HW218153   2.082   2.011   7.813  0.5132  0.4746  0.1749
 2232SOL     OW18154   1.792   2.572  11.218  0.3457  0.3687 -0.1907
 2232SOL    HW118155   1.867   2.593  11.163 -0.9232  1.2568 -1.5761
 2232SOL    HW218156   1.747   2.656  11.220 -0.3561 -0.0038 -0.1815
 2233SOL     OW18157   1.292   1.869  14.782  0.4873 -0.1872  0.0130
 2233SOL    HW118158   1.269   1.780  14.753 -0.8968 -0.3908  1.7291
 2233SOL    HW218159   1.369   1.877  14.726  0.1052  0.0499 -0.4682
 2234SOL     OW18160   2.104   3.835   4.416  0.0580 -0.5110  0.1155
 2234SOL    HW118161   2.148   3.890   4.481 -2.3512  0.9185  0.5341
 2234SOL    HW218162   2.060   3.775   4.475  1.0029 -1.1345  0.1897
 2235SOL     OW18163   2.713   2.698   3.396 -0.4406  0.3187  0.1745
 2235SOL    HW118164   2.723   2.654   3.311  1.4530  2.9384 -0.9507
 2235SOL    HW218165   2.686   2.788   3.380 -2.6008 -0.1037  1.4495
 2236SOL     OW18166   3.818   1.237   1.665 -0.2487 -0.2882  0.3075
 2236SOL    HW118167   3.847   1.309   1.610 -1.4397  1.1326  1.5367
 2236SOL    HW218168   3.884   1.246   1.734  0.8367  2.7693 -1.1474
 2237SOL     OW18169   4.376   1.042   3.948  0.0604 -0.1160 -0.0475
 2237SOL    HW118170   4.375   0.989   3.869 -2.8376 -1.6081  0.9670
 2237SOL    HW218171   4.357   0.964   4.000 -1.4716  0.3026  0.0117
 2238SOL     OW18172   1.597   3.661   3.105 -0.0063  0.0500 -0.4364
 2238SOL    HW118173   1.603   3.659   3.010  0.8082  2.1181 -0.4286
 2238SOL    HW218174   1.633   3.572   3.111  0.2965  0.0386 -2.5986
 2239SOL     OW18175   3.590   2.799   3.867  0.2429  0.0861 -0.1597
 2239SOL    HW118176   3.619   2.803   3.958  0.2966 -0.9385 -0.1270
 2239SOL    HW218177   3.512   2.744   3.873  1.5830 -2.0122 -1.7941
 2240SOL     OW18178   3.346   0.119  17.555 -0.1771 -0.5794  0.5862
 2240SOL    HW118179   3.404   0.178  17.604  2.7669 -1.7435 -1.5002
 2240SOL    HW218180   3.287   0.100  17.628 -1.3963 -1.2148 -0.5725
 2241SOL     OW18181   4.056   3.760  10.336 -0.4287  0.4686  0.2332
 2241SOL    HW118182   4.005   3.819  10.392 -0.4230  1.1565 -0.4814
 2241SOL    HW218183   4.042   3.676  10.379 -2.2627  2.0831  2.7587
 2242SOL     OW18184   2.719   1.037  11.971 -0.2796  0.3038 -0.0223
 2242SOL    HW118185   2.669   1.117  11.953 -0.4656 -0.0424 -1.0326
 2242SOL    HW218186   2.655   0.971  11.946  0.5421 -0.5140  0.0396
 2243SOL     OW18187   2.634   4.283  15.298  0.4317  0.2434  0.5064
 2243SOL    HW118188   2.650   4.371  15.265  0.2027 -0.2611 -0.9555
 2243SOL    HW218189   2.558   4.283  15.357  0.5773  0.8199  0.6913
 2244SOL     OW18190   4.571   3.843   1.994 -0.7963  0.7685  0.1209
 2244SOL    HW118191   4.557   3.922   2.047 -2.7873  0.7563 -0.4126
 2244SOL    HW218192   4.572   3.884   1.908  0.0498 -0.8146 -0.6168
 2245SOL     OW18193   0.412   1.273   2.575 -0.1727 -0.2075 -0.5942
 2245SOL    HW118194   0.487   1.216   2.558 -0.7326 -0.6852 -1.4883
 2245SOL    HW218195   0.456   1.355   2.597 -0.4241 -0.0689 -0.6113
 2246SOL     OW18196   2.743   0.171   1.196  0.0906  0.3132  0.0290
 2246SOL    HW118197   2.754   0.224   1.275  1.7329  0.8583 -0.5688
 2246SOL    HW218198   2.814   0.106   1.198  0.3707  0.6009 -0.8020
 2247SOL     OW18199   0.762   2.961  14.945 -0.2386  0.2322  0.4134
 2247SOL    HW118200   0.747   2.969  14.851 -1.6807 -2.1339  0.4422
 2247SOL    HW218201   0.808   2.877  14.950  0.4492  0.6371  0.9145
 2248SOL     OW18202   3.512   1.373   3.867 -0.5156 -0.4491  0.2337
 2248SOL    HW118203   3.539   1.301   3.809 -0.7166  1.0584 -1.7334
 2248SOL    HW218204   3.547   1.345   3.951  0.6528 -1.3493 -0.5400
 2249SOL     OW18205   3.585   2.278   4.663  0.2026  0.5885  0.0176
 2249SOL    HW118206   3.522   2.323   4.719 -2.2984 -2.7441 -0.1182
 2249SOL    HW218207   3.530   2.210   4.626 -1.5395 -0.4576  4.5150
 2250SOL     OW18208   2.544   1.198   4.811  0.2420 -0.3641  0.3283
 2250SOL    HW118209   2.613   1.168   4.752 -0.7832 -1.7196 -0.1857
 2250SOL    HW218210   2.505   1.118   4.847  0.3885  0.2018  1.7344
 2251SOL     OW18211   0.713   2.629   2.925 -0.3610 -0.4404  0.0952
 2251SOL    HW118212   0.790   2.685   2.916 -0.7934 -0.0041 -0.8389
 2251SOL    HW218213   0.751   2.542   2.939  3.5466  1.1647 -0.8091
 2252SOL     OW18214   1.777   3.035  10.440  0.5119 -0.2277  0.1874
 2252SOL    HW118215   1.724   3.007  10.365 -0.5534  2.3429  0.0009
 2252SOL    HW218216   1.736   3.118  10.463 -2.1144 -0.5460 -3.3544
 2253SOL     OW18217   2.766   4.537   6.678  0.7339 -0.0945 -0.2197
 2253SOL    HW118218   2.721   4.558   6.760 -1.3157  0.3557 -1.4620
 2253SOL    HW218219   2.843   4.594   6.677  0.7803 -0.1027  3.0206
 2254SOL     OW18220   1.926   3.041   4.080  0.4323  0.4266  0.4947
 2254SOL    HW118221   1.947   3.085   4.162 -0.3441 -0.2665  1.0673
 2254SOL    HW218222   1.963   2.956   4.105 -0.3223 -0.5964 -1.8483
 2255SOL     OW18223   1.830   4.303   8.007 -0.2282  0.1596  0.3650
 2255SOL    HW118224   1.883   4.343   8.076  1.2915  1.0752 -1.3568
 2255SOL    HW218225   1.761   4.370   8.007 -0.2397  0.1385 -0.9493
 2256SOL     OW18226   2.086   1.434   6.505  0.0964 -0.3133  0.8352
 2256SOL    HW118227   2.125   1.516   6.536  1.6497 -0.6957 -0.0986
 2256SOL    HW218228   2.160   1.374   6.503  0.1889 -0.1832  0.3241
 2257SOL     OW18229   1.972   0.837   0.584  0.5216  0.5653 -0.4208
 2257SOL    HW118230   1.886   0.844   0.625  0.6107  1.8513 -0.4614
 2257SOL    HW218231   1.953   0.893   0.509 -2.2970 -1.3037 -1.1268
 2258SOL     OW18232   3.806   0.365   4.139 -0.5480  0.4042  0.3275
 2258SOL    HW118233   3.886   0.399   4.098  0.2277 -2.4067 -0.4763
 2258SOL    HW218234   3.785   0.292   4.080 -0.5971  0.9337 -0.3097
 2259SOL     OW18235   0.760   3.050   8.369 -0.0993 -0.0152 -0.2188
 2259SOL    HW118236   0.722   3.005   8.294 -3.0963  1.4147  0.4285
 2259SOL    HW218237   0.685   3.076   8.422 -0.5489 -0.2246 -0.7526
 2260SOL     OW18238   3.164   3.086   6.518  0.2849  0.0205 -0.0758
 2260SOL    HW118239   3.154   2.991   6.509 -1.1934  0.2439 -0.7899
 2260SOL    HW218240   3.087   3.120   6.563  0.7550  2.6163 -1.2663
 2261SOL     OW18241   2.919   1.377   6.536  0.8189 -0.2376  0.1936
 2261SOL    HW118242   2.936   1.289   6.504 -1.0435 -0.5172 -0.0675
 2261SOL    HW218243   2.844   1.364   6.595  0.7510  3.3228  0.9292
 2262SOL     OW18244   3.659   4.574   7.275  0.1602 -0.4384 -0.1186
 2262SOL    HW118245   3.724   4.576   7.205 -0.6178  2.2760 -0.7947
 2262SOL    HW218246   3.650   4.480   7.290 -2.9016  0.2106  2.3098
 2263SOL     OW18247   1.187   0.197   4.474 -0.2310 -0.5947 -0.3428
 2263SOL    HW118248   1.120   0.143   4.431  0.1045 -0.1073 -1.4562
 2263SOL    HW218249   1.263   0.189   4.417 -1.0012 -0.9124 -1.3288
 2264SOL     OW18250   1.579   1.095  16.530  0.0745  0.0075 -0.4993
 2264SOL    HW118251   1.635   1.044  16.472  1.0338 -1.0559  1.3941
 2264SOL    HW218252   1.600   1.182  16.495 -1.2512  0.9567  1.0378
 2265SOL     OW18253   2.660   4.645  12.779 -0.2105 -0.3554  0.1624
 2265SOL    HW118254   2.620   4.596  12.708 -1.8588  1.2865 -0.0295
 2265SOL    HW218255   2.690   4.569  12.829 -1.7249 -1.9867 -1.3764
 2266SOL     OW18256   0.528   3.617   3.954 -0.4270  0.0947 -0.4157
 2266SOL    HW118257   0.544   3.598   4.047  0.0079  1.0723 -0.2938
 2266SOL    HW218258   0.445   3.570   3.946 -1.4989  1.4577  2.5507
 2267SOL     OW18259   0.033   2.933   7.277  0.5569 -0.0153 -0.0263
 2267SOL    HW118260   0.090   2.939   7.201  3.2048 -0.1062  1.9425
 2267SOL    HW218261   4.701   3.013   7.268  1.0550  0.6417  2.9261
 2268SOL     OW18262   2.358   4.148   6.387 -0.8151  0.7075  0.0189
 2268SOL    HW118263   2.448   4.167   6.360 -1.0271  0.8311 -0.6005
 2268SOL    HW218264   2.302   4.174   6.314  2.1391  0.6312 -2.2721
 2269SOL     OW18265   3.456   3.281   2.926  0.0944 -0.1135 -0.8162
 2269SOL    HW118266   3.472   3.355   2.986 -0.7015  0.6612 -1.5774
 2269SOL    HW218267   3.538   3.233   2.941 -0.3866 -0.7467 -0.2008
 2270SOL     OW18268   4.203   3.275   5.810 -0.4588  0.2948 -0.2825
 2270SOL    HW118269   4.295   3.284   5.838  0.0459 -0.9803 -1.5409
 2270SOL    HW218270   4.156   3.333   5.869 -1.0282  0.9660 -1.4035
 2271SOL     OW18271   0.222   0.601   9.407  0.2781 -0.5088 -0.2320
 2271SOL    HW118272   0.294   0.565   9.354  0.1981 -0.2621 -0.5074
 2271SOL    HW218273   0.198   0.527   9.463 -0.5156 -1.3396 -1.6879
 2272SOL     OW18274   3.627   1.094   8.097 -0.0298  0.4164 -0.1953
 2272SOL    HW118275   3.721   1.085   8.111 -0.1567 -0.6324  0.0122
 2272SOL    HW218276   3.584   1.063   8.177  2.9204  0.4290  1.3955
 2273SOL     OW18277   2.994   1.654  16.471  0.2469 -0.2827 -0.2993
 2273SOL    HW118278   3.035   1.739  16.486 -1.5991  0.6993 -0.7785
 2273SOL    HW218279   2.906   1.671  16.506  0.8782  0.6409  0.8068
 2274SOL     OW18280   1.895   1.950   2.177  0.9879  0.3658  0.2697
 2274SOL    HW118281   1.968   1.900   2.215  0.0915 -0.4613  0.9159
 2274SOL    HW218282   1.925   1.995   2.098 -0.5029  1.6651  0.4546
 2275SOL     OW18283   2.259   3.026   7.071  0.4162  0.1257  1.0388
 2275SOL    HW118284   2.251   2.931   7.061 -0.4010  0.2280  0.7622
 2275SOL    HW218285   2.168   3.048   7.089  0.0874  0.3674 -0.9503
 2276SOL     OW18286   2.232   0.287  16.386  0.5248  0.3199  0.5210
 2276SOL    HW118287   2.245   0.239  16.467 -1.0727  1.1093  1.2531
 2276SOL    HW218288   2.300   0.352  16.402 -1.5355  2.5048  0.5562
 2277SOL     OW18289   0.070   1.931   4.275 -0.1137 -0.0713 -0.0410
 2277SOL    HW118290   0.051   2.009   4.223  0.5373 -0.2727 -0.5790
 2277SOL    HW218291   0.161   1.944   4.301 -0.1873  0.9705 -0.3045
 2278SOL     OW18292   4.566   2.616   6.557 -0.7903  0.0470  0.1382
 2278SOL    HW118293   4.556   2.705   6.523  0.3740  0.1166 -0.0242
 2278SOL    HW218294   4.482   2.607   6.600 -1.4847 -0.2336 -1.2778
 2279SOL     OW18295   0.615   0.181   3.362 -0.1311  0.2239 -0.2596
 2279SOL    HW118296   0.652   0.126   3.293  1.0590  0.8749 -0.1606
 2279SOL    HW218297   0.690   0.186   3.422  1.2857  0.1801 -1.9961
 2280SOL     OW18298   0.260   0.932  14.628  0.4658  0.0437  0.1797
 2280SOL    HW118299   0.214   0.897  14.551  0.9176 -0.0393 -0.0542
 2280SOL    HW218300   0.344   0.944  14.584  0.2026 -0.1059 -0.3665
 2281SOL     OW18301   0.879   4.594   6.045  0.1327  0.1563 -0.1186
 2281SOL    HW118302   0.875   4.529   5.975 -0.8108 -0.2231  0.2835
 2281SOL    HW218303   0.965   4.634   6.036  0.8135 -1.0679  0.9534
 2282SOL     OW18304   3.122   2.183  13.324  0.3249 -0.5358  0.0433
 2282SOL    HW118305   3.204   2.134  13.335 -0.4072 -1.4103  1.6001
 2282SOL    HW218306   3.057   2.123  13.360 -0.1133 -0.1825 -0.1660
 2283SOL     OW18307   1.953   4.368   5.512 -0.0601 -0.4262  0.2389
 2283SOL    HW118308   1.958   4.312   5.590  1.2643 -0.3418  0.2066
 2283SOL    HW218309   2.036   4.416   5.514 -1.1069  1.3288  1.1336
 2284SOL     OW18310   4.589   1.170   6.354  0.2427 -0.0031  0.0699
 2284SOL    HW118311   4.599   1.237   6.422 -0.9326  1.1143 -0.8666
 2284SOL    HW218312   4.496   1.148   6.350  0.1503  0.4898 -0.4774
 2285SOL     OW18313   0.664   2.886   9.200  0.2001  0.3787  0.1660
 2285SOL    HW118314   0.628   2.953   9.141 -1.1225 -1.7549 -1.4567
 2285SOL    HW218315   0.583   2.849   9.235  0.6168 -0.2802  0.4342
 2286SOL     OW18316   4.348   4.290   4.597 -0.1554 -0.0771 -0.2827
 2286SOL    HW118317   4.345   4.212   4.653 -0.7220  0.1564  0.0200
 2286SOL    HW218318   4.261   4.327   4.615  0.1188  0.4483 -0.0329
 2287SOL     OW18319   1.624   0.711  12.654  0.3245 -0.4476  0.2468
 2287SOL    HW118320   1.540   0.746  12.684 -0.1187  0.4303 -2.0570
 2287SOL    HW218321   1.621   0.738  12.563  0.2155  0.8095  0.6199
 2288SOL     OW18322   1.147   3.508   4.249  0.0850  0.2353  0.5955
 2288SOL    HW118323   1.216   3.496   4.314 -0.2468 -0.2702  0.8560
 2288SOL    HW218324   1.096   3.427   4.244  0.3968  0.1042 -0.4635
 2289SOL     OW18325   4.536   4.262   1.008 -0.2348 -0.5896  0.1936
 2289SOL    HW118326   4.589   4.338   0.987  1.4385 -0.8418  3.4782
 2289SOL    HW218327   4.536   4.267   1.104 -3.0077 -1.2404  0.2227
 2290SOL     OW18328   1.275   2.753   9.696 -0.3447  0.0857  0.8847
 2290SOL    HW118329   1.224   2.783   9.621  0.0629 -0.6855  0.3063
 2290SOL    HW218330   1.310   2.838   9.723  0.2487  0.3866 -0.8055
 2291SOL     OW18331   4.047   2.647   6.673 -0.0075  0.9295 -0.4158
 2291SOL    HW118332   3.959   2.612   6.685  0.7857 -0.2811  2.0796
 2291SOL    HW218333   4.049   2.677   6.582 -2.2387  0.1540 -0.7088
 2292SOL     OW18334   2.244   4.708  11.049  0.2313  0.1840 -0.4851
 2292SOL    HW118335   2.245   4.616  11.076  0.5617  0.9885  2.2037
 2292SOL    HW218336   2.331   4.702  11.009  0.5288  2.0724 -0.1032
 2293SOL     OW18337   1.285   4.704   8.586  0.1548  0.3099 -0.6287
 2293SOL    HW118338   1.241   0.064   8.560 -0.2331  0.3086  0.0113
 2293SOL    HW218339   1.290   0.003   8.680 -3.8317  1.6610 -0.6824
 2294SOL     OW18340   2.157   0.453   3.780 -0.7283  0.1378 -0.0901
 2294SOL    HW118341   2.237   0.454   3.727  1.3111  0.5846  3.0146
 2294SOL    HW218342   2.187   0.473   3.868 -0.5827 -1.2428  0.1825
 2295SOL     OW18343   0.353   4.025   3.131  0.0995  0.2025 -0.5537
 2295SOL    HW118344   0.361   4.036   3.226 -1.1913  1.0793 -0.5462
 2295SOL    HW218345   0.369   4.109   3.089  0.2072  0.8920  0.8543
 2296SOL     OW18346   1.909   3.758   3.861 -0.3793  0.1946  0.2620
 2296SOL    HW118347   1.868   3.760   3.775  0.6640  0.0475 -0.2431
 2296SOL    HW218348   1.914   3.663   3.875  0.0489  0.0627 -0.7582
 2297SOL     OW18349   2.543   0.357   1.328  0.0226 -0.6506 -0.4594
 2297SOL    HW118350   2.557   0.405   1.247  0.9493  0.5167  0.3875
 2297SOL    HW218351   2.512   0.278   1.283 -1.7188 -0.7774  0.9530
 2298SOL     OW18352   0.498   0.114  10.761 -0.0942 -0.0075  0.6155
 2298SOL    HW118353   0.422   0.058  10.743  0.1868  0.1638 -1.1679
 2298SOL    HW218354   0.525   0.076  10.844  2.1613 -0.8712 -0.5140
 2299SOL     OW18355   0.419   0.120  12.618 -0.8379 -0.7244  0.0884
 2299SOL    HW118356   0.477   0.175  12.566  0.4428 -0.7550  1.4813
 2299SOL    HW218357   0.431   0.037  12.573  2.0519 -1.1271  1.6047
 2300SOL     OW18358   3.695   1.146   6.104  0.3458 -0.0190 -0.2508
 2300SOL    HW118359   3.699   1.100   6.188 -3.2304 -2.5796 -1.5130
 2300SOL    HW218360   3.737   1.230   6.126  0.1314 -0.2534  1.0952
 2301SOL     OW18361   2.453   0.606   6.618 -0.3963  0.3679 -0.3466
 2301SOL    HW118362   2.365   0.643   6.608 -0.1482  1.6405  2.2445
 2301SOL    HW218363   2.466   0.544   6.546 -1.9398 -1.2005  0.7222
 2302SOL     OW18364   3.028   1.944  15.557 -0.0569 -0.2477  0.8491
 2302SOL    HW118365   2.949   1.916  15.509  1.1278 -2.1581 -0.0011
 2302SOL    HW218366   3.045   1.858  15.595  0.0893 -0.9740 -0.8480
 2303SOL     OW18367   1.503   2.613   2.541  0.6693  0.1344  0.2777
 2303SOL    HW118368   1.488   2.651   2.454  2.3452  1.6275  0.6372
 2303SOL    HW218369   1.423   2.634   2.589  1.1006  0.8549  0.6837
 2304SOL     OW18370   2.237   1.474   1.736  0.3135 -0.2572  0.0334
 2304SOL    HW118371   2.167   1.445   1.677  0.5181  2.2548 -1.4232
 2304SOL    HW218372   2.299   1.514   1.676 -0.3992 -0.7102 -1.0041
 2305SOL     OW18373   2.573   3.390   4.448  0.2228 -0.0333  0.0714
 2305SOL    HW118374   2.658   3.380   4.406 -0.2886  2.0794 -1.4224
 2305SOL    HW218375   2.542   3.470   4.406  0.8791  0.1841  0.0021
 2306SOL     OW18376   3.565   1.495   6.245  0.1438  0.4192  0.4101
 2306SOL    HW118377   3.507   1.558   6.288 -0.1639  1.7634 -1.9377
 2306SOL    HW218378   3.498   1.433   6.213  0.6038  0.7745 -1.2609
 2307SOL     OW18379   0.403   4.167   2.156  0.3415 -0.0280  0.4475
 2307SOL    HW118380   0.481   4.202   2.200  0.8227 -0.0846 -0.3744
 2307SOL    HW218381   0.366   4.106   2.220 -0.8632 -1.5577 -1.7349
 2308SOL     OW18382   4.120   3.613   7.321  0.1191  0.1960 -0.0724
 2308SOL    HW118383   4.193   3.566   7.361  1.0649  0.3140 -1.6579
 2308SOL    HW218384   4.166   3.697   7.325  0.3335  0.2525 -3.5267
 2309SOL     OW18385   2.124   1.291   4.184 -0.0330  0.0590 -0.1240
 2309SOL    HW118386   2.070   1.368   4.201 -0.2932  0.2746 -1.9245
 2309SOL    HW218387   2.124   1.242   4.266 -1.3674 -0.7257 -0.6106
 2310SOL     OW18388   3.987   4.434  13.717 -0.0278 -0.2532  0.0223
 2310SOL    HW118389   4.008   4.504  13.779  0.0556  0.4902 -0.8363
 2310SOL    HW218390   4.047   4.442  13.642 -1.4514 -0.3075 -1.1317
 2311SOL     OW18391   4.675   3.962   8.014  0.1784  0.1386 -0.3321
 2311SOL    HW118392   4.626   3.899   8.066 -1.4013  1.9599  0.3760
 2311SOL    HW218393   4.615   4.034   8.034 -0.4444 -0.1913 -1.0059
 2312SOL     OW18394   1.380   1.885   2.745 -0.7730  0.1600 -0.4344
 2312SOL    HW118395   1.457   1.941   2.759 -0.2207 -0.7709  0.2426
 2312SOL    HW218396   1.315   1.941   2.702 -1.2515  1.9985  2.6871
 2313SOL     OW18397   0.189   3.613   8.548 -0.3017 -0.2519  0.7084
 2313SOL    HW118398   0.255   3.681   8.557  0.0068 -0.9796  3.8096
 2313SOL    HW218399   0.136   3.640   8.473  0.8321  0.3548  0.1327
 2314SOL     OW18400   3.348   3.381   8.603 -0.2887 -0.1573  0.3998
 2314SOL    HW118401   3.363   3.475   8.606 -2.7006  0.2667 -0.5816
 2314SOL    HW218402   3.402   3.345   8.673 -0.8695 -3.2979 -0.7634
 2315SOL     OW18403   3.818   1.345   8.912 -0.1308  1.0972  0.0883
 2315SOL    HW118404   3.783   1.411   8.972  0.3556  0.7308  0.7822
 2315SOL    HW218405   3.878   1.297   8.969 -1.0610  0.1893  0.2989
 2316SOL     OW18406   0.511   3.073   8.508  0.3629 -0.0214  0.0551
 2316SOL    HW118407   0.421   3.074   8.477 -0.0267  1.3671  1.2132
 2316SOL    HW218408   0.505   3.115   8.594 -2.9683 -0.7893  0.2030
 2317SOL     OW18409   4.059   2.635   3.631  0.1859 -0.3576  0.6308
 2317SOL    HW118410   4.015   2.587   3.561 -3.3362  0.2378  2.4446
 2317SOL    HW218411   3.996   2.706   3.646  0.9355  0.6634 -0.9722
 2318SOL     OW18412   3.871   1.152  14.484  0.0045  0.6390 -0.2031
 2318SOL    HW118413   3.894   1.180  14.573 -0.7382  2.3562 -0.5499
 2318SOL    HW218414   3.950   1.098  14.478  1.5835  2.9348  0.0907
 2319SOL     OW18415   2.827   2.547  13.101 -0.2862 -0.5168  0.4532
 2319SOL    HW118416   2.735   2.570  13.085  0.0549  0.1903 -0.5016
 2319SOL    HW218417   2.877   2.619  13.063 -0.0761 -1.4981 -1.0990
 2320SOL     OW18418   2.168   2.371   6.966  0.8517  0.3402 -0.2135
 2320SOL    HW118419   2.180   2.429   7.042  0.3918 -0.6941  0.6510
 2320SOL    HW218420   2.116   2.429   6.911  1.6187 -0.5194 -1.8196
 2321SOL     OW18421   0.523   1.541  12.690 -0.4826 -0.0657  0.1557
 2321SOL    HW118422   0.569   1.609  12.738 -1.0456  2.5966 -3.0363
 2321SOL    HW218423   0.595   1.487  12.659  0.8686  1.1075  1.2685
 2322SOL     OW18424   4.214   0.611   2.222  0.3670  0.8879  0.4139
 2322SOL    HW118425   4.142   0.596   2.161 -0.6057  0.3397  1.6852
 2322SOL    HW218426   4.232   0.705   2.224  2.1625  0.5475  0.3608
 2323SOL     OW18427   2.610   3.628   9.017  0.2607  0.5423 -0.0085
 2323SOL    HW118428   2.601   3.546   8.968 -0.6279  1.2334 -0.9859
 2323SOL    HW218429   2.698   3.657   8.993  0.0360 -1.4080 -3.1933
 2324SOL     OW18430   1.950   3.019  15.700  0.3641  0.5747  0.1569
 2324SOL    HW118431   1.993   3.100  15.673  0.9818  0.2942  0.2984
 2324SOL    HW218432   2.007   3.002  15.775  0.3369  0.4251  0.1439
 2325SOL     OW18433   2.591   2.114  13.640  0.3659  0.2950 -0.1520
 2325SOL    HW118434   2.657   2.120  13.710  0.4627  1.7859 -0.3754
 2325SOL    HW218435   2.648   2.163  13.580  0.3242 -0.2211 -0.6195
 2326SOL     OW18436   1.686   1.775   2.198  0.4474 -0.6944 -0.2365
 2326SOL    HW118437   1.739   1.854   2.190  0.1442 -0.6129 -1.4335
 2326SOL    HW218438   1.656   1.763   2.108 -0.1923  2.1216 -0.3957
 2327SOL     OW18439   0.998   1.891   8.315  0.2711  0.0035 -0.8228
 2327SOL    HW118440   0.969   1.825   8.377  0.7476 -0.2610 -0.8887
 2327SOL    HW218441   0.914   1.935   8.299 -0.4995 -1.5313 -1.0240
 2328SOL     OW18442   0.067   4.480  15.600 -0.5059  0.0086  0.1262
 2328SOL    HW118443   4.697   4.493  15.629 -0.6631 -1.0441  0.1187
 2328SOL    HW218444   0.054   4.501  15.507  0.0170 -1.7597 -0.3503
 2329SOL     OW18445   2.879   0.935  12.390  0.5360 -0.7092  0.1254
 2329SOL    HW118446   2.838   0.850  12.369 -0.6506  0.0964 -0.8658
 2329SOL    HW218447   2.916   0.963  12.306 -1.0292 -0.6303 -0.5446
 2330SOL     OW18448   0.602   1.520  16.923  1.1423  0.4198 -0.0482
 2330SOL    HW118449   0.532   1.514  16.858 -1.2464  0.7829  2.5118
 2330SOL    HW218450   0.640   1.605  16.899  3.4765 -1.0754 -1.6929
 2331SOL     OW18451   3.613   0.869   4.638  0.2157  0.4122  0.0332
 2331SOL    HW118452   3.530   0.840   4.674  0.1845  0.7733  0.2543
 2331SOL    HW218453   3.675   0.812   4.682 -1.4653 -2.8915 -1.9139
 2332SOL     OW18454   3.943   3.080   2.564  0.1526  0.1115  0.0897
 2332SOL    HW118455   3.859   3.111   2.528  1.4385  3.0098 -0.4369
 2332SOL    HW218456   3.926   2.989   2.586  0.7212  0.1213  0.5565
 2333SOL     OW18457   2.621   4.340   1.506 -0.6123  0.6189 -0.0979
 2333SOL    HW118458   2.674   4.266   1.476 -0.6697  0.8217 -0.6782
 2333SOL    HW218459   2.682   4.404   1.542 -0.4970 -0.5017  1.7642
 2334SOL     OW18460   3.526   3.002   8.073 -0.3860  0.4926  0.4202
 2334SOL    HW118461   3.580   3.037   8.002 -0.6390 -1.5919 -0.8133
 2334SOL    HW218462   3.466   2.939   8.032 -1.0527  0.9438  0.7020
 2335SOL     OW18463   2.908   2.332  15.144  0.2806  0.5130  0.1920
 2335SOL    HW118464   2.946   2.249  15.170  1.0825  1.1105  0.9441
 2335SOL    HW218465   2.956   2.349  15.062  2.6035  0.7517  1.5837
 2336SOL     OW18466   2.813   3.216   7.289  0.3709  0.3861 -0.1667
 2336SOL    HW118467   2.744   3.230   7.354  0.7793  2.4707 -0.1693
 2336SOL    HW218468   2.830   3.124   7.309 -0.4498  0.0272 -1.0984
 2337SOL     OW18469   2.495   0.669   2.852 -0.1308  0.0646  0.1233
 2337SOL    HW118470   2.582   0.680   2.890 -0.1812  2.4875 -0.4484
 2337SOL    HW218471   2.452   0.749   2.884 -0.3392 -0.2467  0.6133
 2338SOL     OW18472   0.606   1.649  11.733  0.1464 -0.1055 -0.5535
 2338SOL    HW118473   0.678   1.590  11.755  0.9008  1.9329  2.4425
 2338SOL    HW218474   0.639   1.675  11.647  0.0696 -0.4751 -0.6986
 2339SOL     OW18475   3.942   3.533   2.144  0.2177 -0.2591 -0.1469
 2339SOL    HW118476   3.891   3.468   2.192 -2.6670  0.0700 -2.7494
 2339SOL    HW218477   3.920   3.620   2.177 -2.4518 -0.6273 -0.9532
 2340SOL     OW18478   0.517   0.212   6.605 -0.0261 -0.9541 -0.7936
 2340SOL    HW118479   0.603   0.221   6.647 -0.2308 -2.4240 -0.0452
 2340SOL    HW218480   0.462   0.179   6.676  2.2678 -1.8710  0.5654
 2341SOL     OW18481   1.253   4.711   3.492 -0.8489 -0.1898 -0.0042
 2341SOL    HW118482   1.162   0.017   3.474 -0.6473  0.3607 -0.2344
 2341SOL    HW218483   1.282   0.054   3.557 -1.5039 -2.4261  2.4377
 2342SOL     OW18484   2.571   3.975   3.753 -0.1113 -0.4225  0.0242
 2342SOL    HW118485   2.485   3.957   3.789 -0.1733  1.4537  0.8560
 2342SOL    HW218486   2.634   3.933   3.812 -0.5638 -2.8597 -1.2282
 2343SOL     OW18487   2.616   1.567  13.613 -0.1479 -0.3447  0.0250
 2343SOL    HW118488   2.558   1.509  13.564 -1.1023  1.9427 -1.5451
 2343SOL    HW218489   2.574   1.561  13.699  1.8740 -1.0770  0.9662
 2344SOL     OW18490   4.470   2.514   7.780 -0.5479  0.2392 -0.3491
 2344SOL    HW118491   4.502   2.512   7.690  1.7477  1.4871  0.4530
 2344SOL    HW218492   4.383   2.477   7.765 -1.2658  1.1844  1.5314
 2345SOL     OW18493   3.939   3.856  15.462  0.3070 -0.5001 -0.4162
 2345SOL    HW118494   3.945   3.777  15.515 -0.5048 -0.0015  0.4356
 2345SOL    HW218495   3.896   3.817  15.386  0.2705  0.3904 -0.8567
 2346SOL     OW18496   0.070   3.033   4.318 -0.1789 -0.2776 -0.4311
 2346SOL    HW118497   4.719   3.053   4.378 -1.1893  0.1415 -1.7839
 2346SOL    HW218498   0.050   3.091   4.244 -0.8398 -0.8480 -0.6941
 2347SOL     OW18499   2.844   3.053  12.184  0.0333 -0.1345  0.0693
 2347SOL    HW118500   2.809   3.049  12.274  1.5020 -1.5748  0.5731
 2347SOL    HW218501   2.803   2.973  12.151 -0.1026 -0.1046  0.1654
 2348SOL     OW18502   0.371   0.458   4.880  0.0634 -0.7250  0.3344
 2348SOL    HW118503   0.387   0.552   4.890  0.7195 -0.7771 -0.1930
 2348SOL    HW218504   0.308   0.459   4.807  1.1144  3.4640 -0.4968
 2349SOL     OW18505   3.683   2.016   7.277 -0.0104  0.0865  0.1359
 2349SOL    HW118506   3.736   1.989   7.202 -0.9616 -1.3945  0.0028
 2349SOL    HW218507   3.736   2.091   7.306 -1.0904  0.6903  0.5223
 2350SOL     OW18508   0.068   3.534   1.757 -0.0749 -0.5035  0.2141
 2350SOL    HW118509   0.158   3.505   1.740  0.1094  0.2456 -0.0821
 2350SOL    HW218510   0.022   3.527   1.673 -1.0270  0.3676  0.6705
 2351SOL     OW18511   1.415   2.999   9.730 -0.8482  0.4168  0.4578
 2351SOL    HW118512   1.395   3.019   9.821 -3.3602  0.0284 -0.0192
 2351SOL    HW218513   1.440   3.085   9.697  0.2605  0.7882  2.2601
 2352SOL     OW18514   2.789   4.673   3.523 -0.7441 -0.2504  0.4079
 2352SOL    HW118515   2.807   0.039   3.485  1.3190 -1.2635 -0.8742
 2352SOL    HW218516   2.800   4.610   3.452 -0.1112 -1.7300  1.8478
 2353SOL     OW18517   0.765   2.283   5.982 -0.5833  0.0986  0.0960
 2353SOL    HW118518   0.720   2.218   6.035  2.7872 -1.2523  1.2784
 2353SOL    HW218519   0.828   2.219   5.949 -1.5104 -0.2209 -1.0588
 2354SOL     OW18520   3.138   4.373   3.298  0.7192 -0.4115 -0.3006
 2354SOL    HW118521   3.100   4.444   3.246  0.3315  0.6850  1.4730
 2354SOL    HW218522   3.066   4.344   3.354  0.1602 -0.4222 -1.0274
 2355SOL     OW18523   3.134   2.699  16.417 -0.8371  0.4167  0.4123
 2355SOL    HW118524   3.086   2.766  16.369 -3.2110 -0.2167  1.9106
 2355SOL    HW218525   3.219   2.694  16.373 -0.4666 -2.8452  1.5028
 2356SOL     OW18526   0.495   4.041   2.665 -0.2766 -0.0860 -0.3178
 2356SOL    HW118527   0.506   4.000   2.751 -0.9436  1.8569  0.6958
 2356SOL    HW218528   0.472   3.969   2.606 -0.6077  0.0636 -0.3714
 2357SOL     OW18529   4.610   3.079   3.793 -0.1010  0.6803 -0.4868
 2357SOL    HW118530   4.618   3.049   3.702  0.5670  2.0071 -0.8684
 2357SOL    HW218531   4.552   3.155   3.786  0.1053  0.6481 -2.6664
 2358SOL     OW18532   3.897   2.350   2.717 -0.1271 -0.0543 -0.0820
 2358SOL    HW118533   3.982   2.366   2.757 -0.1294 -2.0450  0.7200
 2358SOL    HW218534   3.908   2.267   2.671  0.3514  0.5073 -0.9863
 2359SOL     OW18535   4.141   0.263   4.570  0.3071  0.1330 -0.1124
 2359SOL    HW118536   4.105   0.178   4.595 -2.0736  0.6177 -1.8159
 2359SOL    HW218537   4.066   0.297   4.521  0.2896  1.6101  0.9394
 2360SOL     OW18538   0.029   1.575  16.408  0.7904  0.4327 -0.2711
 2360SOL    HW118539   0.094   1.601  16.474  0.5023 -4.1646  1.8478
 2360SOL    HW218540   0.037   1.639  16.338 -1.8684  1.3456  0.2407
 2361SOL     OW18541   2.220   2.227   3.225  0.3762 -0.4511 -0.7183
 2361SOL    HW118542   2.158   2.178   3.279 -0.9167  1.0979 -0.8025
 2361SOL    HW218543   2.235   2.304   3.279 -0.5546 -1.2269  0.6362
 2362SOL     OW18544   1.310   0.850   1.368  0.5678  0.7540  0.5959
 2362SOL    HW118545   1.288   0.870   1.459 -0.3015  1.5003  0.2126
 2362SOL    HW218546   1.392   0.890   1.339 -0.8140  2.9049 -0.3008
 2363SOL     OW18547   0.508   1.857  17.558 -0.3276  0.2782  0.6298
 2363SOL    HW118548   0.433   1.798  17.561 -0.6448  0.7338  1.9602
 2363SOL    HW218549   0.489   1.899  17.474  0.6194 -2.9750 -1.1900
 2364SOL     OW18550   0.709   3.967   6.540 -0.6489  0.1268 -0.0089
 2364SOL    HW118551   0.736   3.933   6.455 -1.3980  0.7804 -0.5143
 2364SOL    HW218552   0.718   3.896   6.604 -3.2269  0.5800  0.8737
 2365SOL     OW18553   1.327   0.745   8.179 -0.1249  0.2768 -0.1528
 2365SOL    HW118554   1.392   0.798   8.134  0.1263  0.2967  0.2349
 2365SOL    HW218555   1.375   0.697   8.246 -0.2257  2.4775  1.4645
 2366SOL     OW18556   4.488   3.564   3.428 -0.0438 -0.1386  0.4178
 2366SOL    HW118557   4.522   3.479   3.457 -0.1744 -0.3328 -0.0096
 2366SOL    HW218558   4.410   3.576   3.483 -0.6256  0.6835 -0.5896
 2367SOL     OW18559   4.432   2.461   4.113 -0.4819 -0.0331 -0.2708
 2367SOL    HW118560   4.358   2.493   4.165  0.1991  1.4076 -0.1933
 2367SOL    HW218561   4.456   2.542   4.067  2.5972 -1.2861 -0.9012
 2368SOL     OW18562   2.747   2.658  14.725  0.4735 -0.1934  0.1792
 2368SOL    HW118563   2.678   2.692  14.668  0.4100  0.6541  0.7618
 2368SOL    HW218564   2.823   2.663  14.666 -0.0318  0.2922 -0.4350
 2369SOL     OW18565   2.339   0.871   2.578  0.4198 -0.3995 -0.2550
 2369SOL    HW118566   2.416   0.834   2.535  0.3572  0.5216 -1.1563
 2369SOL    HW218567   2.385   0.940   2.626 -0.8014 -0.4268  0.9769
 2370SOL     OW18568   1.077   4.511   1.046 -0.3115  0.6403  0.1709
 2370SOL    HW118569   1.062   4.441   1.109 -2.4352  2.2090  1.3882
 2370SOL    HW218570   1.155   4.481   0.999 -0.2788  0.7530  0.1530
 2371SOL     OW18571   1.830   0.021   4.002  0.0009  0.3984  0.4285
 2371SOL    HW118572   1.841   4.714   3.911  2.0354  0.5869  0.6203
 2371SOL    HW218573   1.794   4.661   4.039 -1.2657  1.2455  1.0231
 2372SOL     OW18574   3.765   2.342   4.086 -0.0889 -0.5520  0.2326
 2372SOL    HW118575   3.673   2.344   4.061  0.1264 -2.3016 -0.6821
 2372SOL    HW218576   3.803   2.367   4.002  0.8238 -0.0717  0.7841
 2373SOL     OW18577   2.487   1.496  13.858  0.0749  0.5682  0.1233
 2373SOL    HW118578   2.520   1.534  13.940  2.7255 -2.3483  0.4116
 2373SOL    HW218579   2.547   1.422  13.853 -3.7510 -2.3688 -2.1321
 2374SOL     OW18580   0.849   2.030   6.494  0.3223  0.2082 -0.2236
 2374SOL    HW118581   0.909   2.094   6.532 -0.5227  0.2602  1.0421
 2374SOL    HW218582   0.767   2.064   6.528  0.0337 -1.2598  0.5609
 2375SOL     OW18583   4.417   1.339  12.367 -0.7670 -0.5713 -0.1939
 2375SOL    HW118584   4.498   1.295  12.393 -1.8167 -1.7834  1.0107
 2375SOL    HW218585   4.443   1.400  12.298  2.6817 -1.9913 -0.1535
 2376SOL     OW18586   4.605   2.296  11.572  0.3681  0.5340  0.6796
 2376SOL    HW118587   4.698   2.297  11.550  0.2166 -0.4346 -0.0112
 2376SOL    HW218588   4.596   2.204  11.599  0.2258 -0.0278 -1.2754
 2377SOL     OW18589   0.283   4.178   5.264  0.2365 -0.0984  0.3348
 2377SOL    HW118590   0.324   4.244   5.208  1.2663 -3.2783 -2.6084
 2377SOL    HW218591   0.333   4.215   5.337  0.6110 -0.2191  0.1419
 2378SOL     OW18592   4.521   1.068   7.744  0.4689 -0.1341  0.1810
 2378SOL    HW118593   4.477   1.044   7.826 -1.4525 -0.3177 -0.9167
 2378SOL    HW218594   4.534   0.978   7.716  0.7890  0.4424 -1.5195
 2379SOL     OW18595   2.420   2.956  14.742 -0.4817 -0.5606 -0.1663
 2379SOL    HW118596   2.326   2.970  14.740 -0.3494  0.5825  1.3358
 2379SOL    HW218597   2.434   3.020  14.673  0.7815 -0.6041  0.0520
 2380SOL     OW18598   4.392   3.979  10.173 -0.4541  0.4922  0.1231
 2380SOL    HW118599   4.352   4.004  10.256 -2.5565  0.6588 -0.9200
 2380SOL    HW218600   4.375   4.053  10.114 -1.7455  0.5488  0.5746
 2381SOL     OW18601   3.287   1.380  15.853  0.4827 -0.3387 -0.3183
 2381SOL    HW118602   3.210   1.339  15.891 -0.8291  1.4341 -1.0699
 2381SOL    HW218603   3.243   1.459  15.821  0.7119  0.2485  0.8255
 2382SOL     OW18604   2.847   1.050   3.988 -0.4848  0.2494 -0.3069
 2382SOL    HW118605   2.806   1.009   3.912  0.7705 -2.1137  0.2957
 2382SOL    HW218606   2.821   1.142   3.984  1.0492  0.7031 -0.0799
 2383SOL     OW18607   1.639   0.915   0.940 -0.5474 -0.1442 -0.3718
 2383SOL    HW118608   1.556   0.957   0.964  1.4089  2.6427  1.4844
 2383SOL    HW218609   1.653   0.862   1.018 -0.4412 -0.4786 -0.6145
 2384SOL     OW18610   0.527   1.671  10.186 -0.1911 -0.3952 -0.4016
 2384SOL    HW118611   0.571   1.602  10.136  1.8016  0.8666 -0.4139
 2384SOL    HW218612   0.595   1.738  10.182 -0.5124 -0.0032  0.7519
 2385SOL     OW18613   4.052   4.065   3.317 -0.0645  0.2246  0.4601
 2385SOL    HW118614   3.972   4.016   3.335  0.3308 -0.0909  1.3208
 2385SOL    HW218615   4.078   4.083   3.407 -2.1877  0.7397  0.9665
 2386SOL     OW18616   2.744   1.284   7.130  0.5052 -0.5160  0.7926
 2386SOL    HW118617   2.774   1.318   7.215 -1.7616 -0.1861  1.4536
 2386SOL    HW218618   2.762   1.364   7.081  0.9777 -1.7026 -0.9542
 2387SOL     OW18619   0.224   4.139   2.765  0.3356  0.0707 -0.4420
 2387SOL    HW118620   0.161   4.147   2.694 -0.3219  3.0212  0.4630
 2387SOL    HW218621   0.228   4.046   2.787  0.9197 -0.0631 -1.1221
 2388SOL     OW18622   2.503   3.048   7.221  0.2632 -0.2670 -0.1982
 2388SOL    HW118623   2.419   3.072   7.181  1.4491  1.1115 -1.8303
 2388SOL    HW218624   2.490   3.024   7.313 -0.0549  0.9678  0.0837
 2389SOL     OW18625   1.586   1.844  10.292 -0.4177  0.2134 -0.5288
 2389SOL    HW118626   1.510   1.838  10.349  0.0537 -2.0719 -0.1260
 2389SOL    HW218627   1.575   1.928  10.248 -1.6223 -0.1691 -0.9589
 2390SOL     OW18628   4.145   3.465   4.867 -0.3674 -0.1898 -0.3534
 2390SOL    HW118629   4.187   3.379   4.861  0.6981  0.4497 -2.0223
 2390SOL    HW218630   4.062   3.439   4.906 -0.0567 -1.0290 -0.2498
 2391SOL     OW18631   2.353   3.127   8.357 -0.6518  0.1674  0.2213
 2391SOL    HW118632   2.350   3.057   8.421  0.6979  0.0645  0.1702
 2391SOL    HW218633   2.442   3.106   8.327  0.0187  1.3291  1.4056
 2392SOL     OW18634   1.389   4.676  14.755  0.6229  0.5165 -0.2773
 2392SOL    HW118635   1.437   4.671  14.838 -0.9290  1.3851  0.6526
 2392SOL    HW218636   1.299   4.670  14.785  1.1884 -0.3228  1.2416
 2393SOL     OW18637   0.241   3.272  13.906  0.5864  0.1977 -0.1070
 2393SOL    HW118638   0.187   3.283  13.827  1.1203 -1.5407 -0.7269
 2393SOL    HW218639   0.254   3.364  13.926  0.6903  0.6857 -2.4020
 2394SOL     OW18640   4.465   0.078   5.238 -0.0766  0.0771  0.1761
 2394SOL    HW118641   4.531   0.027   5.191 -0.5409  0.8165 -1.2830
 2394SOL    HW218642   4.392   0.065   5.177  1.3320  3.0865 -2.1631
 2395SOL     OW18643   2.350   1.936   7.834 -0.2173 -0.0026  0.0051
 2395SOL    HW118644   2.365   2.002   7.768 -0.8033  0.8724  0.7444
 2395SOL    HW218645   2.437   1.918   7.869 -0.9852 -1.3352  1.2832
 2396SOL     OW18646   2.780   4.576   6.179  0.8147 -0.3417 -0.5515
 2396SOL    HW118647   2.748   4.666   6.186 -0.9576 -0.9163 -1.1493
 2396SOL    HW218648   2.835   4.576   6.101  2.1163 -1.1364  0.3669
 2397SOL     OW18649   0.112   2.098   3.355  0.4701  0.1274 -0.0621
 2397SOL    HW118650   0.054   2.043   3.407 -2.0997  3.9777  1.1201
 2397SOL    HW218651   0.087   2.058   3.271  0.1574 -1.0053  0.5762
 2398SOL     OW18652   2.876   4.707   8.451  0.4180 -0.2243  0.4366
 2398SOL    HW118653   2.833   4.627   8.482 -0.1461 -0.3475 -0.6789
 2398SOL    HW218654   2.931   4.714   8.529 -0.1925 -0.7288  0.9241
 2399SOL     OW18655   1.576   2.440   0.991  0.0729 -0.0373  0.5509
 2399SOL    HW118656   1.536   2.419   0.906 -1.2583 -1.8709  1.6300
 2399SOL    HW218657   1.625   2.361   1.012  0.6889 -0.1444 -1.2519
 2400SOL     OW18658   4.587   2.136   4.707  0.0322  0.3248  0.7296
 2400SOL    HW118659   4.668   2.111   4.752  0.2259  0.9360  0.7212
 2400SOL    HW218660   4.603   2.097   4.621  2.8149  0.4338  1.2041
 2401SOL     OW18661   1.580   0.833  12.418 -0.3129  0.5091 -0.4492
 2401SOL    HW118662   1.594   0.927  12.401 -1.6876  0.8854  0.5122
 2401SOL    HW218663   1.542   0.806  12.335  2.7731  0.0762 -1.7031
 2402SOL     OW18664   4.519   2.362  16.961  0.2501  0.2666  0.0700
 2402SOL    HW118665   4.555   2.346  16.873  0.4972 -2.4825  0.6724
 2402SOL    HW218666   4.545   2.454  16.960  1.1159  0.0144 -2.4473
 2403SOL     OW18667   2.207   1.416   8.405  0.2022  0.0739 -0.0054
 2403SOL    HW118668   2.276   1.477   8.380 -0.1056  0.6840  0.6513
 2403SOL    HW218669   2.208   1.422   8.500  1.2349 -1.9322  0.1150
 2404SOL     OW18670   1.138   2.451   6.004  0.4371  0.4412 -0.4286
 2404SOL    HW118671   1.231   2.429   6.015  0.7688  2.6296  1.2086
 2404SOL    HW218672   1.123   2.413   5.918 -3.4506  0.9763  0.0241
 2405SOL     OW18673   1.769   3.197  14.593  0.4348 -0.3766 -0.3574
 2405SOL    HW118674   1.819   3.184  14.674 -0.9627 -0.7167  0.4543
 2405SOL    HW218675   1.789   3.113  14.552  1.7259 -0.2602  0.0411
 2406SOL     OW18676   2.617   3.541   3.415  0.2611 -0.4216 -0.0213
 2406SOL    HW118677   2.556   3.615   3.407 -0.2488 -0.9832 -1.3023
 2406SOL    HW218678   2.583   3.486   3.344  1.5078  0.1626 -1.0584
 2407SOL     OW18679   4.003   2.184   3.274 -1.0837 -0.3055 -0.2883
 2407SOL    HW118680   4.094   2.164   3.295 -0.6606  1.7336 -0.2047
 2407SOL    HW218681   3.974   2.108   3.223  0.6139 -0.6613 -0.7264
 2408SOL     OW18682   0.839   4.716   1.638 -0.2249 -0.2071  0.2124
 2408SOL    HW118683   0.933   4.715   1.621  0.3144  1.5413  2.9452
 2408SOL    HW218684   0.833   0.004   1.734 -2.1632  1.2890 -0.0693
 2409SOL     OW18685   2.679   2.442  14.384 -1.0132  0.0192 -0.0696
 2409SOL    HW118686   2.598   2.492  14.381  1.4071  3.7057 -2.9829
 2409SOL    HW218687   2.676   2.386  14.462 -0.9359 -0.1000 -0.1521
 2410SOL     OW18688   1.794   3.354  11.934 -0.2376  0.4037  0.0614
 2410SOL    HW118689   1.889   3.364  11.944  0.3032 -2.9426 -1.3369
 2410SOL    HW218690   1.771   3.304  12.012  2.3712 -0.4889  0.2764
 2411SOL     OW18691   4.051   1.918   9.036  0.2557 -0.7335 -0.2475
 2411SOL    HW118692   4.003   1.901   9.117 -1.4045 -0.6880 -1.2150
 2411SOL    HW218693   4.034   1.836   8.989  1.3726 -1.9621  1.4794
 2412SOL     OW18694   0.236   1.027  16.247  0.2474  0.3609 -0.9229
 2412SOL    HW118695   0.147   1.045  16.277  1.1403  0.6105  1.6214
 2412SOL    HW218696   0.237   1.090  16.175 -0.9999  0.1583 -1.1164
 2413SOL     OW18697   2.967   2.759   5.080  0.2068  0.6096  0.7493
 2413SOL    HW118698   3.048   2.710   5.080 -0.7901 -1.0419 -0.7288
 2413SOL    HW218699   2.958   2.790   4.989 -1.9015 -0.4691  0.5744
 2414SOL     OW18700   4.082   4.464  10.862 -0.0440 -0.0618  0.2275
 2414SOL    HW118701   4.039   4.546  10.839 -1.4283 -0.1355  2.5564
 2414SOL    HW218702   4.088   4.419  10.778  0.3938  0.3369  0.0498
 2415SOL     OW18703   1.197   4.567  11.243  0.2289 -0.0195 -0.3242
 2415SOL    HW118704   1.252   4.616  11.305  0.9266 -3.7068  1.9441
 2415SOL    HW218705   1.237   4.580  11.157  1.0029 -1.7654 -0.2212
 2416SOL     OW18706   3.135   1.232  17.394 -0.3977 -0.4225  0.5719
 2416SOL    HW118707   3.048   1.213  17.360 -0.2266 -0.6410  0.2573
 2416SOL    HW218708   3.143   1.312  17.342  0.3375  0.9109  2.7256
 2417SOL     OW18709   1.383   2.463   7.293 -0.2341  0.3342  0.0492
 2417SOL    HW118710   1.457   2.426   7.245  0.6058  0.2577  1.4227
 2417SOL    HW218711   1.409   2.555   7.295  0.6549  0.1015 -0.6946
 2418SOL     OW18712   4.507   2.503   7.511 -0.2478 -0.6408  0.6737
 2418SOL    HW118713   4.447   2.450   7.459  2.1823 -2.7107 -0.0099
 2418SOL    HW218714   4.589   2.457   7.496 -0.1036 -0.1318 -0.1176
 2419SOL     OW18715   1.469   0.141  17.516  0.4468  0.3757 -0.4167
 2419SOL    HW118716   1.512   0.181  17.592 -2.3787  3.8005 -0.6124
 2419SOL    HW218717   1.496   0.051  17.537 -0.6958 -0.1593 -1.2101
 2420SOL     OW18718   3.794   2.448   5.265 -0.0571 -0.7133 -0.1157
 2420SOL    HW118719   3.736   2.432   5.190 -0.7794 -0.6429  0.4211
 2420SOL    HW218720   3.813   2.541   5.271  3.5349 -1.4834  0.0661
 2421SOL     OW18721   3.350   2.505   5.805 -0.5785 -0.3713  0.0624
 2421SOL    HW118722   3.355   2.504   5.709  0.9936  0.5939  0.1358
 2421SOL    HW218723   3.442   2.501   5.831 -0.0003  0.8799 -1.8046
 2422SOL     OW18724   1.059   0.250  13.266 -0.5684  0.2646  0.1822
 2422SOL    HW118725   1.001   0.195  13.320 -0.1133 -0.7429 -0.3446
 2422SOL    HW218726   1.036   0.222  13.177 -0.6411 -1.5702  0.7677
 2423SOL     OW18727   0.122   2.433  17.053 -0.1309 -0.0651  0.5365
 2423SOL    HW118728   0.092   2.433  17.144 -0.3345 -0.3821  0.4706
 2423SOL    HW218729   0.119   2.340  17.029 -0.0559  0.0277  0.1584
 2424SOL     OW18730   2.973   3.302  11.563 -0.3277 -0.1314  0.3500
 2424SOL    HW118731   2.986   3.375  11.624  0.6486  0.9597 -1.1714
 2424SOL    HW218732   2.942   3.228  11.616  0.4832 -2.3347 -2.2589
 2425SOL     OW18733   3.805   2.242   8.571 -0.0083 -0.5912 -0.0501
 2425SOL    HW118734   3.764   2.327   8.585  1.0243 -0.5823  3.0175
 2425SOL    HW218735   3.733   2.198   8.527 -0.5450 -0.7774  1.0234
 2426SOL     OW18736   2.165   4.106  15.702 -0.3581 -0.0085  0.1987
 2426SOL    HW118737   2.239   4.066  15.749 -0.7914 -0.5764  0.3982
 2426SOL    HW218738   2.126   4.032  15.655 -2.1786 -0.5684  2.5619
 2427SOL     OW18739   1.092   2.329   3.227 -0.2302  0.5545 -0.2750
 2427SOL    HW118740   1.168   2.280   3.260 -0.3667  1.6240  1.6381
 2427SOL    HW218741   1.020   2.282   3.270  1.7101  0.7175  3.2224
 2428SOL     OW18742   3.023   1.411   3.533  0.6120 -0.1115 -0.2233
 2428SOL    HW118743   3.023   1.328   3.486 -1.8062 -0.2636  0.0445
 2428SOL    HW218744   3.007   1.387   3.625 -1.0112 -0.7283 -0.6806
 2429SOL     OW18745   2.448   1.745   4.798 -0.0889  0.1333 -0.5312
 2429SOL    HW118746   2.392   1.675   4.765 -2.0957  1.4749  0.0159
 2429SOL    HW218747   2.532   1.707   4.774  0.2029  0.3645  0.1080
 2430SOL     OW18748   2.935   3.529   6.978  0.5251 -0.2578 -0.3446
 2430SOL    HW118749   2.978   3.607   6.943 -1.1869  0.9754  0.2836
 2430SOL    HW218750   2.880   3.501   6.905  2.7973 -2.6968 -1.1285
 2431SOL     OW18751   1.162   2.475   7.444  0.2738 -0.0743 -0.3634
 2431SOL    HW118752   1.071   2.478   7.414  0.0905  1.1314  0.3254
 2431SOL    HW218753   1.199   2.547   7.392  1.0814  0.5112  1.0232
 2432SOL     OW18754   1.462   3.086   6.682 -0.0697 -0.0877  0.1200
 2432SOL    HW118755   1.426   3.015   6.630  1.1920 -1.1032  0.6320
 2432SOL    HW218756   1.552   3.054   6.687  0.6947  2.3336  2.3344
 2433SOL     OW18757   4.556   4.348   5.716  0.0151 -0.0894 -0.0732
 2433SOL    HW118758   4.601   4.379   5.795  2.0504  2.3097 -2.1350
 2433SOL    HW218759   4.498   4.420   5.691  1.3290  1.2871  0.8493
 2434SOL     OW18760   0.498   0.694   5.441  0.2210 -0.3878  0.0970
 2434SOL    HW118761   0.552   0.639   5.498 -2.3454 -2.6179  0.3532
 2434SOL    HW218762   0.461   0.754   5.506 -0.4635 -0.5107 -0.1770
 2435SOL     OW18763   0.224   2.601   5.606 -0.4844  0.2618 -0.1312
 2435SOL    HW118764   0.262   2.657   5.538 -2.0633  0.3720 -0.9065
 2435SOL    HW218765   0.148   2.648   5.641 -0.6358  0.6495 -0.9791
 2436SOL     OW18766   1.403   3.413  13.587 -0.2969  0.3313 -0.9902
 2436SOL    HW118767   1.405   3.505  13.559  0.7468 -0.3616 -3.2400
 2436SOL    HW218768   1.322   3.382  13.546 -1.0839 -2.0790  2.3847
 2437SOL     OW18769   0.515   0.202   9.049  0.0152 -0.0761  0.1322
 2437SOL    HW118770   0.532   0.161   9.134 -0.5944  0.4880  0.5182
 2437SOL    HW218771   0.602   0.189   9.010  0.5377 -0.4614  1.4123
 2438SOL     OW18772   3.002   1.674   8.814 -0.2542 -0.4994  0.3799
 2438SOL    HW118773   2.944   1.721   8.754  1.7606  1.2367 -0.2148
 2438SOL    HW218774   3.045   1.613   8.753 -3.1816 -0.9366 -1.2587
 2439SOL     OW18775   3.358   2.267   4.936  0.1371  0.3462  0.5573
 2439SOL    HW118776   3.325   2.188   4.980  1.6163 -0.8145 -0.4101
 2439SOL    HW218777   3.277   2.309   4.907  0.1680  0.3656  0.4989
 2440SOL     OW18778   1.492   4.504   8.137  0.1692  0.2069 -0.3764
 2440SOL    HW118779   1.579   4.466   8.127  0.0406 -0.0133 -0.6800
 2440SOL    HW218780   1.466   4.455   8.215  0.7449  1.1334  0.3976
 2441SOL     OW18781   2.674   3.648   6.513  0.3398  0.5255  0.8649
 2441SOL    HW118782   2.665   3.743   6.503 -1.2090  0.1416 -1.3229
 2441SOL    HW218783   2.616   3.619   6.442  0.5447  0.6811  0.6332
 2442SOL     OW18784   2.632   0.992   5.672  0.0572 -0.1458 -0.2310
 2442SOL    HW118785   2.605   1.007   5.581  1.7812  1.2963 -0.4904
 2442SOL    HW218786   2.717   0.950   5.664 -0.9122 -2.0091 -0.8294
 2443SOL     OW18787   1.359   3.238  14.715  0.0094  1.0572  0.2104
 2443SOL    HW118788   1.375   3.258  14.807 -0.8474  0.0258  0.5770
 2443SOL    HW218789   1.429   3.173  14.708 -1.8521 -1.0586  1.5349
 2444SOL     OW18790   0.805   0.999   0.857  0.7713  0.1176 -0.0202
 2444SOL    HW118791   0.823   0.974   0.947 -0.0905 -0.5345 -0.0308
 2444SOL    HW218792   0.814   1.093   0.875  1.7456 -0.0041  0.1215
 2445SOL     OW18793   4.465   4.686   7.949 -0.2331 -0.5927  0.5193
 2445SOL    HW118794   4.441   0.032   7.884  3.2010  1.0514  0.9513
 2445SOL    HW218795   4.556   4.668   7.927 -0.0231  1.4000 -0.2801
 2446SOL     OW18796   1.820   2.125   2.411 -0.0576 -0.9581 -0.0940
 2446SOL    HW118797   1.763   2.144   2.336 -0.2252  2.3396  0.8888
 2446SOL    HW218798   1.874   2.061   2.365  1.1631 -1.0370  1.4696
 2447SOL     OW18799   0.972   2.038   6.941  0.2581  0.3216  0.0695
 2447SOL    HW118800   0.931   1.989   6.869  1.1186  1.0652 -0.9303
 2447SOL    HW218801   1.041   1.983   6.977  0.1027  0.2719  0.2951
 2448SOL     OW18802   1.800   3.110   2.438  0.0750 -0.8442  0.0038
 2448SOL    HW118803   1.745   3.074   2.369  0.3253  0.6116 -0.9519
 2448SOL    HW218804   1.795   3.200   2.406  1.6701 -0.0731  1.9688
 2449SOL     OW18805   2.531   3.163   4.035 -0.1999  0.0333  0.3814
 2449SOL    HW118806   2.555   3.088   4.089 -0.3333 -0.3541 -0.0931
 2449SOL    HW218807   2.437   3.162   4.016 -0.6976  0.2027  2.8181
 2450SOL     OW18808   0.007   0.116   6.655  0.3381 -0.3184 -0.1403
 2450SOL    HW118809   0.040   0.191   6.606 -0.3323  0.3134  0.3561
 2450SOL    HW218810   0.033   0.145   6.743 -0.3248  0.8654 -0.3339
 2451SOL     OW18811   0.719   4.296   5.800 -0.4515 -0.7547  0.5467
 2451SOL    HW118812   0.728   4.389   5.782 -2.8978 -0.4757  0.7016
 2451SOL    HW218813   0.811   4.269   5.805 -0.6097 -1.2419  0.8770
 2452SOL     OW18814   4.477   4.462   8.326 -0.0602  0.5148 -0.3495
 2452SOL    HW118815   4.398   4.473   8.379 -0.2598  0.4515 -0.6378
 2452SOL    HW218816   4.472   4.542   8.274  1.2516  0.5272 -0.4752
 2453SOL     OW18817   4.069   1.290   1.845 -0.2516  0.1173 -0.0537
 2453SOL    HW118818   4.148   1.305   1.897 -0.0219 -3.1393  0.5268
 2453SOL    HW218819   4.025   1.227   1.902  0.5167  0.1788  0.6120
 2454SOL     OW18820   2.544   1.056  12.744  0.4157 -0.7544 -0.0349
 2454SOL    HW118821   2.592   1.058  12.661  0.5360 -0.0822  0.0482
 2454SOL    HW218822   2.528   0.962  12.756 -1.1577 -0.2661  1.7287
 2455SOL     OW18823   1.706   2.057   0.757 -0.0986 -0.2102  0.2016
 2455SOL    HW118824   1.790   2.021   0.728  0.1326  1.7797 -1.5852
 2455SOL    HW218825   1.720   2.067   0.851  0.4180  1.8288 -0.1001
 2456SOL     OW18826   3.402   1.417   0.439 -0.1613  0.6822  0.3894
 2456SOL    HW118827   3.371   1.500   0.475  2.7351  2.7880 -1.9353
 2456SOL    HW218828   3.384   1.358   0.512  1.1809 -1.9954 -1.4384
 2457SOL     OW18829   4.632   2.839   8.638  0.6318  0.3082 -0.5832
 2457SOL    HW118830   4.597   2.896   8.569  0.3531  2.1606  1.0970
 2457SOL    HW218831   4.563   2.843   8.704  0.6058 -1.4762 -0.4896
 2458SOL     OW18832   2.839   4.497   5.137  0.1279 -0.3684  0.2413
 2458SOL    HW118833   2.841   4.401   5.142  0.1002 -0.3438  0.7086
 2458SOL    HW218834   2.931   4.523   5.149  1.5720 -3.6054 -3.4554
 2459SOL     OW18835   1.329   1.955   8.754 -0.2214 -0.2158 -0.1198
 2459SOL    HW118836   1.246   1.910   8.741  0.4212 -1.4635  0.1377
 2459SOL    HW218837   1.373   1.883   8.798 -0.0005 -0.7896 -1.3023
 2460SOL     OW18838   3.019   2.452  16.495 -0.1307  0.0152 -0.3124
 2460SOL    HW118839   3.052   2.541  16.498 -1.3019  0.4064  1.0331
 2460SOL    HW218840   3.098   2.402  16.472  0.4485  0.9651 -0.3518
 2461SOL     OW18841   4.331   1.243  15.748 -0.1547 -0.1090 -0.2656
 2461SOL    HW118842   4.328   1.196  15.665  0.4010  0.5263 -0.6415
 2461SOL    HW218843   4.426   1.244  15.759 -0.0853  1.1150 -0.9654
 2462SOL     OW18844   3.449   1.788   8.176  0.1030  0.4114 -0.2053
 2462SOL    HW118845   3.388   1.807   8.248  0.1289  0.5175 -0.2115
 2462SOL    HW218846   3.525   1.841   8.201  0.5421 -0.5897  0.6226
 2463SOL     OW18847   1.644   2.245   6.703  0.6499 -0.5663 -0.6945
 2463SOL    HW118848   1.724   2.274   6.658  0.3684  2.0605  0.5097
 2463SOL    HW218849   1.598   2.329   6.698  3.4241  0.8868 -1.9168
 2464SOL     OW18850   2.080   4.018  14.578  0.5366  0.4567 -0.6955
 2464SOL    HW118851   2.114   4.106  14.568 -2.3590  1.5895 -0.5480
 2464SOL    HW218852   2.133   3.994  14.654 -3.1501  0.3929  1.8552
 2465SOL     OW18853   1.035   4.584   2.785  0.4117 -0.3179 -0.3588
 2465SOL    HW118854   1.069   4.557   2.870 -2.6590  0.0375  0.9896
 2465SOL    HW218855   1.068   4.674   2.779  1.2469 -0.6359 -0.4372
 2466SOL     OW18856   3.842   2.508   4.575 -0.5604  0.2362  0.7208
 2466SOL    HW118857   3.779   2.558   4.523  1.6514  1.2566 -0.9828
 2466SOL    HW218858   3.820   2.419   4.546  1.4080  0.2056 -0.7639
 2467SOL     OW18859   2.976   0.451   4.745 -0.1767 -0.1953  0.2997
 2467SOL    HW118860   3.036   0.514   4.706 -0.9765 -0.6856 -1.6811
 2467SOL    HW218861   3.006   0.437   4.835  2.0650  0.6058 -0.3384
 2468SOL     OW18862   1.330   2.280  11.828 -0.1212 -0.2937  0.4026
 2468SOL    HW118863   1.389   2.238  11.765  1.3853  0.4023  1.3546
 2468SOL    HW218864   1.252   2.227  11.843  0.1987  0.2074  3.7416
 2469SOL     OW18865   1.555   4.626  12.700  0.3651  0.1337 -0.3677
 2469SOL    HW118866   1.530   4.703  12.750 -0.4641  0.2319 -0.9322
 2469SOL    HW218867   1.602   4.570  12.762 -1.1727  1.2285  1.7777
 2470SOL     OW18868   4.192   3.209   4.253  0.4661 -0.0783  0.1458
 2470SOL    HW118869   4.238   3.286   4.286  1.5410 -0.2715 -0.8851
 2470SOL    HW218870   4.212   3.144   4.320 -0.8688  0.1918  0.8150
 2471SOL     OW18871   1.913   3.845   4.238 -0.4445 -0.7385 -0.6614
 2471SOL    HW118872   2.001   3.855   4.275 -0.6027 -2.2344  0.1038
 2471SOL    HW218873   1.911   3.924   4.184 -0.7822 -0.9842 -1.0088
 2472SOL     OW18874   4.626   4.127   6.405  0.2147 -0.4101 -0.0032
 2472SOL    HW118875   4.618   4.032   6.417 -2.2739 -0.8824 -5.1653
 2472SOL    HW218876   4.621   4.139   6.310 -0.0269 -0.7249 -0.0308
 2473SOL     OW18877   0.492   0.344   7.908 -0.0949 -0.0032  0.6459
 2473SOL    HW118878   0.565   0.311   7.856  0.1114  2.8376 -0.8851
 2473SOL    HW218879   0.519   0.315   7.995  0.9550 -0.4673  0.1587
 2474SOL     OW18880   1.972   0.040   2.749 -0.1541 -0.0131 -0.4009
 2474SOL    HW118881   2.024   0.116   2.723 -0.1960 -0.0410 -0.5677
 2474SOL    HW218882   2.030   4.697   2.790  2.7796  1.8611 -1.6475
 2475SOL     OW18883   1.541   1.324   1.288 -0.2499 -0.4773  0.0970
 2475SOL    HW118884   1.535   1.395   1.353 -1.6873 -0.0996 -0.4432
 2475SOL    HW218885   1.560   1.252   1.347  0.5947 -0.1392  0.2410
 2476SOL     OW18886   1.691   2.773  12.288  0.3598  0.0623 -0.0333
 2476SOL    HW118887   1.676   2.863  12.314 -1.7711 -0.5378  0.8181
 2476SOL    HW218888   1.678   2.779  12.194  0.4061  2.1003  0.1007
 2477SOL     OW18889   3.551   0.243  14.597  0.0253 -0.5121  0.0607
 2477SOL    HW118890   3.463   0.270  14.571  0.8098  1.5568 -0.5225
 2477SOL    HW218891   3.546   0.235  14.693  0.2251 -0.2511  0.0935
 2478SOL     OW18892   0.737   2.472   4.461  1.0153 -0.3208  0.3199
 2478SOL    HW118893   0.823   2.491   4.497  0.0346  2.6688  1.0486
 2478SOL    HW218894   0.692   2.438   4.538 -1.5269  1.0124 -0.5800
 2479SOL     OW18895   4.182   3.568   4.621  0.6379  0.4164 -0.1657
 2479SOL    HW118896   4.092   3.586   4.592 -0.2169 -3.1708  0.3576
 2479SOL    HW218897   4.165   3.543   4.712 -1.4580 -0.3566 -0.7831
 2480SOL     OW18898   0.315   4.093  15.231  0.2450 -0.2056  0.0391
 2480SOL    HW118899   0.362   4.053  15.158 -1.6444 -0.3983 -1.0957
 2480SOL    HW218900   0.225   4.093  15.197  0.6227 -0.8632 -0.9483
 2481SOL     OW18901   0.011   3.509   0.926  0.0394  0.5259 -0.1537
 2481SOL    HW118902   4.693   3.532   1.011  1.8857  2.0473  0.2842
 2481SOL    HW218903   4.702   3.580   0.869 -0.2247 -1.0195 -1.8916
 2482SOL     OW18904   2.274   1.486  13.705  0.4052 -0.3378 -0.4053
 2482SOL    HW118905   2.343   1.483  13.771 -0.9214 -0.7383  0.9439
 2482SOL    HW218906   2.281   1.395  13.676  2.2904 -0.7335  1.2910
 2483SOL     OW18907   2.084   3.362   7.284  0.2384 -0.0092 -0.0167
 2483SOL    HW118908   2.014   3.348   7.219  1.3211  0.6784 -1.3228
 2483SOL    HW218909   2.085   3.277   7.329 -0.5697  0.3760  0.7415
 2484SOL     OW18910   0.149   4.604   8.284  0.0606 -0.1026  0.8185
 2484SOL    HW118911   0.161   4.640   8.196 -2.2172 -2.0514 -0.2768
 2484SOL    HW218912   0.095   4.674   8.322  0.2255  0.8874 -0.7719
 2485SOL     OW18913   0.091   3.767  12.367 -0.2941 -0.0353 -0.0379
 2485SOL    HW118914   0.039   3.700  12.411  0.2193 -0.5238 -0.1728
 2485SOL    HW218915   0.028   3.839  12.370  1.6513  1.6369  1.1841
 2486SOL     OW18916   0.723   2.585  15.365 -0.0555 -0.3243 -0.8464
 2486SOL    HW118917   0.665   2.532  15.311 -1.5737  1.6019 -1.0979
 2486SOL    HW218918   0.804   2.533  15.358  0.1855  0.0889 -1.1428
 2487SOL     OW18919   2.531   3.869   0.175  0.1523 -0.0114 -0.2772
 2487SOL    HW118920   2.564   3.818   0.249 -0.2146  2.3674  1.5149
 2487SOL    HW218921   2.612   3.878   0.126  1.3708  1.8905  2.1323
 2488SOL     OW18922   1.375   0.547   6.447 -0.2639 -0.2633  0.1392
 2488SOL    HW118923   1.449   0.488   6.433  1.2014  1.6227 -0.0480
 2488SOL    HW218924   1.373   0.560   6.542  0.6913 -0.4034  0.1730
 2489SOL     OW18925   2.380   2.627   7.186  0.9542  0.6133 -0.3948
 2489SOL    HW118926   2.325   2.571   7.241  0.3261  1.1249 -0.5166
 2489SOL    HW218927   2.441   2.653   7.255  0.7676  1.3689 -0.5147
 2490SOL     OW18928   0.049   1.730   7.279  0.5419 -0.0762  0.4555
 2490SOL    HW118929   0.094   1.764   7.201 -2.4760  3.7487  0.4094
 2490SOL    HW218930   0.117   1.753   7.342  0.4773 -0.3129  0.6118
 2491SOL     OW18931   0.323   2.658   5.182  0.0626  0.8760  0.1291
 2491SOL    HW118932   0.406   2.685   5.143 -0.0639 -0.1808 -0.8686
 2491SOL    HW218933   0.354   2.619   5.264  0.3949  1.6504  0.3777
 2492SOL     OW18934   4.327   0.757   2.608  0.3975 -0.0019  0.0232
 2492SOL    HW118935   4.299   0.815   2.536  0.5658 -0.4979 -0.4420
 2492SOL    HW218936   4.329   0.675   2.559 -1.5213 -0.6767  1.0814
 2493SOL     OW18937   3.537   3.624   3.820 -0.5786  0.5814  0.6098
 2493SOL    HW118938   3.602   3.564   3.782 -0.2849 -0.4137  2.6647
 2493SOL    HW218939   3.525   3.688   3.750  2.7738 -1.0445 -1.4395
 2494SOL     OW18940   4.352   1.215   8.238 -0.3020 -0.6623 -0.1713
 2494SOL    HW118941   4.297   1.197   8.314 -1.0361 -0.4863 -0.6579
 2494SOL    HW218942   4.294   1.285   8.208  0.5920  0.0115 -0.3343
 2495SOL     OW18943   0.877   1.211   3.375  0.0383  0.2953 -0.4029
 2495SOL    HW118944   0.802   1.155   3.356  0.3791 -1.1419  2.5059
 2495SOL    HW218945   0.830   1.294   3.385  0.0360  0.3802 -1.1313
 2496SOL     OW18946   2.512   4.501  12.600  0.4527 -0.7354 -0.7560
 2496SOL    HW118947   2.452   4.575  12.592  0.3133 -0.5711  1.7431
 2496SOL    HW218948   2.459   4.431  12.638 -1.4843  0.7769 -0.6597
 2497SOL     OW18949   2.482   2.350   9.774  0.3587  0.7489 -0.4376
 2497SOL    HW118950   2.551   2.360   9.839  0.5315  1.1273 -0.6794
 2497SOL    HW218951   2.423   2.425   9.779  0.6900  0.9186  0.8016
 2498SOL     OW18952   1.640   1.489   7.187  0.2332  0.2849  0.0885
 2498SOL    HW118953   1.726   1.530   7.188  0.3431  0.1318 -2.9544
 2498SOL    HW218954   1.652   1.443   7.103  1.2926  1.4283 -0.3776
 2499SOL     OW18955   1.493   1.131   5.828 -0.1867 -0.3384 -0.4440
 2499SOL    HW118956   1.572   1.134   5.773  0.9658  0.1887  1.2292
 2499SOL    HW218957   1.454   1.046   5.807  0.1078 -0.4576 -0.5149
 2500SOL     OW18958   1.111   2.619  11.367  0.4430  0.1528 -0.3799
 2500SOL    HW118959   1.136   2.708  11.344 -2.0988  0.9585 -0.0438
 2500SOL    HW218960   1.196   2.593  11.404 -0.5963  0.4006  2.2324
 2501SOL     OW18961   2.536   0.851   4.184  0.3373 -0.1753  0.1023
 2501SOL    HW118962   2.561   0.900   4.106  1.6728 -0.3298  0.4344
 2501SOL    HW218963   2.595   0.776   4.190  0.1954 -0.6456 -4.3544
 2502SOL     OW18964   4.308   3.794   7.437  0.1309 -0.4077 -0.7396
 2502SOL    HW118965   4.395   3.755   7.449  0.0257 -0.5810 -0.5390
 2502SOL    HW218966   4.276   3.772   7.524 -0.4583  1.0342 -0.5838
 2503SOL     OW18967   3.148   4.304   5.086  0.7635 -0.2291  0.2612
 2503SOL    HW118968   3.070   4.252   5.101 -0.0842  1.4388  1.6717
 2503SOL    HW218969   3.223   4.245   5.095 -0.3077 -1.4111  1.2539
 2504SOL     OW18970   1.407   0.206   6.982  0.5216 -0.5292 -0.1327
 2504SOL    HW118971   1.432   0.260   7.057 -0.5877 -1.1069  0.6726
 2504SOL    HW218972   1.456   0.127   7.003 -1.1317 -0.9133  2.2465
 2505SOL     OW18973   4.682   2.515  15.112  0.3519 -0.2809  0.1639
 2505SOL    HW118974   0.025   2.554  15.052 -0.0342 -0.2936 -0.2529
 2505SOL    HW218975   4.647   2.591  15.158  0.0707  0.3448 -1.0872
 2506SOL     OW18976   4.211   1.875   6.361  0.5632  0.5566  0.3539
 2506SOL    HW118977   4.132   1.846   6.406  0.4658 -0.9223 -0.8148
 2506SOL    HW218978   4.188   1.961   6.326 -1.9259 -0.2245  0.0776
 2507SOL     OW18979   0.727   3.441  11.486 -0.0734  0.9584 -0.4000
 2507SOL    HW118980   0.644   3.489  11.487  0.8389  2.5202  0.8702
 2507SOL    HW218981   0.776   3.507  11.535 -2.8610  1.7598  1.3445
 2508SOL     OW18982   4.503   1.233  14.225 -0.6868 -0.2729  0.1741
 2508SOL    HW118983   4.548   1.282  14.157 -1.1266  0.2860  0.2869
 2508SOL    HW218984   4.433   1.297  14.240 -0.2781  0.6343 -1.8883
 2509SOL     OW18985   3.329   4.141   1.029  0.1393  0.4253  0.4308
 2509SOL    HW118986   3.246   4.171   0.993  0.1844 -0.9914 -0.8425
 2509SOL    HW218987   3.318   4.179   1.116 -1.7829  1.4271 -0.2446
 2510SOL     OW18988   0.147   4.098  15.003 -1.0488  0.1637  0.1542
 2510SOL    HW118989   0.180   4.051  14.926 -1.4832  0.2888 -0.1061
 2510SOL    HW218990   0.056   4.069  14.996 -0.2260 -2.1595 -1.1852
 2511SOL     OW18991   0.369   2.371   3.221 -0.5532  0.1613  0.2482
 2511SOL    HW118992   0.315   2.321   3.160 -0.1835 -3.9941  3.3259
 2511SOL    HW218993   0.397   2.297   3.275  0.6289  0.2519 -0.2240
 2512SOL     OW18994   3.698   0.868  14.805 -0.5082  0.4081  0.4868
 2512SOL    HW118995   3.650   0.880  14.723  1.6576 -1.2942 -1.0344
 2512SOL    HW218996   3.788   0.884  14.775 -0.5487 -2.1346 -0.9430
 2513SOL     OW18997   1.133   4.201  10.258 -0.0189  0.1596 -0.5260
 2513SOL    HW118998   1.220   4.172  10.229 -0.3630 -0.3896 -1.0065
 2513SOL    HW218999   1.083   4.191  10.177  0.0738  0.2881 -0.6001
 2514SOL     OW19000   2.939   0.678  13.285 -0.3582  0.3765  1.2924
 2514SOL    HW119001   2.890   0.732  13.347 -0.6674  1.0640  0.4438
 2514SOL    HW219002   3.024   0.667  13.327 -0.4105 -2.6738  0.6253
 2515SOL     OW19003   0.820   3.813   5.456  0.9464  0.0871  0.0628
 2515SOL    HW119004   0.833   3.839   5.547 -0.7686 -2.5617  1.0846
 2515SOL    HW219005   0.784   3.895   5.422  0.5341 -0.0716  0.1110
 2516SOL     OW19006   2.009   4.356  16.635  0.0966 -0.3453  0.0324
 2516SOL    HW119007   2.031   4.284  16.576 -0.5623  0.2066 -0.9032
 2516SOL    HW219008   2.019   4.321  16.723  1.2352 -0.7085 -0.2443
 2517SOL     OW19009   0.844   2.833   9.402  0.1715  0.6800  0.7562
 2517SOL    HW119010   0.782   2.860   9.334  0.1962 -1.4506 -0.1069
 2517SOL    HW219011   0.809   2.746   9.418  0.1192  0.0290 -2.7991
 2518SOL     OW19012   1.676   4.503   3.239 -0.3585 -0.5885  0.0978
 2518SOL    HW119013   1.585   4.535   3.242 -0.4791 -1.1538  2.3038
 2518SOL    HW219014   1.729   4.573   3.277 -2.4802  0.3378  1.3787
 2519SOL     OW19015   3.287   3.060  13.794 -0.4375  0.2252 -0.0002
 2519SOL    HW119016   3.316   3.122  13.862  0.5684  0.0581 -0.2816
 2519SOL    HW219017   3.357   3.067  13.730  0.0973 -0.9630  0.4539
 2520SOL     OW19018   3.920   3.684   0.623 -0.1715  0.5642  0.3749
 2520SOL    HW119019   4.005   3.726   0.632  0.0997  0.5425 -2.1233
 2520SOL    HW219020   3.859   3.743   0.667 -2.8236 -3.1900  1.7171
 2521SOL     OW19021   4.415   0.253   9.538 -0.0409 -0.1303  0.1300
 2521SOL    HW119022   4.489   0.263   9.599  0.0173 -0.5043  0.1191
 2521SOL    HW219023   4.446   0.296   9.459 -1.8854 -0.0759 -0.5407
 2522SOL     OW19024   0.114   3.959   7.804 -0.9516 -0.1448  0.1290
 2522SOL    HW119025   0.056   3.922   7.871  1.9105 -1.5745  1.8301
 2522SOL    HW219026   0.070   4.041   7.781  0.4657  0.6099  0.0806
 2523SOL     OW19027   0.714   0.214   4.794 -0.5021  0.1537  0.3187
 2523SOL    HW119028   0.663   0.249   4.867 -1.0384 -0.4046  0.2135
 2523SOL    HW219029   0.680   0.124   4.792  0.9824 -0.3916 -0.5236
 2524SOL     OW19030   4.715   2.923   5.038  0.0457 -0.4323 -0.2908
 2524SOL    HW119031   4.656   2.980   5.088 -0.1520 -1.7508  0.9792
 2524SOL    HW219032   0.082   2.941   5.074  0.5796 -1.9162 -0.8503
 2525SOL     OW19033   3.909   1.564   6.863  0.8439 -0.1839 -0.1706
 2525SOL    HW119034   3.818   1.592   6.875  0.7475 -1.2700  1.6162
 2525SOL    HW219035   3.951   1.577   6.948  0.4407  2.0188 -0.3026
 2526SOL     OW19036   0.508   1.805   8.577 -0.1394  0.0693  0.0370
 2526SOL    HW119037   0.470   1.718   8.577 -0.4073  0.1863 -0.1572
 2526SOL    HW219038   0.585   1.790   8.631  0.4464 -0.4883 -0.9562
 2527SOL     OW19039   1.478   1.062  12.092 -0.1361  0.1512 -0.2196
 2527SOL    HW119040   1.545   1.119  12.130  1.1174 -1.2976 -0.2694
 2527SOL    HW219041   1.437   1.131  12.040 -0.1319  0.2265 -0.1246
 2528SOL     OW19042   1.803   1.698   8.957 -0.5096  0.0507 -0.4508
 2528SOL    HW119043   1.872   1.672   9.018 -0.2077  0.2102 -0.7272
 2528SOL    HW219044   1.835   1.773   8.907 -1.4114  2.1795  2.1617
 2529SOL     OW19045   0.227   2.599  11.318 -0.1106  0.3436  0.3852
 2529SOL    HW119046   0.174   2.674  11.346 -1.4500 -0.0529 -1.0980
 2529SOL    HW219047   0.185   2.581  11.234 -0.6466 -0.1369  0.7595
 2530SOL     OW19048   0.206   3.037   1.522 -0.4417  0.6910  0.3548
 2530SOL    HW119049   0.267   2.970   1.491  0.4058  1.7704 -0.3194
 2530SOL    HW219050   0.130   2.985   1.548  0.1653 -1.2599 -1.8104
 2531SOL     OW19051   2.003   0.948  14.516  0.0905 -0.1851 -0.3414
 2531SOL    HW119052   2.048   0.877  14.563  0.3534 -0.9567 -1.7526
 2531SOL    HW219053   2.038   0.952  14.427 -0.3975 -0.2756 -0.5321
 2532SOL     OW19054   0.741   0.603   7.972  0.1927 -0.1241  0.0910
 2532SOL    HW119055   0.751   0.663   7.898 -2.5368  0.3169  0.0796
 2532SOL    HW219056   0.647   0.584   7.977  0.2784  0.0842  2.4374
 2533SOL     OW19057   1.782   2.940   7.732 -0.1507 -0.0709  0.5805
 2533SOL    HW119058   1.811   2.936   7.823 -0.7383 -2.3449  0.6779
 2533SOL    HW219059   1.789   3.030   7.700  0.3723 -0.5396 -0.6144
 2534SOL     OW19060   0.830   0.842   8.172  0.1320 -0.6502  0.1730
 2534SOL    HW119061   0.839   0.865   8.264 -1.2330 -0.0521  0.1519
 2534SOL    HW219062   0.812   0.748   8.174  0.8833 -0.8474 -2.5511
 2535SOL     OW19063   0.398   2.438  11.697  0.1349  0.1654  0.4116
 2535SOL    HW119064   0.330   2.506  11.698  0.1965  0.2617 -1.6127
 2535SOL    HW219065   0.428   2.429  11.606 -2.6281  0.7399 -0.5598
 2536SOL     OW19066   3.866   3.997  14.526 -0.0222  0.3057  0.6819
 2536SOL    HW119067   3.854   4.084  14.489 -1.3859  0.6308  1.8867
 2536SOL    HW219068   3.912   4.022  14.606  0.2115  1.2841  0.2342
 2537SOL     OW19069   0.846   0.999   4.165 -0.3802 -0.2080 -0.5562
 2537SOL    HW119070   0.805   0.914   4.178  0.8477 -0.0339  4.4308
 2537SOL    HW219071   0.772   1.059   4.171 -0.9837 -1.0760  0.5348
 2538SOL     OW19072   4.306   2.434   8.262  0.1978 -0.1679 -0.9798
 2538SOL    HW119073   4.318   2.490   8.186 -0.2498 -1.0564 -1.7029
 2538SOL    HW219074   4.379   2.373   8.256  1.3309  1.2649 -1.7387
 2539SOL     OW19075   1.871   0.146   3.043 -0.3133 -0.1899 -0.2413
 2539SOL    HW119076   1.793   0.100   3.074  0.1704 -2.4119 -2.2670
 2539SOL    HW219077   1.937   0.083   3.070 -1.4851 -0.8709  1.0049
 2540SOL     OW19078   3.806   0.982   7.160  0.6314  0.4832  0.4102
 2540SOL    HW119079   3.801   0.914   7.227  2.3254 -1.7702 -1.7413
 2540SOL    HW219080   3.794   0.932   7.079  0.4799 -0.4035  0.9755
 2541SOL     OW19081   3.064   3.765   6.860 -0.3216 -0.0007  0.4903
 2541SOL    HW119082   3.013   3.844   6.876 -1.7077 -1.1603  1.7750
 2541SOL    HW219083   3.060   3.760   6.764 -0.9562 -0.1577  0.5261
 2542SOL     OW19084   3.743   2.517  11.401  0.3586  0.3840 -0.7975
 2542SOL    HW119085   3.746   2.453  11.330 -1.1611 -0.2306 -0.3053
 2542SOL    HW219086   3.691   2.457  11.454  0.1494  0.7919 -0.5440
 2543SOL     OW19087   3.459   2.835   0.692  0.1644 -0.1870  0.2930
 2543SOL    HW119088   3.467   2.739   0.698  2.1551  0.0703  1.8134
 2543SOL    HW219089   3.439   2.837   0.599 -2.0634  0.9109  0.8097
 2544SOL     OW19090   0.232   1.515   7.047  0.5331  0.4322 -0.3790
 2544SOL    HW119091   0.272   1.600   7.062  0.2110  0.6640 -0.8524
 2544SOL    HW219092   0.256   1.474   7.130 -0.0425  1.2909  0.2130
 2545SOL     OW19093   1.861   1.086   5.069  0.1942 -0.6107  0.0232
 2545SOL    HW119094   1.766   1.081   5.063  0.0139  0.3300  1.9282
 2545SOL    HW219095   1.878   1.038   5.150  0.6146 -0.8394 -0.1972
 2546SOL     OW19096   2.849   4.615  13.230 -0.1719 -0.7640 -0.1061
 2546SOL    HW119097   2.920   4.673  13.257  1.7093 -3.0205 -0.1656
 2546SOL    HW219098   2.841   4.633  13.136  2.0143  0.6694 -0.0052
 2547SOL     OW19099   3.468   4.634   4.642  0.3221 -0.9392 -0.5540
 2547SOL    HW119100   3.541   4.578   4.669  1.5832  0.7214 -0.5467
 2547SOL    HW219101   3.494   0.002   4.667 -0.1019 -1.4562  1.7416
 2548SOL     OW19102   3.772   0.284  10.579  0.2648 -0.1621  0.1693
 2548SOL    HW119103   3.696   0.333  10.548 -1.3027 -1.9818  1.1346
 2548SOL    HW219104   3.774   0.296  10.674 -0.1559  0.8900  0.0452
 2549SOL     OW19105   1.690   2.483   6.922  0.7708  0.3128  0.4729
 2549SOL    HW119106   1.775   2.456   6.887  0.7012  0.2811  0.3314
 2549SOL    HW219107   1.622   2.451   6.863  1.3293  1.5540 -0.8254
 2550SOL     OW19108   3.582   0.468  11.247 -0.5777  0.2531 -0.0709
 2550SOL    HW119109   3.503   0.421  11.220 -0.2742 -0.0474 -0.4380
 2550SOL    HW219110   3.587   0.445  11.340  0.2638  2.3246  0.4134
 2551SOL     OW19111   2.929   4.010   6.884  0.1674 -0.7769 -0.5313
 2551SOL    HW119112   2.992   4.072   6.846 -0.6510 -0.7058 -1.7434
 2551SOL    HW219113   2.847   4.053   6.859  1.5910  1.3643 -1.5992
 2552SOL     OW19114   0.782   0.035   3.205  0.3509 -0.3239  0.0992
 2552SOL    HW119115   0.750   4.665   3.205  0.1182 -0.2466  1.2507
 2552SOL    HW219116   0.827   0.039   3.121  2.0684 -1.7997  0.9495
 2553SOL     OW19117   2.543   0.039   3.222  0.1476  0.0676  0.0963
 2553SOL    HW119118   2.516   0.127   3.195 -2.1244 -0.5240  0.4464
 2553SOL    HW219119   2.617   0.024   3.164 -0.9021 -0.1702 -1.1733
 2554SOL     OW19120   4.585   2.758   3.605 -0.0508 -0.0807 -0.1773
 2554SOL    HW119121   4.498   2.738   3.639 -0.0604  0.4610  0.1033
 2554SOL    HW219122   4.577   2.850   3.580 -1.1717  0.1685  1.1189
 2555SOL     OW19123   3.359   4.207   5.288  0.4495 -0.3998 -0.1043
 2555SOL    HW119124   3.436   4.176   5.241  0.8429 -1.1342  1.0208
 2555SOL    HW219125   3.307   4.129   5.268 -1.8248  1.0693  0.0827
 2556SOL     OW19126   0.671   0.479  17.501  0.5862  0.0679  0.0591
 2556SOL    HW119127   0.626   0.561  17.517 -1.6955 -0.8445 -1.7591
 2556SOL    HW219128   0.762   0.509  17.490  0.1680  0.4193 -2.4066
 2557SOL     OW19129   0.393   1.614   0.163  0.4574  0.1686 -0.1264
 2557SOL    HW119130   0.460   1.679   0.185  0.9025 -0.2660 -0.2087
 2557SOL    HW219131   0.381   1.632   0.070 -3.0139 -1.0931  0.0540
 2558SOL     OW19132   2.808   1.091  14.051  0.0164 -0.1896  0.1063
 2558SOL    HW119133   2.861   1.013  14.068 -0.4126 -0.7941 -1.2239
 2558SOL    HW219134   2.736   1.086  14.114 -0.6499  0.0711 -0.6340
 2559SOL     OW19135   3.041   2.595   1.441  0.3500  0.1671 -0.3985
 2559SOL    HW119136   3.019   2.681   1.405 -3.8800 -0.9545 -0.4372
 2559SOL    HW219137   3.132   2.579   1.414 -0.0883 -1.0384 -1.1354
 2560SOL     OW19138   3.513   1.738   8.458  0.3137  0.5772  0.2104
 2560SOL    HW119139   3.548   1.797   8.526 -0.7410  0.5587  0.7648
 2560SOL    HW219140   3.587   1.685   8.427  0.4322 -1.5106  4.1092
 2561SOL     OW19141   3.679   2.244  15.566 -0.4304 -0.0943 -0.0759
 2561SOL    HW119142   3.698   2.152  15.584 -1.7178 -0.1637  0.9635
 2561SOL    HW219143   3.680   2.266  15.659 -0.4268 -1.1229  0.1688
 2562SOL     OW19144   3.753   4.701  11.998 -0.3070  0.0063 -0.0918
 2562SOL    HW119145   3.775   4.667  11.911 -1.7588  0.2647 -0.5601
 2562SOL    HW219146   3.741   0.075  11.987  2.2105  0.2605 -0.6372
 2563SOL     OW19147   0.393   3.682  14.473 -0.6495  0.2566  0.0009
 2563SOL    HW119148   0.362   3.659  14.385  1.3313  2.7341 -1.3568
 2563SOL    HW219149   0.431   3.600  14.505  2.9161  1.6945 -0.4754
 2564SOL     OW19150   1.887   3.959   5.490 -0.0669 -0.7128 -0.3052
 2564SOL    HW119151   1.839   3.985   5.412  0.4742 -1.8139 -1.0135
 2564SOL    HW219152   1.980   3.952   5.468  0.3930  1.3386  0.9904
 2565SOL     OW19153   0.466   3.483  16.010 -0.6539 -0.8650 -0.0781
 2565SOL    HW119154   0.516   3.422  15.955  3.0422  3.0825 -1.0843
 2565SOL    HW219155   0.383   3.447  16.042 -0.9997 -1.5277 -1.7488
 2566SOL     OW19156   4.198   0.353   5.725  0.2688 -0.1438 -0.1944
 2566SOL    HW119157   4.116   0.336   5.772 -0.2988  0.1976 -1.0650
 2566SOL    HW219158   4.164   0.407   5.653  0.9700 -1.7658 -1.7300
 2567SOL     OW19159   3.362   3.214   6.339  0.3072 -0.5883 -0.5713
 2567SOL    HW119160   3.286   3.166   6.372  0.0622 -0.2789 -0.6819
 2567SOL    HW219161   3.375   3.171   6.255 -2.8984  0.5366 -1.6509
 2568SOL     OW19162   4.324   3.659   5.972  0.0229  0.3495  0.7184
 2568SOL    HW119163   4.390   3.717   6.011 -0.4487  1.2866  0.1228
 2568SOL    HW219164   4.291   3.719   5.905 -1.7110 -2.6291 -1.0948
 2569SOL     OW19165   4.693   2.557   4.368 -0.6638  0.3263  0.1288
 2569SOL    HW119166   4.688   2.602   4.284 -1.3447  1.9494  1.0527
 2569SOL    HW219167   4.603   2.564   4.398 -0.5111  0.4033  0.5718
 2570SOL     OW19168   4.146   2.006   7.432 -0.0453  0.1611 -0.0328
 2570SOL    HW119169   4.220   2.015   7.492  1.3620 -2.3733 -1.3918
 2570SOL    HW219170   4.074   2.023   7.493  1.9003  0.4460  2.1984
 2571SOL     OW19171   0.155   1.482  14.947 -0.2468  0.4644  0.6393
 2571SOL    HW119172   0.150   1.574  14.971  0.1176  0.0455  2.3097
 2571SOL    HW219173   0.065   1.460  14.924 -0.3666  0.6189  0.9702
 2572SOL     OW19174   3.876   3.535   6.872  0.1272 -0.6711  0.0380
 2572SOL    HW119175   3.917   3.450   6.881  0.7748 -0.1682  1.8599
 2572SOL    HW219176   3.849   3.534   6.780  3.3945  0.2484 -0.9189
 2573SOL     OW19177   0.301   4.471   5.777  0.5850  0.0180  0.1075
 2573SOL    HW119178   0.350   4.485   5.696 -2.1417 -0.4934 -1.6512
 2573SOL    HW219179   0.360   4.504   5.844 -0.7500  0.1351  1.2280
 2574SOL     OW19180   0.745   3.413  14.940 -0.5127 -0.1473 -0.3999
 2574SOL    HW119181   0.710   3.361  14.868  0.5379 -1.1473 -0.1792
 2574SOL    HW219182   0.671   3.416  15.001 -0.0560  2.4574  0.0356
 2575SOL     OW19183   3.042   1.760   2.749  0.1866  0.1974  0.2589
 2575SOL    HW119184   3.091   1.837   2.777 -0.4384  1.5154 -2.2948
 2575SOL    HW219185   3.052   1.710   2.830  1.6751 -0.8547 -0.5769
 2576SOL     OW19186   3.610   0.048   2.747 -0.3606  0.1764  0.4755
 2576SOL    HW119187   3.619   0.078   2.657 -0.2236 -1.4967 -0.0823
 2576SOL    HW219188   3.675   4.698   2.752 -0.3044  0.0047 -2.4973
 2577SOL     OW19189   1.249   2.446   0.036  0.0876 -0.1039  0.2542
 2577SOL    HW119190   1.221   2.387  17.651  0.1969  0.0142  0.1105
 2577SOL    HW219191   1.282   2.519  17.668  2.1258  0.2176  1.9804
 2578SOL     OW19192   1.148   0.044  12.726 -0.0648  0.0766  0.2162
 2578SOL    HW119193   1.079   0.093  12.681  0.8572  1.5276  0.3608
 2578SOL    HW219194   1.124   4.676  12.698  0.1642  0.0468  0.1191
 2579SOL     OW19195   1.188   3.067   4.715 -0.9497 -0.4950  0.4945
 2579SOL    HW119196   1.156   2.980   4.741 -1.3087 -0.7667 -0.8974
 2579SOL    HW219197   1.252   3.035   4.651 -1.5991  0.9005 -0.8293
 2580SOL     OW19198   2.922   0.379   3.797  0.0969  0.1910  0.1491
 2580SOL    HW119199   2.916   0.474   3.792 -0.2548 -0.1581 -6.1591
 2580SOL    HW219200   2.838   0.359   3.839  0.4515 -2.6854 -0.4916
 2581SOL     OW19201   0.207   0.714   3.385 -0.5450 -0.0515  0.3339
 2581SOL    HW119202   0.163   0.640   3.343 -0.7834  0.2281  0.0909
 2581SOL    HW219203   0.283   0.670   3.424  0.2977  1.1414  0.0380
 2582SOL     OW19204   1.277   4.409   6.024  0.0619 -0.4865  0.3227
 2582SOL    HW119205   1.256   4.410   5.930  1.4000 -0.3786  0.0260
 2582SOL    HW219206   1.334   4.332   6.023 -0.1339 -0.6091 -2.4216
 2583SOL     OW19207   2.523   1.787   5.897  0.0431 -0.5540 -0.4466
 2583SOL    HW119208   2.590   1.741   5.847  0.0399 -1.2412  0.1760
 2583SOL    HW219209   2.455   1.771   5.831  0.1876  1.7622 -1.1229
 2584SOL     OW19210   2.087   4.029   7.857  0.6080 -0.5070 -0.5669
 2584SOL    HW119211   2.071   4.112   7.813  0.1444  0.2603  1.0635
 2584SOL    HW219212   1.997   4.006   7.880 -0.1579  1.9350 -1.2002
 2585SOL     OW19213   1.001   0.869   0.177 -0.2881 -0.5504  0.4008
 2585SOL    HW119214   1.031   0.901   0.262 -0.7650  0.1642  0.3020
 2585SOL    HW219215   1.083   0.873   0.129 -0.3711  0.8442  0.3622
 2586SOL     OW19216   1.240   0.853   8.972 -0.3583 -0.6311 -0.5417
 2586SOL    HW119217   1.334   0.866   8.979 -0.5075  0.6985 -1.0018
 2586SOL    HW219218   1.208   0.928   8.921  3.0982  0.7380 -0.6476
 2587SOL     OW19219   0.349   0.068  16.212  0.0955  0.0794 -0.2195
 2587SOL    HW119220   0.347   0.148  16.265 -0.2479 -0.7275  1.0009
 2587SOL    HW219221   0.258   0.042  16.196  0.2302  0.5608 -1.7633
 2588SOL     OW19222   0.906   1.691  15.960 -0.0061  0.0209 -0.0826
 2588SOL    HW119223   0.908   1.658  15.870  0.5556  0.4463 -0.2259
 2588SOL    HW219224   0.883   1.782  15.941  1.7681  0.7481  1.3585
 2589SOL     OW19225   2.767   3.264   6.665  0.4009  0.2231 -0.0239
 2589SOL    HW119226   2.675   3.238   6.664  0.2880  0.6796 -0.9849
 2589SOL    HW219227   2.754   3.352   6.700 -0.3669  1.1901 -2.7693
 2590SOL     OW19228   1.023   1.957   4.495 -0.5376  0.3286 -0.1816
 2590SOL    HW119229   1.062   2.039   4.462 -0.8602  1.9120  3.3957
 2590SOL    HW219230   0.938   1.985   4.528 -0.7776  0.5247 -0.9544
 2591SOL     OW19231   1.619   3.850  17.346 -0.3088 -0.1057  0.5758
 2591SOL    HW119232   1.588   3.765  17.375  0.7920  0.2205  2.6798
 2591SOL    HW219233   1.688   3.836  17.281 -1.2426  0.5381 -0.5478
 2592SOL     OW19234   2.474   3.176   8.879  0.4863  0.0238 -0.5348
 2592SOL    HW119235   2.422   3.208   8.805 -2.8235 -1.6793  1.0104
 2592SOL    HW219236   2.414   3.153   8.951  1.1787 -1.3165 -0.3821
 2593SOL     OW19237   3.147   2.233   5.546  0.8001  0.0943  0.8157
 2593SOL    HW119238   3.197   2.235   5.465 -0.7882 -0.9997 -0.1945
 2593SOL    HW219239   3.080   2.166   5.530 -0.0653  0.3791  3.1704
 2594SOL     OW19240   1.131   1.448   7.862 -0.3904  0.6095 -0.1517
 2594SOL    HW119241   1.221   1.480   7.855 -0.1676  0.5966  2.8761
 2594SOL    HW219242   1.083   1.493   7.792 -0.2027  0.3127 -0.4745
 2595SOL     OW19243   1.413   1.584   1.114 -0.2018 -0.2221 -0.1441
 2595SOL    HW119244   1.497   1.539   1.125  0.0437  0.1732 -0.4134
 2595SOL    HW219245   1.370   1.572   1.199  2.1852  1.0293  1.2523
 2596SOL     OW19246   0.581   3.550   8.981  0.7735 -0.0430 -0.3271
 2596SOL    HW119247   0.554   3.619   9.042  0.0090  0.7465 -1.5578
 2596SOL    HW219248   0.660   3.593   8.948  0.5868  0.3531 -0.2578
 2597SOL     OW19249   3.012   3.453   9.792  0.4670  0.8083  0.3330
 2597SOL    HW119250   3.081   3.393   9.820  0.6091  0.7251 -0.1932
 2597SOL    HW219251   2.942   3.449   9.857  0.5526  1.4413  0.4583
 2598SOL     OW19252   1.653   3.650   4.548 -0.0360  0.0136  0.0435
 2598SOL    HW119253   1.642   3.558   4.571  1.9590 -0.5170 -1.1032
 2598SOL    HW219254   1.569   3.690   4.572 -0.2619 -0.2051 -0.3942
 2599SOL     OW19255   1.591   1.136  16.217 -0.3047 -0.4050 -0.2113
 2599SOL    HW119256   1.589   1.058  16.272 -0.9710 -1.9017 -2.3582
 2599SOL    HW219257   1.667   1.187  16.245  0.6687 -1.7509 -0.4572
 2600SOL     OW19258   3.304   3.740  11.874 -0.1017 -0.4568  0.3735
 2600SOL    HW119259   3.301   3.734  11.779 -2.5588 -1.5724  0.5120
 2600SOL    HW219260   3.395   3.741  11.905  0.3121 -0.2141 -0.8735
 2601SOL     OW19261   4.424   3.508  10.283  0.1148  0.1302  0.2973
 2601SOL    HW119262   4.414   3.519  10.378  2.5969 -0.4252  0.6234
 2601SOL    HW219263   4.339   3.471  10.259  1.1126 -3.2865  1.9972
 2602SOL     OW19264   1.144   3.010   4.384  0.5675 -0.0228 -0.4874
 2602SOL    HW119265   1.230   2.970   4.399 -0.1189 -1.0164  0.8074
 2602SOL    HW219266   1.122   2.962   4.304  0.4165  0.1045 -0.5210
 2603SOL     OW19267   3.061   3.432   5.920 -0.0052  0.5407 -0.4088
 2603SOL    HW119268   3.127   3.494   5.950  0.4500 -0.0142 -0.2518
 2603SOL    HW219269   2.986   3.468   5.967 -1.4452  0.4123 -2.6044
 2604SOL     OW19270   2.875   2.592   8.878  0.1111  0.4418  0.1337
 2604SOL    HW119271   2.859   2.593   8.972  1.5761 -2.6407  0.4328
 2604SOL    HW219272   2.871   2.498   8.862  1.8788  0.5663 -1.1152
 2605SOL     OW19273   4.646   3.935  14.928  0.3791  0.2282  0.4421
 2605SOL    HW119274   4.640   3.871  14.857  2.1868 -0.0947  0.5740
 2605SOL    HW219275   4.557   3.962  14.949  0.9206  0.3109  2.6265
 2606SOL     OW19276   4.494   3.233   4.091  0.0548 -0.3505  0.5163
 2606SOL    HW119277   4.559   3.299   4.067 -1.1123  1.7286  3.1143
 2606SOL    HW219278   4.420   3.281   4.054 -0.0020 -1.2098 -0.4975
 2607SOL     OW19279   2.001   1.440   5.544  0.2428  0.0699  0.2123
 2607SOL    HW119280   2.075   1.461   5.601 -0.4210 -1.7304  1.7172
 2607SOL    HW219281   1.996   1.345   5.554  0.6296 -0.1210 -1.5203
 2608SOL     OW19282   2.681   1.099  12.529 -0.0823  0.0662  0.7617
 2608SOL    HW119283   2.619   1.086  12.458  1.3113 -0.5852 -0.3509
 2608SOL    HW219284   2.751   1.048  12.487 -1.4533  0.2704 -1.7636
 2609SOL     OW19285   2.448   1.267   3.619  0.3694 -0.1185 -0.4610
 2609SOL    HW119286   2.530   1.316   3.624 -0.8695  2.1287 -2.4420
 2609SOL    HW219287   2.402   1.319   3.685  1.6846 -0.4671  0.7224
 2610SOL     OW19288   3.141   2.423   3.961 -0.2721  0.5111  0.0849
 2610SOL    HW119289   3.057   2.464   3.984 -0.8124 -0.7188  0.3295
 2610SOL    HW219290   3.127   2.426   3.866 -0.9734  0.2799  0.1766
 2611SOL     OW19291   0.627   1.918   3.725  0.0796  0.0329  0.5320
 2611SOL    HW119292   0.535   1.911   3.749  0.3511 -0.9397  1.3240
 2611SOL    HW219293   0.627   1.900   3.631 -0.0895  0.1017  0.5192
 2612SOL     OW19294   0.269   0.324   3.279  0.1765 -0.1710  0.1436
 2612SOL    HW119295   0.212   0.250   3.298  0.6985 -0.6346 -0.0925
 2612SOL    HW219296   0.210   0.395   3.253 -0.7751 -0.1634  2.3400
 2613SOL     OW19297   2.987   2.312  16.727 -0.2564  0.1022  0.2797
 2613SOL    HW119298   3.075   2.276  16.725  0.3268  1.5347 -0.2489
 2613SOL    HW219299   2.993   2.363  16.646  0.1047 -2.1118 -1.0771
 2614SOL     OW19300   0.905   2.716  14.940 -0.3916  0.3146  0.4430
 2614SOL    HW119301   0.898   2.740  15.032  0.7066  2.6178 -0.0643
 2614SOL    HW219302   1.000   2.720  14.933 -0.3657  1.2665  1.3363
 2615SOL     OW19303   0.441   1.826   1.164  0.2119 -0.0193 -0.3592
 2615SOL    HW119304   0.374   1.810   1.098 -1.0165  0.1497  0.8249
 2615SOL    HW219305   0.385   1.805   1.239  0.6138 -2.3627 -0.7174
 2616SOL     OW19306   4.214   1.243   7.384 -0.1718  0.0550 -0.1439
 2616SOL    HW119307   4.280   1.175   7.397  1.0525  1.5991  1.6946
 2616SOL    HW219308   4.190   1.258   7.475  4.4708  0.7166  0.9688
 2617SOL     OW19309   2.364   2.025   6.896  0.1313 -1.1207 -0.0211
 2617SOL    HW119310   2.319   2.043   6.979  1.9601 -0.0748  0.7622
 2617SOL    HW219311   2.408   2.110   6.885 -3.1010  0.8412  2.1345
 2618SOL     OW19312   2.295   3.463  13.362 -0.1983  0.7687 -0.3977
 2618SOL    HW119313   2.358   3.473  13.433  0.1909  0.5690 -0.7137
 2618SOL    HW219314   2.300   3.367  13.360 -1.3272  0.7562 -2.8071
 2619SOL     OW19315   1.585   4.214  10.196  0.0591  0.6377 -0.4361
 2619SOL    HW119316   1.563   4.298  10.238 -0.6588 -0.2151  0.8990
 2619SOL    HW219317   1.503   4.165  10.203  0.6694 -0.4620 -1.0020
 2620SOL     OW19318   0.018   1.098   8.749 -0.2767  0.4244  0.3380
 2620SOL    HW119319   0.038   1.005   8.738  1.0218  0.9312 -1.5217
 2620SOL    HW219320   4.669   1.113   8.686 -0.1652  1.7532  0.5173
 2621SOL     OW19321   0.453   4.079   4.687  0.6311  0.0342 -0.4470
 2621SOL    HW119322   0.473   4.005   4.744  3.0451  0.9485 -0.0848
 2621SOL    HW219323   0.485   4.044   4.604 -0.6720 -0.9226 -0.5288
 2622SOL     OW19324   4.375   2.032  11.328  0.1724  0.1087 -0.0720
 2622SOL    HW119325   4.389   2.036  11.423  1.7897  3.2086 -0.4545
 2622SOL    HW219326   4.341   2.120  11.315  1.0137  0.3505 -0.5936
 2623SOL     OW19327   1.445   0.758  17.347  0.7756  0.4674  0.4023
 2623SOL    HW119328   1.499   0.768  17.268  1.4045 -1.8263  0.5119
 2623SOL    HW219329   1.418   0.847  17.367  1.6067  0.9977 -0.8846
 2624SOL     OW19330   0.929   3.170   6.356  0.2365  0.1960 -0.1299
 2624SOL    HW119331   0.933   3.255   6.313  0.5531  0.4096  0.3215
 2624SOL    HW219332   1.011   3.166   6.405 -0.5708 -2.0659  1.0460
 2625SOL     OW19333   3.323   3.967   6.677 -0.0743 -0.1241  0.1380
 2625SOL    HW119334   3.264   3.894   6.658  0.0479 -0.1776 -0.0391
 2625SOL    HW219335   3.333   4.016   6.596  0.8815  0.0896  0.3881
 2626SOL     OW19336   3.810   0.964  10.670 -0.4560 -0.5160  0.2084
 2626SOL    HW119337   3.894   0.946  10.713 -0.7403  1.3248  1.5219
 2626SOL    HW219338   3.823   0.908  10.593 -0.9552 -0.2773 -0.0507
 2627SOL     OW19339   1.744   0.546  17.293 -0.1487  0.2072 -0.1361
 2627SOL    HW119340   1.782   0.461  17.271  0.8513  0.6394 -0.0558
 2627SOL    HW219341   1.660   0.541  17.246  0.5049  2.4814 -1.5455
 2628SOL     OW19342   2.420   1.758   5.454 -0.0652 -0.1890  0.2518
 2628SOL    HW119343   2.416   1.773   5.548  0.2777  0.2489  0.1936
 2628SOL    HW219344   2.510   1.759   5.422 -0.8550 -2.5927 -2.1066
 2629SOL     OW19345   2.061   1.452   3.101  0.3068 -0.0016  0.5832
 2629SOL    HW119346   2.148   1.459   3.060 -0.7324  1.3729 -1.3673
 2629SOL    HW219347   2.043   1.545   3.091 -0.7881 -0.3245 -0.4218
 2630SOL     OW19348   2.465   0.293   3.202 -0.6047  0.1293 -0.0873
 2630SOL    HW119349   2.395   0.289   3.268  0.1103 -1.9433  0.5550
 2630SOL    HW219350   2.408   0.326   3.132  0.1768 -1.2126 -1.3499
 2631SOL     OW19351   4.592   3.665   0.420  0.5747 -0.3487  0.1820
 2631SOL    HW119352   4.679   3.689   0.453  0.5120 -0.1833  0.2271
 2631SOL    HW219353   4.542   3.710   0.488  0.0195 -2.2174  1.0234
 2632SOL     OW19354   4.410   2.435  15.143  0.0789 -0.4792  0.0788
 2632SOL    HW119355   4.490   2.462  15.098  1.1347 -2.1712  0.9120
 2632SOL    HW219356   4.360   2.516  15.137  3.9144  1.7214 -2.7677
 2633SOL     OW19357   2.465   2.394   2.655  0.6939  0.6438  0.4977
 2633SOL    HW119358   2.376   2.422   2.637  1.1934  0.1048 -2.8859
 2633SOL    HW219359   2.487   2.356   2.570 -1.4360 -0.8373  0.6264
 2634SOL     OW19360   1.722   3.198   7.605  0.1567 -0.1243  0.3484
 2634SOL    HW119361   1.720   3.247   7.687  1.1558 -0.3331  0.4964
 2634SOL    HW219362   1.656   3.244   7.553  1.6519 -0.3449 -1.7357
 2635SOL     OW19363   2.792   3.126   2.339 -0.1090  0.4899 -0.3686
 2635SOL    HW119364   2.827   3.089   2.419  0.1200  2.1574  0.2871
 2635SOL    HW219365   2.802   3.219   2.358 -1.7482  0.6614 -0.3290
 2636SOL     OW19366   2.060   4.539   3.922 -0.5670  0.4479  0.8195
 2636SOL    HW119367   1.996   4.473   3.949  0.2738 -0.4090  0.6902
 2636SOL    HW219368   2.084   4.569   4.009  0.0400 -0.4969  0.9697
 2637SOL     OW19369   1.676   1.119  17.140  0.1294  0.4108  0.0958
 2637SOL    HW119370   1.743   1.099  17.075  0.6659  0.7943  0.5274
 2637SOL    HW219371   1.593   1.117  17.093 -0.2220  1.1541  0.6693
 2638SOL     OW19372   4.660   4.305   7.060 -0.1384 -0.3705 -0.1628
 2638SOL    HW119373   4.570   4.274   7.064  0.0271 -0.6382  1.6715
 2638SOL    HW219374   4.653   4.379   7.121  3.4948  0.1178 -0.3175
 2639SOL     OW19375   1.062   1.349   0.711  0.0894 -0.1371  0.0957
 2639SOL    HW119376   1.048   1.437   0.677  0.4796 -0.1462 -0.0839
 2639SOL    HW219377   1.147   1.346   0.754 -0.4688 -3.2155  0.9833
 2640SOL     OW19378   3.294   2.876   2.358 -0.3407 -0.4903  0.2066
 2640SOL    HW119379   3.261   2.851   2.272 -4.4470  2.2233  1.0145
 2640SOL    HW219380   3.215   2.871   2.412 -1.0705 -0.2826 -0.8649
 2641SOL     OW19381   3.494   3.095   3.960  0.4319 -0.1190  0.1356
 2641SOL    HW119382   3.533   3.142   4.033  0.4436 -1.5522  1.0590
 2641SOL    HW219383   3.555   3.021   3.959  0.7621  0.1448  0.7855
 2642SOL     OW19384   2.187   3.642   5.110  0.5030 -0.3718  0.0614
 2642SOL    HW119385   2.128   3.658   5.037  1.0807 -0.9276 -0.5286
 2642SOL    HW219386   2.131   3.664   5.185 -0.5839  2.4253 -1.5937
 2643SOL     OW19387   1.357   0.538   7.025  0.2164 -0.3147  0.5467
 2643SOL    HW119388   1.423   0.576   6.966 -1.2368 -0.3396 -1.1106
 2643SOL    HW219389   1.375   0.568   7.114 -1.4026  1.6904  0.1956
 2644SOL     OW19390   2.676   1.032  15.329 -0.1818 -0.1952 -0.0550
 2644SOL    HW119391   2.590   1.053  15.293  0.9855  0.2368 -2.6576
 2644SOL    HW219392   2.650   1.013  15.419  0.4891  1.6279  0.5310
 2645SOL     OW19393   0.592   3.972   0.284 -0.1665 -0.5198  0.6006
 2645SOL    HW119394   0.596   3.877   0.295  0.5588 -0.3853  1.4790
 2645SOL    HW219395   0.637   4.001   0.363  1.3766  0.8515 -0.7728
 2646SOL     OW19396   4.334   1.177   0.629  0.0504  0.4282  0.4569
 2646SOL    HW119397   4.318   1.217   0.714 -1.8212  1.1500 -0.2339
 2646SOL    HW219398   4.428   1.193   0.619 -0.6265  2.8360 -2.1675
 2647SOL     OW19399   4.706   0.521   1.037  0.4003  0.0372  0.3003
 2647SOL    HW119400   4.697   0.580   1.112  0.7985 -0.0536  0.4225
 2647SOL    HW219401   0.003   0.590   0.973 -0.9974  1.1170  1.0654
 2648SOL     OW19402   1.919   4.105   0.166 -0.3928 -0.0300  0.0847
 2648SOL    HW119403   1.992   4.045   0.183 -1.2893 -0.8692  0.9874
 2648SOL    HW219404   1.881   4.114   0.253  0.3112  0.0421  0.3876
 2649SOL     OW19405   0.260   3.763   4.803 -0.9167 -0.1117 -0.2737
 2649SOL    HW119406   0.214   3.821   4.743 -1.2794 -0.7268 -0.5919
 2649SOL    HW219407   0.238   3.675   4.773  2.0133 -1.4524  1.5667
 2650SOL     OW19408   1.605   0.574  15.298  0.3257  0.3835 -0.0473
 2650SOL    HW119409   1.581   0.518  15.371  0.3010 -0.0548 -0.3913
 2650SOL    HW219410   1.651   0.639  15.351 -0.8054  1.9243 -0.9718
 2651SOL     OW19411   1.247   2.728   9.985 -0.1512  0.0548  0.7488
 2651SOL    HW119412   1.290   2.728   9.899 -0.1373 -1.2170  0.7556
 2651SOL    HW219413   1.155   2.714   9.961  0.4747 -2.4133 -0.2715
 2652SOL     OW19414   4.144   0.746   7.346 -0.5097  0.2923  0.1692
 2652SOL    HW119415   4.197   0.800   7.288  0.2013 -0.5526  0.0184
 2652SOL    HW219416   4.201   0.698   7.407 -0.2666  1.4262  0.8348
 2653SOL     OW19417   0.771   2.408   8.816  0.1468 -0.0749  0.1130
 2653SOL    HW119418   0.737   2.443   8.898  1.0922 -0.0121  0.4774
 2653SOL    HW219419   0.726   2.454   8.745  1.3097  0.7926 -0.0792
 2654SOL     OW19420   2.804   2.054   3.465 -0.1277 -0.0049 -0.0454
 2654SOL    HW119421   2.783   2.067   3.373  0.5020 -1.6915 -0.4274
 2654SOL    HW219422   2.882   2.106   3.483  1.2624 -1.9945 -0.3378
 2655SOL     OW19423   3.516   3.381   6.477 -0.1040 -0.4049 -0.2019
 2655SOL    HW119424   3.456   3.317   6.439 -1.2292  1.4821 -1.6124
 2655SOL    HW219425   3.552   3.329   6.549  2.1461 -0.0981 -1.1214
 2656SOL     OW19426   3.370   1.092   3.736  0.1460 -0.7419 -0.1430
 2656SOL    HW119427   3.335   1.153   3.801 -2.6277 -1.5799 -0.8545
 2656SOL    HW219428   3.316   1.015   3.753  1.1564 -1.1871  1.0857
 2657SOL     OW19429   4.181   2.132   4.967  0.3165  0.8752  1.2053
 2657SOL    HW119430   4.118   2.178   4.911 -0.3953  0.7907  1.9429
 2657SOL    HW219431   4.118   2.103   5.032 -0.2221 -0.5026  0.0643
 2658SOL     OW19432   1.193   3.773  11.557 -0.1222  0.1527  0.1704
 2658SOL    HW119433   1.266   3.769  11.496 -0.1313  1.1921  0.0809
 2658SOL    HW219434   1.186   3.681  11.581 -1.8251 -0.0106 -1.0409
 2659SOL     OW19435   1.263   3.776  17.164  0.5129 -0.2900 -0.1805
 2659SOL    HW119436   1.300   3.843  17.222  1.0737 -1.4042  0.7267
 2659SOL    HW219437   1.324   3.769  17.090 -2.2776  1.7469 -2.6409
 2660SOL     OW19438   1.689   3.507  11.368  0.4890  0.3331  0.0017
 2660SOL    HW119439   1.686   3.411  11.369 -0.3665  0.3185 -2.0740
 2660SOL    HW219440   1.600   3.529  11.338  0.8787 -0.5256 -1.7824
 2661SOL     OW19441   1.570   0.928   2.580 -1.1035 -0.2234 -0.5405
 2661SOL    HW119442   1.543   1.014   2.547  0.4664  0.7751  0.7644
 2661SOL    HW219443   1.546   0.875   2.505  0.9781 -3.8414  1.3632
 2662SOL     OW19444   2.608   2.089  12.208  0.0863 -0.0401  0.4156
 2662SOL    HW119445   2.569   2.170  12.177 -0.4190 -0.6151 -0.4455
 2662SOL    HW219446   2.534   2.057  12.259  0.5264  1.3076  1.8994
 2663SOL     OW19447   4.449   2.446   5.897  0.1562  0.1931 -0.8927
 2663SOL    HW119448   4.439   2.438   5.802 -0.7350  1.2735 -0.8897
 2663SOL    HW219449   4.508   2.521   5.898 -0.7557  0.8928 -0.3984
 2664SOL     OW19450   1.247   4.140  15.681 -0.1456  0.2341  0.2725
 2664SOL    HW119451   1.164   4.093  15.680 -1.0575  1.8121  0.7931
 2664SOL    HW219452   1.311   4.070  15.670 -0.1106  0.5100 -1.3709
 2665SOL     OW19453   3.274   3.560   7.447  0.2451 -0.6247  0.3777
 2665SOL    HW119454   3.238   3.631   7.500 -0.9666 -0.6097 -0.4660
 2665SOL    HW219455   3.367   3.580   7.452  0.2504  0.0056 -2.5615
 2666SOL     OW19456   0.760   0.300   1.468 -0.4488 -0.1483 -0.1867
 2666SOL    HW119457   0.765   0.230   1.402 -1.1769 -1.1863  0.8495
 2666SOL    HW219458   0.691   0.354   1.431  0.2247 -1.6415 -3.6294
 2667SOL     OW19459   3.158   1.506  17.548  0.0996 -0.3240  0.0375
 2667SOL    HW119460   3.194   1.589  17.578 -0.7246 -0.7100  2.1189
 2667SOL    HW219461   3.212   1.484  17.472  1.0638  1.6084  0.1577
 2668SOL     OW19462   3.513   0.969   7.878  0.2686 -0.8590  0.3058
 2668SOL    HW119463   3.549   1.012   7.956 -2.4181  2.3029 -0.1747
 2668SOL    HW219464   3.591   0.985   7.824 -0.1052  1.8351  0.5463
 2669SOL     OW19465   4.248   0.583   9.133  0.3275  0.1387 -0.1801
 2669SOL    HW119466   4.253   0.568   9.038  0.9261  3.9407 -0.7449
 2669SOL    HW219467   4.282   0.672   9.129  1.5150 -0.4099 -2.3180
 2670SOL     OW19468   2.342   3.750   2.932  0.0363  0.2456 -0.1569
 2670SOL    HW119469   2.338   3.779   3.024 -1.8644  0.9263 -0.4546
 2670SOL    HW219470   2.345   3.654   2.939  2.2790  0.4426  1.7314
 2671SOL     OW19471   4.710   3.732   9.977 -0.6188  0.4558 -0.3847
 2671SOL    HW119472   0.024   3.693   9.897  0.0931  0.0192  0.1367
 2671SOL    HW219473   4.616   3.713   9.976 -0.5864  0.2057  0.8953
 2672SOL     OW19474   3.666   3.952   1.025 -0.2477 -0.1821  0.6826
 2672SOL    HW119475   3.708   3.992   1.101  1.7152  0.1080 -0.5586
 2672SOL    HW219476   3.641   3.874   1.074  0.6397 -0.5317  0.5725
 2673SOL     OW19477   1.860   2.606   0.891 -0.1055  0.1832  0.5455
 2673SOL    HW119478   1.935   2.659   0.864  1.0367 -0.9122  1.6090
 2673SOL    HW219479   1.879   2.519   0.856  0.0297  1.6540 -3.0403
 2674SOL     OW19480   0.731   1.900   5.207 -0.4820  0.7282 -0.1547
 2674SOL    HW119481   0.805   1.842   5.190 -2.0200 -0.5393 -2.4864
 2674SOL    HW219482   0.762   1.951   5.282 -1.6872  0.1674  0.7223
 2675SOL     OW19483   4.579   1.534  11.639 -0.5948  0.0561  0.0333
 2675SOL    HW119484   4.488   1.547  11.667 -0.9243  0.8977 -1.4805
 2675SOL    HW219485   4.604   1.626  11.633  1.2193 -0.3917  0.9392
 2676SOL     OW19486   0.484   0.293  14.690 -0.5206 -0.0275 -0.1019
 2676SOL    HW119487   0.557   0.281  14.751 -1.2571 -0.1909  0.7445
 2676SOL    HW219488   0.538   0.313  14.613 -0.4685  1.7665  0.4189
 2677SOL     OW19489   1.746   0.735   3.607  0.9849 -0.1287  0.4566
 2677SOL    HW119490   1.827   0.692   3.577  1.5483  0.2012  1.4804
 2677SOL    HW219491   1.750   0.815   3.556  3.6437 -0.8014 -0.3990
 2678SOL     OW19492   4.539   0.128   5.764  0.3921 -0.3260  0.3471
 2678SOL    HW119493   4.515   0.220   5.750  0.5017 -0.1718  1.2187
 2678SOL    HW219494   4.456   0.082   5.748  2.0302 -2.4617 -2.1154
 2679SOL     OW19495   1.290   4.445   0.845 -0.0334 -0.1327 -0.3459
 2679SOL    HW119496   1.324   4.425   0.758  0.9326 -0.9062  0.2153
 2679SOL    HW219497   1.291   4.540   0.836 -0.0867 -0.1232 -0.2580
 2680SOL     OW19498   0.274   0.653   1.055  0.3002 -0.0808  0.4578
 2680SOL    HW119499   0.334   0.631   0.984 -0.4703 -1.0857  0.1178
 2680SOL    HW219500   0.283   0.748   1.050 -0.6434  0.0148  0.6591
 2681SOL     OW19501   4.267   2.679   7.719  0.2821 -0.2238  0.2328
 2681SOL    HW119502   4.361   2.665   7.723 -0.0562 -2.1424  1.2663
 2681SOL    HW219503   4.248   2.711   7.808 -3.1239 -2.9887  0.5031
 2682SOL     OW19504   4.307   3.982  15.921 -0.2850  0.2576  0.0559
 2682SOL    HW119505   4.324   3.904  15.974 -0.4168  0.2552  0.0923
 2682SOL    HW219506   4.297   4.048  15.989  0.8087 -0.5959  1.0563
 2683SOL     OW19507   1.212   1.459   8.948  0.5787  0.0825  0.4493
 2683SOL    HW119508   1.170   1.385   8.991 -1.2176 -0.3754 -2.0691
 2683SOL    HW219509   1.260   1.415   8.878  1.0009  0.5573  0.4380
 2684SOL     OW19510   2.268   2.282  12.544 -0.7335  0.0760 -0.2860
 2684SOL    HW119511   2.179   2.308  12.566 -0.2740  3.1156 -1.9503
 2684SOL    HW219512   2.269   2.193  12.579 -1.1349  0.0753 -0.2740
 2685SOL     OW19513   1.719   1.883   2.541 -0.1368 -0.2242  0.0084
 2685SOL    HW119514   1.813   1.871   2.556 -0.0442 -0.0899 -0.4692
 2685SOL    HW219515   1.702   1.836   2.459  0.2031 -1.5814  0.7206
 2686SOL     OW19516   2.126   1.008   7.147  0.2412  0.2157  0.6230
 2686SOL    HW119517   2.220   0.993   7.153  0.6282  2.5511  0.6222
 2686SOL    HW219518   2.120   1.037   7.056 -0.5837 -0.7879  0.3606
 2687SOL     OW19519   3.227   2.389   7.413  0.0361  0.1160 -0.0281
 2687SOL    HW119520   3.176   2.366   7.490  1.6646  1.5549  1.4961
 2687SOL    HW219521   3.210   2.311   7.361 -3.1850  0.5152  0.4585
 2688SOL     OW19522   0.201   0.475   8.651  0.0386 -0.4289 -0.2513
 2688SOL    HW119523   0.284   0.431   8.670  1.6096  2.5629 -0.2420
 2688SOL    HW219524   0.153   0.398   8.620 -0.2470 -0.4053  0.1227
 2689SOL     OW19525   1.309   3.155   5.740 -0.0644 -0.2369 -0.5340
 2689SOL    HW119526   1.267   3.234   5.775  1.4298  1.0738 -1.6643
 2689SOL    HW219527   1.350   3.124   5.821 -0.8736 -0.4967 -0.2243
 2690SOL     OW19528   3.185   3.137   5.917 -0.4245 -0.9082  0.1380
 2690SOL    HW119529   3.142   3.219   5.940  1.0293 -0.3164  0.7224
 2690SOL    HW219530   3.147   3.118   5.831 -0.1429  1.4268 -0.5123
 2691SOL     OW19531   0.709   3.714   0.335 -0.5519 -0.0546 -0.2699
 2691SOL    HW119532   0.797   3.751   0.337  0.1960 -1.8331 -0.5669
 2691SOL    HW219533   0.730   3.621   0.347  2.7062  0.7602  0.2514
 2692SOL     OW19534   0.739   2.362   9.606  0.6619 -0.1183  0.3416
 2692SOL    HW119535   0.804   2.299   9.638  1.0705 -0.2064 -0.6481
 2692SOL    HW219536   0.682   2.365   9.683  0.7074 -0.6205  0.3972
 2693SOL     OW19537   0.109   4.425   4.756 -0.4083  0.0544 -0.7792
 2693SOL    HW119538   0.119   4.394   4.846 -2.7825 -2.2922 -1.3319
 2693SOL    HW219539   0.017   4.405   4.741 -0.7828  0.6506  0.7304
 2694SOL     OW19540   0.642   4.173   6.737 -0.3694 -0.2757  0.0625
 2694SOL    HW119541   0.714   4.177   6.800  0.2442 -2.1674 -0.5277
 2694SOL    HW219542   0.669   4.102   6.680  2.4922 -0.1809  1.2912
 2695SOL     OW19543   4.269   3.761   8.099  0.0303  0.0008 -0.7583
 2695SOL    HW119544   4.233   3.677   8.126 -1.3645  0.8969  0.1588
 2695SOL    HW219545   4.200   3.815   8.137  0.3150  1.0726 -1.7664
 2696SOL     OW19546   1.909   0.653   9.760  0.3696  1.0280  0.1247
 2696SOL    HW119547   1.867   0.702   9.689  1.2567 -0.8346 -1.6713
 2696SOL    HW219548   1.848   0.579   9.764  1.0480  0.4564 -0.1478
 2697SOL     OW19549   1.258   1.320  14.688 -0.2164 -0.0231  0.6865
 2697SOL    HW119550   1.300   1.241  14.654  1.2505  0.4539  1.3972
 2697SOL    HW219551   1.287   1.321  14.779 -0.2073 -1.3711  0.6952
 2698SOL     OW19552   3.532   3.696   8.073  0.2215  0.2337  0.1575
 2698SOL    HW119553   3.498   3.764   8.015  0.5748 -0.8570 -1.3430
 2698SOL    HW219554   3.588   3.652   8.009 -0.4813  1.1999 -1.1025
 2699SOL     OW19555   0.829   1.237   9.222  0.2030 -0.5761  0.2755
 2699SOL    HW119556   0.815   1.142   9.225 -0.2444 -0.4317  2.3898
 2699SOL    HW219557   0.826   1.260   9.314  0.7834 -0.6351  0.3084
 2700SOL     OW19558   1.125   3.235   7.108 -0.4154  0.1659 -0.0805
 2700SOL    HW119559   1.040   3.266   7.076 -1.6567 -1.7278  1.4054
 2700SOL    HW219560   1.176   3.209   7.032  1.3992  1.4386  0.6911
 2701SOL     OW19561   2.167   0.163   1.101 -0.0016 -0.1644  0.0632
 2701SOL    HW119562   2.113   0.200   1.170 -0.1603  0.0070 -0.1529
 2701SOL    HW219563   2.218   0.092   1.139  0.9917  0.3131 -0.3742
 2702SOL     OW19564   1.866   1.498  15.223  0.4726  0.1012 -0.9081
 2702SOL    HW119565   1.839   1.410  15.251  0.1166  0.7646  0.8215
 2702SOL    HW219566   1.792   1.525  15.168 -0.3330  2.4007  1.2999
 2703SOL     OW19567   3.469   3.665   5.870 -0.0477 -0.3310  0.1828
 2703SOL    HW119568   3.529   3.720   5.820  2.5321 -2.5941  0.7966
 2703SOL    HW219569   3.446   3.602   5.801  1.3541  0.4445 -0.9931
 2704SOL     OW19570   0.150   2.615   2.838  0.3918 -0.2221 -0.1746
 2704SOL    HW119571   0.161   2.633   2.931  1.4628 -2.4565  0.1419
 2704SOL    HW219572   0.086   2.681   2.812 -0.6397 -1.6874 -1.4192
 2705SOL     OW19573   4.133   0.035   5.973  0.3863  0.2283  0.0308
 2705SOL    HW119574   4.173   0.083   6.045  1.4232  0.5530 -0.7578
 2705SOL    HW219575   4.059   0.005   6.025 -1.0926  0.0311 -2.2156
 2706SOL     OW19576   4.646   1.139  12.844  0.0215  0.0692  0.0379
 2706SOL    HW119577   4.711   1.209  12.836  1.9670 -1.6484  0.8081
 2706SOL    HW219578   4.569   1.175  12.801  1.0532  1.4031 -0.6993
 2707SOL     OW19579   1.600   0.944   1.886  0.5957  0.0288 -0.2510
 2707SOL    HW119580   1.557   0.967   1.969  1.0949  0.8660 -0.2312
 2707SOL    HW219581   1.662   0.877   1.916 -1.3575 -2.2604 -1.2977
 2708SOL     OW19582   1.431   1.166   8.681  0.0493 -0.2110 -0.0747
 2708SOL    HW119583   1.506   1.152   8.738  0.1591  0.7596  0.0286
 2708SOL    HW219584   1.359   1.139   8.736 -1.7378  2.2859 -1.1629
 2709SOL     OW19585   2.493   3.182   6.673 -0.0031 -0.4745  0.3848
 2709SOL    HW119586   2.435   3.204   6.747  0.2852 -0.8799  0.7328
 2709SOL    HW219587   2.487   3.087   6.683  0.4444 -0.5490 -0.0450
 2710SOL     OW19588   3.614   0.900  16.387 -0.5644 -0.2775 -0.2736
 2710SOL    HW119589   3.529   0.935  16.415 -0.2038 -0.7198  1.3441
 2710SOL    HW219590   3.653   0.893  16.474  0.1956  2.1911 -0.4048
 2711SOL     OW19591   2.069   0.818  17.418  0.3751 -0.6150  0.3600
 2711SOL    HW119592   1.980   0.821  17.384  1.0579 -1.2164 -1.4819
 2711SOL    HW219593   2.106   0.880  17.355 -0.0459 -1.0560 -0.3224
 2712SOL     OW19594   2.587   2.621   5.131 -0.4066 -0.0557  0.7378
 2712SOL    HW119595   2.585   2.578   5.046 -1.1698  0.1312  0.6633
 2712SOL    HW219596   2.593   2.549   5.195 -0.3697 -1.8381 -1.2975
 2713SOL     OW19597   2.290   2.030   9.030 -0.0749 -0.5212  0.1121
 2713SOL    HW119598   2.327   1.952   9.070 -0.1665 -0.4728  0.2928
 2713SOL    HW219599   2.215   2.046   9.088 -0.1087 -0.8489  0.1603
 2714SOL     OW19600   0.451   2.813  14.507  0.1079 -0.0066  0.0155
 2714SOL    HW119601   0.470   2.852  14.422 -0.0414 -1.8329 -0.8677
 2714SOL    HW219602   0.501   2.731  14.504  0.5446  0.3423 -2.4438
 2715SOL     OW19603   0.230   3.654  10.107 -0.2639 -0.3390  0.3185
 2715SOL    HW119604   0.170   3.657  10.033  0.8297 -0.5494 -0.5826
 2715SOL    HW219605   0.283   3.731  10.087 -0.9857  0.0831  0.0311
 2716SOL     OW19606   2.048   2.931   1.829  0.0896  0.1210  0.0802
 2716SOL    HW119607   1.954   2.943   1.842  0.5390  0.4276  3.1502
 2716SOL    HW219608   2.080   2.887   1.908  0.5446  0.4660  0.0835
 2717SOL     OW19609   1.116   1.294  11.293  0.1429 -0.2945 -0.9477
 2717SOL    HW119610   1.065   1.310  11.372 -0.0994  0.7148 -1.3020
 2717SOL    HW219611   1.093   1.372  11.242  1.8226  0.5989 -0.3208
 2718SOL     OW19612   1.960   3.269   6.145 -0.6253 -0.5223  0.9759
 2718SOL    HW119613   1.900   3.238   6.077  2.7878 -0.1453 -2.1976
 2718SOL    HW219614   1.980   3.189   6.193  0.2497 -1.0099 -0.2128
 2719SOL     OW19615   4.341   0.121   7.737 -0.2615 -0.0252 -0.0297
 2719SOL    HW119616   4.246   0.128   7.731 -0.2440  0.6009  0.3771
 2719SOL    HW219617   4.370   0.205   7.772 -1.4386  0.2014  0.3964
 2720SOL     OW19618   0.253   0.524   5.323 -0.0842  0.6346  0.5671
 2720SOL    HW119619   0.172   0.516   5.373 -0.8140 -0.9017 -0.8907
 2720SOL    HW219620   0.306   0.586   5.374 -3.0994  3.6727  0.0324
 2721SOL     OW19621   0.543   0.254   6.151  0.2827 -0.0914  0.1000
 2721SOL    HW119622   0.502   0.213   6.075  0.1303  1.1484 -0.4820
 2721SOL    HW219623   0.527   0.347   6.137 -2.2746 -0.6946 -1.0616
 2722SOL     OW19624   0.783   2.499  12.463  0.0155 -0.0634 -0.3246
 2722SOL    HW119625   0.839   2.575  12.446 -0.2357 -0.0489 -1.0861
 2722SOL    HW219626   0.780   2.458  12.377 -0.8420  1.9801 -1.2740
 2723SOL     OW19627   4.090   0.180   7.781  0.0662 -0.1942 -0.2876
 2723SOL    HW119628   4.033   0.250   7.749 -0.7500 -0.9962 -0.5803
 2723SOL    HW219629   4.092   0.209   7.872 -2.8582 -0.0188 -0.2911
 2724SOL     OW19630   2.872   4.239   4.416  0.9593  0.0501 -0.1009
 2724SOL    HW119631   2.941   4.267   4.355 -1.3920  1.3401 -2.1930
 2724SOL    HW219632   2.921   4.177   4.469  1.5826  1.0592  0.4955
 2725SOL     OW19633   2.381   2.664  13.871 -0.0428  0.5760 -0.1282
 2725SOL    HW119634   2.418   2.604  13.806 -0.0850  0.9479 -0.4913
 2725SOL    HW219635   2.370   2.611  13.950 -1.8771  1.5042  0.2364
 2726SOL     OW19636   0.439   2.025   4.049 -0.6735 -0.5027  0.3649
 2726SOL    HW119637   0.343   2.022   4.042 -0.7773 -0.4214  1.8816
 2726SOL    HW219638   0.463   1.936   4.025  0.7648 -0.1018  0.3116
 2727SOL     OW19639   0.664   4.216   4.071  0.1676 -0.1409 -0.9240
 2727SOL    HW119640   0.732   4.156   4.040  1.0789  1.4578 -2.0037
 2727SOL    HW219641   0.603   4.153   4.110 -0.1049  2.1338  2.3581
 2728SOL     OW19642   1.430   2.593  14.903 -0.1565  0.4737 -0.4973
 2728SOL    HW119643   1.435   2.637  14.817  1.0278 -1.1583 -1.2602
 2728SOL    HW219644   1.524   2.582  14.916 -0.3130 -1.2322 -0.8011
 2729SOL     OW19645   1.121   4.263   3.741 -0.2181  0.1576 -0.0855
 2729SOL    HW119646   1.097   4.293   3.828 -1.1638 -1.5428  0.2449
 2729SOL    HW219647   1.103   4.339   3.686 -0.0121 -0.5658 -1.1544
 2730SOL     OW19648   1.295   2.240   6.732 -0.3982  0.3988  0.5181
 2730SOL    HW119649   1.382   2.201   6.726  0.3218  1.7192  2.3312
 2730SOL    HW219650   1.296   2.258   6.826 -1.4543 -1.2772  0.8458
 2731SOL     OW19651   0.777   2.802   7.212 -0.1492  0.1815 -0.3314
 2731SOL    HW119652   0.759   2.896   7.209  0.5632  0.3188 -0.1715
 2731SOL    HW219653   0.821   2.779   7.130  0.5373 -0.3922  0.2007
 2732SOL     OW19654   2.165   3.046  13.767 -0.5173  0.2193 -0.3840
 2732SOL    HW119655   2.199   3.098  13.840 -1.6884  0.1220  0.2360
 2732SOL    HW219656   2.077   3.080  13.748  0.0932  3.2433  2.1572
 2733SOL     OW19657   4.528   4.708   7.553 -0.3087 -0.2466  0.1907
 2733SOL    HW119658   4.469   4.718   7.479 -1.2203 -2.0429  0.6747
 2733SOL    HW219659   4.487   0.039   7.623 -1.4629 -0.2593 -0.4800
 2734SOL     OW19660   0.535   2.202   9.468  0.0589 -0.9831 -0.0013
 2734SOL    HW119661   0.567   2.118   9.437  2.9978  0.7320 -1.6513
 2734SOL    HW219662   0.614   2.237   9.509 -1.4445 -0.6912  2.6696
 2735SOL     OW19663   2.624   4.662  12.357 -0.6391  0.5447  0.7343
 2735SOL    HW119664   2.700   4.718  12.375 -1.1540  1.1603  0.9905
 2735SOL    HW219665   2.636   4.597  12.427 -1.2578 -1.8056 -1.3352
 2736SOL     OW19666   4.485   3.531   0.003  0.1132  0.1329 -0.2337
 2736SOL    HW119667   4.525   3.487  17.613 -0.5625 -1.4088  0.2953
 2736SOL    HW219668   4.426   3.599  17.656  1.9193  1.4407 -0.7184
 2737SOL     OW19669   4.608   0.071   9.646  0.2601  0.0187  0.0866
 2737SOL    HW119670   4.664   4.717   9.668  0.7862 -0.0080 -1.3399
 2737SOL    HW219671   4.574   0.051   9.558 -0.9156  0.0960  0.5234
 2738SOL     OW19672   0.885   3.543   8.070  0.0951  0.3050  0.2448
 2738SOL    HW119673   0.805   3.505   8.033  0.9811 -0.1628 -1.1892
 2738SOL    HW219674   0.885   3.505   8.158 -2.2236 -1.2474 -0.4159
 2739SOL     OW19675   2.515   3.872   3.195 -0.3148  0.3309 -0.3434
 2739SOL    HW119676   2.560   3.956   3.207  2.5800 -1.1420 -0.8214
 2739SOL    HW219677   2.543   3.833   3.277 -2.3504 -1.9527 -0.7553
 2740SOL     OW19678   2.225   2.063  15.036 -0.2544  0.3395  0.2713
 2740SOL    HW119679   2.271   2.089  14.957  0.5209 -0.9879  0.2950
 2740SOL    HW219680   2.248   1.971  15.044 -0.1964  0.5560  2.7936
 2741SOL     OW19681   1.619   3.222   5.417  0.3329  0.2961 -0.5164
 2741SOL    HW119682   1.564   3.153   5.454 -0.0872  1.6998  1.4823
 2741SOL    HW219683   1.640   3.176   5.335  1.5302  0.6756 -0.4315
 2742SOL     OW19684   2.115   2.554  11.303 -0.0307 -0.5078 -0.2666
 2742SOL    HW119685   2.093   2.528  11.393 -1.1692 -0.7568 -0.6201
 2742SOL    HW219686   2.123   2.649  11.315 -3.0037 -0.1054 -1.5193
 2743SOL     OW19687   3.989   0.684   2.972 -0.4237 -0.0054 -0.1610
 2743SOL    HW119688   3.989   0.671   2.877  0.4656 -2.2083  0.1486
 2743SOL    HW219689   3.899   0.663   2.998 -0.8974  3.1583  0.7895
 2744SOL     OW19690   3.146   0.075   8.043 -0.2840  0.0426  0.2765
 2744SOL    HW119691   3.101   0.018   8.105  0.0878  1.5221  1.9251
 2744SOL    HW219692   3.095   0.151   8.073 -0.2162 -0.4172  1.5739
 2745SOL     OW19693   3.514   0.485   6.602 -0.7173 -0.0485  0.1398
 2745SOL    HW119694   3.572   0.473   6.676  0.0318  0.2439 -0.4029
 2745SOL    HW219695   3.554   0.426   6.537  0.9529  1.4912 -0.2302
 2746SOL     OW19696   4.067   3.641  12.481  0.8141 -0.2715 -0.0709
 2746SOL    HW119697   4.026   3.607  12.561  0.3645 -1.2716 -0.7284
 2746SOL    HW219698   3.992   3.665  12.427 -0.6575 -0.6607  1.7658
 2747SOL     OW19699   3.021   1.795   3.284 -0.3123 -0.2363  0.1660
 2747SOL    HW119700   2.941   1.815   3.235  0.3085  2.6428  0.3582
 2747SOL    HW219701   2.984   1.774   3.370 -0.7105  2.2462  0.5812
 2748SOL     OW19702   4.107   1.851   6.697 -0.3631  0.3828  0.0250
 2748SOL    HW119703   4.146   1.828   6.782  1.8150  1.7933 -0.5984
 2748SOL    HW219704   4.018   1.815   6.701 -0.4613  0.5258 -1.0239
 2749SOL     OW19705   2.132   4.180   2.523  0.0207  0.3017  0.1634
 2749SOL    HW119706   2.182   4.248   2.567  1.1463 -1.3823  1.4869
 2749SOL    HW219707   2.129   4.212   2.433  0.8854 -0.9808 -0.3212
 2750SOL     OW19708   1.254   1.692   6.591 -0.4201  0.4205  0.0318
 2750SOL    HW119709   1.324   1.739   6.637  0.0944  0.6533 -0.9640
 2750SOL    HW219710   1.283   1.602   6.604  0.3920  0.7970  0.8328
 2751SOL     OW19711   2.403   0.036   1.495  0.2014  0.4657  0.1697
 2751SOL    HW119712   2.346   4.681   1.514  0.8798 -0.0310  0.2419
 2751SOL    HW219713   2.386   0.061   1.404 -0.8962  0.5217  0.3846
 2752SOL     OW19714   0.640   2.318  15.459  0.3028  0.0289 -0.1674
 2752SOL    HW119715   0.728   2.333  15.493  0.1181 -1.8407  1.1659
 2752SOL    HW219716   0.612   2.243  15.512 -0.0873 -0.5621 -1.2241
 2753SOL     OW19717   2.183   0.643   2.983 -0.1513 -0.4143  0.2365
 2753SOL    HW119718   2.176   0.692   2.901  0.4187  0.0776  0.4851
 2753SOL    HW219719   2.239   0.706   3.030  0.8215 -2.1713  1.4278
 2754SOL     OW19720   0.913   0.422   8.141  0.0820  0.3895  0.3042
 2754SOL    HW119721   0.892   0.504   8.096  1.7260  0.3468 -0.5450
 2754SOL    HW219722   0.892   0.443   8.232  0.3711 -1.5590  0.8202
 2755SOL     OW19723   3.983   2.678   4.288 -0.2618 -0.3215  0.5666
 2755SOL    HW119724   3.997   2.597   4.238 -0.9375 -0.7711  1.0993
 2755SOL    HW219725   3.888   2.673   4.290 -0.4734  4.1073  1.5888
 2756SOL     OW19726   4.459   1.057   8.022  0.3765 -0.6047 -0.4270
 2756SOL    HW119727   4.437   1.125   8.085 -0.8497 -0.5769 -0.8721
 2756SOL    HW219728   4.486   0.980   8.072  0.7034  0.1297  0.5105
 2757SOL     OW19729   2.434   2.848   4.352 -0.4534  0.0744 -0.0831
 2757SOL    HW119730   2.435   2.795   4.272  0.2694 -0.5253  0.3232
 2757SOL    HW219731   2.497   2.914   4.325 -0.7543  0.0192 -0.9236
 2758SOL     OW19732   0.710   1.777  16.645 -0.1434  0.1567 -0.0511
 2758SOL    HW119733   0.734   1.702  16.590  0.2600 -1.9454  2.9786
 2758SOL    HW219734   0.748   1.751  16.729 -0.3646 -0.4287 -0.1293
 2759SOL     OW19735   2.647   3.048  14.173 -0.0884 -0.3078 -0.0615
 2759SOL    HW119736   2.597   3.033  14.253 -0.9294 -2.2720 -0.9686
 2759SOL    HW219737   2.596   3.003  14.106 -0.3017 -1.8075  1.1216
 2760SOL     OW19738   4.384   1.966   4.905  0.3539 -0.1368 -0.1061
 2760SOL    HW119739   4.319   2.030   4.933 -1.8564 -1.9393 -1.1288
 2760SOL    HW219740   4.420   2.026   4.839  0.4242  0.0290  0.0848
 2761SOL     OW19741   2.909   1.810   8.264 -0.2357  0.1722  0.5348
 2761SOL    HW119742   2.992   1.766   8.248 -0.5929  0.4851 -2.1487
 2761SOL    HW219743   2.920   1.793   8.357  0.9255 -0.0807  0.3546
 2762SOL     OW19744   1.201   0.023   1.780 -0.3163 -0.6537 -0.1727
 2762SOL    HW119745   1.282   4.714   1.823 -0.4818 -2.0527 -0.8291
 2762SOL    HW219746   1.209   4.698   1.696 -0.8079  1.1564 -1.2098
 2763SOL     OW19747   4.398   3.874   4.179  0.1904 -0.4918 -0.1378
 2763SOL    HW119748   4.416   3.889   4.086 -3.9955  0.5356 -0.7912
 2763SOL    HW219749   4.464   3.934   4.214  0.5226 -0.0329 -1.5463
 2764SOL     OW19750   0.961   1.195   1.155 -0.5612 -0.2040 -0.1090
 2764SOL    HW119751   0.931   1.226   1.069  1.0126 -1.0331 -0.9461
 2764SOL    HW219752   0.921   1.263   1.209 -0.4890 -1.5057  1.5822
 2765SOL     OW19753   0.676   0.976   7.960 -0.0969  0.7853 -0.5271
 2765SOL    HW119754   0.706   0.928   7.883 -1.5258 -0.0456 -0.5838
 2765SOL    HW219755   0.732   0.944   8.031 -0.3717  2.3752  0.4082
 2766SOL     OW19756   0.287   0.969   7.896 -0.1184  0.7587 -0.3639
 2766SOL    HW119757   0.337   0.986   7.816  1.8601  0.6442  0.8493
 2766SOL    HW219758   0.343   0.917   7.954 -2.2062 -1.1728 -0.0961
 2767SOL     OW19759   1.360   4.103   3.980  0.7098 -0.0652 -0.3218
 2767SOL    HW119760   1.420   4.154   4.035  0.4813 -1.7642  1.4999
 2767SOL    HW219761   1.379   4.014   4.010 -1.6972 -0.6222 -0.4217
 2768SOL     OW19762   4.175   4.258  11.002  0.1675  0.5407 -0.0592
 2768SOL    HW119763   4.258   4.302  11.021  0.0124  0.4058  0.9514
 2768SOL    HW219764   4.118   4.314  10.949 -0.6719  0.5701  0.8763
 2769SOL     OW19765   1.499   4.213   8.239 -0.5797  0.5084 -0.3781
 2769SOL    HW119766   1.535   4.234   8.325  2.7215 -1.2744 -1.3152
 2769SOL    HW219767   1.407   4.237   8.253  0.2008  1.4103  3.1476
 2770SOL     OW19768   2.498   1.855   8.680  0.5442 -0.1721  0.0053
 2770SOL    HW119769   2.564   1.853   8.750  0.0282  0.2830  0.5095
 2770SOL    HW219770   2.529   1.788   8.620 -1.9871 -2.9217  1.7416
 2771SOL     OW19771   2.278   2.641   6.766  0.1652 -0.0333 -0.1139
 2771SOL    HW119772   2.328   2.559   6.768  1.2304  0.6376  0.7182
 2771SOL    HW219773   2.279   2.657   6.672  0.0049 -1.4497 -0.3654
 2772SOL     OW19774   2.347   0.367   5.800 -0.2402 -0.5269  0.1321
 2772SOL    HW119775   2.255   0.392   5.806 -0.1655  0.5596 -3.2301
 2772SOL    HW219776   2.357   0.368   5.704 -1.0714 -0.8437  0.0394
 2773SOL     OW19777   4.289   3.889  15.673  1.1392 -0.5431 -0.1619
 2773SOL    HW119778   4.290   3.929  15.760  1.0701 -1.5605  0.3087
 2773SOL    HW219779   4.223   3.821  15.688  1.9297 -1.0367  1.1194
 2774SOL     OW19780   1.653   2.285  14.100 -0.1473 -0.4024 -0.2841
 2774SOL    HW119781   1.675   2.214  14.040 -0.8799 -0.7052 -0.1892
 2774SOL    HW219782   1.558   2.285  14.101 -0.1377 -1.1523  0.5594
 2775SOL     OW19783   1.532   1.768   8.873 -0.0956 -0.4534  0.0460
 2775SOL    HW119784   1.610   1.730   8.914  0.7019 -0.6495 -1.6357
 2775SOL    HW219785   1.550   1.751   8.780 -0.0669 -1.1503  0.1772
 2776SOL     OW19786   1.481   3.854  11.425  0.5257 -0.0450 -0.0155
 2776SOL    HW119787   1.555   3.915  11.420  0.8246 -0.5550 -2.1731
 2776SOL    HW219788   1.449   3.848  11.335 -0.2498 -0.3312  0.2826
 2777SOL     OW19789   3.474   4.635   6.746 -0.3452 -0.3955  0.5930
 2777SOL    HW119790   3.397   4.622   6.802  1.8328  0.5369  3.7652
 2777SOL    HW219791   3.505   0.001   6.774 -0.6285  0.5884 -2.1428
 2778SOL     OW19792   2.615   0.528   3.394  0.0073  0.1320 -0.2135
 2778SOL    HW119793   2.672   0.496   3.464 -0.0226  0.0562 -0.2239
 2778SOL    HW219794   2.653   0.490   3.315 -2.2901 -0.3695 -1.0832
 2779SOL     OW19795   1.741   2.285   9.390 -0.1060  0.0967 -0.2160
 2779SOL    HW119796   1.701   2.199   9.374  0.4536 -0.0691 -0.7308
 2779SOL    HW219797   1.770   2.287   9.299  1.8516 -0.9261  0.3752
 2780SOL     OW19798   2.398   0.379  17.223  0.5538 -0.1478 -0.5597
 2780SOL    HW119799   2.459   0.324  17.174 -2.7192 -2.8841 -1.5466
 2780SOL    HW219800   2.388   0.453  17.163 -1.4302 -0.7889 -1.0050
 2781SOL     OW19801   2.876   1.878   7.362  0.0953 -0.2032 -0.3305
 2781SOL    HW119802   2.945   1.929   7.320  0.5876 -0.5694  0.0302
 2781SOL    HW219803   2.930   1.802   7.380 -1.7466 -0.8317  2.5584
 2782SOL     OW19804   0.765   3.709   8.462  0.0227 -0.2568 -0.2525
 2782SOL    HW119805   0.672   3.717   8.439 -0.3764 -1.1251  0.9832
 2782SOL    HW219806   0.765   3.744   8.551 -1.2251 -1.7468  0.3589
 2783SOL     OW19807   4.521   3.123   5.158  0.8639 -0.1500 -0.1611
 2783SOL    HW119808   4.542   3.214   5.178  1.6823 -0.6085  1.0474
 2783SOL    HW219809   4.479   3.086   5.236  0.7853  0.6229  0.1649
 2784SOL     OW19810   3.176   2.958  17.193  0.1791  0.7560  0.2584
 2784SOL    HW119811   3.208   3.005  17.116  0.1491  0.1301 -0.1369
 2784SOL    HW219812   3.261   2.949  17.238 -0.0817 -1.3511  0.3543
 2785SOL     OW19813   1.251   0.722  15.240  0.6894  0.6357 -0.0564
 2785SOL    HW119814   1.246   0.807  15.284 -0.7600  0.6649 -0.2640
 2785SOL    HW219815   1.345   0.729  15.223  1.3617 -0.7396  3.0919
 2786SOL     OW19816   3.915   0.371   7.686 -0.1405 -0.1770 -0.0362
 2786SOL    HW119817   3.970   0.397   7.612 -0.0686  2.1011  0.8027
 2786SOL    HW219818   3.885   0.456   7.719  2.5906  1.0755 -0.7530
 2787SOL     OW19819   4.173   1.377   4.474  0.3465 -0.0142 -0.1037
 2787SOL    HW119820   4.106   1.385   4.406  0.1239 -0.4184  0.0644
 2787SOL    HW219821   4.245   1.402   4.417  1.6577  1.5747  2.2838
 2788SOL     OW19822   3.069   1.746   7.556 -0.1400  0.5600 -0.0457
 2788SOL    HW119823   3.138   1.802   7.592  3.1591 -0.8599 -4.2303
 2788SOL    HW219824   2.990   1.785   7.593 -0.3605  1.9013 -1.9404
 2789SOL     OW19825   3.968   3.418   9.167  0.2027 -0.3582  0.0661
 2789SOL    HW119826   4.010   3.478   9.228  0.7070 -1.1225  0.4675
 2789SOL    HW219827   3.881   3.417   9.209 -0.2033  0.2449 -0.7506
 2790SOL     OW19828   2.770   1.034   0.859 -0.1999 -0.2325  0.0714
 2790SOL    HW119829   2.830   0.979   0.909 -0.2392  0.2668  0.6732
 2790SOL    HW219830   2.701   1.035   0.925 -0.6846  2.7876 -0.4966
 2791SOL     OW19831   3.747   2.780   7.111  0.1673  0.3888  0.5317
 2791SOL    HW119832   3.703   2.784   7.196 -1.3615  1.0078 -0.2938
 2791SOL    HW219833   3.767   2.689   7.089 -0.9925 -0.1694  1.8056
 2792SOL     OW19834   0.209   4.635   7.163  0.1902 -0.9285 -0.0950
 2792SOL    HW119835   0.217   4.551   7.117 -1.0150 -0.0541 -1.8871
 2792SOL    HW219836   0.268   4.620   7.236 -0.5519  1.1483  0.9285
 2793SOL     OW19837   0.588   1.581   7.099 -0.1074  0.0072 -0.1782
 2793SOL    HW119838   0.657   1.634   7.060 -0.5550  2.2258  2.0796
 2793SOL    HW219839   0.528   1.647   7.134 -0.1112 -0.1170  0.0499
 2794SOL     OW19840   1.251   0.230   7.867 -0.1917  0.6720 -0.0672
 2794SOL    HW119841   1.285   0.154   7.821  0.5384  1.1825 -0.3656
 2794SOL    HW219842   1.197   0.272   7.799  1.5642  1.7750 -0.7677
 2795SOL     OW19843   4.027   0.308  12.437  0.0924  0.3110 -0.0917
 2795SOL    HW119844   3.973   0.231  12.454  2.3140 -1.4406 -0.9395
 2795SOL    HW219845   4.084   0.314  12.514  0.2336 -0.6902 -0.1168
 2796SOL     OW19846   2.498   0.776  10.325 -0.6784  0.3908 -0.0474
 2796SOL    HW119847   2.530   0.690  10.295 -2.1342  0.1502 -0.9190
 2796SOL    HW219848   2.410   0.784  10.289 -0.5296 -0.9700 -0.7395
 2797SOL     OW19849   4.216   4.630   3.459  0.3990  0.2658 -0.4085
 2797SOL    HW119850   4.311   4.639   3.453  0.4851  0.0722  0.6373
 2797SOL    HW219851   4.197   4.539   3.482  0.2510  0.4614  0.2651
 2798SOL     OW19852   2.929   2.403   7.319  0.0911 -0.6413 -0.7100
 2798SOL    HW119853   2.890   2.319   7.344 -0.2988 -0.0762  0.6501
 2798SOL    HW219854   3.006   2.362   7.280  0.5070 -0.3441 -0.2009
 2799SOL     OW19855   1.510   3.256  12.074  0.2129 -0.2666  0.4695
 2799SOL    HW119856   1.516   3.349  12.053 -1.6468 -0.5151 -1.1289
 2799SOL    HW219857   1.462   3.261  12.156 -0.0679 -2.9232  0.4859
 2800SOL     OW19858   1.734   2.761  14.157 -0.4407 -0.1658 -0.1356
 2800SOL    HW119859   1.774   2.761  14.244 -0.1093 -1.3076 -0.2973
 2800SOL    HW219860   1.707   2.852  14.147  0.7718  0.3938  1.6885
 2801SOL     OW19861   4.666   2.720   4.145  0.0785  0.5645  0.2323
 2801SOL    HW119862   4.683   2.784   4.076 -0.0357  0.4211  0.0727
 2801SOL    HW219863   4.580   2.747   4.177 -1.0921 -3.7764  0.6804
 2802SOL     OW19864   3.281   3.490   3.296  0.2361  0.3316  0.7277
 2802SOL    HW119865   3.210   3.526   3.350 -0.2019  0.3338  0.1455
 2802SOL    HW219866   3.249   3.507   3.208  0.5128  0.7543  0.7062
 2803SOL     OW19867   2.465   2.262  13.383  0.3895 -1.0129 -0.7124
 2803SOL    HW119868   2.397   2.329  13.369  1.4759  0.7271  2.3862
 2803SOL    HW219869   2.407   2.186  13.383  0.8139 -1.3126  1.8411
 2804SOL     OW19870   2.859   0.381   3.449  0.5442  0.1036 -0.4263
 2804SOL    HW119871   2.813   0.331   3.516 -0.9703  0.1676 -1.4164
 2804SOL    HW219872   2.880   0.315   3.383  0.7440 -2.5642  2.3147
 2805SOL     OW19873   4.278   3.687   8.495  0.7280  0.4947  0.0051
 2805SOL    HW119874   4.212   3.619   8.480  0.8302 -0.0353  2.0201
 2805SOL    HW219875   4.219   3.758   8.521 -0.8954 -1.5950  2.1251
 2806SOL     OW19876   1.086   3.089   3.880 -0.5917 -0.5600  0.4667
 2806SOL    HW119877   1.088   3.182   3.859  0.6553 -0.9578 -1.1810
 2806SOL    HW219878   1.170   3.078   3.926 -1.2794 -1.7283  1.4306
 2807SOL     OW19879   3.478   2.384  10.952  0.0171 -0.3009 -0.1732
 2807SOL    HW119880   3.438   2.458  10.998  2.4542 -0.4693  2.2059
 2807SOL    HW219881   3.529   2.426  10.884 -0.1377  0.9496  0.4825
 2808SOL     OW19882   2.160   1.972  17.666 -0.2539  0.0855  0.3242
 2808SOL    HW119883   2.239   2.011   0.017  0.2508 -0.4167 -0.2389
 2808SOL    HW219884   2.136   2.046  17.609  4.3722  3.2157  2.4592
 2809SOL     OW19885   2.954   2.654  16.776  0.0210  0.2583  0.6368
 2809SOL    HW119886   2.971   2.597  16.851  1.3623 -0.5786 -0.3125
 2809SOL    HW219887   2.864   2.625  16.760  0.6532 -1.0681 -0.5066
 2810SOL     OW19888   3.311   1.034  17.371  0.0936 -0.7502  0.1725
 2810SOL    HW119889   3.235   1.093  17.377 -1.5381 -2.9500  0.8262
 2810SOL    HW219890   3.382   1.085  17.410 -0.8068  1.1127 -0.5995
 2811SOL     OW19891   2.723   2.823  12.568  0.0224 -0.4561 -0.4681
 2811SOL    HW119892   2.632   2.843  12.545  0.7765  0.9402 -2.2790
 2811SOL    HW219893   2.766   2.902  12.536 -0.9619  0.2650 -0.0290
 2812SOL     OW19894   1.677   2.037   3.304 -0.5653  0.0551 -0.4257
 2812SOL    HW119895   1.604   1.976   3.314  1.1226 -2.0269 -0.7913
 2812SOL    HW219896   1.650   2.113   3.356 -0.2959  1.0906 -1.8165
 2813SOL     OW19897   2.464   2.919   6.779 -0.4997  0.4540  0.6066
 2813SOL    HW119898   2.391   2.897   6.837 -0.8843 -1.6689 -0.6925
 2813SOL    HW219899   2.543   2.893   6.825 -0.3919  0.3981  0.3888
 2814SOL     OW19900   3.386   2.281   2.644  0.5873 -0.2324  0.1876
 2814SOL    HW119901   3.339   2.304   2.724 -4.9064 -0.8572 -2.7992
 2814SOL    HW219902   3.371   2.187   2.631 -2.1235  0.5252 -2.1965
 2815SOL     OW19903   1.395   2.800  13.725  0.1278  0.3769 -0.0214
 2815SOL    HW119904   1.468   2.859  13.739  0.4554  0.4493 -2.0559
 2815SOL    HW219905   1.434   2.713  13.738 -1.3640 -0.2922  0.0575
 2816SOL     OW19906   0.918   4.420   1.845  0.5458 -0.1213  0.3326
 2816SOL    HW119907   0.949   4.418   1.754 -0.5749  4.2315 -0.1556
 2816SOL    HW219908   0.998   4.456   1.885  0.6174  0.1059 -0.0079
 2817SOL     OW19909   3.062   1.833   9.032 -0.7172  0.4190 -0.0747
 2817SOL    HW119910   2.978   1.859   9.070 -0.6459  0.6016 -0.0407
 2817SOL    HW219911   3.041   1.770   8.963  0.7701  0.1193 -0.2599
 2818SOL     OW19912   4.662   1.029   8.414  0.2757  0.7299 -0.6862
 2818SOL    HW119913   4.633   1.119   8.432 -0.4809  0.4829 -0.6830
 2818SOL    HW219914   0.034   1.031   8.436  0.3311  0.2401 -0.8756
 2819SOL     OW19915   4.370   2.130   5.586 -0.0465 -0.6189 -0.3778
 2819SOL    HW119916   4.291   2.155   5.537 -1.2398  0.7582  2.2640
 2819SOL    HW219917   4.366   2.035   5.584  1.0556 -0.6718  0.0553
 2820SOL     OW19918   0.190   2.485   2.496  0.1480 -0.7075  0.0586
 2820SOL    HW119919   0.196   2.445   2.409 -1.0639  0.5870 -0.6284
 2820SOL    HW219920   0.228   2.418   2.552 -0.2519 -0.0369  1.1298
 2821SOL     OW19921   1.208   1.205  16.565  0.2937  0.0027 -0.4193
 2821SOL    HW119922   1.127   1.239  16.529 -0.1665 -0.3083  0.3215
 2821SOL    HW219923   1.243   1.157  16.490  0.2465 -1.4489  0.4801
 2822SOL     OW19924   3.743   2.569  14.140 -0.5094  0.8311 -0.3349
 2822SOL    HW119925   3.823   2.520  14.121 -1.3307 -0.2429 -1.0533
 2822SOL    HW219926   3.685   2.509  14.186 -2.4624  1.0236 -2.5385
 2823SOL     OW19927   3.241   2.160  10.445  0.9339 -0.2214 -0.4431
 2823SOL    HW119928   3.203   2.086  10.492 -1.7281  0.7103 -1.1658
 2823SOL    HW219929   3.220   2.237  10.498  1.4776 -4.4147  5.8130
 2824SOL     OW19930   2.076   1.941   8.685 -0.1947 -0.3828 -0.0832
 2824SOL    HW119931   2.036   2.028   8.682  1.7041  0.4639 -1.1485
 2824SOL    HW219932   2.141   1.931   8.615 -0.5154  0.9901 -0.5876
 2825SOL     OW19933   3.589   2.590   8.126  0.2275  0.2607  0.5158
 2825SOL    HW119934   3.504   2.608   8.167  0.5038 -0.8926  1.6151
 2825SOL    HW219935   3.640   2.670   8.140 -2.2988  1.8421  0.6078
 2826SOL     OW19936   1.799   2.049   8.348  0.4629  0.1967  0.2923
 2826SOL    HW119937   1.764   2.104   8.277  2.8910  0.1830 -0.9157
 2826SOL    HW219938   1.737   2.075   8.416 -0.7395  1.9732 -1.4911
 2827SOL     OW19939   2.237   0.681  15.914  0.6809  0.3564  0.7613
 2827SOL    HW119940   2.263   0.590  15.901  1.9509  0.8552 -0.0925
 2827SOL    HW219941   2.232   0.688  16.010 -1.4227  0.3643  0.6654
 2828SOL     OW19942   2.409   0.119  11.829  0.1280 -0.2080  0.0063
 2828SOL    HW119943   2.397   0.204  11.872  1.1002  0.7414 -1.6391
 2828SOL    HW219944   2.389   0.067  11.907 -1.3541 -0.5835 -0.6255
 2829SOL     OW19945   2.575   2.650  13.064 -0.1786 -0.0893  0.0766
 2829SOL    HW119946   2.510   2.581  13.048  0.4344 -1.1248  2.0609
 2829SOL    HW219947   2.558   2.706  12.988  1.3675 -0.0671 -0.2484
 2830SOL     OW19948   0.310   2.337   5.368 -0.0746 -0.2169  0.0412
 2830SOL    HW119949   0.342   2.416   5.411 -1.7603  1.4713 -1.7943
 2830SOL    HW219950   0.390   2.322   5.319 -0.0208  1.6661 -0.4368
 2831SOL     OW19951   2.917   2.091   4.092 -0.6254  0.3433  0.4769
 2831SOL    HW119952   2.982   2.024   4.116 -1.5868 -1.3116 -1.4498
 2831SOL    HW219953   2.949   2.177   4.117 -0.0114  0.2202  0.1270
 2832SOL     OW19954   3.632   1.689  13.505 -0.2074  0.1547  0.3390
 2832SOL    HW119955   3.705   1.666  13.562 -0.2740  0.3055  0.4846
 2832SOL    HW219956   3.584   1.756  13.554  0.3146  1.0179 -0.3154
 2833SOL     OW19957   2.075   0.207   6.900  0.6187 -0.7066 -0.0706
 2833SOL    HW119958   1.994   0.158   6.914  0.9999 -1.0526  0.8599
 2833SOL    HW219959   2.043   0.296   6.915  2.9572 -0.1255  1.4892
 2834SOL     OW19960   3.864   2.551   3.480 -0.8283 -0.0324  0.2328
 2834SOL    HW119961   3.799   2.535   3.412 -0.4281 -0.7138 -0.0024
 2834SOL    HW219962   3.811   2.618   3.522  1.2974  1.3233  0.7266
 2835SOL     OW19963   0.313   3.367   5.452  0.3181 -0.6150  0.1146
 2835SOL    HW119964   0.366   3.302   5.498  1.1259  0.0813  0.1678
 2835SOL    HW219965   0.233   3.378   5.502 -0.7256 -1.9826 -1.2593
 2836SOL     OW19966   2.677   2.686   6.156  1.0326 -0.2196 -0.3180
 2836SOL    HW119967   2.608   2.621   6.140  0.3017  0.0352  1.6873
 2836SOL    HW219968   2.743   2.664   6.090  0.5657 -1.6037 -0.3316
 2837SOL     OW19969   4.207   2.000   8.309  0.1438 -0.6492 -0.8267
 2837SOL    HW119970   4.140   2.059   8.343  0.5111 -1.1450  0.7321
 2837SOL    HW219971   4.252   2.036   8.232  0.2789 -1.1309 -0.9734
 2838SOL     OW19972   2.662   1.764   7.492  0.0334 -0.4537  0.0962
 2838SOL    HW119973   2.601   1.838   7.494  0.0119 -0.4246 -1.3898
 2838SOL    HW219974   2.744   1.813   7.480 -1.3983  1.7297 -0.9051
 2839SOL     OW19975   4.277   2.920  12.898  0.0696  0.5661  1.1150
 2839SOL    HW119976   4.361   2.964  12.909 -0.9514  2.5272  1.0003
 2839SOL    HW219977   4.255   2.937  12.807  0.1254 -0.1472  0.9689
 2840SOL     OW19978   3.407   2.955   5.046  0.2156 -0.7462  0.3151
 2840SOL    HW119979   3.320   2.997   5.042  0.2765 -0.7424 -1.0158
 2840SOL    HW219980   3.466   3.029   5.035  0.4263 -1.0625 -0.6548
 2841SOL     OW19981   3.886   3.598  15.545  0.3691 -0.6922  0.2723
 2841SOL    HW119982   3.807   3.545  15.549 -1.0949  1.3947 -0.9770
 2841SOL    HW219983   3.926   3.548  15.474 -1.1002 -1.7151  0.1637
 2842SOL     OW19984   3.561   0.064   2.242 -0.3745  0.2653  0.5405
 2842SOL    HW119985   3.486   0.096   2.190  0.5191  0.1465 -0.8229
 2842SOL    HW219986   3.606   0.018   2.171 -0.7508 -0.3781  0.7116
 2843SOL     OW19987   3.546   0.945  12.588  0.0692 -0.2900 -0.9307
 2843SOL    HW119988   3.478   0.944  12.521 -1.0847 -2.8962  0.2965
 2843SOL    HW219989   3.506   0.871  12.634 -1.0793  0.3048 -0.9800
 2844SOL     OW19990   2.431   1.979  10.673 -0.6242 -0.0205  0.7586
 2844SOL    HW119991   2.406   2.050  10.614  1.5859 -0.6781 -0.9897
 2844SOL    HW219992   2.460   2.040  10.741  1.1159 -1.3545  1.2263
 2845SOL     OW19993   3.338   1.252   0.654  0.0296 -0.2756 -0.1133
 2845SOL    HW119994   3.329   1.163   0.621  0.5031 -0.3194 -0.1195
 2845SOL    HW219995   3.291   1.252   0.738 -0.8621  0.1376 -0.6168
 2846SOL     OW19996   4.169   3.411  10.274 -0.6246 -0.2031 -0.2103
 2846SOL    HW119997   4.156   3.320  10.300  1.2799 -0.3676  0.1475
 2846SOL    HW219998   4.132   3.461  10.347 -1.2971  1.5643 -1.7711
 2847SOL     OW19999   2.169   1.921   4.238  0.1450 -0.7146  0.3466
 2847SOL    HW120000   2.126   1.901   4.155  3.8285  0.4389 -1.8056
 2847SOL    HW220001   2.255   1.944   4.203 -1.6562  4.7808 -0.4232
 2848SOL     OW20002   2.328   1.833   5.090  0.0390  0.4332  0.1150
 2848SOL    HW120003   2.424   1.834   5.089  0.0674 -0.6888  1.1288
 2848SOL    HW220004   2.312   1.779   5.013 -0.8655 -1.1849  1.4211
 2849SOL     OW20005   2.138   3.456   1.713 -0.4338  0.1461 -1.2032
 2849SOL    HW120006   2.085   3.515   1.766  0.8485  0.6554 -0.4925
 2849SOL    HW220007   2.087   3.469   1.634  1.0704  0.4090 -2.1347
 2850SOL     OW20008   1.695   4.020   5.275  0.0973 -0.2453  0.1257
 2850SOL    HW120009   1.618   3.964   5.288 -0.1779  0.0778 -0.1298
 2850SOL    HW220010   1.669   4.101   5.318  1.8704  1.6296 -2.3897
 2851SOL     OW20011   0.751   3.797   4.820 -0.1398 -0.1274 -0.5575
 2851SOL    HW120012   0.661   3.820   4.844  0.8327  2.0243  1.0183
 2851SOL    HW220013   0.759   3.704   4.841  0.9440  0.3521  1.1055
 2852SOL     OW20014   4.341   2.509   5.371  0.1926 -0.4622 -0.1942
 2852SOL    HW120015   4.372   2.502   5.281  1.5792  1.7887  0.1105
 2852SOL    HW220016   4.247   2.492   5.361 -0.3136  1.6265  1.0787
 2853SOL     OW20017   4.458   0.582   4.230  0.1703 -0.3617  0.0351
 2853SOL    HW120018   4.390   0.590   4.297  0.2795  1.7218 -0.0963
 2853SOL    HW220019   4.536   0.624   4.267 -0.7357  0.2593  1.2513
 2854SOL     OW20020   2.753   2.241   0.603 -0.4796  0.0794 -0.6177
 2854SOL    HW120021   2.809   2.170   0.571 -1.5051 -1.9684  2.1763
 2854SOL    HW220022   2.772   2.240   0.697  0.5027 -2.5129 -0.8451
 2855SOL     OW20023   3.462   0.835  11.298  0.3323 -0.3629  0.5926
 2855SOL    HW120024   3.402   0.795  11.361 -1.5294  1.2381 -0.1693
 2855SOL    HW220025   3.547   0.798  11.321  0.0879  1.0111  3.6906
 2856SOL     OW20026   0.301   0.913   7.281  0.4183  0.5588 -0.3188
 2856SOL    HW120027   0.252   0.862   7.345 -0.2172  0.0441 -1.2054
 2856SOL    HW220028   0.370   0.854   7.252  0.1842 -0.0433  0.3545
 2857SOL     OW20029   1.128   1.757   5.856 -0.0347 -0.1670 -0.2662
 2857SOL    HW120030   1.170   1.795   5.933 -0.7869 -0.1464  0.1342
 2857SOL    HW220031   1.038   1.791   5.856  0.4064  0.9524  1.5578
 2858SOL     OW20032   3.343   1.986   5.014  0.1661 -0.2845 -0.1524
 2858SOL    HW120033   3.259   1.945   4.997  0.3580  0.4303 -2.8957
 2858SOL    HW220034   3.372   1.947   5.097  3.0306  1.7528 -0.1807
 2859SOL     OW20035   0.337   1.521  10.924 -0.4315  0.4924  0.1499
 2859SOL    HW120036   0.362   1.444  10.874 -0.6790  1.3570 -1.3041
 2859SOL    HW220037   0.265   1.481  10.973  0.6614 -1.4043  0.1876
 2860SOL     OW20038   1.243   3.262   8.506  0.3495 -0.0317 -0.2940
 2860SOL    HW120039   1.318   3.204   8.493 -0.5241 -0.7559 -2.0816
 2860SOL    HW220040   1.178   3.212   8.456 -0.8026  1.7040 -0.5416
 2861SOL     OW20041   1.589   1.110   5.071 -0.7096  0.0775 -0.3577
 2861SOL    HW120042   1.513   1.152   5.032  0.4758  1.3063 -1.3297
 2861SOL    HW220043   1.546   1.026   5.085  0.7263 -0.2753  1.9150
 2862SOL     OW20044   4.354   0.943   0.813  0.6395  0.1276  0.3538
 2862SOL    HW120045   4.266   0.934   0.850  0.3066 -0.7204 -0.6482
 2862SOL    HW220046   4.348   1.012   0.747 -0.1032 -0.0418  0.2423
 2863SOL     OW20047   3.453   2.794   3.407 -0.2357 -0.2587  0.3695
 2863SOL    HW120048   3.535   2.760   3.373  0.0440  0.1549  0.6374
 2863SOL    HW220049   3.485   2.876   3.443 -0.6814  0.4843 -0.9171
 2864SOL     OW20050   1.745   3.507  10.057 -0.3826 -0.0158  0.0112
 2864SOL    HW120051   1.827   3.511  10.106  0.5777  1.9059 -1.7513
 2864SOL    HW220052   1.749   3.422  10.013 -1.1484 -0.6577  1.1828
 2865SOL     OW20053   3.206   0.412  12.564  0.5559 -0.1864  0.0587
 2865SOL    HW120054   3.174   0.378  12.647 -0.9587  0.4502 -0.2521
 2865SOL    HW220055   3.205   0.504  12.587 -0.5729  0.1451 -1.2863
 2866SOL     OW20056   0.963   2.708  10.173 -0.0998 -0.1062  0.7285
 2866SOL    HW120057   0.868   2.715  10.165 -0.2644 -1.6204  1.3091
 2866SOL    HW220058   0.973   2.683  10.265 -1.2690  0.3517  0.9734
 2867SOL     OW20059   2.079   3.358  15.983  0.1664 -0.4382  0.2752
 2867SOL    HW120060   1.998   3.306  15.982 -0.4012  0.4693 -1.3862
 2867SOL    HW220061   2.062   3.409  16.062  1.1534  0.7479 -0.2947
 2868SOL     OW20062   1.855   1.103   6.313  0.1405 -0.0783 -0.1072
 2868SOL    HW120063   1.940   1.061   6.306 -0.2429 -0.5732 -1.7433
 2868SOL    HW220064   1.867   1.159   6.236 -1.1050  1.8477  1.0912
 2869SOL     OW20065   1.274   2.966   7.167 -0.2184 -0.4939  0.4170
 2869SOL    HW120066   1.231   3.043   7.205 -1.3142 -1.2525  0.7148
 2869SOL    HW220067   1.234   2.896   7.218  2.5095 -2.1642  0.2306
 2870SOL     OW20068   4.637   1.967   4.507 -0.2122 -0.8772 -0.1644
 2870SOL    HW120069   4.596   1.883   4.530  0.3879 -0.9801  0.5368
 2870SOL    HW220070   4.681   1.934   4.429  1.0704 -0.6260  0.4607
 2871SOL     OW20071   3.484   2.559   6.912 -0.7731 -0.5338 -0.5718
 2871SOL    HW120072   3.559   2.500   6.911  0.8512  1.5115  0.2920
 2871SOL    HW220073   3.501   2.614   6.835 -0.9234  2.1562  1.3021
 2872SOL     OW20074   0.896   3.853   2.847 -0.4787  0.2805 -0.2035
 2872SOL    HW120075   0.827   3.845   2.780 -0.7068  0.5248  0.0045
 2872SOL    HW220076   0.889   3.947   2.864  1.4779  0.5472 -0.8640
 2873SOL     OW20077   2.317   0.226   3.480  0.3584 -0.5486 -0.5549
 2873SOL    HW120078   2.227   0.255   3.493  0.9469 -0.5509  3.3623
 2873SOL    HW220079   2.295   0.138   3.449 -0.9021 -0.5019  0.2469
 2874SOL     OW20080   0.959   1.965   4.972 -0.6930 -0.3078  0.0365
 2874SOL    HW120081   0.935   1.898   5.036  0.5129 -0.7863 -0.0091
 2874SOL    HW220082   1.040   1.932   4.934 -1.4352 -2.0763 -0.0239
 2875SOL     OW20083   2.804   2.970   9.120  0.4027  0.3667 -0.5411
 2875SOL    HW120084   2.824   2.930   9.035 -0.3477  1.6409 -1.3220
 2875SOL    HW220085   2.717   2.932   9.133  1.8078 -3.3279 -1.8684
 2876SOL     OW20086   1.446   3.586  11.267  0.2139  0.0254  0.3965
 2876SOL    HW120087   1.476   3.640  11.194  1.7421 -1.0003  0.2622
 2876SOL    HW220088   1.354   3.609  11.276  0.6277  1.3894  1.1354
 2877SOL     OW20089   2.184   0.709   6.098  0.2270  0.1580 -0.0953
 2877SOL    HW120090   2.134   0.784   6.129 -0.6338 -1.4093  2.3035
 2877SOL    HW220091   2.137   0.633   6.132  0.6462 -0.3066 -0.5560
 2878SOL     OW20092   0.343   4.632   5.050  0.2296 -0.3505  0.8868
 2878SOL    HW120093   0.289   4.698   5.007 -0.9463 -1.4184  0.6936
 2878SOL    HW220094   0.421   4.679   5.077  0.6718 -0.6826  0.1569
 2879SOL     OW20095   0.829   3.867   7.173 -0.1215 -0.4017 -0.6400
 2879SOL    HW120096   0.859   3.877   7.264 -0.7475  2.6073 -0.7739
 2879SOL    HW220097   0.783   3.783   7.178  0.5355 -0.6105  2.1913
 2880SOL     OW20098   0.910   3.633  16.025  0.3494 -0.0865 -0.0538
 2880SOL    HW120099   0.895   3.710  15.970 -0.9304 -1.2416 -1.3116
 2880SOL    HW220100   1.000   3.610  16.003  0.4163  0.0892  0.0330
 2881SOL     OW20101   3.869   2.686   7.513 -0.2829  0.2844 -0.3216
 2881SOL    HW120102   3.781   2.720   7.529 -0.2384  1.2032 -2.0805
 2881SOL    HW220103   3.900   2.647   7.595 -0.9606  1.2017  0.3659
 2882SOL     OW20104   3.538   1.223   2.784  0.2793  0.1893  0.5888
 2882SOL    HW120105   3.578   1.287   2.726  0.6420  1.4485  2.2422
 2882SOL    HW220106   3.512   1.278   2.857 -1.6258  3.1075 -2.2705
 2883SOL     OW20107   1.068   3.865  16.989  0.3281 -0.3978  0.1633
 2883SOL    HW120108   1.121   3.837  17.063 -1.2760 -0.1732  1.4037
 2883SOL    HW220109   1.026   3.942  17.027 -1.6819 -2.3420  1.9316
 2884SOL     OW20110   3.094   3.984   2.870 -0.3400  0.3769 -0.2648
 2884SOL    HW120111   3.056   3.917   2.813 -1.8216  0.4811  0.5854
 2884SOL    HW220112   3.162   3.938   2.919  0.1024  2.0135  0.6568
 2885SOL     OW20113   4.172   2.471   2.730 -0.3115  0.0525 -0.0858
 2885SOL    HW120114   4.191   2.556   2.769 -1.3114  1.0022 -1.6560
 2885SOL    HW220115   4.159   2.494   2.638  0.7747  2.2902  0.3120
 2886SOL     OW20116   2.448   4.136   4.122 -0.0579  0.4843 -0.9620
 2886SOL    HW120117   2.426   4.197   4.193  0.0538 -0.5237 -0.0537
 2886SOL    HW220118   2.522   4.171   4.073  0.9213 -2.1651 -1.3395
 2887SOL     OW20119   4.003   3.045  14.854  0.3931  0.5935 -0.5742
 2887SOL    HW120120   4.002   3.040  14.949  0.4106 -0.2927 -0.6206
 2887SOL    HW220121   4.006   3.138  14.831 -0.1211  0.4283 -1.3326
 2888SOL     OW20122   1.376   0.005  14.467 -0.3422  0.4964 -0.6445
 2888SOL    HW120123   1.364   4.676  14.549 -2.3597 -1.5803 -2.1850
 2888SOL    HW220124   1.403   0.090  14.501 -0.1001  0.7306 -1.4472
 2889SOL     OW20125   2.868   3.018   2.565 -0.0914 -0.2209 -0.1995
 2889SOL    HW120126   2.953   2.994   2.603  0.5561  0.2876 -1.2978
 2889SOL    HW220127   2.808   2.957   2.607  0.5622 -0.6747  0.0759
 2890SOL     OW20128   1.658   0.926   7.549  0.4926 -0.9954  0.1907
 2890SOL    HW120129   1.701   0.868   7.487 -1.7969 -0.7123 -1.6354
 2890SOL    HW220130   1.645   0.863   7.620 -1.5084  3.5803  3.8555
 2891SOL     OW20131   3.291   3.034   9.297 -0.1631 -0.5826  0.1561
 2891SOL    HW120132   3.232   2.959   9.310 -1.0246 -0.4130 -2.9081
 2891SOL    HW220133   3.362   2.993   9.345 -0.1648 -1.1997 -0.3769
 2892SOL     OW20134   2.359   4.199   4.612 -0.0097 -0.0045  0.0250
 2892SOL    HW120135   2.371   4.251   4.532 -0.3631 -1.2189 -0.8093
 2892SOL    HW220136   2.453   4.200   4.634 -0.5413 -1.0728  2.3069
 2893SOL     OW20137   3.379   0.158  15.734 -0.2074  0.6659  0.3732
 2893SOL    HW120138   3.418   0.209  15.663  0.4766  1.1062  1.0600
 2893SOL    HW220139   3.331   0.221  15.788  0.4524 -0.2705  2.0342
 2894SOL     OW20140   1.058   3.459   2.847 -0.1054  0.4768 -0.3793
 2894SOL    HW120141   0.971   3.421   2.850 -0.6024  1.5104 -1.6108
 2894SOL    HW220142   1.098   3.386   2.801 -1.2949  0.2458 -1.0387
 2895SOL     OW20143   4.673   3.659  13.941 -0.3695  0.5999  0.0939
 2895SOL    HW120144   4.701   3.735  13.890  1.0050 -0.4221 -0.6871
 2895SOL    HW220145   4.677   3.699  14.028  0.3868 -2.7356  1.5887
 2896SOL     OW20146   1.301   3.693   5.110 -0.2828  0.2794 -0.9040
 2896SOL    HW120147   1.211   3.696   5.077 -1.1212  1.7831  1.5406
 2896SOL    HW220148   1.327   3.612   5.065 -0.5574 -0.4585  0.2895
 2897SOL     OW20149   1.128   1.718   8.879 -0.0858 -0.0384 -0.3653
 2897SOL    HW120150   1.143   1.627   8.905  1.2298  0.7265  1.6136
 2897SOL    HW220151   1.055   1.734   8.938 -1.1926  0.2250 -1.8109
 2898SOL     OW20152   4.270   0.048   5.083  0.0404  0.4288 -0.2077
 2898SOL    HW120153   4.250   4.707   5.013 -1.0472  1.6169 -0.9533
 2898SOL    HW220154   4.284   0.119   5.020  1.8911  0.1594 -0.0973
 2899SOL     OW20155   1.164   3.170  16.102 -0.3354  0.3311 -0.0365
 2899SOL    HW120156   1.223   3.242  16.080  0.4811 -0.2924  0.1211
 2899SOL    HW220157   1.212   3.092  16.075 -0.7628 -0.4246  1.3836
 2900SOL     OW20158   4.613   1.646   5.380 -0.2356 -0.3476  0.3174
 2900SOL    HW120159   4.566   1.582   5.435 -2.6126  2.1295  1.1822
 2900SOL    HW220160   4.699   1.605   5.373  0.4551  0.9599  1.1804
 2901SOL     OW20161   1.460   1.370  10.062 -0.3794 -0.0152  0.0779
 2901SOL    HW120162   1.383   1.354  10.117  1.2228 -1.1630  1.9839
 2901SOL    HW220163   1.516   1.418  10.123 -1.8220 -0.3317  1.6697
 2902SOL     OW20164   3.499   3.779   4.736  1.3658  0.8376  0.1715
 2902SOL    HW120165   3.425   3.724   4.761  1.1426  1.6484  1.3353
 2902SOL    HW220166   3.538   3.721   4.670  0.6818  1.0272 -0.3989
 2903SOL     OW20167   4.124   2.239  17.443  0.1615 -0.4391  0.1447
 2903SOL    HW120168   4.118   2.332  17.421  0.5313 -0.7542 -1.2608
 2903SOL    HW220169   4.035   2.212  17.463 -0.1106  0.5509  0.2503
 2904SOL     OW20170   1.751   1.995   6.237 -0.0489  0.0091  0.0922
 2904SOL    HW120171   1.702   1.916   6.212  0.2279 -0.4651  1.0803
 2904SOL    HW220172   1.834   1.959   6.266  0.1862 -0.2262 -0.8729
 2905SOL     OW20173   0.102   1.731   0.722 -0.0729 -1.3731  0.7269
 2905SOL    HW120174   0.164   1.742   0.650 -0.2625  0.3839  0.8250
 2905SOL    HW220175   0.162   1.698   0.788 -0.2513  2.1672  2.6134
 2906SOL     OW20176   3.460   2.747   4.895 -0.2041  0.0040 -0.1707
 2906SOL    HW120177   3.424   2.820   4.944  1.5261  0.3650  0.5587
 2906SOL    HW220178   3.546   2.739   4.937  0.3928  2.6953 -0.8975
 2907SOL     OW20179   2.487   1.941   0.461  0.4165 -0.2729  0.1634
 2907SOL    HW120180   2.420   1.982   0.405  1.1478  0.4156 -0.2075
 2907SOL    HW220181   2.435   1.862   0.476 -0.2885  0.2051  0.2610
 2908SOL     OW20182   1.647   1.218  15.016 -0.1858 -0.3745 -0.0285
 2908SOL    HW120183   1.577   1.154  15.029  0.4952 -1.4110 -1.4158
 2908SOL    HW220184   1.703   1.175  14.951 -0.5185 -0.3069 -0.3538
 2909SOL     OW20185   0.158   1.919   3.946  0.7032 -0.7799  0.4100
 2909SOL    HW120186   0.097   1.847   3.936  0.2558 -0.0611 -1.9396
 2909SOL    HW220187   0.105   1.988   3.986 -2.4277 -1.2811 -2.9423
 2910SOL     OW20188   2.297   4.286  10.555 -0.2089 -0.6539 -0.2910
 2910SOL    HW120189   2.227   4.280  10.490 -0.4327  2.3424 -0.3008
 2910SOL    HW220190   2.354   4.309  10.481  0.7765  0.8791  0.9481
 2911SOL     OW20191   3.783   3.024   4.055  0.0823 -0.2133  0.4716
 2911SOL    HW120192   3.758   2.938   4.090 -0.8047  0.5732  1.7593
 2911SOL    HW220193   3.878   3.018   4.070 -0.1617  0.4595  2.2809
 2912SOL     OW20194   2.180   0.722  14.599  0.2741 -0.3278 -0.1865
 2912SOL    HW120195   2.241   0.654  14.571  0.6470  0.2271 -0.7239
 2912SOL    HW220196   2.120   0.659  14.639  1.0518  0.4532  2.2015
 2913SOL     OW20197   3.699   1.373   7.394 -0.3721 -0.1521  0.1503
 2913SOL    HW120198   3.653   1.455   7.375 -0.8092 -0.6016 -0.7375
 2913SOL    HW220199   3.744   1.398   7.474  1.2317  0.4725 -0.9476
 2914SOL     OW20200   3.524   0.459   3.810 -0.2552  0.2198 -0.2761
 2914SOL    HW120201   3.475   0.538   3.836  0.0555  0.8996 -1.7693
 2914SOL    HW220202   3.611   0.491   3.788 -1.0459 -0.3421 -4.1647
 2915SOL     OW20203   2.406   4.200  10.254 -0.4786 -0.2052  0.4634
 2915SOL    HW120204   2.399   4.181  10.160  1.1409  1.5025 -0.0051
 2915SOL    HW220205   2.313   4.211  10.276 -0.6682 -1.6002  0.3793
 2916SOL     OW20206   0.146   2.476  15.895 -0.0590  0.0192  0.2923
 2916SOL    HW120207   0.087   2.401  15.901  1.6338 -1.4458 -1.4391
 2916SOL    HW220208   0.090   2.550  15.917 -1.4395 -0.5426 -1.3095
 2917SOL     OW20209   0.887   3.709   1.307 -0.4241 -0.2389  0.0602
 2917SOL    HW120210   0.925   3.747   1.386 -1.8083  0.6445  0.3161
 2917SOL    HW220211   0.868   3.790   1.259  1.5402  0.3942  0.3805
 2918SOL     OW20212   3.056   1.341   4.594 -0.2667  1.1130  0.2782
 2918SOL    HW120213   3.005   1.259   4.594  1.9765 -0.2693  3.2548
 2918SOL    HW220214   3.103   1.334   4.678 -1.1473  0.1481  0.7029
 2919SOL     OW20215   4.410   1.756   5.207  0.0135  0.0065 -0.2247
 2919SOL    HW120216   4.470   1.698   5.253  0.1439 -1.3057 -2.0336
 2919SOL    HW220217   4.335   1.768   5.264 -0.6077 -0.1545 -1.0026
 2920SOL     OW20218   4.052   4.251  16.697 -0.1142 -0.3694  0.7704
 2920SOL    HW120219   4.129   4.205  16.730 -0.1390 -0.1785  1.1010
 2920SOL    HW220220   4.048   4.335  16.743 -0.3400  0.4853 -0.8242
 2921SOL     OW20221   2.472   4.135   9.719  0.1694 -0.0832  0.7234
 2921SOL    HW120222   2.533   4.158   9.648 -0.8628  3.0658  0.8762
 2921SOL    HW220223   2.396   4.188   9.696 -1.5152 -2.1654  1.5360
 2922SOL     OW20224   4.580   4.644   6.968 -0.8289 -0.1981 -0.2321
 2922SOL    HW120225   4.524   4.569   6.988 -0.7195 -0.1726  0.1583
 2922SOL    HW220226   4.629   4.613   6.892  1.0996 -0.1087  0.9753
 2923SOL     OW20227   0.177   0.688   7.392  0.4655  0.1155  0.2041
 2923SOL    HW120228   0.117   0.704   7.319 -0.3838 -0.1235  0.8496
 2923SOL    HW220229   0.199   0.596   7.377 -3.1558 -0.7702  0.1278
 2924SOL     OW20230   1.331   2.582   4.424 -0.1512 -0.1308 -0.2931
 2924SOL    HW120231   1.398   2.648   4.402 -1.7319  0.6158 -2.8925
 2924SOL    HW220232   1.383   2.505   4.446  0.3719 -0.0075 -1.0854
 2925SOL     OW20233   3.102   4.395   8.003  0.0564  0.2559 -0.7003
 2925SOL    HW120234   3.161   4.414   8.076 -2.0556 -0.4820  1.2262
 2925SOL    HW220235   3.016   4.396   8.045 -0.2351 -0.8598 -1.2773
 2926SOL     OW20236   1.562   1.315   3.541 -0.0790 -0.0199  0.3375
 2926SOL    HW120237   1.596   1.380   3.480 -0.4127 -0.2605 -0.1007
 2926SOL    HW220238   1.648   1.280   3.566 -0.2048  0.0514  0.8684
 2927SOL     OW20239   0.214   3.577  15.142  0.5177  0.0897 -0.1810
 2927SOL    HW120240   0.131   3.582  15.093 -0.2955 -1.5508  1.0517
 2927SOL    HW220241   0.263   3.542  15.067  0.2078  0.6450 -0.6511
 2928SOL     OW20242   1.865   1.390   8.984 -0.7158 -0.2696 -0.3050
 2928SOL    HW120243   1.861   1.397   8.889  2.3193 -0.1289 -0.4392
 2928SOL    HW220244   1.803   1.323   9.012 -0.8192  0.1352  0.4310
 2929SOL     OW20245   3.760   0.652  15.499  0.1790 -0.4614 -0.2836
 2929SOL    HW120246   3.671   0.632  15.470 -0.1908 -0.7476  1.0668
 2929SOL    HW220247   3.774   0.733  15.449 -1.5525 -2.2979 -3.6912
 2930SOL     OW20248   1.645   2.403   2.015 -0.3156  0.9063 -0.0082
 2930SOL    HW120249   1.731   2.394   1.973 -0.3100  0.7667  0.0349
 2930SOL    HW220250   1.650   2.485   2.065  0.6776  3.2451 -3.9129
 2931SOL     OW20251   3.942   4.624  10.196 -0.5432  0.5021 -0.4844
 2931SOL    HW120252   3.939   4.559  10.267  2.7823 -0.2905 -1.0540
 2931SOL    HW220253   3.887   4.694  10.231 -1.2102 -0.4739  0.4227
 2932SOL     OW20254   2.866   1.477  11.532 -0.1641  0.2788  0.1915
 2932SOL    HW120255   2.810   1.492  11.609 -0.2742 -0.3021  0.2227
 2932SOL    HW220256   2.809   1.419  11.482  0.5952 -1.6603  1.5675
 2933SOL     OW20257   1.328   0.714   2.535 -0.2954  0.2106 -0.6283
 2933SOL    HW120258   1.325   0.809   2.527 -2.9779  0.3441  1.9440
 2933SOL    HW220259   1.376   0.688   2.456  0.2239 -2.6091  0.6029
 2934SOL     OW20260   3.450   4.425   8.791  0.3462  0.1752 -0.4105
 2934SOL    HW120261   3.399   4.374   8.854 -1.2989  0.2418 -1.6875
 2934SOL    HW220262   3.393   4.428   8.714 -1.5548 -0.3167  0.9827
 2935SOL     OW20263   3.682   4.141   3.050 -0.0530  0.2512  0.4116
 2935SOL    HW120264   3.757   4.105   3.097 -0.4890 -1.3448 -0.1073
 2935SOL    HW220265   3.617   4.071   3.058 -0.0231  0.3221  1.1850
 2936SOL     OW20266   3.125   1.295   4.844  0.0875 -0.4753  0.6428
 2936SOL    HW120267   3.121   1.359   4.915  1.1762 -0.8209  1.0155
 2936SOL    HW220268   3.080   1.216   4.873 -0.2216 -1.5602 -2.8136
 2937SOL     OW20269   1.497   3.565   5.390 -0.4239  0.1830  0.0686
 2937SOL    HW120270   1.587   3.571   5.358 -0.6245 -0.3205 -0.6140
 2937SOL    HW220271   1.477   3.659   5.395 -1.0533  0.1610 -1.7182
 2938SOL     OW20272   0.128   2.974   3.446 -0.3081  0.5049 -0.4726
 2938SOL    HW120273   0.171   2.889   3.441 -1.2794 -0.1382  2.0211
 2938SOL    HW220274   0.155   3.014   3.364 -1.8326  0.5454 -0.9612
 2939SOL     OW20275   3.103   0.051  15.921  0.0729  0.0759 -0.6768
 2939SOL    HW120276   3.154   0.099  15.986  0.9221  1.3875 -2.3129
 2939SOL    HW220277   3.017   0.060  15.963 -0.3907 -3.0512 -0.9714
 2940SOL     OW20278   1.158   3.771   5.620 -0.4439  0.2058 -0.0179
 2940SOL    HW120279   1.200   3.689   5.646  0.2971  0.8350  0.7433
 2940SOL    HW220280   1.220   3.833   5.658  0.1993  1.7244 -3.4848
 2941SOL     OW20281   0.492   1.833  10.979  0.6155 -0.1918 -0.0802
 2941SOL    HW120282   0.554   1.759  10.978  0.0514 -0.6656 -0.2674
 2941SOL    HW220283   0.501   1.868  11.068 -0.7304 -0.4786  0.1723
 2942SOL     OW20284   1.885   3.429   8.349  0.2954  0.0793  0.1535
 2942SOL    HW120285   1.848   3.379   8.421 -0.2635  2.3337  1.4188
 2942SOL    HW220286   1.820   3.498   8.348 -0.2149 -0.4257 -1.5980
 2943SOL     OW20287   4.571   0.951   4.297 -0.0594  0.3401  0.0131
 2943SOL    HW120288   4.513   0.947   4.372  0.9470 -1.3808  0.6921
 2943SOL    HW220289   4.534   1.018   4.240 -0.1057 -0.4151 -0.8445
 2944SOL     OW20290   3.673   2.832  11.629 -0.4139  0.5708  0.2448
 2944SOL    HW120291   3.595   2.782  11.654  0.2953  0.4643  2.2875
 2944SOL    HW220292   3.736   2.783  11.682 -0.8623 -1.2656 -0.9229
 2945SOL     OW20293   0.107   1.579   0.997 -0.6256  0.4531  0.2865
 2945SOL    HW120294   0.144   1.587   1.085  0.8453 -1.5000 -0.1668
 2945SOL    HW220295   0.182   1.556   0.942  0.1427 -0.4507  1.7197
 2946SOL     OW20296   1.887   1.327   6.662  0.6139  0.2005  0.1392
 2946SOL    HW120297   1.953   1.344   6.595  1.1828 -0.6656  0.4766
 2946SOL    HW220298   1.823   1.395   6.643  1.7802  0.8848 -1.3212
 2947SOL     OW20299   0.009   4.672   5.709 -0.2285 -0.1946 -0.3199
 2947SOL    HW120300   4.661   0.016   5.724  0.2921  0.1270  0.7253
 2947SOL    HW220301   4.718   4.643   5.619  0.3601 -1.9234  0.1423
 2948SOL     OW20302   0.854   1.364   5.809  0.4688 -0.3732  0.1317
 2948SOL    HW120303   0.869   1.444   5.860 -2.4395  0.6800 -0.6950
 2948SOL    HW220304   0.869   1.292   5.871  0.1040 -0.6853 -0.1441
 2949SOL     OW20305   2.826   4.389  16.251 -0.6425 -0.2625 -0.6979
 2949SOL    HW120306   2.905   4.361  16.297 -0.3256  1.6754 -0.0914
 2949SOL    HW220307   2.849   4.472  16.208 -0.3049  1.1296  2.2018
 2950SOL     OW20308   0.476   0.899   6.285 -0.2807 -0.0319  0.2557
 2950SOL    HW120309   0.571   0.904   6.288 -0.2790 -0.6315  1.3482
 2950SOL    HW220310   0.460   0.815   6.329 -0.3805 -0.0431  0.1970
 2951SOL     OW20311   4.244   4.070   6.857  0.1518  0.3289  0.3441
 2951SOL    HW120312   4.331   4.058   6.820 -0.7317 -3.1098 -0.7197
 2951SOL    HW220313   4.193   4.016   6.795 -2.3752  1.2351  1.6367
 2952SOL     OW20314   3.676   0.675   6.343 -0.1545 -0.5019 -0.5101
 2952SOL    HW120315   3.688   0.739   6.414  0.3727  0.9593 -1.9255
 2952SOL    HW220316   3.704   0.595   6.388  1.8448  1.9555  2.5974
 2953SOL     OW20317   2.142   1.736  16.542 -0.5883  0.3158  0.2984
 2953SOL    HW120318   2.230   1.770  16.559 -1.6816  2.8421  0.9193
 2953SOL    HW220319   2.126   1.760  16.451  0.3483 -0.9063 -0.1908
 2954SOL     OW20320   4.387   0.184   2.461 -0.1428  0.1663 -0.1394
 2954SOL    HW120321   4.325   0.223   2.400 -0.7282  0.6294  0.7455
 2954SOL    HW220322   4.345   0.100   2.478  0.8844 -0.3079  0.0732
 2955SOL     OW20323   3.234   3.468   1.886 -0.3666 -0.8895 -0.1320
 2955SOL    HW120324   3.211   3.389   1.837  3.1485 -1.8340 -0.2589
 2955SOL    HW220325   3.150   3.484   1.928  2.1484  2.2830  3.6582
 2956SOL     OW20326   3.047   2.338   0.373 -0.4420 -0.8115 -0.1039
 2956SOL    HW120327   3.134   2.376   0.362 -1.1768  1.7222  2.9999
 2956SOL    HW220328   3.001   2.416   0.403  0.8481  0.2731 -0.9701
 2957SOL     OW20329   1.129   2.938   2.682 -0.1666 -0.2803  0.8518
 2957SOL    HW120330   1.147   2.969   2.594 -1.7109  0.9460  0.9500
 2957SOL    HW220331   1.043   2.898   2.666 -0.2320 -0.7058  2.2557
 2958SOL     OW20332   0.312   3.495   7.959  0.1667 -0.5279  0.1034
 2958SOL    HW120333   0.345   3.540   7.881  2.3560  0.3791  1.5534
 2958SOL    HW220334   0.224   3.531   7.953 -0.3255 -1.6853  0.4548
 2959SOL     OW20335   2.476   3.553   9.610  0.1055 -0.2098 -0.1997
 2959SOL    HW120336   2.559   3.578   9.652  0.2358 -0.3917 -0.3485
 2959SOL    HW220337   2.446   3.634   9.570  0.0651 -0.1318 -0.0116
 2960SOL     OW20338   3.575   3.636  15.334 -0.2303  0.1727 -0.3054
 2960SOL    HW120339   3.540   3.613  15.248 -1.4626 -0.4724  0.3575
 2960SOL    HW220340   3.612   3.553  15.365  1.9580  0.5124 -2.0368
 2961SOL     OW20341   2.148   4.085  13.314 -0.1885 -0.3281  0.1814
 2961SOL    HW120342   2.239   4.096  13.289 -0.5102 -0.9943 -1.2865
 2961SOL    HW220343   2.155   4.008  13.370  2.2724 -0.8528 -0.8711
 2962SOL     OW20344   1.087   3.026  14.993  0.4305  0.0232 -0.2437
 2962SOL    HW120345   1.044   3.078  14.926  0.9566 -0.5315 -1.0129
 2962SOL    HW220346   1.013   3.031  15.054  0.0558  0.5919 -0.7472
 2963SOL     OW20347   1.838   2.057  16.857 -0.8290 -0.2218 -0.5781
 2963SOL    HW120348   1.925   2.034  16.891 -1.2757 -1.5114 -0.2796
 2963SOL    HW220349   1.864   2.140  16.818  0.9195 -1.7783 -2.7151
 2964SOL     OW20350   2.630   2.958   4.195  0.4028 -0.2415  0.1570
 2964SOL    HW120351   2.721   2.980   4.219 -0.1473  0.8736  1.2568
 2964SOL    HW220352   2.642   2.868   4.167 -0.8003 -0.4675  0.3782
 2965SOL     OW20353   3.879   4.634   3.979 -0.0801 -0.1539 -0.4411
 2965SOL    HW120354   3.916   4.546   3.980  1.2850  0.4135 -1.2202
 2965SOL    HW220355   3.953   4.694   3.969 -0.4681  0.5236  0.7595
 2966SOL     OW20356   1.710   1.682   6.283  0.0105 -0.6285 -0.6410
 2966SOL    HW120357   1.754   1.608   6.242  1.4534  0.5516 -1.2257
 2966SOL    HW220358   1.617   1.664   6.269 -0.3306 -0.0409  0.8569
 2967SOL     OW20359   0.769   4.469  12.100 -0.1673 -0.9210 -0.2021
 2967SOL    HW120360   0.864   4.471  12.110 -0.4052 -1.2464  2.0065
 2967SOL    HW220361   0.767   4.374  12.107 -0.4897 -0.9686 -0.9006
 2968SOL     OW20362   0.654   1.472  13.336  0.2488  0.4819 -0.3026
 2968SOL    HW120363   0.725   1.491  13.397  1.7861  0.7282 -2.1711
 2968SOL    HW220364   0.632   1.386  13.370 -0.9136  0.7326 -0.4064
 2969SOL     OW20365   2.492   1.709  10.422 -0.2830 -0.1017  0.0183
 2969SOL    HW120366   2.397   1.696  10.424 -0.4349  0.9050 -0.6615
 2969SOL    HW220367   2.523   1.632  10.373  0.4225  1.1559 -1.5263
 2970SOL     OW20368   0.825   0.935   5.349 -0.2020  0.7115 -0.5219
 2970SOL    HW120369   0.865   1.001   5.405 -0.3285  1.2091 -1.0222
 2970SOL    HW220370   0.754   0.988   5.313  1.2132  3.7424  1.1831
 2971SOL     OW20371   4.311   3.769  16.106 -0.3135  0.0160  0.3727
 2971SOL    HW120372   4.350   3.805  16.185  1.6346 -0.2160 -0.4924
 2971SOL    HW220373   4.368   3.693  16.094  0.7315  0.7124  0.9326
 2972SOL     OW20374   4.701   0.066   6.060  0.5249  0.1640 -0.1321
 2972SOL    HW120375   4.666   0.154   6.073  0.6881  0.1425  0.4618
 2972SOL    HW220376   4.633   0.042   5.997 -0.0579  3.7624 -0.9014
 2973SOL     OW20377   2.199   0.034   5.403  0.2177 -0.2231 -0.3088
 2973SOL    HW120378   2.175   4.697   5.330  1.7680 -2.1032  0.6668
 2973SOL    HW220379   2.289   0.006   5.421  0.3333 -0.4955 -1.2642
 2974SOL     OW20380   0.698   2.683  10.518  0.2883 -0.3743 -0.2206
 2974SOL    HW120381   0.775   2.731  10.488  0.1557 -0.9846 -1.5227
 2974SOL    HW220382   0.731   2.593  10.519 -2.4098 -1.3640  0.0845
 2975SOL     OW20383   1.808   0.725  14.206 -0.2638  0.0951  0.4970
 2975SOL    HW120384   1.885   0.768  14.168 -0.0187 -0.5854  0.2210
 2975SOL    HW220385   1.792   0.659  14.139  1.4293  0.6961 -0.4981
 2976SOL     OW20386   3.525   3.093  12.201  0.2770 -0.2254  0.4050
 2976SOL    HW120387   3.483   3.175  12.175  0.7154 -1.0173 -2.7517
 2976SOL    HW220388   3.514   3.093  12.296 -0.4576 -0.9069  0.3167
 2977SOL     OW20389   0.183   0.409   4.403 -0.2346 -0.0256 -0.8078
 2977SOL    HW120390   0.242   0.483   4.417 -1.4458  0.6472  0.7738
 2977SOL    HW220391   0.219   0.322   4.419 -0.8402 -0.0570  0.3639
 2978SOL     OW20392   4.304   0.975  16.689 -0.3085 -0.1448  0.4034
 2978SOL    HW120393   4.378   1.031  16.664  1.1971 -1.1655  2.6637
 2978SOL    HW220394   4.258   0.976  16.605 -1.0878  3.1329  0.8634
 2979SOL     OW20395   0.679   3.599   2.423 -0.1307  0.5982  0.2503
 2979SOL    HW120396   0.585   3.601   2.404 -0.5960 -0.7740  2.3665
 2979SOL    HW220397   0.698   3.550   2.343  1.3743  1.5589  0.0362
 2980SOL     OW20398   0.852   2.932  15.533 -0.3125 -0.4217  0.5093
 2980SOL    HW120399   0.775   2.928  15.590 -1.0391  0.4014 -0.4126
 2980SOL    HW220400   0.815   2.942  15.445  2.5149 -0.6890 -0.7325
 2981SOL     OW20401   4.506   3.984   2.345  0.3756 -0.1345  0.1608
 2981SOL    HW120402   4.552   3.905   2.373  1.7558  0.6645  0.1225
 2981SOL    HW220403   4.533   4.038   2.419 -1.9877  2.3681 -0.7864
 2982SOL     OW20404   0.244   0.593   0.149 -1.0059 -0.0544 -0.3620
 2982SOL    HW120405   0.227   0.646   0.071  2.2777 -1.3432 -1.9497
 2982SOL    HW220406   0.333   0.561   0.134 -0.2760  0.8823  1.9199
 2983SOL     OW20407   2.286   0.262   7.640  0.2474 -0.1557 -0.2524
 2983SOL    HW120408   2.260   0.355   7.637  1.0942  0.1343  1.8021
 2983SOL    HW220409   2.222   0.214   7.588  0.5128 -0.7163 -0.0524
 2984SOL     OW20410   2.309   2.932   1.026  0.0276 -0.1399  0.1291
 2984SOL    HW120411   2.261   2.913   1.107 -0.5262 -0.1173 -0.1934
 2984SOL    HW220412   2.270   2.865   0.970 -0.2424 -0.9821  1.3284
 2985SOL     OW20413   3.614   0.765  12.996 -0.3884  0.2958 -0.1853
 2985SOL    HW120414   3.616   0.813  13.079 -0.6560 -1.8647  1.0673
 2985SOL    HW220415   3.697   0.777  12.950  0.4888 -0.3445  1.2272
 2986SOL     OW20416   3.303   4.692   6.062  0.3469 -0.2909  0.0589
 2986SOL    HW120417   3.307   4.599   6.039 -2.8806 -0.0923 -1.3658
 2986SOL    HW220418   3.396   4.709   6.074  0.0795  2.1579 -1.2179
 2987SOL     OW20419   3.447   4.676   5.691 -0.5193  0.0544 -0.3968
 2987SOL    HW120420   3.462   0.048   5.714 -2.1819 -0.1746  1.6179
 2987SOL    HW220421   3.427   4.679   5.598 -2.7364 -1.7290  0.0316
 2988SOL     OW20422   2.232   0.526   8.629 -0.1058  0.2167 -0.3825
 2988SOL    HW120423   2.288   0.476   8.571 -1.3713  1.0057 -2.2776
 2988SOL    HW220424   2.156   0.469   8.644  0.2970 -0.6103 -1.5249
 2989SOL     OW20425   0.240   2.366  17.536  0.5167 -0.1401  0.6134
 2989SOL    HW120426   0.218   2.330  17.622  0.9495 -3.4364 -0.6694
 2989SOL    HW220427   0.290   2.294  17.499  0.1752 -0.1981  0.2668
 2990SOL     OW20428   4.355   3.601   5.270 -0.2137 -0.2363 -0.1358
 2990SOL    HW120429   4.371   3.584   5.178 -1.1582 -2.7088  0.1620
 2990SOL    HW220430   4.440   3.613   5.312 -0.8461 -1.8196  1.6223
 2991SOL     OW20431   4.028   1.182   1.001 -0.3667  0.3364  0.0359
 2991SOL    HW120432   4.094   1.240   1.039 -0.1999  0.3278 -0.2399
 2991SOL    HW220433   4.017   1.117   1.071 -2.6364 -0.1391 -0.7597
 2992SOL     OW20434   2.145   3.504  15.643 -0.4586  0.0769 -0.3840
 2992SOL    HW120435   2.135   3.558  15.721  1.1328  0.4451 -0.4307
 2992SOL    HW220436   2.233   3.471  15.666 -0.9248 -2.3035 -2.0243
 2993SOL     OW20437   3.836   2.668  11.793  0.5351  0.1503 -0.0235
 2993SOL    HW120438   3.876   2.588  11.759 -1.9844 -1.7670  1.4910
 2993SOL    HW220439   3.838   2.642  11.885  5.3420  1.0453  0.1441
 2994SOL     OW20440   0.416   0.195   4.787 -0.1896  0.5643 -0.2592
 2994SOL    HW120441   0.413   0.277   4.837  1.0901 -0.3897  1.3719
 2994SOL    HW220442   0.364   0.138   4.844  0.4438 -1.0622 -1.3216
 2995SOL     OW20443   2.489   1.460   4.857  0.0164 -0.4309 -0.0854
 2995SOL    HW120444   2.500   1.365   4.852 -1.0112 -0.4819 -1.1291
 2995SOL    HW220445   2.496   1.472   4.952  0.7946  0.4577 -0.2456
 2996SOL     OW20446   2.806   0.621  12.058 -0.2230  0.3628  0.1028
 2996SOL    HW120447   2.737   0.686  12.075  1.2904  1.5726  1.6372
 2996SOL    HW220448   2.815   0.585  12.146 -2.1595  0.5709  0.3956
 2997SOL     OW20449   4.278   0.432   7.259 -0.7724  0.4237 -0.2692
 2997SOL    HW120450   4.298   0.519   7.226  0.3083 -0.4555 -1.9446
 2997SOL    HW220451   4.366   0.408   7.290 -1.5265 -0.5422  1.1079
 2998SOL     OW20452   1.873   3.879   9.015  0.2371 -0.0171  0.5676
 2998SOL    HW120453   1.910   3.837   9.092 -2.3986 -2.0781  0.7101
 2998SOL    HW220454   1.905   3.827   8.941  0.3600  1.4963 -0.4397
 2999SOL     OW20455   3.039   0.039   7.154  0.5487  0.5296  0.1345
 2999SOL    HW120456   2.978   0.057   7.225  0.2218 -0.2325  0.0554
 2999SOL    HW220457   3.109   0.000   7.206  0.8185 -0.2780 -0.8181
 3000SOL     OW20458   0.192   3.126  10.144  0.2092  0.2183 -0.2187
 3000SOL    HW120459   0.135   3.130  10.220  0.8580 -0.3213  0.2957
 3000SOL    HW220460   0.276   3.142  10.188  0.3536  1.2902 -0.8698
 3001SOL     OW20461   2.976   3.774  11.752 -0.1276 -0.1737  0.3182
 3001SOL    HW120462   3.000   3.758  11.843 -0.1081 -0.8162  0.2034
 3001SOL    HW220463   2.974   3.682  11.724 -1.4129 -0.5002  1.4677
 3002SOL     OW20464   2.196   1.645   7.043  0.0145 -0.3781 -0.5041
 3002SOL    HW120465   2.270   1.666   7.100 -0.1623 -0.6724 -0.1651
 3002SOL    HW220466   2.241   1.591   6.978 -0.5373  0.4320 -1.5772
 3003SOL     OW20467   3.902   3.643   3.208 -0.1830 -0.4295 -0.7091
 3003SOL    HW120468   3.913   3.555   3.245  0.2464  0.0819  0.3465
 3003SOL    HW220469   3.991   3.663   3.182  0.4955 -1.2595  0.9895
 3004SOL     OW20470   1.804   2.509  13.619 -0.2372  0.3819 -0.6346
 3004SOL    HW120471   1.872   2.470  13.675 -1.1419  0.4256  0.4925
 3004SOL    HW220472   1.747   2.433  13.607 -0.4155  0.2549  0.9203
 3005SOL     OW20473   2.315   1.067   2.152  0.1725  0.8784 -0.0956
 3005SOL    HW120474   2.293   1.071   2.245 -1.4144 -2.2871 -0.3546
 3005SOL    HW220475   2.260   0.992   2.130  0.3104  0.6792  0.2447
 3006SOL     OW20476   0.728   2.689   5.510 -0.1176  0.5526 -0.4944
 3006SOL    HW120477   0.730   2.750   5.584 -1.5517 -0.1872  0.1671
 3006SOL    HW220478   0.799   2.727   5.458 -0.7481  1.1823 -0.8768
 3007SOL     OW20479   1.653   3.231   4.887 -0.7210 -0.0810  0.2039
 3007SOL    HW120480   1.729   3.242   4.830 -1.4254 -0.0433 -0.7230
 3007SOL    HW220481   1.676   3.296   4.954 -2.7900 -0.9315  1.7354
 3008SOL     OW20482   3.294   0.571   4.473 -0.0629  0.1498  0.0853
 3008SOL    HW120483   3.239   0.646   4.494 -0.6583 -0.8612  2.1018
 3008SOL    HW220484   3.244   0.542   4.397  0.9128  2.5717 -1.4958
 3009SOL     OW20485   1.290   3.750   8.371  0.7410 -0.3052 -0.4007
 3009SOL    HW120486   1.329   3.770   8.456  0.9248 -0.8158 -0.3651
 3009SOL    HW220487   1.292   3.655   8.363  1.5806 -0.2932 -0.2848
 3010SOL     OW20488   1.402   1.075  15.102 -0.0101  0.0034 -0.3177
 3010SOL    HW120489   1.396   0.981  15.086  2.0176 -0.2437  0.3909
 3010SOL    HW220490   1.406   1.076  15.197 -0.7086  0.0955 -0.2886
 3011SOL     OW20491   2.857   1.345  14.020 -0.6788 -0.0176  0.2967
 3011SOL    HW120492   2.776   1.369  14.064  0.0923  2.9903  0.0226
 3011SOL    HW220493   2.856   1.250  14.032  1.8521 -0.1652 -0.8290
 3012SOL     OW20494   3.543   0.984  14.986 -0.1716  0.3490 -0.8801
 3012SOL    HW120495   3.586   1.069  14.996 -1.1457  0.5869  1.2715
 3012SOL    HW220496   3.601   0.948  14.918  2.1395  4.0849 -0.8834
 3013SOL     OW20497   3.145   2.315   3.080 -0.3770  0.4553 -0.2689
 3013SOL    HW120498   3.099   2.233   3.095  1.0790 -0.3599 -0.2733
 3013SOL    HW220499   3.123   2.371   3.154 -1.1729  0.0481 -0.2032
 3014SOL     OW20500   2.155   3.941   5.394 -0.0259  0.7034 -0.0201
 3014SOL    HW120501   2.093   3.923   5.323 -1.0840  0.4205  0.9719
 3014SOL    HW220502   2.186   4.028   5.368  2.2246 -0.1653 -0.2356
 3015SOL     OW20503   4.439   2.403  12.101 -0.2582  0.1636  0.4588
 3015SOL    HW120504   4.498   2.412  12.026 -2.9548  0.0808 -1.6683
 3015SOL    HW220505   4.451   2.311  12.127  2.8780  0.7056  0.8779
 3016SOL     OW20506   3.655   4.380   2.338  0.3984  0.1399 -0.0533
 3016SOL    HW120507   3.711   4.377   2.260 -1.3025 -1.1792 -1.2333
 3016SOL    HW220508   3.574   4.367   2.289  0.2529 -0.4201  0.3424
 3017SOL     OW20509   3.215   3.708   8.956 -0.4795  0.2789 -0.1995
 3017SOL    HW120510   3.155   3.659   9.012 -0.0118 -1.5919 -1.3303
 3017SOL    HW220511   3.280   3.734   9.021  1.3540  0.9372 -2.2618
 3018SOL     OW20512   3.869   2.325  11.830 -0.4741 -0.2988  0.6252
 3018SOL    HW120513   3.929   2.350  11.760 -2.5611  2.0532 -0.3016
 3018SOL    HW220514   3.895   2.378  11.906 -0.6109  0.1692  0.3413
 3019SOL     OW20515   2.609   0.670   7.593  0.0328 -0.4004 -0.4132
 3019SOL    HW120516   2.553   0.617   7.536 -0.8843 -0.9538  1.0100
 3019SOL    HW220517   2.545   0.701   7.657  0.5990 -1.9020  0.8708
 3020SOL     OW20518   3.547   1.789   7.733 -0.3908  0.0488 -0.3972
 3020SOL    HW120519   3.572   1.817   7.822  1.8854 -2.3565 -0.2860
 3020SOL    HW220520   3.561   1.695   7.739  1.0047  0.3084  0.6877
 3021SOL     OW20521   4.402   2.181   3.768  0.1468 -1.0593  0.0480
 3021SOL    HW120522   4.319   2.165   3.724  0.2742  0.7934 -0.8552
 3021SOL    HW220523   4.418   2.269   3.735 -1.5307 -0.3744  1.0480
 3022SOL     OW20524   0.230   2.502   1.044  0.2555 -0.7463  0.1083
 3022SOL    HW120525   0.151   2.497   0.990  2.3158 -0.4088 -2.9105
 3022SOL    HW220526   0.254   2.591   1.018  0.2323 -0.4297  1.1778
 3023SOL     OW20527   1.946   2.228   6.227  0.1077  0.2633 -0.0750
 3023SOL    HW120528   2.018   2.286   6.252 -0.8542  1.6384 -0.4849
 3023SOL    HW220529   1.980   2.196   6.143 -2.4452 -0.6718 -0.7404
 3024SOL     OW20530   0.570   0.113  12.838  0.4076  0.2714  0.8518
 3024SOL    HW120531   0.523   0.147  12.761  0.3837 -1.2114  0.2049
 3024SOL    HW220532   0.500   0.070  12.886 -0.7731 -1.2607 -2.2009
 3025SOL     OW20533   2.828   2.628   5.833  0.2016  0.0186  0.1501
 3025SOL    HW120534   2.889   2.666   5.897 -0.5975 -0.8095  1.3979
 3025SOL    HW220535   2.877   2.546   5.821 -1.7552 -1.4152  1.9668
 3026SOL     OW20536   4.654   2.866   5.432  0.3803 -0.1090 -0.2829
 3026SOL    HW120537   0.026   2.843   5.428  1.1141  1.9851  4.3097
 3026SOL    HW220538   4.620   2.776   5.425 -0.1980  0.1930 -1.3482
 3027SOL     OW20539   3.330   2.762   5.618 -0.9847  0.5762 -0.3871
 3027SOL    HW120540   3.358   2.675   5.591  1.2901  1.0810  0.3950
 3027SOL    HW220541   3.411   2.800   5.651 -0.5119 -0.8455  0.0607
 3028SOL     OW20542   0.678   2.283   6.794  0.0434 -0.2062 -0.1511
 3028SOL    HW120543   0.771   2.302   6.787  0.0711 -0.1400  0.3518
 3028SOL    HW220544   0.666   2.307   6.886 -1.5818 -2.3597  0.2074
 3029SOL     OW20545   0.568   4.147   5.975 -0.1517  0.1899  0.1435
 3029SOL    HW120546   0.598   4.204   5.905 -0.5569 -0.2496 -0.3888
 3029SOL    HW220547   0.567   4.215   6.042 -1.8997 -0.8786  1.2172
 3030SOL     OW20548   0.540   0.927  16.366 -0.2057  0.0667 -0.4727
 3030SOL    HW120549   0.452   0.952  16.394  0.6954  0.5077  1.9669
 3030SOL    HW220550   0.514   0.870  16.294  0.6291  0.6840 -1.2634
 3031SOL     OW20551   1.639   2.652   1.167 -0.2891 -0.1126  0.0668
 3031SOL    HW120552   1.637   2.569   1.119  0.8415  0.7365 -1.4741
 3031SOL    HW220553   1.630   2.714   1.095 -0.6457  1.6767  1.6670
 3032SOL     OW20554   0.305   0.456   1.491  0.3149  0.0016 -0.6847
 3032SOL    HW120555   0.242   0.466   1.563  1.1751  1.9151 -0.1746
 3032SOL    HW220556   0.258   0.509   1.427  0.6009 -0.9669 -1.6886
 3033SOL     OW20557   2.137   0.829   2.739 -0.0807 -0.7443 -0.1272
 3033SOL    HW120558   2.053   0.857   2.702  0.8306  0.8568 -0.9903
 3033SOL    HW220559   2.195   0.837   2.664 -0.2836 -1.7344 -0.3880
 3034SOL     OW20560   3.385   4.260   4.221 -0.3845 -0.4963  0.0938
 3034SOL    HW120561   3.374   4.342   4.173  1.0044 -1.4602 -1.8404
 3034SOL    HW220562   3.471   4.237   4.188  0.3653  0.2721  1.5060
 3035SOL     OW20563   1.452   3.252   7.958  0.1052 -0.0503  0.4565
 3035SOL    HW120564   1.416   3.227   8.043 -1.2242 -0.0779 -0.1121
 3035SOL    HW220565   1.435   3.346   7.960 -1.3743 -0.3136  0.3174
 3036SOL     OW20566   4.489   3.420   7.913 -0.4391  0.0907 -0.1213
 3036SOL    HW120567   4.514   3.504   7.873  1.5661 -0.5609 -0.2425
 3036SOL    HW220568   4.554   3.416   7.984  1.1389  0.4881 -1.5437
 3037SOL     OW20569   2.962   4.659  12.324 -0.1905  0.1101  0.6237
 3037SOL    HW120570   2.975   4.596  12.395 -1.4021 -2.0713 -1.0569
 3037SOL    HW220571   2.939   0.019  12.370  0.2835  0.4368  0.2840
 3038SOL     OW20572   0.452   1.258  10.038  0.1417 -0.7832  0.3056
 3038SOL    HW120573   0.518   1.258   9.969 -0.8785  0.1642 -0.6805
 3038SOL    HW220574   0.380   1.233   9.980 -1.1527  0.2687  1.4507
 3039SOL     OW20575   3.867   0.263   3.778 -0.1935  0.7943 -0.4408
 3039SOL    HW120576   3.930   0.199   3.747 -1.5539  0.8635 -3.3617
 3039SOL    HW220577   3.799   0.210   3.820 -0.1720  0.0888 -1.2955
 3040SOL     OW20578   2.817   4.244   3.608 -0.4044  0.3064  0.0593
 3040SOL    HW120579   2.888   4.297   3.572  0.7364 -1.0968  0.2292
 3040SOL    HW220580   2.848   4.156   3.586  1.3150  0.1993  2.9395
 3041SOL     OW20581   2.396   1.354   4.566 -0.1063 -0.5156 -0.3191
 3041SOL    HW120582   2.457   1.337   4.638 -0.9021 -0.4736  0.3528
 3041SOL    HW220583   2.319   1.386   4.612  0.1242 -0.1592 -0.1827
 3042SOL     OW20584   1.950   3.224   2.872  0.4649 -0.8463 -0.2142
 3042SOL    HW120585   2.033   3.177   2.868  0.6808 -0.3116 -1.9028
 3042SOL    HW220586   1.944   3.228   2.968  0.3386  0.0509 -0.2605
 3043SOL     OW20587   0.638   1.182   4.200 -0.1434  0.1593 -0.0851
 3043SOL    HW120588   0.601   1.256   4.152 -0.0401 -0.7949 -1.6089
 3043SOL    HW220589   0.624   1.200   4.293 -0.1349 -0.1344 -0.0280
 3044SOL     OW20590   2.044   1.007   3.170  0.2379 -0.3197 -0.4415
 3044SOL    HW120591   2.095   1.044   3.098  1.3531 -1.8877 -0.4454
 3044SOL    HW220592   1.983   0.940   3.141  0.2584  0.4722 -2.3132
 3045SOL     OW20593   2.397   1.028   7.514  0.5458 -0.0569  0.5554
 3045SOL    HW120594   2.425   1.115   7.485 -2.0313  1.2587  1.9788
 3045SOL    HW220595   2.476   0.978   7.534  0.4485 -0.8103 -0.9445
 3046SOL     OW20596   3.530   1.823  12.999 -0.5563  0.2114 -0.2551
 3046SOL    HW120597   3.519   1.813  13.094  1.2396 -0.5619 -0.1202
 3046SOL    HW220598   3.442   1.803  12.968 -0.5211 -0.1021 -0.1577
 3047SOL     OW20599   1.209   2.408  15.952 -0.0603 -0.4110  0.1603
 3047SOL    HW120600   1.117   2.421  15.929 -0.6231 -2.1069  1.4865
 3047SOL    HW220601   1.253   2.475  15.900 -1.5011 -0.2396 -0.8416
 3048SOL     OW20602   0.032   3.327  15.873  0.0085 -0.0668  0.0926
 3048SOL    HW120603   4.668   3.329  15.829  0.0550 -0.4967 -0.0176
 3048SOL    HW220604   0.065   3.412  15.843  1.9482 -1.8730 -2.8826
 3049SOL     OW20605   4.697   0.788   1.141 -0.2140 -0.4857 -0.7960
 3049SOL    HW120606   4.686   0.797   1.236 -0.5763 -0.8888 -0.7943
 3049SOL    HW220607   0.058   0.836   1.133 -0.4549  0.4155  2.2840
 3050SOL     OW20608   1.394   3.905   4.155 -0.1753  0.1942 -0.6998
 3050SOL    HW120609   1.301   3.887   4.168 -0.1380 -0.2405 -1.0263
 3050SOL    HW220610   1.416   3.967   4.225  3.1373 -0.6511 -1.0107
 3051SOL     OW20611   2.633   0.552  10.241 -0.1452  0.1838 -0.4917
 3051SOL    HW120612   2.708   0.611  10.247  0.4103 -0.3466 -2.1934
 3051SOL    HW220613   2.665   0.489  10.306  2.5873  0.8388 -1.1793
 3052SOL     OW20614   1.915   3.831   2.769 -0.3301 -0.4404 -0.9420
 3052SOL    HW120615   1.879   3.904   2.820 -0.0558 -0.7793 -0.2665
 3052SOL    HW220616   1.999   3.855   2.731  0.0323 -1.3755 -0.7459
 3053SOL     OW20617   2.800   0.537   9.713 -0.1514 -0.1786 -0.0209
 3053SOL    HW120618   2.811   0.629   9.735 -2.1165  0.0025  0.2275
 3053SOL    HW220619   2.801   0.501   9.802 -4.0053  1.3752  0.6664
 3054SOL     OW20620   0.664   3.043   4.521 -0.0518 -0.3398 -0.7329
 3054SOL    HW120621   0.703   3.071   4.439  0.3796  1.4844  0.0974
 3054SOL    HW220622   0.713   2.964   4.546 -1.3094 -1.1156 -0.6775
 3055SOL     OW20623   2.036   3.350  10.721 -0.1798 -0.2307 -0.0581
 3055SOL    HW120624   2.041   3.416  10.791 -0.5693 -1.7502  1.3936
 3055SOL    HW220625   2.079   3.404  10.655 -2.4165  1.5000 -0.1073
 3056SOL     OW20626   0.755   3.296  17.596  0.4038  0.5407  0.4830
 3056SOL    HW120627   0.761   3.208  17.558  0.9625  0.1825  1.4038
 3056SOL    HW220628   0.845   3.317  17.570 -0.0749 -1.5446 -2.8806
 3057SOL     OW20629   1.282   0.321   1.854 -0.3118 -0.1266  0.0612
 3057SOL    HW120630   1.298   0.296   1.945  1.0235 -2.9299 -0.9405
 3057SOL    HW220631   1.245   0.238   1.824 -0.7302  0.6000 -1.4117
 3058SOL     OW20632   4.214   0.063  12.526  0.1507  0.0239 -0.2834
 3058SOL    HW120633   4.303   0.048  12.559 -0.7257  2.1960  3.0690
 3058SOL    HW220634   4.206   0.157  12.541 -0.8505  0.0591 -1.0221
 3059SOL     OW20635   1.200   2.699   7.907  0.5255 -0.8299  0.4141
 3059SOL    HW120636   1.133   2.674   7.844  0.5869 -1.2725  0.5261
 3059SOL    HW220637   1.261   2.741   7.846  0.3350 -1.7014 -0.3708
 3060SOL     OW20638   1.545   0.399  15.505 -0.5219 -0.2170  0.4707
 3060SOL    HW120639   1.475   0.336  15.522 -0.0758 -0.9592 -0.3890
 3060SOL    HW220640   1.571   0.424  15.594  0.1485  2.0633 -0.3775
 3061SOL     OW20641   3.852   0.783  10.425 -0.0216  0.3302 -0.7683
 3061SOL    HW120642   3.826   0.694  10.403  1.9608 -1.2800  3.2726
 3061SOL    HW220643   3.864   0.826  10.340  0.4081  2.4293  0.3351
 3062SOL     OW20644   4.156   4.263   3.135 -0.7685 -0.5279  0.3789
 3062SOL    HW120645   4.115   4.254   3.049 -1.2205  1.0378  0.4257
 3062SOL    HW220646   4.112   4.204   3.196 -0.6697 -2.4003 -1.3672
 3063SOL     OW20647   3.702   3.352   3.154  0.1344  0.3377  0.2202
 3063SOL    HW120648   3.645   3.425   3.130 -1.7635 -1.3571 -0.4335
 3063SOL    HW220649   3.778   3.366   3.099  0.4309 -0.7706  0.3585
 3064SOL     OW20650   1.283   3.463   8.298  0.7084  0.2012 -0.0966
 3064SOL    HW120651   1.236   3.448   8.216  0.7747 -1.1676  0.1085
 3064SOL    HW220652   1.289   3.380   8.346  0.1016 -0.6136 -1.4370
 3065SOL     OW20653   3.669   3.313   5.352 -0.3507 -1.0108  0.4286
 3065SOL    HW120654   3.585   3.273   5.375 -1.5246  0.9465 -0.4551
 3065SOL    HW220655   3.728   3.239   5.339 -1.1913 -1.5682 -0.1647
 3066SOL     OW20656   0.483   0.330   5.775 -0.5321  0.1873  0.9113
 3066SOL    HW120657   0.468   0.244   5.814 -2.9697  0.7154  1.1470
 3066SOL    HW220658   0.408   0.376   5.812  0.6277  1.8156  1.1978
 3067SOL     OW20659   1.972   0.046  16.809 -0.3851 -0.6887 -0.0334
 3067SOL    HW120660   1.923   0.124  16.783 -0.1829 -0.0028  1.6339
 3067SOL    HW220661   1.905   0.001  16.860  1.8200 -1.3750  2.2498
 3068SOL     OW20662   3.361   3.404  17.344 -0.2292 -0.2345 -0.1400
 3068SOL    HW120663   3.336   3.342  17.413  0.7653 -0.6765 -0.1776
 3068SOL    HW220664   3.274   3.418  17.305 -0.3140  0.2347  0.2203
 3069SOL     OW20665   2.241   3.237   2.233 -0.4597 -0.1530 -0.1911
 3069SOL    HW120666   2.230   3.190   2.315 -1.0695  2.2742  1.1338
 3069SOL    HW220667   2.156   3.281   2.226 -0.5736 -0.1674  1.0269
 3070SOL     OW20668   3.272   1.182   6.618 -0.4380 -0.1313 -0.4922
 3070SOL    HW120669   3.306   1.101   6.657 -3.6007 -0.6311  1.2493
 3070SOL    HW220670   3.241   1.237   6.691  1.3053  0.6687 -0.3503
 3071SOL     OW20671   3.458   4.627   9.813 -0.1616  0.3279 -0.0642
 3071SOL    HW120672   3.404   4.676   9.751  1.4607  1.4963 -0.5565
 3071SOL    HW220673   3.389   4.563   9.831 -1.2783  0.5843 -3.4141
 3072SOL     OW20674   1.938   1.500   2.722  0.0402  0.0518  0.1320
 3072SOL    HW120675   1.870   1.554   2.762 -0.0399  0.1890 -0.1834
 3072SOL    HW220676   1.874   1.455   2.667  2.1230 -0.9571 -1.4932
 3073SOL     OW20677   3.523   3.732   6.157 -0.1163 -0.0725  0.2745
 3073SOL    HW120678   3.520   3.665   6.089 -0.5080 -0.6081  0.8306
 3073SOL    HW220679   3.445   3.706   6.205  0.0439 -1.3109 -0.1508
 3074SOL     OW20680   0.213   1.087   6.637  0.7021  0.1186 -0.1618
 3074SOL    HW120681   0.132   1.061   6.682  0.4469 -3.2817 -2.5819
 3074SOL    HW220682   0.219   1.180   6.659  0.7994  0.3010 -0.9667
 3075SOL     OW20683   0.309   1.097   6.297 -0.8772  0.4592  0.6804
 3075SOL    HW120684   0.373   1.030   6.273 -1.2848  1.4179 -3.1801
 3075SOL    HW220685   0.361   1.172   6.327 -1.6175  1.0202  0.5484
 3076SOL     OW20686   3.471   0.509   8.262  0.2970 -0.4938 -0.0257
 3076SOL    HW120687   3.524   0.435   8.293  0.5957 -0.6380 -0.8903
 3076SOL    HW220688   3.473   0.546   8.350  1.7748  1.0192 -0.7183
 3077SOL     OW20689   0.472   2.952  15.258 -0.1361  0.0284  0.1746
 3077SOL    HW120690   0.474   3.006  15.179 -0.7455  1.5752  1.2271
 3077SOL    HW220691   0.390   2.903  15.251 -0.5146  0.2431  3.1040
 3078SOL     OW20692   3.105   3.086   5.665  0.7558 -0.0629 -0.7462
 3078SOL    HW120693   3.092   2.992   5.660  0.2909  0.1247 -2.7470
 3078SOL    HW220694   3.038   3.104   5.600 -0.6285 -2.2537  0.0783
 3079SOL     OW20695   1.878   3.094   9.347  0.5280  0.3684  0.1081
 3079SOL    HW120696   1.909   3.121   9.433  0.0747 -0.3924  0.5179
 3079SOL    HW220697   1.828   3.020   9.383 -1.5545  1.1818 -1.1217
 3080SOL     OW20698   1.642   4.579  11.644 -0.6449  0.4867 -0.2862
 3080SOL    HW120699   1.614   4.655  11.593  1.3961 -0.3558 -2.6583
 3080SOL    HW220700   1.601   4.602  11.727  1.5228  0.7990  0.7032
 3081SOL     OW20701   3.930   3.612   4.520  0.2406 -0.2042 -0.0636
 3081SOL    HW120702   3.867   3.631   4.589  1.3247 -1.6127  1.2913
 3081SOL    HW220703   3.880   3.546   4.472  0.3660 -0.2138 -0.1791
 3082SOL     OW20704   4.289   0.566   8.824  0.4962 -0.8471  0.1012
 3082SOL    HW120705   4.194   0.579   8.827  0.8870  1.8987  0.3410
 3082SOL    HW220706   4.298   0.474   8.850  0.9814 -0.5338  1.0470
 3083SOL     OW20707   1.752   0.269  12.846 -0.0618  0.4552  0.4164
 3083SOL    HW120708   1.683   0.202  12.842 -0.1208  0.4219  1.9902
 3083SOL    HW220709   1.720   0.335  12.785 -0.7158 -0.5047 -0.2761
 3084SOL     OW20710   0.355   2.473   1.971 -0.1670  0.0484  0.3501
 3084SOL    HW120711   0.281   2.511   1.924  0.8719  1.7064  0.0648
 3084SOL    HW220712   0.395   2.416   1.905  0.4793  1.0582 -0.1220
 3085SOL     OW20713   1.677   0.569   5.602 -0.8651  0.1578  0.7416
 3085SOL    HW120714   1.747   0.514   5.637 -0.7252 -1.3222 -1.8891
 3085SOL    HW220715   1.675   0.636   5.671 -2.9150  0.0533  0.7864
 3086SOL     OW20716   0.541   4.702   7.694  0.4577 -0.1559 -0.4638
 3086SOL    HW120717   0.451   4.690   7.725  0.7596  0.5853  0.6784
 3086SOL    HW220718   0.561   4.637   7.627 -0.3789  0.7603 -1.6002
 3087SOL     OW20719   4.639   3.434   4.006  0.7675  0.2006  0.7677
 3087SOL    HW120720   4.603   3.522   3.999 -0.4068 -0.2020  1.6079
 3087SOL    HW220721   4.689   3.417   3.926 -2.7967 -1.0923 -1.2155
 3088SOL     OW20722   4.145   0.538   7.788  0.3280 -0.2714  0.6624
 3088SOL    HW120723   4.215   0.517   7.850  0.8021 -1.4130 -0.2536
 3088SOL    HW220724   4.075   0.554   7.851  1.6458 -1.0506  2.3239
 3089SOL     OW20725   3.778   2.188   4.852  0.3833  0.3042  0.1458
 3089SOL    HW120726   3.737   2.234   4.778 -0.6458 -2.1764 -0.8177
 3089SOL    HW220727   3.723   2.110   4.858  0.8708  0.0686  1.5791
 3090SOL     OW20728   2.558   4.315   7.025  0.2718  0.0347 -0.0600
 3090SOL    HW120729   2.637   4.285   6.980  0.4651 -1.0824  1.0224
 3090SOL    HW220730   2.505   4.328   6.947 -0.9360  0.5429  0.8553
 3091SOL     OW20731   3.324   0.469   6.285  0.1868 -0.0523  0.2346
 3091SOL    HW120732   3.401   0.461   6.229  1.0129 -1.7806  1.6249
 3091SOL    HW220733   3.284   0.383   6.273  1.1155 -0.6730  1.6296
 3092SOL     OW20734   1.672   4.606   8.605  0.3184  0.3030  0.2707
 3092SOL    HW120735   1.747   4.665   8.603  0.8919 -0.3332  2.9081
 3092SOL    HW220736   1.651   4.612   8.698  1.1204 -0.3676  0.4950
 3093SOL     OW20737   1.201   4.680   6.371  0.7297 -0.3914 -0.2581
 3093SOL    HW120738   1.165   4.646   6.289  1.4780 -0.6472 -0.4762
 3093SOL    HW220739   1.116   4.703   6.410  0.6553  2.1456 -1.8799
 3094SOL     OW20740   1.387   1.036  17.434  0.2630 -0.1628  0.1704
 3094SOL    HW120741   1.477   1.068  17.439  0.6765 -1.3912  0.5372
 3094SOL    HW220742   1.335   1.101  17.481 -0.1717  0.3293 -0.9734
 3095SOL     OW20743   3.662   3.477   4.878  0.2796 -0.4889  0.2290
 3095SOL    HW120744   3.733   3.523   4.831 -1.0627 -0.5057 -1.8106
 3095SOL    HW220745   3.683   3.497   4.969  2.0684 -2.6335  0.2742
 3096SOL     OW20746   3.442   3.501  10.116 -0.0674 -0.1809  0.1073
 3096SOL    HW120747   3.443   3.477  10.023 -0.8988 -1.2568  0.3792
 3096SOL    HW220748   3.381   3.576  10.113 -0.8022 -0.8979 -2.5280
 3097SOL     OW20749   0.419   3.986  11.229 -0.0044 -1.0469 -0.0293
 3097SOL    HW120750   0.323   3.990  11.229 -0.0162 -1.3889  0.9670
 3097SOL    HW220751   0.424   3.901  11.186  2.7340 -1.0137  0.2796
 3098SOL     OW20752   3.047   3.534  10.932 -0.0498 -0.3213 -0.5413
 3098SOL    HW120753   2.957   3.550  10.903 -0.6562 -1.8048  0.5485
 3098SOL    HW220754   3.091   3.573  10.856 -1.7745 -1.3206 -2.0387
 3099SOL     OW20755   0.310   0.599  12.196  0.2229  0.2817 -0.6852
 3099SOL    HW120756   0.351   0.681  12.170  1.3893 -0.1765 -0.2781
 3099SOL    HW220757   0.228   0.612  12.148 -0.4807  0.4165  0.5777
 3100SOL     OW20758   2.348   0.184  14.157 -0.1488 -0.3801  0.3282
 3100SOL    HW120759   2.277   0.125  14.133  2.2504 -3.0999  0.0487
 3100SOL    HW220760   2.359   0.253  14.092 -1.9094 -0.8989 -0.5053
 3101SOL     OW20761   2.103   4.602   5.223 -0.6184 -0.1906 -0.3101
 3101SOL    HW120762   2.087   4.583   5.131 -2.7777  0.6865 -0.1228
 3101SOL    HW220763   2.017   4.580   5.259 -0.3149  2.0459  1.7667
 3102SOL     OW20764   1.475   0.339   3.009  0.4615 -0.6697 -0.3631
 3102SOL    HW120765   1.396   0.386   2.980 -0.0807 -2.6546 -2.1849
 3102SOL    HW220766   1.517   0.405   3.063  1.9756 -2.1832  0.2808
 3103SOL     OW20767   2.065   4.124   9.261  0.4350  0.2769 -0.2909
 3103SOL    HW120768   1.974   4.129   9.292  1.4188 -0.4767  2.6972
 3103SOL    HW220769   2.062   4.141   9.167 -2.0902  3.3494  0.3379
 3104SOL     OW20770   1.688   2.696   0.699 -0.3376 -0.1528 -0.7186
 3104SOL    HW120771   1.718   2.645   0.624  0.7033  0.4307 -0.7062
 3104SOL    HW220772   1.734   2.655   0.773  0.5323  0.9845 -0.6282
 3105SOL     OW20773   3.576   0.481   4.206  0.3046 -0.5366 -0.2957
 3105SOL    HW120774   3.660   0.447   4.175  1.1102 -0.8153  2.1412
 3105SOL    HW220775   3.585   0.447   4.295  1.4587  0.3107 -0.0876
 3106SOL     OW20776   2.334   3.512   4.556  0.1768 -0.0115  0.1461
 3106SOL    HW120777   2.426   3.492   4.572 -0.2666 -0.2940  2.2834
 3106SOL    HW220778   2.309   3.527   4.647  1.9204  0.5425  0.5394
 3107SOL     OW20779   0.658   2.751  10.906 -0.3335 -0.2479 -0.2515
 3107SOL    HW120780   0.747   2.727  10.880  0.0137  0.7615 -0.0289
 3107SOL    HW220781   0.610   2.669  10.897 -0.3557  0.2799 -4.9980
 3108SOL     OW20782   0.437   0.347   8.689  0.3301  0.4964  0.4719
 3108SOL    HW120783   0.498   0.370   8.620  1.6505 -0.8728  1.1821
 3108SOL    HW220784   0.456   0.255   8.710  1.3977  0.1366 -2.1578
 3109SOL     OW20785   0.267   4.637   7.724 -0.5010 -0.5925  0.1785
 3109SOL    HW120786   0.234   4.625   7.635 -0.4771 -2.2246  0.3812
 3109SOL    HW220787   0.260   4.552   7.768 -2.8338  0.1581  1.2626
 3110SOL     OW20788   0.802   1.169   6.316 -0.0165  0.5936  0.3653
 3110SOL    HW120789   0.824   1.237   6.380  0.7625  0.6099  0.0816
 3110SOL    HW220790   0.884   1.168   6.266  1.2928  1.6346  2.4595
 3111SOL     OW20791   4.050   1.001   6.473  0.1642  0.4864  0.5152
 3111SOL    HW120792   4.023   1.043   6.554 -1.0084  0.0005  0.3772
 3111SOL    HW220793   4.046   0.910   6.500  1.5458  0.0504 -0.7336
 3112SOL     OW20794   1.165   1.127   8.462 -0.0846  0.3273 -0.3498
 3112SOL    HW120795   1.147   1.135   8.368 -0.3996 -1.5566 -0.4453
 3112SOL    HW220796   1.259   1.107   8.456  0.1892  1.5082 -0.0177
 3113SOL     OW20797   0.570   2.995  11.015 -0.3450  0.0818 -0.0792
 3113SOL    HW120798   0.617   2.920  10.977  2.2281  2.1938 -1.0369
 3113SOL    HW220799   0.495   2.958  11.062 -0.8460  0.9430 -0.2072
 3114SOL     OW20800   2.448   3.514   2.867 -0.3353  0.3650  0.3194
 3114SOL    HW120801   2.527   3.534   2.817 -3.1073  1.2722 -3.6892
 3114SOL    HW220802   2.399   3.457   2.808  3.0700 -0.0575 -2.0669
 3115SOL     OW20803   2.454   0.378   8.509  0.0119  0.1294 -0.1260
 3115SOL    HW120804   2.489   0.334   8.431  1.4340  1.6805 -0.3540
 3115SOL    HW220805   2.535   0.418   8.540  0.2989 -1.5798  1.2933
 3116SOL     OW20806   3.544   4.158   3.312 -0.0598 -1.2929 -0.4105
 3116SOL    HW120807   3.456   4.172   3.348  0.9741 -0.1357  1.6968
 3116SOL    HW220808   3.524   4.145   3.220 -0.9773  2.0444 -0.6679
 3117SOL     OW20809   4.273   2.294   7.566 -0.1608 -0.2493  0.5276
 3117SOL    HW120810   4.279   2.311   7.660  1.2105  2.9065 -0.1010
 3117SOL    HW220811   4.349   2.238   7.552 -0.9306 -1.4421  1.1955
 3118SOL     OW20812   2.967   0.362   5.407  0.0429 -0.3590  0.2491
 3118SOL    HW120813   3.054   0.397   5.390 -0.0025 -0.2478  0.2437
 3118SOL    HW220814   2.910   0.420   5.357  0.7623  1.6632  1.8253
 3119SOL     OW20815   2.080   2.814   5.109 -0.6676 -0.2179  0.2592
 3119SOL    HW120816   1.996   2.849   5.080 -1.1767 -0.4236  1.4730
 3119SOL    HW220817   2.129   2.808   5.027 -0.8432  0.9275  0.0809
 3120SOL     OW20818   4.394   1.001   2.738  0.5046 -0.0479 -0.0359
 3120SOL    HW120819   4.386   0.936   2.669  2.8683 -0.4776  0.1180
 3120SOL    HW220820   4.323   1.062   2.716 -0.0334  0.0808  2.0193
 3121SOL     OW20821   0.136   4.321   3.232  0.2676  0.2031  0.0667
 3121SOL    HW120822   0.133   4.256   3.162 -0.0108 -0.1746  0.4273
 3121SOL    HW220823   0.196   4.378   3.185  1.3614 -1.3529 -0.4333
 3122SOL     OW20824   3.754   0.379   1.714 -0.5071 -0.2255  0.6831
 3122SOL    HW120825   3.663   0.380   1.684 -0.8410  2.3839  1.7709
 3122SOL    HW220826   3.756   0.284   1.726 -0.8493 -0.5549 -1.8525
 3123SOL     OW20827   2.190   2.991   6.369 -0.1778 -0.7524 -0.0209
 3123SOL    HW120828   2.267   3.048   6.368 -1.2993  0.7758  0.2855
 3123SOL    HW220829   2.224   2.923   6.426  1.5804 -0.6927 -1.0029
 3124SOL     OW20830   2.453   3.394   1.171  0.2227 -0.3356 -0.1409
 3124SOL    HW120831   2.409   3.451   1.107 -0.6998 -0.5283  0.3157
 3124SOL    HW220832   2.388   3.387   1.242 -1.8222 -0.8471 -2.0617
 3125SOL     OW20833   4.197   0.493   4.385  0.2033 -0.4525  0.4343
 3125SOL    HW120834   4.119   0.437   4.389  0.2784 -0.5872  0.0255
 3125SOL    HW220835   4.157   0.572   4.350  0.6708  0.3924  1.8112
 3126SOL     OW20836   4.667   2.872   2.304 -0.6543  0.1905 -0.2486
 3126SOL    HW120837   0.009   2.808   2.338 -0.9884 -0.0471 -0.0860
 3126SOL    HW220838   4.704   2.863   2.216  0.3959 -0.8370  0.2911
 3127SOL     OW20839   4.403   0.905   1.313 -0.1622  0.5020  0.2132
 3127SOL    HW120840   4.479   0.870   1.358  0.1475  0.1727 -0.5646
 3127SOL    HW220841   4.397   0.839   1.243  2.0152  0.4995  0.0559
 3128SOL     OW20842   2.046   0.392   1.736 -0.2139  0.0843 -0.4916
 3128SOL    HW120843   2.112   0.378   1.667 -0.7219  1.5932 -1.3022
 3128SOL    HW220844   1.981   0.325   1.715  0.1559 -0.5545  0.4381
 3129SOL     OW20845   4.419   4.160   7.080  0.5314 -0.0971 -0.0024
 3129SOL    HW120846   4.390   4.086   7.027 -0.7590  0.3227  0.1206
 3129SOL    HW220847   4.398   4.122   7.166  0.1612  1.1909  0.4754
 3130SOL     OW20848   2.437   2.233   8.094  0.1025  0.3005  0.0009
 3130SOL    HW120849   2.520   2.265   8.058  0.0327  0.5981  0.1048
 3130SOL    HW220850   2.413   2.161   8.035  1.1746  0.1632 -0.2662
 3131SOL     OW20851   4.462   4.136   8.069 -0.0762  0.6111 -0.7112
 3131SOL    HW120852   4.473   4.229   8.049 -1.8298  1.3489  1.7724
 3131SOL    HW220853   4.495   4.143   8.158 -1.8379 -0.2837  0.0111
 3132SOL     OW20854   1.607   2.323   2.514  0.1161 -0.4119 -0.4601
 3132SOL    HW120855   1.646   2.297   2.431 -0.9935  0.1131 -1.1503
 3132SOL    HW220856   1.677   2.381   2.542  0.6144 -2.1530  1.9325
 3133SOL     OW20857   0.391   0.606   7.956  0.2829 -0.4104  0.7305
 3133SOL    HW120858   0.427   0.526   7.917  0.6686  0.0636  0.1094
 3133SOL    HW220859   0.297   0.589   7.959  0.1822 -0.1482 -0.8457
 3134SOL     OW20860   4.720   1.477  14.646 -0.4307  0.1306 -0.4849
 3134SOL    HW120861   0.027   1.392  14.612  1.6359  0.7450 -0.3632
 3134SOL    HW220862   4.714   1.461  14.740  1.0809  1.4622 -0.1722
 3135SOL     OW20863   2.392   1.536   9.806 -0.1475  0.1563  0.0835
 3135SOL    HW120864   2.311   1.567   9.766 -1.2124 -1.1252  1.2328
 3135SOL    HW220865   2.364   1.547   9.896  1.0298 -0.7310  0.5649
 3136SOL     OW20866   2.135   0.738   8.842 -0.2047 -0.1214 -0.3013
 3136SOL    HW120867   2.085   0.678   8.787 -0.1292 -1.6226  1.2793
 3136SOL    HW220868   2.206   0.773   8.787  0.1240  1.7379  1.2964
 3137SOL     OW20869   2.995   0.612   6.124 -0.5421 -0.5379 -0.4803
 3137SOL    HW120870   3.005   0.676   6.194  0.8303 -1.6844  0.3889
 3137SOL    HW220871   2.929   0.651   6.067 -0.5550  1.3937  0.8596
 3138SOL     OW20872   4.119   4.256  11.265 -0.5398 -0.2032 -0.0483
 3138SOL    HW120873   4.024   4.251  11.257 -0.7292  2.5124  0.4578
 3138SOL    HW220874   4.143   4.236  11.174 -0.5271  1.0234 -0.3120
 3139SOL     OW20875   2.080   2.605   2.369 -0.2651  0.4073 -0.3328
 3139SOL    HW120876   2.097   2.576   2.279 -1.6778 -0.0829 -0.4357
 3139SOL    HW220877   2.056   2.697   2.368  3.0182  1.2996  0.8623
 3140SOL     OW20878   4.600   0.912   5.704 -0.4382  0.0155 -0.0658
 3140SOL    HW120879   4.606   0.820   5.730  0.0468 -0.1453 -0.7277
 3140SOL    HW220880   4.638   0.908   5.616  1.3471  4.8418  0.4581
 3141SOL     OW20881   0.371   3.728   4.414 -0.0327 -0.0903 -0.0881
 3141SOL    HW120882   0.288   3.681   4.416  1.5657 -2.9133 -2.0458
 3141SOL    HW220883   0.342   3.820   4.413  1.8248  0.4844 -1.5144
 3142SOL     OW20884   3.729   0.681   1.592 -0.5530 -0.2282 -0.2453
 3142SOL    HW120885   3.793   0.611   1.581  0.1488 -0.0564  2.6757
 3142SOL    HW220886   3.787   0.755   1.612  1.6448 -1.1039 -3.4075
 3143SOL     OW20887   0.105   0.947   0.155 -0.0204 -0.0711 -0.2735
 3143SOL    HW120888   0.025   0.940   0.208 -0.8241 -1.7565 -1.7276
 3143SOL    HW220889   0.097   1.035   0.118  2.4287  1.2383  2.3188
 3144SOL     OW20890   4.421   2.621  14.521 -0.6270 -0.0470  0.3916
 3144SOL    HW120891   4.485   2.567  14.567  0.5312 -0.9458 -2.2112
 3144SOL    HW220892   4.339   2.590  14.559 -0.2838 -1.4282  0.0381
 3145SOL     OW20893   1.210   0.095   8.837  0.8072  0.0347  0.3312
 3145SOL    HW120894   1.179   0.005   8.842 -0.6743  0.4705 -1.4078
 3145SOL    HW220895   1.144   0.141   8.786  1.7253  3.0336  1.7976
 3146SOL     OW20896   0.027   0.089   7.435 -0.2244  0.7254  0.5533
 3146SOL    HW120897   4.714   0.055   7.352  1.5130 -0.3630  0.3102
 3146SOL    HW220898   4.669   0.064   7.484 -0.4526 -2.3513 -1.3775
 3147SOL     OW20899   2.780   4.114  10.720 -0.6169  0.2195 -0.6757
 3147SOL    HW120900   2.747   4.078  10.637 -0.3232  0.2779 -0.8146
 3147SOL    HW220901   2.839   4.040  10.733  0.2066  0.8255 -0.9803
 3148SOL     OW20902   2.882   0.888   5.660 -0.0561 -0.1779 -0.2369
 3148SOL    HW120903   2.920   0.800   5.657  0.8734  0.2070  0.1822
 3148SOL    HW220904   2.926   0.930   5.734  0.7451  0.2901 -0.9746
 3149SOL     OW20905   0.052   3.326   4.480 -0.6927  0.0551  0.4371
 3149SOL    HW120906   0.138   3.309   4.518 -1.3560  2.0801  2.8372
 3149SOL    HW220907   0.071   3.331   4.386  1.4851  0.9020  0.9370
 3150SOL     OW20908   2.474   1.296   7.430 -0.2918  0.4366  0.0177
 3150SOL    HW120909   2.502   1.364   7.369  1.8908 -0.5594 -0.0965
 3150SOL    HW220910   2.541   1.313   7.497 -0.4798 -0.0527  0.3312
 3151SOL     OW20911   0.891   4.640  11.412  0.4095  0.4388 -0.0164
 3151SOL    HW120912   0.807   4.632  11.367 -0.7236 -0.9074  2.2823
 3151SOL    HW220913   0.953   4.588  11.361  1.3468  0.4412  1.1179
 3152SOL     OW20914   3.643   3.455   7.953 -0.5518  0.0551  0.8472
 3152SOL    HW120915   3.593   3.441   8.034  0.0685 -0.5462  1.1296
 3152SOL    HW220916   3.595   3.396   7.896 -2.4183  1.6433  0.8093
 3153SOL     OW20917   1.588   3.904  12.276 -0.1812  0.1245  0.0981
 3153SOL    HW120918   1.642   3.967  12.323  0.3526 -0.7501  0.6383
 3153SOL    HW220919   1.596   3.829  12.335  3.0906  2.0421  2.0472
 3154SOL     OW20920   2.061   2.738   8.824 -0.1333 -0.0386  0.4081
 3154SOL    HW120921   1.968   2.720   8.840 -0.9983  2.7412 -1.6140
 3154SOL    HW220922   2.070   2.693   8.740 -0.7409  1.9294 -0.7014
 3155SOL     OW20923   0.972   1.414  16.301 -0.2942  0.7373  0.3302
 3155SOL    HW120924   1.061   1.443  16.321 -0.2423  1.1378 -0.4537
 3155SOL    HW220925   0.986   1.350  16.232 -2.5610 -1.1486  1.6160
 3156SOL     OW20926   0.839   0.134  12.913  0.4239 -0.1408 -0.0924
 3156SOL    HW120927   0.863   0.050  12.952 -0.3034  0.9265  2.6311
 3156SOL    HW220928   0.745   0.132  12.897  0.5495  0.9341 -0.9926
 3157SOL     OW20929   2.161   1.348   3.749 -0.0774 -0.4768  0.5487
 3157SOL    HW120930   2.104   1.308   3.815 -0.9596 -0.1460 -0.0262
 3157SOL    HW220931   2.117   1.430   3.728  0.2512 -0.6955 -0.9839
 3158SOL     OW20932   3.530   1.160  13.734  0.2658  0.2975 -0.1888
 3158SOL    HW120933   3.463   1.209  13.687 -1.8410 -1.2831  1.1788
 3158SOL    HW220934   3.478   1.089  13.772  1.4511 -0.8985 -0.7926
 3159SOL     OW20935   4.266   3.112  15.292 -0.5752  0.4912  0.2304
 3159SOL    HW120936   4.273   3.033  15.238 -2.6561  1.9469 -2.1906
 3159SOL    HW220937   4.207   3.166  15.239  0.4670 -1.3990 -2.8840
 3160SOL     OW20938   2.719   2.370  16.082  0.1797 -0.0133 -0.3995
 3160SOL    HW120939   2.755   2.399  16.166  2.4540 -1.7560 -0.7675
 3160SOL    HW220940   2.747   2.440  16.023 -0.6869 -0.2934 -1.1378
 3161SOL     OW20941   4.718   4.377  16.231 -0.5404 -0.2389  0.3656
 3161SOL    HW120942   4.666   4.297  16.223  0.2521 -0.7140 -0.0390
 3161SOL    HW220943   0.082   4.335  16.245 -1.1808 -1.4634  0.5506
 3162SOL     OW20944   2.571   2.805  14.564 -0.2959  0.6918 -0.0856
 3162SOL    HW120945   2.520   2.832  14.640 -2.0004  3.9163 -2.3374
 3162SOL    HW220946   2.559   2.880  14.505  1.7209  0.8162 -0.3213
 3163SOL     OW20947   3.163   4.680  15.378 -0.1779  0.5198 -0.2940
 3163SOL    HW120948   3.158   4.630  15.460 -1.7883  0.2962 -0.5381
 3163SOL    HW220949   3.082   4.670  15.328 -0.8760 -1.9659  1.3521
 3164SOL     OW20950   1.986   1.907   6.346 -0.6927 -0.1316  0.1655
 3164SOL    HW120951   2.044   1.964   6.396  1.7600 -0.9986 -1.7262
 3164SOL    HW220952   1.964   1.842   6.412  2.3879  0.4121  1.7307
 3165SOL     OW20953   3.959   0.583   2.122  0.2491 -0.6016  0.5704
 3165SOL    HW120954   3.957   0.534   2.039 -1.4970  1.7874 -0.7883
 3165SOL    HW220955   3.886   0.642   2.104  0.0174 -1.2527 -0.6707
 3166SOL     OW20956   1.479   4.264  15.342 -0.3308 -0.1725  0.1574
 3166SOL    HW120957   1.424   4.291  15.416  1.2464  2.3832  0.4080
 3166SOL    HW220958   1.437   4.188  15.302 -0.7000 -1.2712  2.6031
 3167SOL     OW20959   1.824   4.379   9.301 -0.6477  0.8003  0.3526
 3167SOL    HW120960   1.891   4.390   9.233 -0.5514 -1.8625  0.0318
 3167SOL    HW220961   1.819   4.284   9.296  2.3261  0.5700  1.7241
 3168SOL     OW20962   1.616   4.391   0.800  0.2653  0.2054 -0.0986
 3168SOL    HW120963   1.597   4.469   0.853 -1.4205  0.0624 -0.5068
 3168SOL    HW220964   1.565   4.402   0.721 -0.3537  0.8301  0.3919
 3169SOL     OW20965   0.683   3.813   3.796 -0.1775  0.0864 -0.4566
 3169SOL    HW120966   0.651   3.738   3.846  1.0952  1.1199  1.9620
 3169SOL    HW220967   0.768   3.827   3.839 -1.1555  0.9056  1.2443
 3170SOL     OW20968   0.512   0.954   0.465  0.5096  0.0107  0.5836
 3170SOL    HW120969   0.528   0.971   0.558  2.2609  0.9463  0.1251
 3170SOL    HW220970   0.551   1.030   0.421 -0.8021 -0.7107 -1.8327
 3171SOL     OW20971   3.725   4.631   9.815 -0.1404  0.0838 -0.4404
 3171SOL    HW120972   3.742   4.705   9.756  0.4339 -1.0654 -1.7033
 3171SOL    HW220973   3.629   4.640   9.820 -0.2909 -0.8971 -1.7005
 3172SOL     OW20974   0.676   1.693   6.075 -0.2081  0.3108  0.3831
 3172SOL    HW120975   0.676   1.605   6.113  0.8637 -0.0310 -0.3866
 3172SOL    HW220976   0.717   1.752   6.138 -1.1293 -0.2272  1.4791
 3173SOL     OW20977   1.766   0.362  12.127 -0.1413  0.2338 -0.2154
 3173SOL    HW120978   1.801   0.365  12.038 -0.9081 -1.0928 -0.5668
 3173SOL    HW220979   1.832   0.410  12.176  1.7276 -1.1573 -1.3558
 3174SOL     OW20980   1.690   2.972  15.999 -0.3117 -0.2449  0.0821
 3174SOL    HW120981   1.778   2.959  16.036 -0.8523 -0.3036  1.3290
 3174SOL    HW220982   1.717   3.049  15.949  1.5661 -1.2971 -0.5490
 3175SOL     OW20983   0.944   4.576   5.322  0.5279  1.2828  0.0152
 3175SOL    HW120984   0.989   4.650   5.282 -0.7974  1.2042 -1.6258
 3175SOL    HW220985   0.932   4.528   5.240  2.6841 -1.7460  1.4601
 3176SOL     OW20986   3.277   2.767   2.737 -0.1425 -0.4900 -0.1805
 3176SOL    HW120987   3.296   2.815   2.818 -1.5545  0.1709 -0.2372
 3176SOL    HW220988   3.343   2.699   2.728  0.4949  0.0510  0.3925
 3177SOL     OW20989   4.427   2.674   3.942  0.3932  0.3487  0.6607
 3177SOL    HW120990   4.452   2.744   4.002 -1.4325  0.5080  1.2168
 3177SOL    HW220991   4.400   2.727   3.867  0.3509 -2.1218 -1.0862
 3178SOL     OW20992   4.185   0.987  15.902 -0.0949 -0.0234  0.4321
 3178SOL    HW120993   4.116   1.004  15.838 -0.3531  4.0226  1.7715
 3178SOL    HW220994   4.243   1.060  15.881 -0.7218  0.0167 -1.1226
 3179SOL     OW20995   4.447   0.366   7.794 -0.4675 -0.0964  0.2143
 3179SOL    HW120996   4.524   0.327   7.835  1.1478  1.1004 -1.7187
 3179SOL    HW220997   4.459   0.358   7.700  1.8542 -1.5642  0.6392
 3180SOL     OW20998   2.019   2.041   4.419 -0.2819 -0.3397  0.0724
 3180SOL    HW120999   2.100   2.090   4.432  0.6704 -1.9789  0.2831
 3180SOL    HW221000   2.054   1.986   4.349  0.9309 -0.5157  0.8270
 3181SOL     OW21001   4.445   3.538  10.547  0.4287  0.0719 -0.0768
 3181SOL    HW121002   4.538   3.532  10.528  0.5402  1.0866  0.1213
 3181SOL    HW221003   4.438   3.526  10.642  3.2173  1.1163  0.2414
 3182SOL     OW21004   1.795   1.144   2.816 -0.1302  0.0799  0.2622
 3182SOL    HW121005   1.848   1.158   2.895 -1.9050  3.0694  0.9136
 3182SOL    HW221006   1.801   1.049   2.809 -2.2875 -0.0296 -0.2059
 3183SOL     OW21007   1.095   0.057   5.246  0.0196  0.3050  0.1216
 3183SOL    HW121008   1.144   0.109   5.182 -0.6943  2.4449  1.3224
 3183SOL    HW221009   1.162   4.710   5.260 -0.3793 -0.1806 -0.3032
 3184SOL     OW21010   2.963   0.908  17.132 -0.3520 -0.2744  0.2341
 3184SOL    HW121011   2.914   0.913  17.050 -0.6925 -3.2523  0.2429
 3184SOL    HW221012   2.887   0.914  17.190 -1.1949  2.3308 -1.1445
 3185SOL     OW21013   3.404   2.036   8.598  0.2663 -0.5084  0.1890
 3185SOL    HW121014   3.360   1.952   8.599  1.1236 -0.9705 -0.6550
 3185SOL    HW221015   3.336   2.096   8.627 -0.4354 -0.8012 -0.8634
 3186SOL     OW21016   1.991   1.659  17.014  0.0271  0.2345 -0.1268
 3186SOL    HW121017   1.990   1.608  16.933 -3.4725  0.1357 -0.0196
 3186SOL    HW221018   2.016   1.747  16.987  1.3341 -0.4828 -1.2465
 3187SOL     OW21019   1.494   3.683   7.206 -0.6033  0.1938  0.3003
 3187SOL    HW121020   1.567   3.729   7.247 -0.7280  0.3503  0.3462
 3187SOL    HW221021   1.446   3.651   7.282  1.7592  0.0629  1.7484
 3188SOL     OW21022   2.958   1.149   3.411 -0.0001 -0.3626  0.3582
 3188SOL    HW121023   2.882   1.092   3.421  0.7335 -1.1842  1.2632
 3188SOL    HW221024   2.954   1.174   3.319 -0.3309 -0.9326  0.2196
 3189SOL     OW21025   0.554   1.571   4.272 -0.0314  0.3511  0.0204
 3189SOL    HW121026   0.641   1.599   4.300 -0.4694  1.0365  0.6880
 3189SOL    HW221027   0.503   1.554   4.351 -2.1834 -0.1988 -1.4872
 3190SOL     OW21028   1.410   4.606   3.266 -0.4189  0.4491 -0.0247
 3190SOL    HW121029   1.348   4.614   3.338  1.2866 -1.1967  1.6277
 3190SOL    HW221030   1.463   4.685   3.274  0.6933 -0.3388  0.3631
 3191SOL     OW21031   0.478   0.090   5.906  0.6700 -0.3068  0.7250
 3191SOL    HW121032   0.389   0.064   5.931 -0.0562  2.3267  0.8311
 3191SOL    HW221033   0.522   0.006   5.918 -0.3131 -0.6251  2.1198
 3192SOL     OW21034   2.468   1.222   1.983 -0.1111  0.1051 -0.2452
 3192SOL    HW121035   2.545   1.166   1.974  1.4427  1.8262  2.1326
 3192SOL    HW221036   2.421   1.167   2.045 -0.6165  1.1525  0.3020
 3193SOL     OW21037   0.931   1.162   4.789  0.1612 -0.4595  0.8993
 3193SOL    HW121038   0.865   1.200   4.846  1.9972  3.3768  0.4555
 3193SOL    HW221039   0.878   1.088   4.761 -1.1366  0.8913 -0.2005
 3194SOL     OW21040   0.396   2.206   8.305  0.5074  0.1995 -0.8491
 3194SOL    HW121041   0.307   2.240   8.313 -0.1828 -2.2936  2.2011
 3194SOL    HW221042   0.384   2.136   8.369 -1.5627  0.4707 -0.9316
 3195SOL     OW21043   0.615   4.648   4.853 -0.3161  0.1614  0.0420
 3195SOL    HW121044   0.634   4.692   4.936 -0.5941 -0.0117  0.1968
 3195SOL    HW221045   0.661   4.566   4.869  2.2584  1.6532  0.2733
 3196SOL     OW21046   3.005   1.143   6.422  0.2729  0.0144  0.4175
 3196SOL    HW121047   3.082   1.090   6.443 -0.2964 -0.0030  2.4668
 3196SOL    HW221048   2.987   1.105   6.336  0.3195 -0.1116  0.4631
 3197SOL     OW21049   3.948   3.176   8.630  0.1335 -0.1188  0.3563
 3197SOL    HW121050   3.892   3.244   8.668 -1.8482 -1.1686 -0.7213
 3197SOL    HW221051   4.037   3.208   8.649 -0.2679  0.0479  1.9090
 3198SOL     OW21052   0.856   2.878   3.259  0.0265 -0.1537  0.1345
 3198SOL    HW121053   0.855   2.969   3.291 -0.3711 -0.1642  0.1499
 3198SOL    HW221054   0.947   2.862   3.285 -0.2751 -0.7987  0.7834
 3199SOL     OW21055   4.606   3.538   4.551  0.9250  0.0162 -0.2287
 3199SOL    HW121056   4.650   3.587   4.483 -2.0075  1.1450 -1.3040
 3199SOL    HW221057   4.642   3.450   4.536 -0.8292 -0.9994  1.4646
 3200SOL     OW21058   2.558   4.564   3.616 -0.1267  0.5230  0.4103
 3200SOL    HW121059   2.550   4.499   3.546 -0.2203 -1.1638  2.0139
 3200SOL    HW221060   2.637   4.616   3.598 -0.2545  0.0810 -1.4438
 3201SOL     OW21061   0.422   3.317   6.823 -0.2743 -0.2875 -0.1153
 3201SOL    HW121062   0.380   3.232   6.837 -2.9897  1.5018  2.6592
 3201SOL    HW221063   0.480   3.306   6.747 -2.2572  1.0349 -1.8161
 3202SOL     OW21064   3.483   2.616   9.393  0.6172 -0.5925  0.4938
 3202SOL    HW121065   3.479   2.605   9.488 -0.7793  0.0439  0.5061
 3202SOL    HW221066   3.540   2.544   9.365 -1.0750 -1.1822 -1.4556
 3203SOL     OW21067   2.439   2.879   4.754 -0.3106 -0.0481  0.0753
 3203SOL    HW121068   2.511   2.942   4.756 -0.2454 -0.1089 -0.2465
 3203SOL    HW221069   2.454   2.848   4.664 -1.7090 -0.2368 -0.0954
 3204SOL     OW21070   2.801   2.486  15.345 -0.3763  0.4553  0.8740
 3204SOL    HW121071   2.885   2.508  15.385  0.9025 -2.3410 -0.2981
 3204SOL    HW221072   2.830   2.436  15.269 -0.4143 -1.5819  2.2210
 3205SOL     OW21073   3.221   2.879   5.388  0.5571  0.1438 -0.0002
 3205SOL    HW121074   3.253   2.967   5.408 -0.1990  0.2906  0.5561
 3205SOL    HW221075   3.234   2.843   5.476  0.3617  1.7364  0.6744
 3206SOL     OW21076   3.538   1.612   5.317  0.0932  0.0973 -0.0475
 3206SOL    HW121077   3.443   1.619   5.324  0.1415  1.6654 -1.0295
 3206SOL    HW221078   3.553   1.528   5.273 -1.1834 -0.5191  0.6892
 3207SOL     OW21079   0.495   0.360   5.313 -0.1282  0.2591  0.3709
 3207SOL    HW121080   0.470   0.308   5.389 -0.0604 -1.5093 -0.8070
 3207SOL    HW221081   0.421   0.419   5.304  0.3485  0.6339 -1.0166
 3208SOL     OW21082   1.727   0.026   5.695  0.3295  0.2560  0.2212
 3208SOL    HW121083   1.696   0.116   5.711  2.0494  0.8759  0.1129
 3208SOL    HW221084   1.806   0.040   5.644 -0.8597  1.8801 -1.1749
 3209SOL     OW21085   1.321   0.064   5.486 -0.4583 -0.0887  0.0004
 3209SOL    HW121086   1.316   0.156   5.459 -0.9060  0.2823  1.3493
 3209SOL    HW221087   1.319   0.008   5.409 -0.3119 -0.5917  0.3637
 3210SOL     OW21088   0.716   0.143   7.854 -0.2351  0.0448  0.3765
 3210SOL    HW121089   0.712   0.089   7.933 -0.9026 -0.6124 -0.1169
 3210SOL    HW221090   0.669   0.087   7.793 -1.3439  1.5935 -0.1789
 3211SOL     OW21091   0.581   2.842   1.449  0.0399  0.4744 -0.7563
 3211SOL    HW121092   0.675   2.827   1.464 -0.6119 -1.0791  1.8208
 3211SOL    HW221093   0.576   2.933   1.422 -0.7533 -0.5239 -3.9534
 3212SOL     OW21094   3.325   0.366  11.132 -0.5767 -0.7831 -0.1411
 3212SOL    HW121095   3.276   0.290  11.101  0.0213 -0.0606 -2.8834
 3212SOL    HW221096   3.280   0.397  11.210 -0.0707  0.0903 -0.2058
 3213SOL     OW21097   1.602   0.521  13.241 -0.8610 -0.4593  0.2635
 3213SOL    HW121098   1.653   0.501  13.320  0.0151 -0.3709 -0.2806
 3213SOL    HW221099   1.670   0.490  13.181  1.0810  0.3499  2.0650
 3214SOL     OW21100   2.129   1.979   3.534 -0.1475 -0.4717 -0.2594
 3214SOL    HW121101   2.180   1.941   3.606  0.3042  1.5079  0.4624
 3214SOL    HW221102   2.193   1.990   3.464 -1.7643 -0.2035 -1.6951
 3215SOL     OW21103   1.915   0.314  17.232 -0.4401  0.2787  0.6695
 3215SOL    HW121104   1.982   0.245  17.243  1.2449  1.9352  0.8177
 3215SOL    HW221105   1.952   0.383  17.287 -0.6837  0.3440  0.7524
 3216SOL     OW21106   2.220   0.604  12.014 -0.6119  0.5573 -0.2911
 3216SOL    HW121107   2.279   0.634  11.945 -0.2903  1.1119  0.2355
 3216SOL    HW221108   2.207   0.511  11.993  1.7133 -0.5575  3.2492
 3217SOL     OW21109   2.626   2.609   1.138 -0.1298 -0.0317  0.6496
 3217SOL    HW121110   2.609   2.650   1.054  0.3045 -2.3881 -0.5918
 3217SOL    HW221111   2.565   2.656   1.195  0.0818 -1.2842  1.9104
 3218SOL     OW21112   3.583   2.351   5.028  0.3866 -0.4241 -0.5695
 3218SOL    HW121113   3.634   2.323   4.953  1.4177  2.2631 -0.8921
 3218SOL    HW221114   3.504   2.304   5.003 -0.0189  2.0272 -3.9401
 3219SOL     OW21115   2.307   3.603   7.633  0.6171 -0.6015 -0.1585
 3219SOL    HW121116   2.379   3.576   7.576 -0.1552 -2.6720 -0.1679
 3219SOL    HW221117   2.235   3.547   7.603 -0.7881  1.9311 -1.4880
 3220SOL     OW21118   0.891   2.426   3.063 -0.0710 -0.0032 -0.5183
 3220SOL    HW121119   0.957   2.406   3.130  0.9775  1.8254 -1.0162
 3220SOL    HW221120   0.850   2.341   3.045  2.2779 -1.6392  1.7484
 3221SOL     OW21121   2.763   2.695  16.448 -0.0117  0.1831 -0.3720
 3221SOL    HW121122   2.829   2.758  16.416  0.6283 -1.3700 -2.1250
 3221SOL    HW221123   2.732   2.732  16.531  1.5683  0.6503  0.0055
 3222SOL     OW21124   4.183   1.366   2.478  0.2145  0.1969 -0.2840
 3222SOL    HW121125   4.130   1.346   2.401  0.3198 -0.9825 -0.0560
 3222SOL    HW221126   4.186   1.280   2.521  2.2145  1.1625  1.4797
 3223SOL     OW21127   1.474   0.739  12.197 -0.5682  0.4491  0.1236
 3223SOL    HW121128   1.515   0.750  12.112  0.3970 -0.4425  0.4689
 3223SOL    HW221129   1.468   0.643  12.202  1.4652  0.2490 -1.2882
 3224SOL     OW21130   4.119   4.020  13.046  0.1826  0.4074  0.7004
 3224SOL    HW121131   4.037   4.069  13.040 -1.0773 -1.8047 -0.2527
 3224SOL    HW221132   4.089   3.930  13.032  1.0760  0.5495 -2.2811
 3225SOL     OW21133   3.336   2.196   5.771  0.0253  0.2936  0.0946
 3225SOL    HW121134   3.247   2.211   5.739 -1.2213  0.3339  3.5528
 3225SOL    HW221135   3.357   2.271   5.826  0.0424 -0.4550  1.1025
 3226SOL     OW21136   3.753   4.116  12.628  0.6370  0.0061 -0.2691
 3226SOL    HW121137   3.837   4.078  12.604 -0.0279 -1.2560 -0.6449
 3226SOL    HW221138   3.729   4.048  12.691  1.0773  0.3988  0.3122
 3227SOL     OW21139   3.423   0.153   3.898 -0.0732  0.6792 -0.3373
 3227SOL    HW121140   3.410   0.064   3.866  1.0206  0.3730  0.0446
 3227SOL    HW221141   3.411   0.204   3.817 -2.5069 -1.1456 -1.1044
 3228SOL     OW21142   1.796   4.693   3.381  0.1500 -0.2890 -0.3091
 3228SOL    HW121143   1.824   4.657   3.465 -0.0300  1.3617  0.4442
 3228SOL    HW221144   1.852   0.050   3.379  1.1670 -1.0333 -0.7226
 3229SOL     OW21145   0.818   2.039   9.557 -0.6169 -0.3545  0.0837
 3229SOL    HW121146   0.883   2.095   9.516 -1.3888  0.7005  0.2948
 3229SOL    HW221147   0.764   2.009   9.484  2.0373 -0.9582 -1.6190
 3230SOL     OW21148   2.038   2.945   3.015  0.1526  0.2033  0.3409
 3230SOL    HW121149   1.982   2.975   3.087 -0.5010  1.2015 -0.5868
 3230SOL    HW221150   2.017   2.851   3.011 -0.8677  0.3947  1.0876
 3231SOL     OW21151   0.210   3.039   9.222 -0.1572 -0.4897 -0.3018
 3231SOL    HW121152   0.171   2.963   9.264 -1.7288  1.2872  1.4862
 3231SOL    HW221153   0.227   3.001   9.136 -1.9324 -2.9248  0.4439
 3232SOL     OW21154   1.549   3.845  11.711 -0.3000 -0.1106  1.1521
 3232SOL    HW121155   1.506   3.848  11.626 -0.2072 -1.1920  1.0731
 3232SOL    HW221156   1.478   3.841  11.775  0.8976  0.1566  2.5332
 3233SOL     OW21157   3.429   4.279   9.656 -0.4923 -0.1466 -0.1156
 3233SOL    HW121158   3.415   4.264   9.749  1.2834 -1.3801 -0.0695
 3233SOL    HW221159   3.409   4.193   9.619  2.2134 -0.6088 -0.4557
 3234SOL     OW21160   3.812   1.464   4.554  0.3553  0.1062 -0.5969
 3234SOL    HW121161   3.788   1.400   4.487 -1.9900 -0.3329  0.6537
 3234SOL    HW221162   3.827   1.540   4.498  0.2884  1.5396  1.3356
 3235SOL     OW21163   0.157   1.319   6.899  0.2211 -0.0486 -0.4251
 3235SOL    HW121164   0.229   1.261   6.924 -0.7545 -1.3246 -0.5377
 3235SOL    HW221165   0.182   1.391   6.956  1.0529 -0.2286 -0.5619
 3236SOL     OW21166   0.929   1.392   7.104  0.1755 -0.0358 -0.2324
 3236SOL    HW121167   0.963   1.455   7.040 -1.3243 -0.3256 -1.3109
 3236SOL    HW221168   0.888   1.332   7.042 -1.4494 -1.7651  2.5473
 3237SOL     OW21169   3.645   3.234   5.073  0.2536 -0.1378 -0.1665
 3237SOL    HW121170   3.597   3.236   4.990  1.1508 -0.2846 -0.6905
 3237SOL    HW221171   3.641   3.328   5.091 -1.5107 -0.4692  1.2152
 3238SOL     OW21172   1.270   1.868   6.350  0.5986 -0.0120 -0.0573
 3238SOL    HW121173   1.238   1.945   6.397  0.0198  0.4451 -1.2083
 3238SOL    HW221174   1.248   1.809   6.422  1.3227 -0.3724 -0.1315
 3239SOL     OW21175   2.071   4.498   3.590  0.0382  0.6998  0.6180
 3239SOL    HW121176   2.104   4.409   3.607 -2.0485 -0.1219  0.3926
 3239SOL    HW221177   2.020   4.505   3.671 -2.7876 -1.4517 -0.9639
 3240SOL     OW21178   4.586   3.085   7.093 -0.1478 -0.2194 -0.6601
 3240SOL    HW121179   4.578   3.065   7.000  0.7269  0.5747 -0.8991
 3240SOL    HW221180   4.509   3.142   7.100 -0.5337 -0.9036  0.7179
 3241SOL     OW21181   1.611   1.253   6.288  0.4995 -0.1779 -0.2410
 3241SOL    HW121182   1.623   1.168   6.247  1.5131 -0.2881  0.2708
 3241SOL    HW221183   1.691   1.245   6.339  0.3388  0.3706  0.0993
 3242SOL     OW21184   2.054   2.908  17.298  0.2909 -0.6728 -0.0992
 3242SOL    HW121185   2.139   2.917  17.341  0.5652  1.2801 -1.0379
 3242SOL    HW221186   2.003   2.976  17.343 -0.3826 -1.0145 -0.3412
 3243SOL     OW21187   4.167   0.326   9.587 -0.1661 -0.7142  0.1464
 3243SOL    HW121188   4.138   0.298   9.500 -0.2965 -0.7703  0.2079
 3243SOL    HW221189   4.262   0.311   9.590 -0.3709 -1.7420  1.4156
 3244SOL     OW21190   1.806   2.835  14.947  0.2635  0.0859  0.2224
 3244SOL    HW121191   1.716   2.867  14.948  0.6642  1.2184  0.2077
 3244SOL    HW221192   1.792   2.751  14.992  1.4051 -1.2568 -1.9199
 3245SOL     OW21193   4.034   3.172   7.903  0.5411 -0.0212  0.4827
 3245SOL    HW121194   4.001   3.101   7.849 -1.1385  1.4740 -0.4781
 3245SOL    HW221195   3.953   3.224   7.911  0.1391 -0.3795 -1.3152
 3246SOL     OW21196   1.591   0.518   3.158  0.0017 -0.5704  0.0977
 3246SOL    HW121197   1.677   0.553   3.179 -0.4898  0.1109  0.9671
 3246SOL    HW221198   1.577   0.486   3.247 -0.6149 -0.9970 -0.1508
 3247SOL     OW21199   0.898   3.789   4.600  0.1601  0.4110 -0.6051
 3247SOL    HW121200   0.984   3.756   4.626  0.2326  1.1887  0.1537
 3247SOL    HW221201   0.853   3.805   4.683 -0.2331 -0.0817 -0.7257
 3248SOL     OW21202   0.132   1.209  14.580  0.1863  0.1432  0.0405
 3248SOL    HW121203   0.105   1.172  14.497  0.0017 -0.2950  0.2972
 3248SOL    HW221204   0.227   1.196  14.584  0.5879  2.9329 -0.1434
 3249SOL     OW21205   3.277   4.424  16.582  0.0632 -0.9809  0.4515
 3249SOL    HW121206   3.242   4.391  16.664  0.2500 -0.0738  0.8907
 3249SOL    HW221207   3.361   4.378  16.579  0.9275  0.4275  3.5070
 3250SOL     OW21208   2.004   3.523   6.285 -0.3610  0.0305  0.1962
 3250SOL    HW121209   2.064   3.561   6.220  1.1223 -2.5288  0.1007
 3250SOL    HW221210   1.961   3.454   6.235 -1.2424  0.4297  0.4022
 3251SOL     OW21211   0.475   4.362   8.043  0.1340  0.4432 -0.2921
 3251SOL    HW121212   0.534   4.411   8.100  1.1122  0.1879 -1.0888
 3251SOL    HW221213   0.540   4.338   7.977 -2.0261 -1.2787 -1.8073
 3252SOL     OW21214   2.395   0.254  13.548  0.2122  0.2692 -0.8750
 3252SOL    HW121215   2.478   0.207  13.543  0.2197  0.4002 -1.9592
 3252SOL    HW221216   2.410   0.328  13.489 -1.7021  0.7400 -0.8038
 3253SOL     OW21217   1.681   3.767   6.085 -0.1706 -0.0635  0.3631
 3253SOL    HW121218   1.628   3.737   6.012  0.8349 -1.1178  0.0681
 3253SOL    HW221219   1.753   3.704   6.094 -0.1060 -0.0759 -0.2257
 3254SOL     OW21220   3.285   0.929   6.031 -0.0410  0.0569  0.1488
 3254SOL    HW121221   3.312   1.010   5.987  1.8394 -0.4467  0.3803
 3254SOL    HW221222   3.292   0.949   6.124 -0.0942 -1.8936  0.5846
 3255SOL     OW21223   2.539   2.705   0.898  0.0352  0.1908 -0.7085
 3255SOL    HW121224   2.491   2.694   0.817 -0.3273 -0.1828 -0.4432
 3255SOL    HW221225   2.565   2.798   0.898  1.2190 -0.1394 -0.8390
 3256SOL     OW21226   0.471   0.673   7.303 -0.4276 -0.3613  0.0075
 3256SOL    HW121227   0.409   0.602   7.283  0.0112 -1.1579  1.4688
 3256SOL    HW221228   0.490   0.643   7.392  0.0597  0.6097  0.2215
 3257SOL     OW21229   3.152   3.097   7.901 -0.4110  0.5335 -0.4832
 3257SOL    HW121230   3.206   3.091   7.823 -1.3395 -0.0030 -1.0823
 3257SOL    HW221231   3.069   3.121   7.859 -1.3471 -2.1265 -0.1596
 3258SOL     OW21232   0.770   1.482   2.013 -0.2158 -0.9131 -0.2960
 3258SOL    HW121233   0.797   1.465   2.103  0.8102 -0.1255 -0.4444
 3258SOL    HW221234   0.686   1.437   2.009 -0.1598 -0.8872 -1.7219
 3259SOL     OW21235   2.734   0.192   9.012 -0.1306 -0.1927  0.8558
 3259SOL    HW121236   2.660   0.135   8.990 -0.0237 -0.8967  2.3219
 3259SOL    HW221237   2.695   0.279   9.008 -0.1277 -0.2609 -0.8782
 3260SOL     OW21238   1.190   4.254   9.076  0.3379  0.3554 -0.0742
 3260SOL    HW121239   1.196   4.174   9.023  1.3947  1.4747 -1.6433
 3260SOL    HW221240   1.110   4.289   9.036  1.3590  0.4292 -2.0555
 3261SOL     OW21241   2.592   4.192   8.153 -0.1897  0.6022 -0.7150
 3261SOL    HW121242   2.640   4.213   8.074 -0.0643  0.6043 -0.6373
 3261SOL    HW221243   2.598   4.097   8.161  0.6631  0.8409  1.4355
 3262SOL     OW21244   0.195   0.982   8.478  0.0280 -0.3904 -0.0547
 3262SOL    HW121245   0.182   0.887   8.474  0.4017 -0.5438  2.4074
 3262SOL    HW221246   0.273   0.983   8.533 -0.0605 -1.2765  0.0918
 3263SOL     OW21247   0.232   2.478   0.649  0.1835  0.1624  0.0187
 3263SOL    HW121248   0.178   2.446   0.577 -0.4914 -0.9892  1.0413
 3263SOL    HW221249   0.159   2.512   0.701 -1.7719 -1.0471 -1.9257
 3264SOL     OW21250   3.325   0.637   6.501 -0.3024  0.1842 -0.2457
 3264SOL    HW121251   3.304   0.589   6.421  0.6965  0.5005 -0.6934
 3264SOL    HW221252   3.393   0.581   6.538 -0.1097  1.2729  1.0244
 3265SOL     OW21253   2.639   4.061  10.962  1.1151  0.1295  0.3033
 3265SOL    HW121254   2.699   4.098  10.897  0.5767  2.7447  1.2568
 3265SOL    HW221255   2.595   3.999  10.904 -0.0671  3.4282 -2.3762
 3266SOL     OW21256   1.576   3.997   7.423  0.7386 -0.0881  0.3684
 3266SOL    HW121257   1.496   3.955   7.391  0.9901 -0.5854  0.4005
 3266SOL    HW221258   1.650   3.937   7.417 -0.0918 -1.0979  0.2357
 3267SOL     OW21259   4.713   2.359  16.413  0.4148 -0.0551  0.3074
 3267SOL    HW121260   0.054   2.432  16.398 -1.7483  2.1040  1.9690
 3267SOL    HW221261   4.720   2.343  16.507  2.0108 -2.2567 -0.1890
 3268SOL     OW21262   3.714   0.512   6.807  0.3300 -0.2020 -0.1190
 3268SOL    HW121263   3.670   0.577   6.861 -0.9449 -0.1286 -1.2340
 3268SOL    HW221264   3.707   0.440   6.870 -1.4528  0.1357  0.0797
 3269SOL     OW21265   0.960   1.844   9.654  0.2322  0.0255  0.3351
 3269SOL    HW121266   1.012   1.800   9.587 -0.7105  1.3778 -1.2955
 3269SOL    HW221267   0.937   1.922   9.604  0.4889  0.5257  1.0106
 3270SOL     OW21268   2.225   2.756   7.003  0.2079 -0.3802  0.1882
 3270SOL    HW121269   2.286   2.712   7.062  1.7497 -0.6208 -1.5982
 3270SOL    HW221270   2.240   2.707   6.922  1.1321  1.1786 -0.5740
 3271SOL     OW21271   4.318   1.335   9.028  0.3794  0.0682 -0.2202
 3271SOL    HW121272   4.379   1.300   9.092  0.3390 -0.8474 -0.6800
 3271SOL    HW221273   4.380   1.397   8.992  1.6829 -1.3198 -0.3585
 3272SOL     OW21274   1.914   1.837   7.553  0.2160  0.1207 -0.2557
 3272SOL    HW121275   1.910   1.773   7.624  1.7185 -0.8316 -1.0330
 3272SOL    HW221276   1.918   1.919   7.602  0.9996  0.5284 -1.0101
 3273SOL     OW21277   2.387   4.702   3.769  0.2860 -0.2276  0.0633
 3273SOL    HW121278   2.446   4.657   3.709 -0.4290 -2.0637  0.7316
 3273SOL    HW221279   2.392   4.631   3.833  1.5902 -1.1059 -1.0192
 3274SOL     OW21280   1.377   3.942   2.793  0.1921 -0.1462 -0.3013
 3274SOL    HW121281   1.328   3.861   2.810 -0.0729  0.0409 -0.1768
 3274SOL    HW221282   1.317   4.016   2.802 -0.1096 -0.5106  0.7341
 3275SOL     OW21283   1.032   4.238  11.080 -0.3898  0.1712  0.0708
 3275SOL    HW121284   1.048   4.318  11.029 -0.6653 -0.6343 -1.2755
 3275SOL    HW221285   1.118   4.195  11.077 -1.7507 -2.4498 -1.1638
 3276SOL     OW21286   4.362   0.238  10.601  0.2391 -0.2376 -0.1610
 3276SOL    HW121287   4.281   0.197  10.631  0.1515  0.1179  0.0908
 3276SOL    HW221288   4.325   0.290  10.530 -0.7993 -0.6951  0.0472
 3277SOL     OW21289   1.598   2.767   3.882  0.0009  0.0708 -0.1823
 3277SOL    HW121290   1.683   2.738   3.849 -1.2737 -2.1811 -1.4289
 3277SOL    HW221291   1.624   2.850   3.923  0.5943  0.9730 -2.3559
 3278SOL     OW21292   0.781   4.053   8.063  0.3860  0.0557  0.1653
 3278SOL    HW121293   0.812   3.963   8.049 -2.9826 -0.9473 -0.8828
 3278SOL    HW221294   0.690   4.045   8.034 -0.3182  0.2345  2.3516
 3279SOL     OW21295   2.541   0.689   5.914  0.2511  0.1725 -0.4513
 3279SOL    HW121296   2.496   0.670   5.997 -1.8202  1.7691 -1.2241
 3279SOL    HW221297   2.481   0.755   5.881  0.3010  1.0141  1.1347
 3280SOL     OW21298   1.297   1.203  15.428 -0.2354 -0.2402  0.2155
 3280SOL    HW121299   1.240   1.126  15.428 -2.9374  1.7776 -1.4559
 3280SOL    HW221300   1.384   1.163  15.424  0.5474  1.5067 -0.1044
 3281SOL     OW21301   3.328   2.538   2.424  0.3459 -0.4040  0.1156
 3281SOL    HW121302   3.378   2.567   2.501  0.4796 -0.6636  0.1251
 3281SOL    HW221303   3.265   2.611   2.426 -1.5366 -2.0160  0.0392
 3282SOL     OW21304   3.327   0.482   7.063 -0.0863 -0.1365 -0.4980
 3282SOL    HW121305   3.292   0.570   7.046 -0.4755 -0.1496  0.2553
 3282SOL    HW221306   3.280   0.465   7.144  1.3033 -1.6660 -0.0211
 3283SOL     OW21307   1.698   2.623   4.274 -0.0625  0.2283 -0.0158
 3283SOL    HW121308   1.630   2.573   4.318  0.4553  2.6733  3.5601
 3283SOL    HW221309   1.775   2.610   4.329  1.3119 -1.1167 -2.2646
 3284SOL     OW21310   0.787   2.575   5.924  0.9285  0.6955 -0.4338
 3284SOL    HW121311   0.780   2.480   5.938  0.6417  0.5151 -1.7862
 3284SOL    HW221312   0.697   2.596   5.899  0.7378 -0.4488 -0.7122
 3285SOL     OW21313   3.705   1.291   5.757 -0.2143 -0.1717 -0.1619
 3285SOL    HW121314   3.786   1.307   5.805 -1.1319  0.7706  1.0896
 3285SOL    HW221315   3.700   1.369   5.702 -2.5427 -0.5238 -0.4594
 3286SOL     OW21316   4.117   2.281   5.508  0.0342  0.6453  0.5414
 3286SOL    HW121317   4.030   2.246   5.488  1.1179 -1.3301 -0.7113
 3286SOL    HW221318   4.114   2.347   5.439  0.9139  0.6430  0.5056
 3287SOL     OW21319   1.256   4.230   1.002 -0.1258 -0.1727  0.6412
 3287SOL    HW121320   1.278   4.315   0.965  0.4479 -0.5101  0.2164
 3287SOL    HW221321   1.341   4.186   1.009 -1.1565 -2.1078  0.9098
 3288SOL     OW21322   3.214   4.438  10.026  0.1246  0.0207 -0.1201
 3288SOL    HW121323   3.164   4.489  10.090 -0.5518 -2.0931  1.0337
 3288SOL    HW221324   3.176   4.476   9.946 -1.3475  2.3779  1.6970
 3289SOL     OW21325   1.600   2.909   4.240 -0.8215 -0.1691  0.3836
 3289SOL    HW121326   1.628   2.818   4.243  3.1428  0.9598 -2.4488
 3289SOL    HW221327   1.545   2.919   4.318 -0.0247  0.9561  0.8077
 3290SOL     OW21328   3.271   4.702  16.530 -0.6060 -0.5143  0.0228
 3290SOL    HW121329   3.316   0.023  16.603 -0.4858 -0.1780 -0.2393
 3290SOL    HW221330   3.285   4.608  16.544 -0.3457 -0.4541  0.1531
 3291SOL     OW21331   3.479   1.565   7.128  0.0549 -0.3194  0.0387
 3291SOL    HW121332   3.438   1.478   7.133 -0.5209  0.0716  2.2849
 3291SOL    HW221333   3.493   1.575   7.222 -1.3808  1.3376  0.0869
 3292SOL     OW21334   3.952   0.395   4.397 -0.6355  0.2295  0.3787
 3292SOL    HW121335   3.914   0.479   4.423  0.8691  1.1643 -0.4419
 3292SOL    HW221336   3.914   0.382   4.310  1.7845 -1.3933 -0.4263
 3293SOL     OW21337   1.099   0.463  17.084 -0.6942  0.5183 -0.3703
 3293SOL    HW121338   1.093   0.394  17.018 -1.0365 -0.6105  0.8384
 3293SOL    HW221339   1.006   0.484  17.096 -0.2679  1.8385  0.7349
 3294SOL     OW21340   0.281   3.341  12.480 -0.3999 -0.3102  0.7882
 3294SOL    HW121341   0.327   3.309  12.557  0.4223 -1.0465 -0.0033
 3294SOL    HW221342   0.353   3.362  12.419  0.4065 -0.9749  1.5125
 3295SOL     OW21343   2.578   0.562   4.001 -0.3238 -0.5784  0.4182
 3295SOL    HW121344   2.564   0.587   3.909 -0.1452  0.5407  0.7015
 3295SOL    HW221345   2.627   0.480   3.996  0.3769 -0.2119  1.4084
 3296SOL     OW21346   0.236   3.011   5.115  0.0118 -0.1810 -0.2071
 3296SOL    HW121347   0.293   2.942   5.151 -0.8965 -0.9432 -0.2507
 3296SOL    HW221348   0.274   3.090   5.153 -0.9829  1.2828 -2.2926
 3297SOL     OW21349   3.851   2.038   2.336  0.1044  0.1338 -0.4615
 3297SOL    HW121350   3.792   2.022   2.410 -1.3157 -1.3706 -1.8848
 3297SOL    HW221351   3.783   2.054   2.270 -1.4120 -0.6526  0.8899
 3298SOL     OW21352   0.912   2.239   0.612  0.5331 -0.5297  0.4586
 3298SOL    HW121353   0.955   2.289   0.681  2.1286  1.1723 -1.7664
 3298SOL    HW221354   0.990   2.212   0.563 -1.8835 -2.0786 -2.5704
 3299SOL     OW21355   2.588   2.110   8.634 -0.0801 -0.0496 -0.2601
 3299SOL    HW121356   2.554   2.128   8.722 -2.2506 -0.9923 -0.9075
 3299SOL    HW221357   2.554   2.020   8.625 -0.3269  0.0525 -0.3544
 3300SOL     OW21358   0.675   0.179  12.550  0.4077 -0.3715  0.1735
 3300SOL    HW121359   0.665   0.182  12.455  2.0207  0.8173  0.0365
 3300SOL    HW221360   0.718   0.094  12.558  1.3785 -0.0946 -1.9931
 3301SOL     OW21361   1.953   4.164   4.969  0.1611 -0.1881 -0.0755
 3301SOL    HW121362   1.945   4.211   5.052 -3.1780 -1.6942  0.4582
 3301SOL    HW221363   1.917   4.220   4.901 -0.8399 -1.3536 -0.5163
 3302SOL     OW21364   1.782   1.005  12.250  0.7223 -0.1678 -0.2275
 3302SOL    HW121365   1.863   1.044  12.283 -0.9852  2.8689  0.3524
 3302SOL    HW221366   1.721   1.076  12.234  0.5535 -0.7738 -2.2378
 3303SOL     OW21367   4.526   3.978   8.828  0.3382  0.0341  0.2036
 3303SOL    HW121368   4.444   4.025   8.812 -1.4273 -3.0597  0.1206
 3303SOL    HW221369   4.511   3.895   8.783 -0.2874  1.2369 -1.8356
 3304SOL     OW21370   2.847   1.352   4.020 -0.1736  0.0004 -0.0394
 3304SOL    HW121371   2.814   1.399   4.096  1.5328 -1.0867  1.3645
 3304SOL    HW221372   2.790   1.394   3.955  0.4658  0.1749 -0.4813
 3305SOL     OW21373   4.208   2.739   5.620 -0.0557 -0.2151 -0.3615
 3305SOL    HW121374   4.247   2.824   5.640 -0.5113 -0.5649  2.0166
 3305SOL    HW221375   4.156   2.745   5.540  0.5672  0.4708 -0.7109
 3306SOL     OW21376   0.660   0.476   3.947  0.5445  0.4586  0.0155
 3306SOL    HW121377   0.604   0.408   3.909 -1.3983  1.5534  0.9369
 3306SOL    HW221378   0.604   0.526   4.006  0.3457 -0.5960  0.7365
 3307SOL     OW21379   2.587   0.739  16.538  0.0695 -0.0903  0.0154
 3307SOL    HW121380   2.617   0.655  16.573 -2.4328 -1.0750 -0.1588
 3307SOL    HW221381   2.497   0.741  16.573 -0.6690  1.7252 -1.9629
 3308SOL     OW21382   2.628   2.567   7.118  0.1709 -0.5221 -0.4371
 3308SOL    HW121383   2.675   2.641   7.157 -0.6003  0.0644 -0.6074
 3308SOL    HW221384   2.541   2.607   7.116  1.1454  1.5176 -1.8399
 3309SOL     OW21385   1.103   4.498   8.230  0.2032 -0.1232 -0.4889
 3309SOL    HW121386   1.034   4.562   8.245  2.2893  1.5541  1.8828
 3309SOL    HW221387   1.162   4.546   8.171  1.1053  0.6213  1.0268
 3310SOL     OW21388   3.198   1.642   4.465 -0.1253 -0.4600  0.0141
 3310SOL    HW121389   3.278   1.686   4.493  0.8257 -1.6721 -0.7629
 3310SOL    HW221390   3.210   1.562   4.517 -2.5272 -0.6396  0.2810
 3311SOL     OW21391   2.596   2.586   4.263  0.0495  0.1713  0.0210
 3311SOL    HW121392   2.631   2.544   4.185 -0.0967 -1.0933  0.6434
 3311SOL    HW221393   2.525   2.525   4.285  0.2367  0.6184  1.8833
 3312SOL     OW21394   4.093   2.407   6.267 -0.6872 -0.1145 -0.4048
 3312SOL    HW121395   4.148   2.332   6.290 -0.4073  0.5696  1.1400
 3312SOL    HW221396   4.124   2.430   6.179  0.1611  0.6248  0.0829
 3313SOL     OW21397   0.555   1.350  14.877 -0.2768  0.2621 -0.9218
 3313SOL    HW121398   0.561   1.442  14.850  1.4273  0.1907 -0.7517
 3313SOL    HW221399   0.647   1.333  14.893 -0.4036 -0.0795 -0.5579
 3314SOL     OW21400   3.663   2.883   7.339  0.2862 -0.4088  0.5960
 3314SOL    HW121401   3.657   2.834   7.421  2.8187  0.1198  1.1047
 3314SOL    HW221402   3.719   2.955   7.367 -0.2361  0.9088 -1.7541
 3315SOL     OW21403   2.155   2.569  12.858 -0.4720  0.5087 -0.1396
 3315SOL    HW121404   2.103   2.496  12.825 -1.3000  1.7946 -1.6353
 3315SOL    HW221405   2.171   2.624  12.782 -1.3117  0.7296 -0.1538
 3316SOL     OW21406   1.105   2.308   7.215 -0.1734 -0.5905 -0.3778
 3316SOL    HW121407   1.173   2.341   7.273  0.5783 -0.5866 -1.2491
 3316SOL    HW221408   1.090   2.218   7.245  0.7988 -1.5353 -2.6794
 3317SOL     OW21409   2.650   4.347   4.181 -0.3014 -0.6821  0.3851
 3317SOL    HW121410   2.698   4.412   4.231 -3.0280  2.5177 -1.1873
 3317SOL    HW221411   2.566   4.360   4.225 -0.4911 -1.0652  0.1419
 3318SOL     OW21412   2.407   4.679   8.364  0.1961 -0.0426 -0.9555
 3318SOL    HW121413   2.412   4.713   8.454  0.4083 -0.3808 -0.8406
 3318SOL    HW221414   2.369   4.593   8.380 -0.3789  0.6292  1.3283
 3319SOL     OW21415   2.889   0.206  16.726  0.0736  0.0207 -0.2321
 3319SOL    HW121416   2.878   0.147  16.801  0.4014  1.8596  1.2493
 3319SOL    HW221417   2.814   0.190  16.670 -0.4309  0.5736  0.2868
 3320SOL     OW21418   2.982   3.278   7.464  0.2076  0.4735 -0.3364
 3320SOL    HW121419   2.913   3.259   7.401  0.9363 -0.7865 -0.7451
 3320SOL    HW221420   3.052   3.281   7.399  0.9884  3.1794  0.5970
 3321SOL     OW21421   4.332   1.628   1.009  0.5299 -0.5131  0.0927
 3321SOL    HW121422   4.257   1.634   0.950 -0.9614 -0.3932  1.9731
 3321SOL    HW221423   4.396   1.661   0.946 -0.6271  0.5475 -0.5315
 3322SOL     OW21424   1.562   4.415   3.631 -0.6695  0.1215  0.4062
 3322SOL    HW121425   1.647   4.373   3.648 -0.2589  1.2400  1.1044
 3322SOL    HW221426   1.509   4.342   3.598  1.4359 -0.9411 -0.6663
 3323SOL     OW21427   0.861   4.032  11.028 -0.5245 -0.3219 -0.1535
 3323SOL    HW121428   0.826   4.035  10.939 -2.1139 -2.1113  0.4195
 3323SOL    HW221429   0.927   4.101  11.031  0.5593 -1.4882  2.4012
 3324SOL     OW21430   2.800   2.666   7.896  0.0952 -0.0500 -0.5681
 3324SOL    HW121431   2.892   2.669   7.868  0.2147  0.5708 -0.0916
 3324SOL    HW221432   2.803   2.677   7.991 -2.0452 -0.3138 -0.4626
 3325SOL     OW21433   0.248   4.177   1.664 -0.0283 -0.4225 -0.0084
 3325SOL    HW121434   0.283   4.264   1.681  0.9919 -0.8854  0.2768
 3325SOL    HW221435   0.262   4.146   1.754 -2.2928 -0.2495  0.4219
 3326SOL     OW21436   4.715   3.044   6.033  0.1688  0.3171 -0.0578
 3326SOL    HW121437   0.019   3.040   5.940  1.1227 -0.4407  0.2258
 3326SOL    HW221438   4.671   3.129   6.040 -0.8773 -0.0578 -1.8481
 3327SOL     OW21439   1.018   1.677   6.477 -0.1888 -0.0848 -0.5023
 3327SOL    HW121440   1.084   1.631   6.424  1.6634  0.7869  1.0471
 3327SOL    HW221441   1.083   1.696   6.544  1.5940  0.5353 -2.3965
 3328SOL     OW21442   3.682   1.808   7.446  1.1644  0.1654  0.0291
 3328SOL    HW121443   3.681   1.891   7.398 -1.3001  0.7268  1.0612
 3328SOL    HW221444   3.771   1.776   7.433  0.4408 -1.4108 -0.9931
 3329SOL     OW21445   1.021   1.559   5.458 -0.2707  0.3850 -0.1229
 3329SOL    HW121446   1.101   1.566   5.509  0.4557  0.1248 -1.2368
 3329SOL    HW221447   0.959   1.604   5.515 -0.0834 -2.8396  2.5846
 3330SOL     OW21448   2.060   3.584   5.964 -0.1227 -0.1324  0.6760
 3330SOL    HW121449   2.140   3.562   6.013  0.8192 -0.9965 -1.2506
 3330SOL    HW221450   2.003   3.508   5.978 -0.9784  0.3051 -0.4326
 3331SOL     OW21451   2.050   3.486  13.467 -0.3338 -0.4406 -0.0742
 3331SOL    HW121452   2.127   3.465  13.414 -0.4165 -0.0023 -0.3676
 3331SOL    HW221453   2.093   3.487  13.553 -0.8195 -0.9371  0.1752
 3332SOL     OW21454   3.667   3.038   7.065 -0.3336  0.3410 -0.6752
 3332SOL    HW121455   3.681   2.964   7.124  0.0636  0.8398 -0.1536
 3332SOL    HW221456   3.669   2.992   6.981 -0.2062  1.0861 -1.0764
 3333SOL     OW21457   3.367   3.830   7.255  0.2959  0.0587  0.3253
 3333SOL    HW121458   3.423   3.758   7.284 -2.0338 -1.7080  0.4493
 3333SOL    HW221459   3.289   3.778   7.234  0.4092 -0.1252  0.3596
 3334SOL     OW21460   2.900   3.708   0.401 -0.0990  0.2661  0.2579
 3334SOL    HW121461   2.967   3.772   0.380 -0.6364  0.6720 -0.2197
 3334SOL    HW221462   2.943   3.649   0.462 -0.7176  0.9632  1.3602
 3335SOL     OW21463   1.131   3.728  12.822  0.2314 -0.5767 -0.1534
 3335SOL    HW121464   1.166   3.815  12.803  1.7635 -0.6913  2.1928
 3335SOL    HW221465   1.114   3.728  12.917  0.8386 -2.1792 -0.0445
 3336SOL     OW21466   3.265   4.135   3.220  0.3367 -0.1475 -0.2683
 3336SOL    HW121467   3.269   4.137   3.125 -2.3133 -0.6505 -0.3792
 3336SOL    HW221468   3.223   4.218   3.240 -0.7027 -0.9451  0.8593
 3337SOL     OW21469   3.161   4.124   8.696  0.3243  0.0443  0.3824
 3337SOL    HW121470   3.108   4.077   8.760 -0.2779 -0.3896 -0.4313
 3337SOL    HW221471   3.228   4.057   8.681  1.7113  1.8802 -1.5535
 3338SOL     OW21472   2.581   3.490  14.836  0.2808  0.0732 -0.3097
 3338SOL    HW121473   2.655   3.432  14.853 -1.3308 -2.0093 -0.4317
 3338SOL    HW221474   2.603   3.520  14.748 -1.6156  1.6299 -0.2435
 3339SOL     OW21475   1.368   0.851   6.477  0.1818  0.2601 -0.3276
 3339SOL    HW121476   1.454   0.831   6.514  0.4084  2.6129  0.4014
 3339SOL    HW221477   1.334   0.765   6.452  4.4455 -0.4937 -3.3869
 3340SOL     OW21478   4.698   1.014  15.578 -0.0498  0.6096  0.6896
 3340SOL    HW121479   4.719   1.005  15.485  0.3786  5.4806  0.3079
 3340SOL    HW221480   4.626   0.952  15.592  0.5396 -0.4420 -1.0033
 3341SOL     OW21481   3.466   0.480   5.825  0.6430  0.3565 -0.6902
 3341SOL    HW121482   3.525   0.520   5.760  0.4979  0.5754 -0.6882
 3341SOL    HW221483   3.388   0.534   5.812  0.9778  0.7661 -1.0334
 3342SOL     OW21484   3.740   1.376  15.581 -0.4478 -0.7613  0.1478
 3342SOL    HW121485   3.676   1.361  15.651 -1.7612 -2.0981 -1.3159
 3342SOL    HW221486   3.817   1.403  15.631 -0.3083 -2.1287  0.6720
 3343SOL     OW21487   0.939   1.671  11.055  0.2774  0.4275 -0.1925
 3343SOL    HW121488   0.848   1.658  11.028  0.1846  1.2449 -0.2715
 3343SOL    HW221489   0.974   1.733  10.991  0.0887  0.1348 -0.5772
 3344SOL     OW21490   1.891   3.139  14.809 -0.1384 -0.1102 -0.3632
 3344SOL    HW121491   1.974   3.124  14.855 -0.9074 -3.6784 -0.1729
 3344SOL    HW221492   1.835   3.137  14.887 -0.1124  3.5092 -0.2214
 3345SOL     OW21493   3.972   2.137   2.050  0.3355  0.2287 -0.0842
 3345SOL    HW121494   3.995   2.227   2.073 -1.5546  0.4811  0.8720
 3345SOL    HW221495   3.890   2.136   2.099  1.2174 -1.0828  1.3479
 3346SOL     OW21496   4.047   1.759   7.949  0.1117 -0.0118  0.1866
 3346SOL    HW121497   3.996   1.834   7.978  0.4712 -0.5084  2.1114
 3346SOL    HW221498   4.101   1.785   7.874 -0.6014  0.9733  0.0230
 3347SOL     OW21499   4.049   4.245   8.600 -0.1067  0.0934  0.0457
 3347SOL    HW121500   4.070   4.273   8.510  1.7897  0.9903  0.7713
 3347SOL    HW221501   4.000   4.322   8.628 -0.2940 -0.1446  0.3706
 3348SOL     OW21502   1.439   0.800   5.408  0.1600 -0.8847 -0.2789
 3348SOL    HW121503   1.526   0.763   5.426  0.5773  0.4517  0.3834
 3348SOL    HW221504   1.382   0.730   5.440 -1.1552  0.3560  0.0407
 3349SOL     OW21505   0.508   0.654   8.506  0.1573 -0.3533 -0.2034
 3349SOL    HW121506   0.504   0.587   8.439  2.1125  0.3984 -1.0609
 3349SOL    HW221507   0.600   0.659   8.529  0.6116 -1.2321 -1.8690
 3350SOL     OW21508   1.793   2.661   8.209  0.0294  0.2232  0.8167
 3350SOL    HW121509   1.802   2.602   8.284  0.9054 -0.1782  0.3994
 3350SOL    HW221510   1.699   2.650   8.197  0.1411  0.9689 -0.8235
 3351SOL     OW21511   1.066   3.446  11.909 -0.0761 -0.3981  0.4521
 3351SOL    HW121512   1.049   3.394  11.831  1.5969 -0.0015 -0.1863
 3351SOL    HW221513   1.157   3.423  11.929  0.3442  0.2323 -0.7457
 3352SOL     OW21514   3.743   1.262   3.720 -0.2972 -0.1593 -0.6314
 3352SOL    HW121515   3.820   1.232   3.768 -0.3773 -0.9389 -1.0049
 3352SOL    HW221516   3.721   1.190   3.662 -1.5766  0.3507 -0.8023
 3353SOL     OW21517   4.660   2.141   5.697 -0.1395  0.1885  0.3249
 3353SOL    HW121518   4.711   2.221   5.713  1.8710 -0.6383 -1.9141
 3353SOL    HW221519   4.687   2.083   5.769  0.8381 -0.0460 -0.2355
 3354SOL     OW21520   0.551   1.426   6.892  0.1149 -0.1489  0.0372
 3354SOL    HW121521   0.476   1.375   6.925  0.2452 -0.7832 -0.6526
 3354SOL    HW221522   0.545   1.496   6.957  1.1700  1.1653 -1.2884
 3355SOL     OW21523   3.611   3.014   0.202  0.3309 -0.1864  0.0606
 3355SOL    HW121524   3.653   3.070   0.137  0.9151  1.4750  1.8519
 3355SOL    HW221525   3.546   2.966   0.150  2.5785 -3.0969 -0.0831
 3356SOL     OW21526   3.543   1.975   0.271 -0.1218  0.3572 -0.3101
 3356SOL    HW121527   3.603   1.913   0.313  0.2113  1.1961  0.4670
 3356SOL    HW221528   3.462   1.926   0.256 -2.0058  3.2997  0.0644
 3357SOL     OW21529   4.220   4.089  13.328  0.3384  0.2458  0.1991
 3357SOL    HW121530   4.202   4.057  13.239  1.8168 -1.0456  0.3525
 3357SOL    HW221531   4.285   4.020  13.342 -0.0319 -0.1420 -0.0111
 3358SOL     OW21532   0.440   1.666  10.679 -0.2216  0.2797 -0.0554
 3358SOL    HW121533   0.427   1.587  10.627  0.8550  0.9293 -1.3169
 3358SOL    HW221534   0.528   1.693  10.651  0.1612 -1.1248 -0.1985
 3359SOL     OW21535   2.155   2.832   9.065 -0.0501  0.0481 -0.0972
 3359SOL    HW121536   2.149   2.928   9.064 -0.9295 -0.0148 -1.5187
 3359SOL    HW221537   2.110   2.822   8.981  0.4744  1.8312 -0.5924
 3360SOL     OW21538   0.782   2.870   5.706  0.0276 -0.0220  0.2288
 3360SOL    HW121539   0.852   2.933   5.690 -1.6219  0.8770 -3.6127
 3360SOL    HW221540   0.820   2.817   5.775 -1.4387 -1.0945  0.2180
 3361SOL     OW21541   1.406   0.879   5.748 -0.0581  0.1055  0.3716
 3361SOL    HW121542   1.380   0.868   5.656 -1.1871  1.3199  0.5437
 3361SOL    HW221543   1.340   0.829   5.795  0.3326 -3.0983 -2.4962
 3362SOL     OW21544   3.880   4.109   4.063  0.6785 -0.1368 -0.3459
 3362SOL    HW121545   3.962   4.074   4.098  0.1917 -0.4287  0.5186
 3362SOL    HW221546   3.835   4.036   4.020  1.0609 -0.5922  0.0306
 3363SOL     OW21547   0.501   0.543   1.853 -0.0565 -0.5550 -0.5368
 3363SOL    HW121548   0.411   0.510   1.845 -0.1097 -0.6530  0.5147
 3363SOL    HW221549   0.536   0.487   1.784 -2.0628  1.0420 -2.8531
 3364SOL     OW21550   4.384   1.470   4.251  0.1343 -0.1909 -0.7598
 3364SOL    HW121551   4.386   1.558   4.289 -0.8614 -0.0831 -0.9644
 3364SOL    HW221552   4.469   1.467   4.206  0.3783  1.5920 -0.4263
 3365SOL     OW21553   3.590   4.489   3.977  0.2420 -0.8052  0.4954
 3365SOL    HW121554   3.592   4.565   3.918  2.2112  0.5650  2.3045
 3365SOL    HW221555   3.540   4.519   4.054  0.1195 -1.1990  0.5689
 3366SOL     OW21556   0.519   1.087   5.189  0.0280  0.0636  0.7237
 3366SOL    HW121557   0.593   1.140   5.219 -1.1042  0.9629  1.9934
 3366SOL    HW221558   0.479   1.158   5.140 -1.2573 -1.9347 -1.0984
 3367SOL     OW21559   3.042   2.833  10.895 -0.1664 -0.4015 -0.2190
 3367SOL    HW121560   2.958   2.831  10.941 -1.5817 -1.7050 -2.8507
 3367SOL    HW221561   3.013   2.825  10.804 -1.4601 -0.7814  0.2271
 3368SOL     OW21562   0.390   0.809   1.734 -0.1801 -0.0337  0.2404
 3368SOL    HW121563   0.303   0.779   1.761  0.0413 -0.7814  0.1336
 3368SOL    HW221564   0.439   0.756   1.796 -0.5565 -0.2328  0.3673
 3369SOL     OW21565   4.595   4.530   3.032 -0.0286 -0.0555 -0.2546
 3369SOL    HW121566   4.510   4.497   3.005 -0.1048 -0.6372  0.6922
 3369SOL    HW221567   4.571   4.623   3.037  0.3597  0.1806 -2.7451
 3370SOL     OW21568   3.878   0.930  10.168 -0.1408  0.4591 -0.2965
 3370SOL    HW121569   3.945   0.862  10.179 -1.0849 -0.0396  2.5872
 3370SOL    HW221570   3.916   0.985  10.100  4.0286  0.6320  2.1781
 3371SOL     OW21571   3.856   0.781   6.980 -0.5265 -0.4769 -0.2290
 3371SOL    HW121572   3.950   0.798   6.978 -0.6159 -0.0909 -1.1362
 3371SOL    HW221573   3.856   0.702   7.034 -0.0887 -0.4311 -0.1616
 3372SOL     OW21574   1.496   2.224   0.298 -0.0022 -0.7935  0.3172
 3372SOL    HW121575   1.411   2.264   0.283  0.4880  1.0841  2.6183
 3372SOL    HW221576   1.493   2.218   0.394  0.9023 -0.8132  0.3441
 3373SOL     OW21577   3.904   0.685  10.740 -0.0735 -0.1209  0.7392
 3373SOL    HW121578   3.843   0.725  10.801 -2.0776 -3.5265  0.9593
 3373SOL    HW221579   3.969   0.755  10.749 -1.4437  1.4166 -1.1433
 3374SOL     OW21580   0.131   4.093   8.395  0.2173 -0.5246  0.2017
 3374SOL    HW121581   0.161   4.002   8.403  0.9294 -0.2974  0.1527
 3374SOL    HW221582   0.192   4.134   8.334 -0.6241 -1.6472 -1.3907
 3375SOL     OW21583   2.838   1.385   5.142 -0.4601 -0.2902  0.2591
 3375SOL    HW121584   2.910   1.354   5.087  0.0765  2.3406 -0.5207
 3375SOL    HW221585   2.830   1.304   5.192  3.1814  1.2133  3.3116
 3376SOL     OW21586   2.870   0.664  10.373  0.0406 -0.1369  0.2576
 3376SOL    HW121587   2.960   0.635  10.384  0.5823  1.0768 -0.8621
 3376SOL    HW221588   2.834   0.654  10.461 -1.5493  1.2563 -0.2131
 3377SOL     OW21589   0.138   2.922   7.035 -0.3002 -0.1381  0.7128
 3377SOL    HW121590   0.161   2.874   6.955  1.6380  1.9040  0.0360
 3377SOL    HW221591   0.049   2.943   7.006 -0.1769  0.5463  0.8391
 3378SOL     OW21592   1.566   1.335  13.170  0.1682  0.4862 -0.1381
 3378SOL    HW121593   1.660   1.351  13.161 -0.0282  0.2296 -2.7905
 3378SOL    HW221594   1.548   1.314  13.078 -0.1315 -1.3390  0.3467
 3379SOL     OW21595   2.688   1.649   5.736  0.2707 -0.3564 -0.2435
 3379SOL    HW121596   2.777   1.614   5.732  0.4299 -0.2200  1.8890
 3379SOL    HW221597   2.647   1.595   5.669  1.9936 -2.3823  0.3323
 3380SOL     OW21598   1.188   3.526  11.089 -0.5118 -0.0935 -0.3391
 3380SOL    HW121599   1.116   3.468  11.062 -1.1241  0.6928 -0.4131
 3380SOL    HW221600   1.264   3.496  11.039 -0.6995  0.5832 -1.0372
 3381SOL     OW21601   3.192   0.684  12.644  0.3593 -0.1000 -0.1325
 3381SOL    HW121602   3.262   0.730  12.689 -0.0828 -0.0452  0.5065
 3381SOL    HW221603   3.166   0.744  12.575  0.3829  1.8315  1.5541
 3382SOL     OW21604   1.883   0.195   7.123  0.6749  0.4098 -0.3305
 3382SOL    HW121605   1.837   0.163   7.200 -1.4780  0.0287 -1.7979
 3382SOL    HW221606   1.882   0.111   7.079 -3.4865  0.4699 -0.3020
 3383SOL     OW21607   0.728   4.416   0.084 -0.1873 -0.8389 -0.2344
 3383SOL    HW121608   0.810   4.449   0.121 -1.2105 -0.2099  1.4844
 3383SOL    HW221609   0.669   4.491   0.087 -0.4669 -1.0874  0.3665
 3384SOL     OW21610   2.881   1.117   5.207 -0.0379 -0.3682  0.0258
 3384SOL    HW121611   2.904   1.058   5.278  0.0048  0.6636  0.8724
 3384SOL    HW221612   2.836   1.064   5.141 -0.0923  0.1802 -0.3818
 3385SOL     OW21613   0.994   0.687   2.321 -0.4803 -0.0222  0.0380
 3385SOL    HW121614   0.934   0.625   2.363 -2.6019  2.3996  0.6611
 3385SOL    HW221615   0.939   0.707   2.245  0.8186  1.7268 -0.4548
 3386SOL     OW21616   1.165   0.171   2.315  0.6192 -0.2354  0.0320
 3386SOL    HW121617   1.241   0.113   2.320  0.0152 -1.2638 -3.2011
 3386SOL    HW221618   1.128   0.149   2.230 -0.4848 -0.0373  0.4557
 3387SOL     OW21619   3.017   3.414   0.270  0.0892  0.8187  0.2618
 3387SOL    HW121620   3.069   3.432   0.349  2.0223 -1.4878 -0.4987
 3387SOL    HW221621   3.070   3.465   0.209  1.2383  2.0620  2.2923
 3388SOL     OW21622   2.103   0.341   8.358 -0.0838  0.0744  0.3636
 3388SOL    HW121623   2.116   0.285   8.282 -0.8524 -0.1381  0.3896
 3388SOL    HW221624   2.136   0.284   8.428 -1.9511 -0.7739  0.5305
 3389SOL     OW21625   3.341   2.896   7.272  0.3433 -0.1268 -0.5622
 3389SOL    HW121626   3.357   2.937   7.187 -0.3730  3.0512  0.8404
 3389SOL    HW221627   3.397   2.818   7.275  0.4534 -0.0011  0.4986
 3390SOL     OW21628   4.055   3.954   7.407  0.5247 -0.4153  0.0638
 3390SOL    HW121629   3.997   3.880   7.392  1.7039 -1.1203 -1.0126
 3390SOL    HW221630   4.135   3.931   7.360  0.2521 -1.2626  0.0173
 3391SOL     OW21631   0.128   3.828   2.173  0.2117  0.1093 -0.5635
 3391SOL    HW121632   0.086   3.757   2.222 -0.7835  0.0612 -1.4925
 3391SOL    HW221633   0.056   3.864   2.121  1.3449  1.3744 -1.2540
 3392SOL     OW21634   0.670   1.217  16.616  0.4907  0.8256 -0.1702
 3392SOL    HW121635   0.696   1.150  16.553  3.1957  1.2422  0.4920
 3392SOL    HW221636   0.588   1.252  16.581  0.6373  0.0247 -1.2859
 3393SOL     OW21637   4.423   2.934   8.796  0.3987 -0.4467  0.3731
 3393SOL    HW121638   4.388   2.846   8.783 -0.8850  0.2880 -1.2040
 3393SOL    HW221639   4.379   2.960   8.877 -0.0292  0.4405 -0.1495
 3394SOL     OW21640   3.850   2.090   1.063  0.1182  0.3228  0.2225
 3394SOL    HW121641   3.870   2.162   1.003  2.2875 -0.6021 -0.1647
 3394SOL    HW221642   3.850   2.140   1.145 -0.3164  0.8639 -0.1040
 3395SOL     OW21643   1.162   2.281   5.485 -0.4546  0.4871  0.2650
 3395SOL    HW121644   1.187   2.189   5.479 -3.0171 -0.2424  0.4678
 3395SOL    HW221645   1.229   2.318   5.543  0.2398  0.9595 -0.8385
 3396SOL     OW21646   1.815   2.705   3.313 -0.2067  0.1852 -0.0522
 3396SOL    HW121647   1.847   2.780   3.262 -0.7532  1.2145  1.1201
 3396SOL    HW221648   1.721   2.710   3.332 -0.3570 -0.2999 -0.6905
 3397SOL     OW21649   3.213   2.281  16.383 -0.0076  0.8428 -0.0314
 3397SOL    HW121650   3.199   2.230  16.304 -0.1180  0.6627  0.1031
 3397SOL    HW221651   3.295   2.325  16.360  0.8552 -0.0650  1.2608
 3398SOL     OW21652   1.887   1.784   8.304 -0.2261 -0.0888  0.1086
 3398SOL    HW121653   1.982   1.789   8.295 -0.2450  0.0734 -0.0108
 3398SOL    HW221654   1.864   1.877   8.306  1.0291  0.2180  0.2342
 3399SOL     OW21655   2.270   1.628   6.549  0.4042  0.2909 -0.0975
 3399SOL    HW121656   2.284   1.713   6.507 -0.0201 -0.1362 -1.1081
 3399SOL    HW221657   2.338   1.625   6.616  1.3590  0.7731 -1.0469
 3400SOL     OW21658   0.170   3.198   4.915  0.0717 -0.1198  0.4684
 3400SOL    HW121659   0.167   3.115   4.962  0.7470 -0.3624  0.0799
 3400SOL    HW221660   0.091   3.245   4.941 -0.7273 -1.2714  0.1329
 3401SOL     OW21661   4.683   3.339   6.908 -0.4331 -0.0981  0.6010
 3401SOL    HW121662   0.011   3.268   6.951  0.4312 -0.1288 -0.4180
 3401SOL    HW221663   4.593   3.317   6.885 -1.7554  2.8264  3.0640
 3402SOL     OW21664   4.538   1.055   9.047  0.5198 -0.4860  0.4290
 3402SOL    HW121665   4.593   1.097   8.980  0.5315  0.2318  0.8840
 3402SOL    HW221666   4.520   1.132   9.101 -0.6359 -0.7987  0.4910
 3403SOL     OW21667   0.946   0.102   6.481  0.1022  0.1069 -0.2515
 3403SOL    HW121668   0.963   0.196   6.477 -0.5211  0.2845  1.0162
 3403SOL    HW221669   0.854   0.117   6.460 -0.2131 -2.2810 -0.5902
 3404SOL     OW21670   3.887   4.008  11.521 -0.5712 -0.2808 -0.1666
 3404SOL    HW121671   3.874   4.082  11.463  1.8851  0.0876 -0.2786
 3404SOL    HW221672   3.918   3.933  11.470 -0.1858 -1.3338  1.5869
 3405SOL     OW21673   3.273   2.218   5.293  0.2478  0.5397 -0.4656
 3405SOL    HW121674   3.317   2.299   5.267 -1.4565  1.3567 -0.7890
 3405SOL    HW221675   3.352   2.163   5.290 -0.6930 -0.8351 -0.1160
 3406SOL     OW21676   4.628   1.520   4.083  0.5202  0.0059  0.3646
 3406SOL    HW121677   4.641   1.587   4.151  3.5871 -0.6755  0.4631
 3406SOL    HW221678   4.644   1.571   4.004 -0.4362  0.0791  0.2195
 3407SOL     OW21679   0.265   2.576   3.913  0.5175 -0.2296 -0.6156
 3407SOL    HW121680   0.191   2.631   3.885  0.1118 -0.4090  0.0974
 3407SOL    HW221681   0.340   2.636   3.910  0.3884  0.0139  0.6790
 3408SOL     OW21682   3.653   1.114   9.086  0.3102 -0.3702  0.1398
 3408SOL    HW121683   3.597   1.190   9.100  0.4067 -0.5494  1.4608
 3408SOL    HW221684   3.719   1.123   9.154 -0.7234  2.1221  0.7925
 3409SOL     OW21685   3.558   1.400   4.998  0.1143 -0.4101  0.1236
 3409SOL    HW121686   3.624   1.382   4.931  0.1839  0.3247 -0.0019
 3409SOL    HW221687   3.495   1.461   4.960 -0.0103  0.5098  1.8189
 3410SOL     OW21688   1.352   3.331  14.980 -0.9404 -0.7462 -0.0410
 3410SOL    HW121689   1.268   3.315  15.024 -0.9297 -2.6517 -0.7104
 3410SOL    HW221690   1.407   3.308  15.055  0.2205 -1.3883 -1.0956
 3411SOL     OW21691   2.489   1.849  16.071 -0.6146 -0.3448  0.0146
 3411SOL    HW121692   2.538   1.843  15.989  0.1778 -3.3222  0.7093
 3411SOL    HW221693   2.416   1.793  16.045 -2.1101  0.5696  2.3093
 3412SOL     OW21694   2.220   4.652  14.441  0.2145 -0.1676  0.3095
 3412SOL    HW121695   2.296   4.707  14.422 -1.6491  2.6729  1.0548
 3412SOL    HW221696   2.214   4.665  14.536  1.4110  1.1591  0.2122
 3413SOL     OW21697   3.496   1.766   9.425 -0.5601 -0.2222  0.4518
 3413SOL    HW121698   3.589   1.762   9.444 -0.6103  1.1557  0.9940
 3413SOL    HW221699   3.468   1.694   9.481  0.2028 -0.9400 -0.0939
 3414SOL     OW21700   1.215   0.625   3.968 -0.2737 -0.2466 -0.2343
 3414SOL    HW121701   1.268   0.555   3.931 -1.6684 -1.2341 -0.3534
 3414SOL    HW221702   1.267   0.702   3.942  0.6541 -1.0120 -0.6284
 3415SOL     OW21703   3.161   3.690  10.726 -0.6922 -0.3127 -0.4210
 3415SOL    HW121704   3.250   3.680  10.760 -0.8520  2.1820  0.7091
 3415SOL    HW221705   3.169   3.678  10.631  0.9008 -0.8519 -0.2163
 3416SOL     OW21706   3.962   4.236   4.823  0.0894  0.1989 -0.4752
 3416SOL    HW121707   3.880   4.255   4.868  0.3072  1.5222 -0.6405
 3416SOL    HW221708   4.021   4.234   4.898 -1.3008 -2.0368  0.5604
 3417SOL     OW21709   2.713   2.471   6.704  0.5857  0.3455 -0.0524
 3417SOL    HW121710   2.757   2.543   6.658 -1.4788  0.4764 -1.7953
 3417SOL    HW221711   2.754   2.476   6.790 -1.2824 -0.8871  0.9119
 3418SOL     OW21712   0.797   2.715   8.700 -0.1424 -0.5710 -0.5141
 3418SOL    HW121713   0.727   2.712   8.636 -0.1113 -1.8721 -0.4979
 3418SOL    HW221714   0.781   2.794   8.752  0.2167  0.2027 -1.5741
 3419SOL     OW21715   2.036   0.276   7.495 -0.0129  0.3433 -0.8242
 3419SOL    HW121716   2.017   0.355   7.547  0.4174 -0.4461  0.5421
 3419SOL    HW221717   1.973   0.209   7.519 -1.0678  2.1499  1.5004
 3420SOL     OW21718   3.658   4.376   1.663  0.3856 -0.0028 -0.8010
 3420SOL    HW121719   3.678   4.376   1.756 -1.0369 -1.2620 -0.4957
 3420SOL    HW221720   3.708   4.452   1.634 -1.4129  1.0152 -1.2262
 3421SOL     OW21721   2.480   4.704  17.517 -0.7426 -0.1450 -0.1714
 3421SOL    HW121722   2.391   4.668  17.513 -0.5483 -0.7675  1.3226
 3421SOL    HW221723   2.476   0.053  17.582  0.0972  1.8453 -2.2278
 3422SOL     OW21724   0.694   2.316   4.234  0.1146 -0.7499 -0.8234
 3422SOL    HW121725   0.649   2.388   4.190 -0.7817 -0.9091 -0.1674
 3422SOL    HW221726   0.717   2.362   4.314  3.2052 -2.3739 -0.7669
 3423SOL     OW21727   3.707   3.243   7.233  0.1126 -0.4621  0.1160
 3423SOL    HW121728   3.701   3.181   7.161  0.9144 -1.0380  0.5475
 3423SOL    HW221729   3.697   3.321   7.179  0.8639 -0.1638  0.4133
 3424SOL     OW21730   1.777   2.579   2.221 -0.2925  0.3880  0.1309
 3424SOL    HW121731   1.823   2.498   2.246 -1.4634 -0.9350 -2.0011
 3424SOL    HW221732   1.802   2.637   2.293 -2.2910 -1.9425  2.7190
 3425SOL     OW21733   3.264   2.155  17.573 -0.1579  0.2234  0.2754
 3425SOL    HW121734   3.340   2.105  17.604  0.4245  0.8332 -0.1569
 3425SOL    HW221735   3.243   2.198  17.655 -2.1291  0.4884 -0.3743
 3426SOL     OW21736   4.084   3.918  11.706 -0.2585 -0.2357 -0.1030
 3426SOL    HW121737   4.027   3.957  11.639 -1.1552 -2.7554 -0.7828
 3426SOL    HW221738   4.121   3.993  11.753  1.8034 -0.6266 -1.0774
 3427SOL     OW21739   2.391   3.297   4.841 -0.3536  0.7482  0.0934
 3427SOL    HW121740   2.447   3.257   4.774 -0.4049 -0.8074  0.9812
 3427SOL    HW221741   2.379   3.226   4.904 -0.0302  0.6038 -0.0085
 3428SOL     OW21742   2.052   3.051   8.327  0.5601  0.3610 -0.2418
 3428SOL    HW121743   2.014   3.076   8.243 -0.0028  0.9434  0.1871
 3428SOL    HW221744   2.147   3.042   8.323  0.4392  0.5956 -3.2379
 3429SOL     OW21745   4.268   3.103  13.475 -0.0664  0.1708 -0.1570
 3429SOL    HW121746   4.312   3.096  13.560 -0.4168  0.8596  0.0820
 3429SOL    HW221747   4.245   3.196  13.468 -0.6373  0.0550  0.1638
 3430SOL     OW21748   4.693   4.549   6.743  0.0393 -0.3650  0.7564
 3430SOL    HW121749   0.045   4.507   6.698  0.9056  0.5017  1.3353
 3430SOL    HW221750   4.677   4.622   6.683 -0.7124 -1.1103  0.0564
 3431SOL     OW21751   0.480   4.364   4.949 -0.2396 -0.4088  0.0125
 3431SOL    HW121752   0.421   4.290   4.932  0.0945 -0.7603  0.3656
 3431SOL    HW221753   0.418   4.434   4.967 -1.4078 -1.3653 -0.3191
 3432SOL     OW21754   4.465   0.416   5.753 -0.1434 -0.5108 -0.3470
 3432SOL    HW121755   4.454   0.446   5.662  1.4811 -1.4677 -0.8456
 3432SOL    HW221756   4.375   0.386   5.762 -0.8255  1.4276 -0.6080
 3433SOL     OW21757   0.925   2.590   8.410 -0.8912 -0.6346 -0.1173
 3433SOL    HW121758   0.839   2.627   8.388 -1.7746 -1.8205  1.3181
 3433SOL    HW221759   0.902   2.515   8.465  1.7623 -1.5619 -0.3043
 3434SOL     OW21760   0.292   3.652   7.334  0.1241  0.1545  0.2763
 3434SOL    HW121761   0.344   3.621   7.260  1.5870 -0.1534  1.4365
 3434SOL    HW221762   0.222   3.587   7.340  1.3982 -1.2122  0.3302
 3435SOL     OW21763   4.076   0.892   3.164  0.1001  0.5058 -0.4236
 3435SOL    HW121764   4.057   0.836   3.089 -1.8588 -0.8862  1.1128
 3435SOL    HW221765   3.994   0.890   3.214  0.2911 -1.7844 -0.2109
 3436SOL     OW21766   2.172   0.653  16.399 -0.1873 -0.0373 -0.8026
 3436SOL    HW121767   2.152   0.671  16.491  0.4836  1.5247 -0.9518
 3436SOL    HW221768   2.262   0.621  16.399  0.1471  0.9094  1.0469
 3437SOL     OW21769   0.605   2.296   7.055 -0.2792  0.9003 -0.1059
 3437SOL    HW121770   0.579   2.370   7.110  0.3420 -0.5704  2.1472
 3437SOL    HW221771   0.694   2.277   7.085 -0.3585  1.4655  0.4870
 3438SOL     OW21772   0.775   3.819   3.533 -0.6750  0.2557 -0.2126
 3438SOL    HW121773   0.864   3.796   3.558 -0.0997  2.1174 -0.6045
 3438SOL    HW221774   0.730   3.819   3.618  0.8308 -1.6344  0.5836
 3439SOL     OW21775   1.569   0.498  15.760 -0.3328  0.6363 -0.3855
 3439SOL    HW121776   1.533   0.587  15.759  1.1972  1.2695  1.0289
 3439SOL    HW221777   1.632   0.503  15.833  1.0779 -2.9807 -1.3581
 3440SOL     OW21778   0.397   4.489  12.047  0.1745 -0.2291  0.0358
 3440SOL    HW121779   0.427   4.476  11.957  2.4542  2.1350  0.4626
 3440SOL    HW221780   0.316   4.439  12.060  1.0318 -1.5658  0.2694
 3441SOL     OW21781   1.833   3.913  15.330  0.2963 -0.0152  0.1227
 3441SOL    HW121782   1.848   3.900  15.236  0.1205 -0.8672  0.2160
 3441SOL    HW221783   1.890   3.989  15.344  0.1439 -0.1417  1.4641
 3442SOL     OW21784   4.135   1.103   2.241 -0.9029  0.0013  0.2756
 3442SOL    HW121785   4.116   1.196   2.254 -0.3905  0.1498 -0.0305
 3442SOL    HW221786   4.049   1.064   2.229  0.2602 -2.2087 -0.8256
 3443SOL     OW21787   4.379   3.828   7.841  0.1011 -0.1813  0.2549
 3443SOL    HW121788   4.337   3.814   7.926 -1.1617 -1.1381 -0.5223
 3443SOL    HW221789   4.321   3.773   7.788 -0.6770 -0.2264  1.1439
 3444SOL     OW21790   1.063   4.618   6.635 -0.3912 -0.4376 -0.3093
 3444SOL    HW121791   1.138   4.657   6.681 -0.6660 -1.4092  0.9489
 3444SOL    HW221792   1.046   4.690   6.574  0.3779  0.1570  0.1753
 3445SOL     OW21793   3.989   0.910   9.272  0.2651  0.1378  0.0228
 3445SOL    HW121794   3.986   0.830   9.324 -1.0941  0.6223  0.6894
 3445SOL    HW221795   3.989   0.876   9.182  0.2324  0.4378 -0.0926
 3446SOL     OW21796   1.321   0.220  14.051 -0.4425 -0.0935  0.3580
 3446SOL    HW121797   1.261   0.268  14.107 -2.3918  0.5203 -2.2925
 3446SOL    HW221798   1.329   0.136  14.098  0.6600 -0.6920 -0.8830
 3447SOL     OW21799   2.017   2.633   2.664  0.0734  0.3055  0.1446
 3447SOL    HW121800   2.102   2.668   2.638  0.4735 -0.2697  0.6759
 3447SOL    HW221801   1.968   2.704   2.706  1.1052  0.9809  0.2040
 3448SOL     OW21802   1.649   2.231   6.100 -0.2645  0.1519 -0.4030
 3448SOL    HW121803   1.669   2.170   6.170  2.0950 -0.0249 -1.2623
 3448SOL    HW221804   1.724   2.236   6.041  1.7530 -0.6880  2.0961
 3449SOL     OW21805   1.693   0.491  12.380 -0.0014  0.2022 -0.2422
 3449SOL    HW121806   1.750   0.562  12.349  0.1641  0.1132 -0.1422
 3449SOL    HW221807   1.627   0.494  12.311  1.3720 -4.3544 -1.7243
 3450SOL     OW21808   0.270   4.480   3.509  0.1026 -0.4315 -0.4664
 3450SOL    HW121809   0.327   4.540   3.460  1.4658 -0.3709  1.1679
 3450SOL    HW221810   0.260   4.512   3.599 -0.7966 -2.2546  0.0797
 3451SOL     OW21811   2.177   2.287  12.964 -0.1738 -0.4135 -0.4042
 3451SOL    HW121812   2.121   2.313  13.038  0.0727 -3.1828  0.7646
 3451SOL    HW221813   2.140   2.331  12.888 -0.9888  3.5030  2.2518
 3452SOL     OW21814   2.686   3.197   6.142  0.0152  0.0972  0.0806
 3452SOL    HW121815   2.590   3.190   6.144 -0.0407  1.1808  1.9530
 3452SOL    HW221816   2.699   3.158   6.056 -0.5385  0.2617 -0.0779
 3453SOL     OW21817   1.289   3.666   6.502  0.0705  0.4519 -0.1998
 3453SOL    HW121818   1.311   3.684   6.410 -1.4482  1.5193 -0.3598
 3453SOL    HW221819   1.371   3.690   6.545 -0.0502  1.0087 -0.2804
 3454SOL     OW21820   0.850   3.868  15.916 -0.4835 -0.0698  0.2790
 3454SOL    HW121821   0.755   3.871  15.905 -0.5467 -1.1535  0.5530
 3454SOL    HW221822   0.862   3.962  15.931 -2.0570  0.0035  1.0953
 3455SOL     OW21823   3.464   0.270   3.646 -0.1596 -0.2293  0.7496
 3455SOL    HW121824   3.512   0.272   3.563  0.7254  1.5237  1.3025
 3455SOL    HW221825   3.501   0.349   3.684 -0.2724 -1.2623  2.9871
 3456SOL     OW21826   2.982   0.682  16.483  0.1650 -0.3795  0.2159
 3456SOL    HW121827   2.988   0.589  16.506 -1.0771 -0.9996 -1.9444
 3456SOL    HW221828   3.073   0.708  16.499  0.0579  0.8635 -1.2052
 3457SOL     OW21829   2.403   0.564   2.432 -0.1723 -0.8861  0.5214
 3457SOL    HW121830   2.433   0.476   2.411  0.0837 -1.3572  2.8395
 3457SOL    HW221831   2.489   0.607   2.430 -0.8644  0.4967  0.1454
 3458SOL     OW21832   2.707   0.383   8.038  0.3660 -1.0687  0.5675
 3458SOL    HW121833   2.615   0.394   8.066  0.5394  0.0667  0.6948
 3458SOL    HW221834   2.700   0.296   7.999 -1.3328 -0.6244 -0.1469
 3459SOL     OW21835   3.114   2.847   6.275  0.1819 -0.3035 -0.1980
 3459SOL    HW121836   3.101   2.934   6.237  2.0456  0.2059  0.3073
 3459SOL    HW221837   3.026   2.852   6.312  0.7123  0.7486  0.9275
 3460SOL     OW21838   3.727   0.660  14.997 -0.0975  0.6226 -0.2757
 3460SOL    HW121839   3.730   0.731  14.934  0.3605 -0.5991 -1.6110
 3460SOL    HW221840   3.743   0.588  14.937 -1.2890  1.1456 -1.2216
 3461SOL     OW21841   4.283   0.865   2.288 -0.0708 -0.1353 -0.2926
 3461SOL    HW121842   4.236   0.940   2.253 -2.5737 -1.0691  1.0098
 3461SOL    HW221843   4.373   0.893   2.272  0.0851 -0.7716 -0.5607
 3462SOL     OW21844   3.527   2.016  17.524 -0.1687 -0.1686 -0.1790
 3462SOL    HW121845   3.585   1.944  17.549 -0.7521 -0.4831  0.2643
 3462SOL    HW221846   3.540   2.067  17.605  0.9481  1.0770 -1.1501
 3463SOL     OW21847   0.121   3.829   1.754  0.4638  0.0852 -0.0894
 3463SOL    HW121848   0.098   3.738   1.771  2.4909 -0.4499 -0.2631
 3463SOL    HW221849   0.191   3.840   1.819 -0.2280 -0.2070  0.7132
 3464SOL     OW21850   2.679   1.260   8.776  0.0156 -0.3171  0.2296
 3464SOL    HW121851   2.620   1.184   8.771  0.4068 -0.5208 -1.2104
 3464SOL    HW221852   2.606   1.321   8.786 -1.1844 -0.9990 -4.1655
 3465SOL     OW21853   1.131   3.446   8.020 -0.3301 -0.2126  0.0318
 3465SOL    HW121854   1.041   3.468   8.046  0.0596 -0.8974  1.9960
 3465SOL    HW221855   1.121   3.351   8.013 -1.4525 -0.1178  0.3348
 3466SOL     OW21856   1.553   2.733   3.396  1.0690  0.1080  0.1520
 3466SOL    HW121857   1.517   2.731   3.485  0.9194  0.2008  0.0932
 3466SOL    HW221858   1.609   2.809   3.408  0.9878  0.0523  0.8839
 3467SOL     OW21859   3.539   1.914   2.814 -0.2678 -0.2783 -0.4885
 3467SOL    HW121860   3.556   1.823   2.838  0.6893  0.0764  0.1433
 3467SOL    HW221861   3.489   1.954   2.885  2.2280 -1.3743  1.8649
 3468SOL     OW21862   2.196   1.721   7.856 -0.1278 -0.2807 -0.3172
 3468SOL    HW121863   2.255   1.797   7.848 -1.4930  1.0622  2.4045
 3468SOL    HW221864   2.145   1.755   7.930  0.8753  1.3754 -0.3811
 3469SOL     OW21865   3.376   3.954   8.596  0.0234  0.4315 -0.2458
 3469SOL    HW121866   3.451   3.932   8.540 -1.2208 -0.2822 -1.6306
 3469SOL    HW221867   3.297   3.952   8.541  0.2909  1.9659 -0.7128
 3470SOL     OW21868   0.902   0.335   4.280  0.6878  0.1551 -0.4444
 3470SOL    HW121869   0.807   0.324   4.269  0.6221  2.1681 -2.0003
 3470SOL    HW221870   0.928   0.244   4.295  1.7720  0.3664 -1.1032
 3471SOL     OW21871   1.130   1.761   1.054 -0.1498  0.2440  0.1148
 3471SOL    HW121872   1.068   1.825   1.018 -0.3326  0.4302  0.7643
 3471SOL    HW221873   1.137   1.795   1.143  0.0565  0.4990 -0.0002
 3472SOL     OW21874   1.450   0.644  16.112  0.4978 -0.1359  0.0823
 3472SOL    HW121875   1.482   0.557  16.134  2.6671  0.5620 -0.3567
 3472SOL    HW221876   1.506   0.689  16.175 -1.8994  0.3106  1.8918
 3473SOL     OW21877   3.742   0.740   5.385 -0.0406  0.3733  0.5098
 3473SOL    HW121878   3.689   0.812   5.419 -1.5993 -0.9779  0.9359
 3473SOL    HW221879   3.818   0.748   5.444  0.8117 -2.4154 -0.2252
 3474SOL     OW21880   1.758   2.704   6.462 -0.4754  0.3483 -1.0950
 3474SOL    HW121881   1.740   2.618   6.423  1.6001 -0.8577  0.6571
 3474SOL    HW221882   1.782   2.758   6.387  2.2959 -0.5188 -0.8190
 3475SOL     OW21883   0.369   1.754   7.158  0.4340  0.2994  0.1228
 3475SOL    HW121884   0.332   1.760   7.246  0.8416 -1.2373  0.4014
 3475SOL    HW221885   0.442   1.813   7.172 -0.2684  1.3598 -0.7180
 3476SOL     OW21886   1.988   2.052  14.104  0.4449  0.1294  0.0647
 3476SOL    HW121887   1.904   2.009  14.117  0.8151 -0.3943  0.7465
 3476SOL    HW221888   1.975   2.134  14.151  2.8130  0.8880 -0.5889
 3477SOL     OW21889   0.726   1.964   3.201  0.0647 -0.5268  0.4228
 3477SOL    HW121890   0.752   1.872   3.201  2.1375  0.0424  0.4454
 3477SOL    HW221891   0.734   1.982   3.107 -0.7710  1.4549  0.7414
 3478SOL     OW21892   0.503   0.508   0.078  0.2551  0.6848 -0.3118
 3478SOL    HW121893   0.506   0.431   0.021 -1.8965  1.1610 -1.0452
 3478SOL    HW221894   0.556   0.468   0.147  0.8013 -1.2177 -1.8162
 3479SOL     OW21895   2.891   0.980  11.785  0.2324  0.2654  0.4829
 3479SOL    HW121896   2.845   0.896  11.786 -0.4626  0.6302 -1.6193
 3479SOL    HW221897   2.848   1.023  11.860 -0.8387 -1.3907  0.8206
 3480SOL     OW21898   1.954   1.806   4.891 -0.0061 -0.7570 -0.3048
 3480SOL    HW121899   2.005   1.852   4.824 -0.2052 -0.3519 -0.1815
 3480SOL    HW221900   1.877   1.861   4.907  0.8289 -0.1946  1.7247
 3481SOL     OW21901   1.014   0.067   7.378  0.0083 -0.8972  0.5058
 3481SOL    HW121902   0.956   0.133   7.417 -0.7369 -0.2735 -1.6143
 3481SOL    HW221903   1.014   0.087   7.284  0.2187 -2.8420  0.0860
 3482SOL     OW21904   1.956   0.604  12.995 -0.1564  0.8658 -0.1803
 3482SOL    HW121905   2.047   0.615  13.022  0.0292 -0.1181 -0.4069
 3482SOL    HW221906   1.929   0.691  12.967  1.4932  2.0228  1.8016
 3483SOL     OW21907   3.127   1.895  16.433 -0.2280 -0.2028  0.7166
 3483SOL    HW121908   3.162   1.929  16.516  2.9000 -0.7242 -0.3836
 3483SOL    HW221909   3.055   1.955  16.418 -0.5493 -0.9326 -0.6152
 3484SOL     OW21910   0.262   4.184  10.758 -0.1073  0.2771 -0.2347
 3484SOL    HW121911   0.253   4.203  10.852 -2.7487  1.9582 -0.8407
 3484SOL    HW221912   0.261   4.088  10.760  2.9023  0.2957  2.1851
 3485SOL     OW21913   3.114   0.896   7.404  0.0912 -0.6292  0.0919
 3485SOL    HW121914   3.090   0.925   7.492  0.8275 -1.9273  0.7177
 3485SOL    HW221915   3.205   0.866   7.408  0.1165 -0.6968 -0.9699
 3486SOL     OW21916   1.388   4.635  10.968  0.0191  0.3965  0.0644
 3486SOL    HW121917   1.376   4.590  10.884 -0.8055  0.1974  0.2862
 3486SOL    HW221918   1.463   4.686  10.939 -0.1305  1.4898  1.6424
 3487SOL     OW21919   0.820   3.164   3.362 -0.0005 -0.1647 -0.3265
 3487SOL    HW121920   0.842   3.212   3.282  1.4088  0.9512  0.7248
 3487SOL    HW221921   0.725   3.163   3.362 -0.0052 -0.8433 -2.1722
 3488SOL     OW21922   1.164   4.110   8.767 -0.0907  0.0749  0.0388
 3488SOL    HW121923   1.231   4.051   8.801  1.9235  2.4479  0.1354
 3488SOL    HW221924   1.200   4.158   8.692 -0.0658  0.0337  0.0242
 3489SOL     OW21925   0.450   4.457   4.009  0.3467  0.2331 -0.1090
 3489SOL    HW121926   0.459   4.501   4.094  2.2011  0.5178 -0.4569
 3489SOL    HW221927   0.447   4.367   4.041 -0.2175  0.0227 -0.7598
 3490SOL     OW21928   3.497   2.622   7.862  0.5806 -0.1171  0.0737
 3490SOL    HW121929   3.519   2.588   7.948  1.4668  1.1785  0.3531
 3490SOL    HW221930   3.557   2.564   7.815 -0.8534 -1.4228 -0.1712
 3491SOL     OW21931   2.716   4.458   2.092  0.0069  0.0933  0.1609
 3491SOL    HW121932   2.643   4.520   2.102  0.2206  0.6703 -1.8297
 3491SOL    HW221933   2.680   4.371   2.106  1.3463 -0.1374  2.1786
 3492SOL     OW21934   1.527   0.142   4.013  0.0282  0.1007  0.2720
 3492SOL    HW121935   1.549   0.086   3.939 -1.8548 -0.7737  0.3873
 3492SOL    HW221936   1.432   0.150   4.010  0.2306  2.3398 -0.2927
 3493SOL     OW21937   3.829   1.133  17.526 -0.2418  0.5564 -0.0501
 3493SOL    HW121938   3.849   1.045  17.557  1.0219  0.2285 -1.7688
 3493SOL    HW221939   3.773   1.167  17.595 -0.3365 -1.5274  0.9152
 3494SOL     OW21940   2.760   2.125   3.859 -0.0653 -0.2063 -0.0011
 3494SOL    HW121941   2.793   2.078   3.936  2.8459  0.2555 -0.9641
 3494SOL    HW221942   2.843   2.133   3.813  0.5066 -2.2341  0.6468
 3495SOL     OW21943   4.644   1.043  16.485  0.1532 -0.5240  0.0135
 3495SOL    HW121944   4.618   1.090  16.564 -0.6998 -1.8295  0.5008
 3495SOL    HW221945   4.572   0.981  16.485  0.8600 -1.3340 -1.3727
 3496SOL     OW21946   0.265   1.197   8.756  0.4873 -0.0935 -0.1657
 3496SOL    HW121947   0.319   1.120   8.738  1.4513 -0.0904  2.7233
 3496SOL    HW221948   0.177   1.161   8.743  0.0097  2.0485 -2.8710
 3497SOL     OW21949   4.298   0.450   4.674  0.1415  0.1165  0.6777
 3497SOL    HW121950   4.226   0.394   4.643  0.2396 -0.2025  1.0205
 3497SOL    HW221951   4.251   0.496   4.743  1.2385 -0.4377  1.8007
 3498SOL     OW21952   3.732   4.365   2.888 -0.3865  0.3493  0.6829
 3498SOL    HW121953   3.714   4.276   2.919 -1.5822  0.3954  0.1479
 3498SOL    HW221954   3.775   4.399   2.966 -0.5998  0.4388  0.7621
 3499SOL     OW21955   2.143   2.270   2.367 -0.2819 -0.0324 -0.0353
 3499SOL    HW121956   2.160   2.176   2.367 -0.1150 -0.0011  1.1068
 3499SOL    HW221957   2.199   2.301   2.438  0.6786  0.0339 -0.8101
 3500SOL     OW21958   1.581   3.735   5.837 -0.2965 -0.7026 -0.0193
 3500SOL    HW121959   1.595   3.766   5.747 -0.3997  0.0263  0.2098
 3500SOL    HW221960   1.566   3.641   5.833 -1.7958 -0.5219  1.2337
 3501SOL     OW21961   0.267   3.802  13.964  0.3599  0.0611  1.0642
 3501SOL    HW121962   0.180   3.829  13.936  1.8782  3.5400 -0.2530
 3501SOL    HW221963   0.303   3.890  13.976  3.6085 -0.7164 -2.8033
 3502SOL     OW21964   2.841   2.180   5.116 -0.0750 -0.2913  0.0830
 3502SOL    HW121965   2.746   2.177   5.125  0.0965 -2.3887  1.0951
 3502SOL    HW221966   2.867   2.271   5.135 -1.8585  0.0624  0.8680
 3503SOL     OW21967   1.231   1.388  10.220 -0.0835  0.5783 -0.0455
 3503SOL    HW121968   1.218   1.444  10.296  0.1402 -1.1073  1.2272
 3503SOL    HW221969   1.150   1.337  10.220 -1.7451  3.1832 -0.0068
 3504SOL     OW21970   0.217   0.437   5.848  0.2237  0.6054  0.6091
 3504SOL    HW121971   0.238   0.525   5.816 -2.1872  1.2624  0.8620
 3504SOL    HW221972   0.176   0.399   5.770  1.2332  0.6453  0.0543
 3505SOL     OW21973   3.111   0.589   0.424  0.0679  0.5114  0.4419
 3505SOL    HW121974   3.128   0.497   0.401  0.1232  0.2136  1.6419
 3505SOL    HW221975   3.202   0.618   0.426 -0.2862  1.5489  1.9036
 3506SOL     OW21976   2.430   1.755  12.750  0.0952 -0.1516  0.3976
 3506SOL    HW121977   2.431   1.850  12.761 -1.2820 -0.0694 -0.1644
 3506SOL    HW221978   2.413   1.734  12.842 -0.6871  2.0259  0.7499
 3507SOL     OW21979   4.078   3.146  10.183  0.5173  0.1991 -0.1843
 3507SOL    HW121980   3.989   3.112  10.196  1.1918 -2.3559 -2.2502
 3507SOL    HW221981   4.127   3.068  10.208 -0.6215 -0.1654  0.9573
 3508SOL     OW21982   3.867   4.423   9.690  0.0796  0.1654  0.8320
 3508SOL    HW121983   3.827   4.488   9.748  0.1750 -0.2218  1.3342
 3508SOL    HW221984   3.795   4.400   9.632  1.7722 -0.3473 -1.0884
 3509SOL     OW21985   4.141   3.423   8.411 -0.3988 -0.3130  0.2638
 3509SOL    HW121986   4.087   3.353   8.374  0.4198 -0.6749 -0.2349
 3509SOL    HW221987   4.165   3.378   8.492 -1.8750  1.8573  1.9289
 3510SOL     OW21988   2.770   0.806  15.170  0.3130  0.2464 -0.2285
 3510SOL    HW121989   2.736   0.720  15.196 -1.4437  0.7033 -0.9839
 3510SOL    HW221990   2.735   0.861  15.240 -0.1524 -3.3531  2.3810
 3511SOL     OW21991   1.804   2.409  14.296 -0.2672 -0.2885 -0.0425
 3511SOL    HW121992   1.737   2.366  14.242 -0.9264  0.3715  0.2412
 3511SOL    HW221993   1.879   2.359  14.264  0.0689  0.2104 -0.0334
 3512SOL     OW21994   3.057   1.290   7.289 -0.1307  0.0120 -0.1157
 3512SOL    HW121995   3.114   1.227   7.246  0.2241 -0.4596  1.0458
 3512SOL    HW221996   3.084   1.281   7.381  0.5173  1.0307 -0.2081
 3513SOL     OW21997   3.791   3.215   8.054  0.3542  0.0138 -0.0979
 3513SOL    HW121998   3.783   3.306   8.025  0.0610  0.4079  1.2256
 3513SOL    HW221999   3.746   3.215   8.138  0.1639 -0.3607 -0.2033
 3514SOL     OW22000   4.630   0.711   4.643  0.0936  0.3688 -0.4880
 3514SOL    HW122001   4.558   0.681   4.588 -0.4766  0.1424  0.3795
 3514SOL    HW222002   4.685   0.741   4.572  0.2103  0.0527 -0.5335
 3515SOL     OW22003   3.372   1.182   1.886 -0.4224 -0.0665  0.2253
 3515SOL    HW122004   3.445   1.121   1.876 -1.0347 -0.9943  1.2706
 3515SOL    HW222005   3.296   1.126   1.870 -0.4279 -0.1318  0.4746
 3516SOL     OW22006   3.992   0.961   2.678 -0.3939 -0.4554  0.0557
 3516SOL    HW122007   3.991   0.866   2.670 -0.2356 -0.3511 -1.2350
 3516SOL    HW222008   3.934   0.979   2.604 -0.0993  0.8834  0.1424
 3517SOL     OW22009   1.022   3.714  11.808 -0.1331 -0.4640  0.9516
 3517SOL    HW122010   1.055   3.800  11.832 -0.9393  0.2021 -0.3378
 3517SOL    HW222011   1.099   3.659  11.788  1.2311  1.9420 -0.3481
 3518SOL     OW22012   1.220   2.916   7.430 -0.2716 -0.5620  0.0883
 3518SOL    HW122013   1.128   2.942   7.421 -0.6900 -1.4098  1.9062
 3518SOL    HW222014   1.272   2.995   7.443 -2.5062  1.1127 -1.2120
 3519SOL     OW22015   0.544   3.801  13.924 -0.0626  0.0699  0.0469
 3519SOL    HW122016   0.460   3.788  13.968  0.3815 -0.4111  0.7468
 3519SOL    HW222017   0.605   3.792  13.997 -1.0385 -0.2416  0.8224
 3520SOL     OW22018   1.051   1.510  10.398  0.0115 -0.4292  0.5324
 3520SOL    HW122019   1.000   1.459  10.336  0.3951  2.3552 -2.0608
 3520SOL    HW222020   1.011   1.595  10.380 -1.3503 -0.8405  1.6492
 3521SOL     OW22021   2.242   3.626  16.177  0.5110  0.6271 -0.5729
 3521SOL    HW122022   2.226   3.548  16.231 -1.7013  0.5419 -1.3713
 3521SOL    HW222023   2.331   3.649  16.203 -0.9007  3.7865  1.4001
 3522SOL     OW22024   3.053   2.483   5.587 -0.6097  0.9405 -0.1594
 3522SOL    HW122025   3.020   2.509   5.501 -0.3148 -1.3208 -0.9647
 3522SOL    HW222026   3.091   2.400   5.558  0.7821  1.4106  0.3410
 3523SOL     OW22027   0.183   0.854  12.255 -0.0439  0.4753  0.1102
 3523SOL    HW122028   0.146   0.784  12.201  1.2980  0.2891 -0.5902
 3523SOL    HW222029   0.115   0.921  12.253  1.3512  1.9524  2.1068
 3524SOL     OW22030   4.290   1.433   6.302 -0.0151 -0.0387 -0.1469
 3524SOL    HW122031   4.366   1.471   6.346 -0.9468  0.4615  1.0409
 3524SOL    HW222032   4.324   1.390   6.224 -0.3544 -0.6654  0.0449
 3525SOL     OW22033   2.410   2.457  13.017 -0.0634  0.4447  0.4117
 3525SOL    HW122034   2.494   2.415  12.997  0.8139  2.6349 -0.4802
 3525SOL    HW222035   2.346   2.394  12.983 -1.2147  1.5558  0.5157
 3526SOL     OW22036   3.472   2.651   7.205 -0.6214 -0.0808 -0.1830
 3526SOL    HW122037   3.476   2.568   7.252 -1.2842  0.4610  0.8244
 3526SOL    HW222038   3.460   2.623   7.114 -0.9012 -1.5329  0.3099
 3527SOL     OW22039   3.281   3.704   4.899 -0.8434  0.3799  0.5854
 3527SOL    HW122040   3.190   3.711   4.871 -0.7122 -1.0713 -0.2226
 3527SOL    HW222041   3.273   3.697   4.994  1.9281  0.1686  0.7988
 3528SOL     OW22042   4.027   0.481   6.898 -0.3124 -0.0866 -0.4029
 3528SOL    HW122043   3.975   0.492   6.978 -0.3906  0.9638 -0.6066
 3528SOL    HW222044   4.035   0.386   6.890  0.7373 -0.0327  0.0452
 3529SOL     OW22045   1.366   2.656  14.642 -0.0952  0.4448  0.0473
 3529SOL    HW122046   1.402   2.587  14.586  0.7338  0.6863  0.2934
 3529SOL    HW222047   1.394   2.740  14.605 -0.2665  0.1199 -0.8336
 3530SOL     OW22048   3.915   1.776   2.216  0.0868 -0.0472  0.7222
 3530SOL    HW122049   3.968   1.698   2.197 -3.1296 -1.9292 -0.4659
 3530SOL    HW222050   3.901   1.766   2.310 -0.0262 -0.1832  0.6911
 3531SOL     OW22051   4.003   4.596   9.896  0.1316 -0.3454 -0.3866
 3531SOL    HW122052   3.948   4.633   9.964 -1.5662  1.3883 -2.7009
 3531SOL    HW222053   3.951   4.584   9.817  0.7653 -0.4908 -0.7838
 3532SOL     OW22054   2.411   2.827   3.702  0.4510 -0.5637 -0.2811
 3532SOL    HW122055   2.407   2.742   3.659  1.2468 -0.4967 -0.4947
 3532SOL    HW222056   2.320   2.851   3.717  0.0697 -1.8029 -0.6487
 3533SOL     OW22057   1.956   2.933  13.402  0.6640 -0.3678 -0.2400
 3533SOL    HW122058   1.887   2.972  13.454  1.0454  0.1603 -0.1320
 3533SOL    HW222059   1.919   2.847  13.383  2.0791 -1.0070 -0.1198
 3534SOL     OW22060   4.200   2.502  17.014 -0.4555 -0.1511  0.0409
 3534SOL    HW122061   4.264   2.491  16.944 -2.2026 -1.4158 -1.3636
 3534SOL    HW222062   4.135   2.565  16.983  1.7165  1.4098 -1.2772
 3535SOL     OW22063   1.536   0.490   3.412 -0.2401 -0.6903 -0.4465
 3535SOL    HW122064   1.458   0.541   3.431  0.0778 -1.7961  3.8189
 3535SOL    HW222065   1.567   0.465   3.499  1.4973 -0.7906 -1.0956
 3536SOL     OW22066   0.388   2.308   5.988 -0.4471  0.0343  0.0392
 3536SOL    HW122067   0.398   2.214   5.973 -2.5179 -0.0140 -1.0622
 3536SOL    HW222068   0.421   2.325   6.076 -3.3124 -2.0161  1.5162
 3537SOL     OW22069   0.582   2.950  10.681  0.1211  0.5158 -0.6738
 3537SOL    HW122070   0.637   2.875  10.704 -0.1259  1.2091  2.2272
 3537SOL    HW222071   0.503   2.908  10.647 -0.8115  0.3545  1.6543
 3538SOL     OW22072   3.026   2.947   4.446  0.5500  0.2381  0.5974
 3538SOL    HW122073   3.103   2.924   4.394 -0.0353 -0.8040  0.2077
 3538SOL    HW222074   3.025   3.042   4.433  0.0075 -0.0390 -1.4492
 3539SOL     OW22075   2.186   3.012   4.798  0.2270 -0.5942  0.4920
 3539SOL    HW122076   2.210   3.073   4.868 -1.0906 -0.2767  0.6681
 3539SOL    HW222077   2.272   2.981   4.770  0.1496  1.4645 -2.0063
 3540SOL     OW22078   2.786   0.505   2.515 -0.0032 -0.0921  0.9848
 3540SOL    HW122079   2.715   0.459   2.560 -0.1776  0.5749  1.3978
 3540SOL    HW222080   2.776   0.479   2.423  0.9149 -0.1940  0.9164
 3541SOL     OW22081   1.976   1.573   7.748  0.4484 -0.2320 -0.7800
 3541SOL    HW122082   2.056   1.526   7.726  0.0181 -1.0059 -0.6830
 3541SOL    HW222083   2.019   1.636   7.806  2.6372 -1.6374 -0.8777
 3542SOL     OW22084   2.925   2.125   7.881  0.0485  0.0543 -0.2141
 3542SOL    HW122085   2.901   2.186   7.811  1.2091  2.3594  1.4039
 3542SOL    HW222086   2.944   2.173   7.961 -1.8128  0.0867  0.2068
 3543SOL     OW22087   3.733   3.493   9.288  0.5425 -0.4927  0.6411
 3543SOL    HW122088   3.758   3.583   9.308 -1.2296  0.7283 -2.7540
 3543SOL    HW222089   3.658   3.489   9.230  2.1922 -0.0811 -1.5231
 3544SOL     OW22090   0.609   1.454   5.342  0.1130 -0.4245  0.8275
 3544SOL    HW122091   0.582   1.422   5.428 -0.1762 -0.1635  0.8313
 3544SOL    HW222092   0.570   1.541   5.331  1.6702  0.2932  0.9421
 3545SOL     OW22093   2.684   4.115  10.422  0.5979  0.0878 -0.0477
 3545SOL    HW122094   2.639   4.145  10.344  0.2768  0.1031  0.1417
 3545SOL    HW222095   2.624   4.050  10.458  2.1067 -0.2505  1.8374
 3546SOL     OW22096   0.209   0.172  12.787  0.2287  0.4381  0.0304
 3546SOL    HW122097   0.257   0.117  12.849 -0.8172 -0.9389 -0.4017
 3546SOL    HW222098   0.275   0.158  12.719  0.0805 -0.9977  0.1933
 3547SOL     OW22099   3.657   0.304   3.424  0.0921  0.5513 -0.1634
 3547SOL    HW122100   3.593   0.300   3.353  0.8717  4.0868 -1.0337
 3547SOL    HW222101   3.708   0.224   3.409 -0.6503  0.1412 -0.5196
 3548SOL     OW22102   2.383   2.200   8.839  0.3378 -0.8938 -0.1146
 3548SOL    HW122103   2.360   2.148   8.916 -1.5135 -0.8237 -0.6019
 3548SOL    HW222104   2.398   2.290   8.866  1.7718 -0.7641 -1.3588
 3549SOL     OW22105   0.906   3.684   3.182  0.6398  0.4480 -0.3741
 3549SOL    HW122106   0.962   3.612   3.153  0.1690 -0.0874  0.0419
 3549SOL    HW222107   0.955   3.700   3.263 -1.9109  0.1622  1.2305
 3550SOL     OW22108   0.805   1.704   3.222 -0.1479  0.7868  0.3430
 3550SOL    HW122109   0.885   1.681   3.175  0.3972 -0.3284  1.8130
 3550SOL    HW222110   0.842   1.703   3.311  0.5898  0.1721  0.0231
 3551SOL     OW22111   3.439   0.775   8.753 -0.2828 -0.5646  0.4109
 3551SOL    HW122112   3.350   0.783   8.719 -0.0056 -0.6615 -0.3421
 3551SOL    HW222113   3.425   0.703   8.815 -4.3116 -0.2767 -0.1566
 3552SOL     OW22114   1.536   2.572  10.352 -0.7672 -0.2832 -0.6704
 3552SOL    HW122115   1.538   2.655  10.303  0.1524  0.0741 -0.0259
 3552SOL    HW222116   1.442   2.566  10.366 -0.8855  1.3434 -0.7317
 3553SOL     OW22117   0.512   3.064  15.016 -0.3447 -1.0831  0.3711
 3553SOL    HW122118   0.587   3.011  14.991 -0.7251 -1.2745 -0.3833
 3553SOL    HW222119   0.450   3.050  14.944  1.3409 -1.2096 -1.0712
 3554SOL     OW22120   0.349   1.170   8.303  0.0423 -0.1545  0.3487
 3554SOL    HW122121   0.268   1.122   8.317  1.1467 -1.9418  0.6416
 3554SOL    HW222122   0.412   1.098   8.302  0.5299  0.3464 -2.4183
 3555SOL     OW22123   1.457   1.069   2.102  0.1912  0.3740  0.5097
 3555SOL    HW122124   1.482   1.145   2.155  0.1518  0.5513  0.2726
 3555SOL    HW222125   1.369   1.100   2.082  0.4718 -0.4802 -2.0302
 3556SOL     OW22126   3.291   0.789   0.549 -0.1874  0.2520  0.0038
 3556SOL    HW122127   3.345   0.855   0.593  1.0205  0.3843 -1.6560
 3556SOL    HW222128   3.212   0.795   0.603 -0.6805 -0.8456 -0.5953
 3557SOL     OW22129   3.878   0.890   1.691  0.2082  0.3816  0.1892
 3557SOL    HW122130   3.857   0.894   1.784  0.7875  2.1144  0.2322
 3557SOL    HW222131   3.963   0.933   1.691  0.3524  0.1088 -0.5220
 3558SOL     OW22132   1.477   2.191   8.692 -0.2309 -0.3503 -0.2216
 3558SOL    HW122133   1.433   2.187   8.607 -3.3041 -2.8178  1.5124
 3558SOL    HW222134   1.409   2.143   8.739  0.7534 -1.3101  0.2417
 3559SOL     OW22135   3.268   1.692   5.354  0.1260  0.5999  0.0328
 3559SOL    HW122136   3.199   1.708   5.290  0.2288 -2.0046 -0.7468
 3559SOL    HW222137   3.218   1.687   5.436  1.7527 -0.8663  0.9326
 3560SOL     OW22138   0.861   3.900   7.763  0.1460  0.3878 -0.3038
 3560SOL    HW122139   0.946   3.865   7.737 -0.6297 -0.5741 -1.5613
 3560SOL    HW222140   0.867   3.908   7.858 -0.4237 -0.5487 -0.1974
 3561SOL     OW22141   4.328   1.135   6.391 -0.4396 -0.2443 -0.1970
 3561SOL    HW122142   4.235   1.108   6.391  0.5372 -3.6860 -0.1126
 3561SOL    HW222143   4.310   1.228   6.404  1.4343  0.0893 -0.0144
 3562SOL     OW22144   2.635   2.702  13.315 -0.0170  0.1392 -0.2509
 3562SOL    HW122145   2.632   2.681  13.222 -0.2728 -0.5361 -0.0901
 3562SOL    HW222146   2.546   2.736  13.324  0.2896  1.2064 -1.3280
 3563SOL     OW22147   0.226   1.438  15.568 -0.4103  0.1036  0.6977
 3563SOL    HW122148   0.165   1.381  15.523 -0.8051  0.2023  1.1032
 3563SOL    HW222149   0.180   1.517  15.596 -2.0028 -0.7237  0.3771
 3564SOL     OW22150   4.219   2.785  10.677 -0.3636  0.2878 -0.3947
 3564SOL    HW122151   4.210   2.853  10.744 -1.1693  1.0236 -1.2484
 3564SOL    HW222152   4.287   2.821  10.620 -0.5520  1.4897  0.1482
 3565SOL     OW22153   4.022   0.179   6.993  0.8764 -0.1566 -0.0090
 3565SOL    HW122154   4.083   0.145   6.927 -0.2819 -0.9014 -0.6891
 3565SOL    HW222155   4.093   0.205   7.051  0.1917  0.5633  0.4961
 3566SOL     OW22156   4.353   0.932   3.721  0.4833  0.1362 -0.0877
 3566SOL    HW122157   4.403   0.855   3.748 -0.4403  0.4444  2.5180
 3566SOL    HW222158   4.394   0.961   3.639 -0.5929 -0.4025 -0.8146
 3567SOL     OW22159   0.625   0.098   7.111 -0.1575  0.0735  0.0493
 3567SOL    HW122160   0.609   0.030   7.176 -2.2190 -0.2140 -0.7861
 3567SOL    HW222161   0.637   0.039   7.037  4.6346  0.5708  0.3957
 3568SOL     OW22162   0.912   3.423   7.451 -0.6130  0.9361  0.2308
 3568SOL    HW122163   0.969   3.370   7.507 -0.0490  1.1968 -0.1028
 3568SOL    HW222164   0.832   3.420   7.505 -1.4562  1.0386 -1.0194
 3569SOL     OW22165   4.363   2.965   3.939 -0.2313 -0.4488 -0.1657
 3569SOL    HW122166   4.433   2.996   3.882  0.8568  0.3469  1.6256
 3569SOL    HW222167   4.379   3.013   4.020  0.3223  0.7116 -0.9733
 3570SOL     OW22168   2.487   2.106   3.870  0.1885 -0.8672 -0.0968
 3570SOL    HW122169   2.459   2.150   3.789  0.0322  0.0945  0.4740
 3570SOL    HW222170   2.581   2.100   3.854  0.0598 -3.6989  0.1924
 3571SOL     OW22171   1.504   4.408   5.091 -0.0038  0.0122  0.2905
 3571SOL    HW122172   1.546   4.437   5.172  0.7792  2.4761 -0.9810
 3571SOL    HW222173   1.433   4.354   5.126 -0.2168 -0.6453 -1.1437
 3572SOL     OW22174   1.663   0.280   5.790 -0.0037 -0.5125  0.1928
 3572SOL    HW122175   1.606   0.352   5.766  0.2798  0.0151  1.1164
 3572SOL    HW222176   1.632   0.259   5.878 -1.3225 -0.1969 -0.1999
 3573SOL     OW22177   1.903   4.170   7.229 -0.0260 -0.1415  0.1671
 3573SOL    HW122178   1.905   4.181   7.324 -0.8401 -0.3415  0.2077
 3573SOL    HW222179   1.877   4.254   7.192 -1.2657  0.5703  2.6609
 3574SOL     OW22180   2.065   3.436   8.906  0.6715  0.5795  0.5546
 3574SOL    HW122181   2.091   3.493   8.979  1.0405  1.3499 -0.1666
 3574SOL    HW222182   1.974   3.421   8.933  0.0223  0.0301 -1.9822
 3575SOL     OW22183   0.401   0.916   2.210 -0.2188  0.6091 -0.2418
 3575SOL    HW122184   0.322   0.966   2.194 -1.3872 -1.3540 -0.6728
 3575SOL    HW222185   0.385   0.845   2.147  1.8100 -0.1297  0.0522
 3576SOL     OW22186   3.997   4.353   4.039 -0.7640 -0.6003  0.1850
 3576SOL    HW122187   4.062   4.283   4.034 -2.2851 -1.9260 -0.7480
 3576SOL    HW222188   3.922   4.302   4.068 -0.0144 -0.1451  2.9330
 3577SOL     OW22189   4.030   1.078  10.525  0.5077 -0.0083  0.3237
 3577SOL    HW122190   4.089   1.141  10.483  0.1394 -1.2907 -2.1252
 3577SOL    HW222191   4.088   1.044  10.593  0.0405 -1.7245 -0.1247
 3578SOL     OW22192   2.872   4.449   1.819  0.1469  0.0197 -0.0841
 3578SOL    HW122193   2.836   4.361   1.807  1.3120 -0.1854 -2.1785
 3578SOL    HW222194   2.847   4.475   1.907  1.7092  0.7980  0.1223
 3579SOL     OW22195   1.737   3.015  13.552 -0.0003 -0.1577  0.0187
 3579SOL    HW122196   1.643   2.999  13.542  0.0883 -0.6564 -0.0299
 3579SOL    HW222197   1.755   2.960  13.629 -0.0669 -0.4306 -0.1609
 3580SOL     OW22198   3.622   3.886  14.491 -0.1413 -0.3725 -0.3006
 3580SOL    HW122199   3.706   3.931  14.501 -0.3742 -0.1984  0.9047
 3580SOL    HW222200   3.575   3.956  14.537  1.1292  0.6365 -0.5429
 3581SOL     OW22201   2.541   1.225   2.434 -0.0447  0.6714  0.1024
 3581SOL    HW122202   2.580   1.248   2.518  1.0929  0.5618 -0.4002
 3581SOL    HW222203   2.463   1.180   2.467  0.3068  0.6656  0.9095
 3582SOL     OW22204   1.779   3.748   8.084  0.0713 -0.1579 -0.0440
 3582SOL    HW122205   1.789   3.834   8.125  1.8065  0.2714 -1.3760
 3582SOL    HW222206   1.774   3.686   8.157  3.9234  0.1823  0.5342
 3583SOL     OW22207   0.662   2.231   3.145  0.0050 -0.2430  0.1268
 3583SOL    HW122208   0.643   2.146   3.186 -0.6344 -0.1936 -0.0757
 3583SOL    HW222209   0.691   2.284   3.219  0.7786 -2.4402  1.4167
 3584SOL     OW22210   2.183   2.409   4.055 -0.5804 -0.3315 -0.5585
 3584SOL    HW122211   2.133   2.481   4.017  0.2686  1.2981  1.4395
 3584SOL    HW222212   2.198   2.357   3.976 -1.0614 -2.4436  0.7647
 3585SOL     OW22213   1.988   2.221   7.239 -0.0825 -0.0805 -0.4429
 3585SOL    HW122214   2.011   2.196   7.329  1.5290 -2.1556 -1.4410
 3585SOL    HW222215   1.956   2.310   7.255  0.3873  0.1317 -0.6806
 3586SOL     OW22216   2.095   2.089   7.470  0.1493  0.1732 -0.0077
 3586SOL    HW122217   2.076   2.039   7.550  0.8899 -0.8749 -0.5017
 3586SOL    HW222218   2.096   2.179   7.505  1.3845  0.2724 -0.3318
 3587SOL     OW22219   2.848   0.560  14.740  0.2293  0.0854  0.4688
 3587SOL    HW122220   2.800   0.555  14.823 -1.9125  0.1889 -0.7827
 3587SOL    HW222221   2.874   0.653  14.741 -1.0587  0.4399  0.6475
 3588SOL     OW22222   3.691   4.601   5.961  0.1535 -0.8086 -0.1681
 3588SOL    HW122223   3.714   4.512   5.989 -0.3960 -0.7977  0.3322
 3588SOL    HW222224   3.643   4.619   6.042  1.0462 -1.9095  0.6077
 3589SOL     OW22225   1.841   0.130   2.484  0.5962  0.0889  0.0278
 3589SOL    HW122226   1.876   0.071   2.550 -2.7136 -1.0916  0.6967
 3589SOL    HW222227   1.834   0.078   2.403 -1.5130 -0.0142  0.2737
 3590SOL     OW22228   1.178   0.434   5.115 -0.4648  0.0235 -0.0129
 3590SOL    HW122229   1.108   0.424   5.050 -1.0222  0.4471  0.5219
 3590SOL    HW222230   1.249   0.394   5.063 -0.4805  1.2043 -0.9417
 3591SOL     OW22231   1.864   4.218  17.588 -0.0736  0.2025  0.4687
 3591SOL    HW122232   1.794   4.163  17.552 -0.8070  1.6356 -0.2716
 3591SOL    HW222233   1.881   4.180  17.675 -0.6943  0.0236  0.5121
 3592SOL     OW22234   1.110   4.603   3.953  0.3289 -0.3872 -0.2904
 3592SOL    HW122235   1.121   4.596   3.859 -0.2670  0.7917 -0.4468
 3592SOL    HW222236   1.148   4.517   3.973  3.4384  1.2016  0.5625
 3593SOL     OW22237   3.701   1.016   3.990  0.3172 -0.1901  0.4202
 3593SOL    HW122238   3.694   0.934   4.037  0.8985 -0.5543 -0.1355
 3593SOL    HW222239   3.677   0.990   3.901  1.6143  0.2152 -0.0481
 3594SOL     OW22240   0.983   3.295   5.997 -0.1381  0.1555 -0.0340
 3594SOL    HW122241   0.906   3.239   5.993 -0.4910  0.6495 -0.0763
 3594SOL    HW222242   0.981   3.324   6.088 -0.4721 -1.3015  0.4348
 3595SOL     OW22243   2.260   3.529   6.158  0.0320  0.0385  0.1455
 3595SOL    HW122244   2.288   3.440   6.139  0.3553  0.0178  0.6986
 3595SOL    HW222245   2.329   3.546   6.222 -2.3297 -1.4585  3.1150
 3596SOL     OW22246   2.274   3.533   7.175 -0.4339 -0.3320  0.1422
 3596SOL    HW122247   2.340   3.473   7.139 -0.5458 -1.2616  1.4782
 3596SOL    HW222248   2.254   3.493   7.260  0.6733  2.0608  1.5012
 3597SOL     OW22249   1.447   1.922   1.172 -0.4615  0.0674  0.1334
 3597SOL    HW122250   1.393   1.993   1.206 -1.1634 -1.2061  1.6177
 3597SOL    HW222251   1.383   1.852   1.164 -0.5431 -0.0030  1.4039
 3598SOL     OW22252   2.177   0.230  17.300 -0.1130  0.1111  0.7365
 3598SOL    HW122253   2.236   0.160  17.327 -0.9762 -0.6802  0.5693
 3598SOL    HW222254   2.235   0.306  17.288  0.2847 -0.2655  0.2624
 3599SOL     OW22255   4.192   3.464  15.725  0.6482  0.6828 -0.6860
 3599SOL    HW122256   4.135   3.480  15.801 -1.6600  1.1663 -2.5336
 3599SOL    HW222257   4.194   3.368  15.721 -0.6334  0.5840  0.7033
 3600SOL     OW22258   3.348   3.464  12.423 -0.3841 -0.6350  0.5808
 3600SOL    HW122259   3.440   3.436  12.418 -0.1306  0.1693  0.8285
 3600SOL    HW222260   3.367   3.557  12.430 -1.4352 -0.5479  2.2665
 3601SOL     OW22261   3.477   2.437   4.162  0.0058 -0.3802  0.0762
 3601SOL    HW122262   3.385   2.414   4.172 -0.1978  0.3974  0.0424
 3601SOL    HW222263   3.513   2.444   4.250 -0.4039 -0.3548  0.2364
 3602SOL     OW22264   4.406   4.473   1.225 -0.8250  0.4540  0.2465
 3602SOL    HW122265   4.471   4.496   1.160 -0.4531  0.0868  0.4856
 3602SOL    HW222266   4.327   4.455   1.174 -1.1003 -0.4582  0.9732
 3603SOL     OW22267   2.275   3.904  12.443 -0.6208 -0.2910  0.1778
 3603SOL    HW122268   2.267   3.867  12.355 -1.8321 -1.4699  0.7882
 3603SOL    HW222269   2.356   3.862  12.473 -0.6179 -0.4246 -0.0211
 3604SOL     OW22270   4.193   3.072   1.724 -0.2912 -0.0023  0.7593
 3604SOL    HW122271   4.178   3.165   1.704 -3.3613 -0.6433  0.1702
 3604SOL    HW222272   4.224   3.034   1.642 -0.6686  0.1831  0.5296
 3605SOL     OW22273   1.469   2.173   3.716 -0.1140 -0.2733 -0.4782
 3605SOL    HW122274   1.448   2.215   3.633 -0.4021  0.4605 -0.0343
 3605SOL    HW222275   1.431   2.236   3.777  1.4544 -0.7187  0.9490
 3606SOL     OW22276   1.024   0.554   4.318  0.4238  0.2326 -0.0734
 3606SOL    HW122277   1.048   0.541   4.410  1.3601 -0.6632 -0.4377
 3606SOL    HW222278   0.978   0.473   4.295  0.4643  0.4314 -0.8493
 3607SOL     OW22279   3.406   1.653   5.987  0.0156  0.0457  0.0214
 3607SOL    HW122280   3.427   1.560   5.977 -1.2566 -0.2881  0.3774
 3607SOL    HW222281   3.492   1.690   6.006  0.4473 -0.9971  0.1514
 3608SOL     OW22282   1.457   3.992  10.452  0.3003 -0.2977  0.0019
 3608SOL    HW122283   1.430   4.029  10.368  1.0928  0.0973 -0.0761
 3608SOL    HW222284   1.420   3.906  10.432  1.7859 -1.3153  1.5716
 3609SOL     OW22285   0.712   2.585  10.001  0.4736 -0.1646 -0.6277
 3609SOL    HW122286   0.658   2.622   9.931  0.2995 -0.4366 -0.6321
 3609SOL    HW222287   0.726   2.498   9.963  0.4074 -1.1833  1.7191
 3610SOL     OW22288   2.250   0.848  10.230 -0.7878  0.0225 -0.0335
 3610SOL    HW122289   2.226   0.887  10.146  0.1900 -3.7989 -2.0994
 3610SOL    HW222290   2.164   0.820  10.259  0.1375  0.7512  3.4302
 3611SOL     OW22291   1.645   2.047  12.859 -0.4097 -0.3473  0.4791
 3611SOL    HW122292   1.688   2.121  12.901  0.4497 -0.5106 -0.1184
 3611SOL    HW222293   1.553   2.057  12.883 -1.4847 -3.4135 -2.4049
 3612SOL     OW22294   2.007   3.842   1.634 -0.0421 -0.2133 -0.0329
 3612SOL    HW122295   1.923   3.856   1.591  0.5444  1.0467 -0.7840
 3612SOL    HW222296   2.003   3.876   1.723 -1.1905  2.9726 -1.2715
 3613SOL     OW22297   2.423   0.947   0.478  0.3389  0.4684 -0.1644
 3613SOL    HW122298   2.504   0.895   0.477  1.2577  1.9266 -0.4847
 3613SOL    HW222299   2.406   0.944   0.572  0.1225 -1.1453 -0.2466
 3614SOL     OW22300   0.847   1.488   8.730 -0.2671  0.1150 -0.3909
 3614SOL    HW122301   0.787   1.466   8.659 -0.2721  0.4954 -0.5057
 3614SOL    HW222302   0.929   1.454   8.694 -0.2791 -3.5223  3.0652
 3615SOL     OW22303   0.517   2.356   5.037  0.7217  0.1478 -0.3215
 3615SOL    HW122304   0.438   2.302   5.037  1.6412 -1.1674 -0.7541
 3615SOL    HW222305   0.545   2.343   5.128 -0.6888  0.7881  0.2160
 3616SOL     OW22306   0.620   3.639  14.702  0.0689 -0.2036 -0.3327
 3616SOL    HW122307   0.587   3.702  14.766  0.0255  1.6737 -2.2018
 3616SOL    HW222308   0.674   3.583  14.758  1.3594  2.7084  1.3959
 3617SOL     OW22309   2.685   2.388  14.668 -0.5361  0.1755  0.6814
 3617SOL    HW122310   2.745   2.351  14.733  1.2015 -1.3365 -1.8088
 3617SOL    HW222311   2.711   2.480  14.675  0.3777  0.0113 -0.6283
 3618SOL     OW22312   4.201   3.986   6.018 -0.1509  0.6469  0.2576
 3618SOL    HW122313   4.197   3.918   5.951  2.4402  1.2693 -0.5385
 3618SOL    HW222314   4.115   4.027   6.014 -0.3830  0.1398  0.1062
 3619SOL     OW22315   2.935   2.304   9.151 -0.5693  0.2269  0.1927
 3619SOL    HW122316   2.976   2.357   9.219  0.0887 -2.1557  1.6505
 3619SOL    HW222317   2.998   2.234   9.135 -1.6199 -1.2721  2.7582
 3620SOL     OW22318   2.132   2.904   3.683  0.4338  0.2282 -0.2819
 3620SOL    HW122319   2.065   2.855   3.731  1.7163 -1.1191  0.1322
 3620SOL    HW222320   2.084   2.981   3.650 -0.6182 -0.9233 -1.4166
 3621SOL     OW22321   2.660   2.758  14.235  0.7938 -0.1234 -0.0336
 3621SOL    HW122322   2.622   2.800  14.158  0.1265 -0.6626  0.0006
 3621SOL    HW222323   2.753   2.760  14.214  1.1251  1.8815  1.5510
 3622SOL     OW22324   3.164   2.130  15.414  0.4028  0.3576 -0.5742
 3622SOL    HW122325   3.100   2.118  15.344 -0.0715 -0.6011  0.0194
 3622SOL    HW222326   3.134   2.063  15.475  1.3899 -1.4347 -2.0544
 3623SOL     OW22327   3.087   0.728   8.126 -0.0959 -0.5499 -0.1647
 3623SOL    HW122328   3.110   0.664   8.193  0.9275  0.4945  0.4683
 3623SOL    HW222329   2.994   0.708   8.126  0.1340 -1.6856 -1.5966
 3624SOL     OW22330   4.389   1.319   5.672 -0.3432  0.0581  0.6033
 3624SOL    HW122331   4.397   1.234   5.627 -2.0527  0.1158  0.1972
 3624SOL    HW222332   4.359   1.285   5.757  3.5964  1.5202  2.5477
 3625SOL     OW22333   2.031   2.035   5.584  0.3455 -0.1894 -1.0907
 3625SOL    HW122334   2.086   2.018   5.507  0.4239 -0.7025 -0.9195
 3625SOL    HW222335   1.943   2.036   5.549 -0.7806 -2.6016  1.6655
 3626SOL     OW22336   1.455   2.713  14.039 -0.6927 -0.2950 -1.0859
 3626SOL    HW122337   1.469   2.808  14.039  1.7845 -0.6735  2.0270
 3626SOL    HW222338   1.523   2.691  13.975 -0.0112 -0.6252 -0.2347
 3627SOL     OW22339   2.324   1.927   3.709  0.0650  0.1051  0.2115
 3627SOL    HW122340   2.352   1.927   3.801 -1.6718 -2.0220  0.7351
 3627SOL    HW222341   2.408   1.919   3.664 -0.0400 -0.3413  0.0886
 3628SOL     OW22342   1.546   2.927  14.941 -0.6679  0.0582  0.1215
 3628SOL    HW122343   1.480   2.893  15.001 -0.4097 -0.3809  0.1610
 3628SOL    HW222344   1.493   2.966  14.872  1.9532 -0.2488 -2.0533
 3629SOL     OW22345   1.381   4.437  16.107  0.0574  0.6374  0.3474
 3629SOL    HW122346   1.463   4.486  16.096  1.4418 -1.9411 -0.8400
 3629SOL    HW222347   1.391   4.375  16.034 -1.2430  1.7976 -0.8045
 3630SOL     OW22348   1.012   3.180   5.087  0.2723 -0.3165  0.4864
 3630SOL    HW122349   1.107   3.180   5.070 -0.6415 -0.4413 -4.4779
 3630SOL    HW222350   0.997   3.094   5.048  1.8110  0.1435 -1.1271
 3631SOL     OW22351   3.920   3.415   2.978 -0.7740  0.1823 -0.5968
 3631SOL    HW122352   3.957   3.452   2.898  0.9420 -0.1667  0.0272
 3631SOL    HW222353   3.995   3.414   3.037  1.0461 -0.4548 -2.9221
 3632SOL     OW22354   0.104   3.114   6.291  0.1866 -0.2138  0.5511
 3632SOL    HW122355   0.040   3.083   6.227  1.3424 -1.6947  0.1178
 3632SOL    HW222356   0.061   3.084   6.371 -1.8700  0.0807 -0.4169
 3633SOL     OW22357   1.460   4.476   8.451 -0.1396  0.4167  0.6059
 3633SOL    HW122358   1.417   4.561   8.461  1.3668  1.3817 -1.1754
 3633SOL    HW222359   1.531   4.499   8.511  0.1921 -1.3060  0.8860
 3634SOL     OW22360   0.904   0.872  10.820  0.2035  0.3789  0.4754
 3634SOL    HW122361   0.857   0.792  10.842 -0.3721  0.7854  0.7311
 3634SOL    HW222362   0.919   0.905  10.909  0.3346  1.6492 -0.0200
 3635SOL     OW22363   0.058   2.417  17.325 -0.3182 -0.2936  0.2900
 3635SOL    HW122364   0.127   2.400  17.389  0.0922  0.4864  0.0527
 3635SOL    HW222365   0.029   2.501  17.360  1.9448  0.6233 -0.0059
 3636SOL     OW22366   3.143   1.854  14.223  0.3588  0.4487 -0.2083
 3636SOL    HW122367   3.111   1.937  14.258 -1.4639 -0.4453  0.2866
 3636SOL    HW222368   3.133   1.806  14.305 -1.0329 -0.2029 -0.7509
 3637SOL     OW22369   1.200   2.909  13.872 -0.3123 -0.6490  0.3194
 3637SOL    HW122370   1.126   2.924  13.814  0.3269 -1.0043 -0.5962
 3637SOL    HW222371   1.264   2.867  13.815  1.4615  1.7264  0.5496
 3638SOL     OW22372   1.135   2.148  11.298 -0.1598 -0.7278 -0.1020
 3638SOL    HW122373   1.103   2.098  11.222 -0.7097 -3.7022  2.0579
 3638SOL    HW222374   1.087   2.230  11.289  0.3722 -0.2848  1.0905
 3639SOL     OW22375   0.967   2.040  15.448 -0.2957  0.2443 -0.0357
 3639SOL    HW122376   1.010   2.124  15.465  0.5892  0.3903 -2.9695
 3639SOL    HW222377   0.914   2.067  15.373 -2.7733 -0.0151  1.6240
 3640SOL     OW22378   4.698   4.214  11.081 -0.1175 -0.0795 -0.0456
 3640SOL    HW122379   4.612   4.192  11.046  0.1496  0.4703 -1.0379
 3640SOL    HW222380   4.686   4.250  11.169 -2.9024 -0.7899 -0.1309
 3641SOL     OW22381   3.647   3.857   3.678 -0.2438  0.5499 -0.2404
 3641SOL    HW122382   3.600   3.829   3.600  0.2283 -0.4885 -0.1561
 3641SOL    HW222383   3.734   3.822   3.656 -1.2802 -1.4270 -1.1264
 3642SOL     OW22384   0.681   4.471   2.523  0.7684  0.1335 -0.0457
 3642SOL    HW122385   0.760   4.449   2.572  0.7077  0.4504  0.1987
 3642SOL    HW222386   0.724   4.534   2.465  1.4130  0.4218  0.7430
 3643SOL     OW22387   0.038   2.131   6.704 -0.1757  0.6888 -0.1828
 3643SOL    HW122388   0.100   2.199   6.731 -0.2228  1.1580 -1.2587
 3643SOL    HW222389   4.690   2.139   6.770  0.1247 -0.9659  0.3426
 3644SOL     OW22390   1.377   2.111   7.178 -0.2081  0.2268  0.2109
 3644SOL    HW122391   1.322   2.125   7.255 -1.1573  0.5845 -0.5302
 3644SOL    HW222392   1.451   2.169   7.193 -1.2885  0.9936  2.5704
 3645SOL     OW22393   1.966   4.386  14.062  0.5638 -0.6164  0.2277
 3645SOL    HW122394   1.978   4.294  14.084  3.2856 -0.3360 -0.0596
 3645SOL    HW222395   1.986   4.423  14.148 -2.3306  0.3243  0.5134
 3646SOL     OW22396   4.257   0.729   6.472 -0.4663 -0.3839 -0.3705
 3646SOL    HW122397   4.291   0.640   6.483  0.3693 -0.0604 -0.4008
 3646SOL    HW222398   4.334   0.778   6.501 -0.5501  0.9707 -2.4804
 3647SOL     OW22399   0.088   3.269   9.394 -0.2485 -0.4440 -0.4609
 3647SOL    HW122400   0.082   3.208   9.468 -2.3173 -0.1325 -0.3790
 3647SOL    HW222401   0.074   3.205   9.324  0.8777 -1.7629  0.4955
 3648SOL     OW22402   3.956   0.273   5.825  0.3086 -0.0881 -0.0482
 3648SOL    HW122403   3.972   0.320   5.907 -0.1959  0.4447 -0.2600
 3648SOL    HW222404   3.863   0.252   5.828  0.1360  0.5991 -0.4959
 3649SOL     OW22405   0.946   1.703   5.140  0.0773 -0.3644  0.6010
 3649SOL    HW122406   1.038   1.685   5.162  1.2556  2.5335 -1.8842
 3649SOL    HW222407   0.901   1.625   5.170  0.7452 -0.2498  1.9165
 3650SOL     OW22408   4.399   0.235  14.209  0.3479  0.1697 -0.3413
 3650SOL    HW122409   4.381   0.287  14.288 -0.8549 -0.4076 -0.2311
 3650SOL    HW222410   4.466   0.278  14.157  0.5252 -0.7801 -0.8899
 3651SOL     OW22411   1.893   4.330   6.000  0.7488  0.1215 -0.0314
 3651SOL    HW122412   1.954   4.281   5.945  0.9148 -0.0722  0.3233
 3651SOL    HW222413   1.827   4.363   5.939 -1.1100 -1.6516  1.0216
 3652SOL     OW22414   0.912   3.410   6.244  0.0373 -0.2878  0.2804
 3652SOL    HW122415   0.933   3.495   6.283 -1.6926 -0.6658  2.0382
 3652SOL    HW222416   0.818   3.421   6.228  0.0948 -0.6144 -0.2651
 3653SOL     OW22417   0.125   4.654  13.608  0.2357 -0.1606  0.3048
 3653SOL    HW122418   0.141   0.024  13.584 -3.2730  0.3762  0.0609
 3653SOL    HW222419   0.209   4.615  13.582 -1.5119 -2.7257 -1.5423
 3654SOL     OW22420   2.884   0.913   7.769 -0.3422 -0.0528 -0.0135
 3654SOL    HW122421   2.968   0.908   7.813 -1.1349  0.6701  1.5542
 3654SOL    HW222422   2.836   0.839   7.807 -0.6959  0.0587 -0.2418
 3655SOL     OW22423   3.544   4.507   9.560 -0.0306  0.4621 -0.5455
 3655SOL    HW122424   3.501   4.518   9.644  0.3450  2.0381 -0.5735
 3655SOL    HW222425   3.532   4.413   9.545 -0.6096  0.5052 -0.3550
 3656SOL     OW22426   0.533   2.318   2.898  0.0711 -0.0836  0.5153
 3656SOL    HW122427   0.523   2.341   2.990 -1.4454 -1.0738  0.5964
 3656SOL    HW222428   0.563   2.227   2.899 -2.3863 -0.8860  1.0110
 3657SOL     OW22429   3.771   2.051   1.785  0.1768 -0.4979  0.6625
 3657SOL    HW122430   3.762   1.960   1.757  0.8947 -0.0102 -1.1638
 3657SOL    HW222431   3.846   2.059   1.845  1.1352 -1.6898 -0.3669
 3658SOL     OW22432   2.616   4.648   0.910 -0.2444  0.8026 -0.0896
 3658SOL    HW122433   2.691   4.707   0.915  0.4794 -0.0945 -0.3064
 3658SOL    HW222434   2.609   4.618   1.001  0.1628 -1.5619 -0.8289
 3659SOL     OW22435   1.315   3.962   5.106  0.3529 -0.3751 -0.3567
 3659SOL    HW122436   1.271   3.959   5.021 -1.9078 -1.6348  0.8518
 3659SOL    HW222437   1.316   3.867   5.115 -0.7722 -0.4133 -0.5330
 3660SOL     OW22438   4.356   3.619   2.884 -0.0971  0.3845  0.2877
 3660SOL    HW122439   4.371   3.525   2.874  0.5485  0.5915 -0.7406
 3660SOL    HW222440   4.281   3.621   2.825  0.2530 -0.6758 -0.1864
 3661SOL     OW22441   1.250   1.853   9.865  0.3869 -0.2362 -0.2355
 3661SOL    HW122442   1.256   1.873   9.772 -1.0996 -1.0514 -0.5040
 3661SOL    HW222443   1.339   1.869   9.896  0.2101  1.5988 -0.7000
 3662SOL     OW22444   1.007   1.540   9.684  0.5141  0.2242  0.1934
 3662SOL    HW122445   0.945   1.566   9.616 -0.6770  1.8231  1.8925
 3662SOL    HW222446   1.082   1.503   9.637 -0.4153 -2.4059  0.7410
 3663SOL     OW22447   1.039   0.955   2.547 -0.2016  0.8224  0.4959
 3663SOL    HW122448   1.026   0.984   2.637 -1.4528 -0.0702  0.6110
 3663SOL    HW222449   1.016   0.862   2.555 -1.3349  1.0677  0.1537
 3664SOL     OW22450   0.541   0.077   8.753 -0.3835 -0.3449  0.4009
 3664SOL    HW122451   0.492   4.719   8.730 -1.0311 -0.4554  2.1370
 3664SOL    HW222452   0.570   0.047   8.839  0.5156 -0.7918 -0.0635
 3665SOL     OW22453   0.528   2.869   4.280 -0.1525 -0.3724 -0.4685
 3665SOL    HW122454   0.538   2.922   4.200  1.9206  0.7088  0.5037
 3665SOL    HW222455   0.618   2.851   4.305 -0.2125  0.3136  0.2548
 3666SOL     OW22456   4.146   0.868   1.870  0.2049  0.5525  0.2516
 3666SOL    HW122457   4.116   0.945   1.822  0.1071  1.6996  2.1698
 3666SOL    HW222458   4.086   0.866   1.945 -0.8452 -0.3352 -0.6048
 3667SOL     OW22459   1.913   0.085   7.663 -0.6009 -0.3872  0.1006
 3667SOL    HW122460   1.843   0.034   7.622 -3.0872  1.4662  2.0493
 3667SOL    HW222461   1.938   0.026   7.734  3.5101  0.5677 -0.5752
 3668SOL     OW22462   3.287   3.260  14.719  0.1388 -0.1796 -0.1025
 3668SOL    HW122463   3.253   3.210  14.793  2.9012  0.8685  1.8613
 3668SOL    HW222464   3.306   3.186  14.661  0.9457 -0.5225  0.6017
 3669SOL     OW22465   0.237   2.154   2.324  0.6912 -0.5735 -0.0014
 3669SOL    HW122466   0.257   2.072   2.279  1.6168  0.3711 -1.3324
 3669SOL    HW222467   0.151   2.146   2.364  0.9083 -0.7835  0.4257
 3670SOL     OW22468   2.585   3.390   7.704  0.0750 -0.3443  0.0789
 3670SOL    HW122469   2.588   3.338   7.785 -0.0716  0.0842  0.3588
 3670SOL    HW222470   2.494   3.372   7.681  0.0230 -1.0325  0.8272
 3671SOL     OW22471   4.160   2.665   6.399 -0.0933  0.2039 -0.0485
 3671SOL    HW122472   4.200   2.727   6.338 -0.3877 -0.0319 -0.4817
 3671SOL    HW222473   4.165   2.585   6.346  0.8980 -0.3590  0.8914
 3672SOL     OW22474   4.073   3.281   7.328  0.6158 -0.1126  0.1447
 3672SOL    HW122475   4.090   3.347   7.260  1.8587 -2.5351 -1.9366
 3672SOL    HW222476   4.014   3.328   7.386 -0.1726 -0.1548 -0.6137
 3673SOL     OW22477   4.609   0.637   2.439 -0.1651  0.3204 -0.3949
 3673SOL    HW122478   4.649   0.560   2.479 -0.3217  0.6385  0.3812
 3673SOL    HW222479   4.518   0.608   2.431  0.2059 -1.3370  1.2077
 3674SOL     OW22480   2.169   2.285  10.052 -0.1529 -0.5641 -0.0194
 3674SOL    HW122481   2.128   2.259  10.135  1.5126 -0.7966  0.7480
 3674SOL    HW222482   2.250   2.320  10.091  0.5694 -2.6716  0.3952
 3675SOL     OW22483   1.286   0.484   4.230 -0.4271 -0.2667 -0.1702
 3675SOL    HW122484   1.269   0.542   4.157 -2.2860 -1.5159 -0.7398
 3675SOL    HW222485   1.201   0.491   4.274 -1.6957 -2.2512 -2.3007
 3676SOL     OW22486   0.284   3.901  10.842 -0.7275 -0.2658 -0.3692
 3676SOL    HW122487   0.257   3.835  10.778 -0.2621 -0.8489  0.0384
 3676SOL    HW222488   0.378   3.886  10.832 -0.5447  1.0633 -0.6537
 3677SOL     OW22489   3.882   1.428   6.512  0.2698  0.0030 -0.2202
 3677SOL    HW122490   3.895   1.418   6.606 -3.6409  1.1102  0.4200
 3677SOL    HW222491   3.787   1.430   6.503  0.4113 -1.4910 -2.2884
 3678SOL     OW22492   3.296   3.993   2.083 -0.0926 -0.2076 -0.7171
 3678SOL    HW122493   3.242   4.000   2.161  1.9408 -2.6901  0.9194
 3678SOL    HW222494   3.269   3.903   2.063 -1.4608  0.0007  0.1968
 3679SOL     OW22495   4.634   1.717   3.882 -0.0596  0.4196  0.1996
 3679SOL    HW122496   4.586   1.784   3.833  0.6317  0.7198 -0.0600
 3679SOL    HW222497   4.684   1.678   3.811  1.4852  2.9195 -0.0748
 3680SOL     OW22498   1.884   4.142  14.187 -0.1719 -0.7515  0.1388
 3680SOL    HW122499   1.888   4.100  14.273 -0.6625  2.2887  1.6377
 3680SOL    HW222500   1.791   4.146  14.166 -0.2872 -0.0956  0.7762
 3681SOL     OW22501   2.880   2.461   5.176  0.2336  0.7040 -0.4319
 3681SOL    HW122502   2.858   2.493   5.263 -1.7279  0.9294 -1.0225
 3681SOL    HW222503   2.965   2.503   5.160 -0.5612  3.0141  1.4856
 3682SOL     OW22504   0.768   2.998   6.496 -0.4638 -0.0565  0.3413
 3682SOL    HW122505   0.830   2.961   6.559  1.8567  1.0647 -1.3021
 3682SOL    HW222506   0.823   3.046   6.435  0.5903 -0.7288  0.7711
 3683SOL     OW22507   2.133   4.366  15.358  0.1004  0.3562  0.4667
 3683SOL    HW122508   2.219   4.335  15.387 -0.5588 -0.3265  1.6626
 3683SOL    HW222509   2.151   4.415  15.278  1.4568 -0.2661  0.3900
 3684SOL     OW22510   4.584   1.168  12.449  0.1989  0.7412  0.3787
 3684SOL    HW122511   4.570   1.081  12.487  0.6752  0.4590 -0.0899
 3684SOL    HW222512   4.648   1.147  12.381  0.8276  0.8447  0.9384
 3685SOL     OW22513   1.276   2.112   3.319 -0.1073  0.4172  0.6041
 3685SOL    HW122514   1.343   2.049   3.292  2.5539  2.7093  1.8460
 3685SOL    HW222515   1.215   2.061   3.372  0.1206 -1.5704 -1.0643
 3686SOL     OW22516   0.298   2.547   1.320  0.3836 -0.1839  0.0226
 3686SOL    HW122517   0.363   2.477   1.331  1.5340  0.9482  0.5237
 3686SOL    HW222518   0.290   2.541   1.225  0.4403  0.8582 -0.0490
 3687SOL     OW22519   4.613   3.425   7.404 -0.6173  0.0259 -1.0576
 3687SOL    HW122520   4.684   3.468   7.452 -1.2518 -0.0362 -0.0593
 3687SOL    HW222521   4.552   3.405   7.475 -0.0243 -0.1347 -0.6040
 3688SOL     OW22522   2.405   4.277  15.487  0.0865  0.0499  0.0538
 3688SOL    HW122523   2.434   4.328  15.563  0.2430  0.1019 -0.0408
 3688SOL    HW222524   2.392   4.197  15.538  0.8209  0.9157  1.6250
 3689SOL     OW22525   0.993   1.808  10.787  0.3971 -0.8529  0.3435
 3689SOL    HW122526   0.980   1.898  10.816  0.4838 -0.1381 -1.8909
 3689SOL    HW222527   1.049   1.818  10.710 -0.9881  0.7413 -0.4272
 3690SOL     OW22528   1.628   3.672   3.404 -0.1133 -0.4154  0.2534
 3690SOL    HW122529   1.593   3.750   3.448 -0.3403 -0.6118  0.4246
 3690SOL    HW222530   1.593   3.681   3.316  1.7583 -0.7943 -0.5117
 3691SOL     OW22531   4.169   0.497   4.929  0.4752  0.4180  0.4916
 3691SOL    HW122532   4.096   0.559   4.930  1.0275  1.0503  1.7260
 3691SOL    HW222533   4.238   0.561   4.946 -1.7554  2.6999  1.0955
 3692SOL     OW22534   0.286   3.117   5.920 -0.0824 -0.1608  0.4910
 3692SOL    HW122535   0.335   3.172   5.981 -1.8545  1.0203  0.8482
 3692SOL    HW222536   0.362   3.079   5.875 -0.3210  0.3135 -0.3124
 3693SOL     OW22537   4.693   3.220  16.161  0.7690  0.4042  0.3802
 3693SOL    HW122538   0.056   3.236  16.117  0.0724  0.7306 -0.8174
 3693SOL    HW222539   4.633   3.206  16.088  1.5056  0.8336 -0.2975
 3694SOL     OW22540   1.127   2.413   7.710 -0.7108 -0.4264 -0.0247
 3694SOL    HW122541   1.150   2.434   7.620  0.9671 -1.3376  0.1853
 3694SOL    HW222542   1.069   2.485   7.732  1.3370  1.6719 -1.5553
 3695SOL     OW22543   3.412   3.638   6.467 -0.5812  0.1153 -0.2133
 3695SOL    HW122544   3.459   3.555   6.473 -1.8013 -0.7543 -2.5569
 3695SOL    HW222545   3.387   3.648   6.558  0.2634  1.5755 -0.1352
 3696SOL     OW22546   4.302   3.116   6.300  0.5990 -0.5810 -0.1051
 3696SOL    HW122547   4.240   3.157   6.240 -1.5783  0.1699  2.6217
 3696SOL    HW222548   4.299   3.023   6.281  1.0762 -1.0647  2.2070
 3697SOL     OW22549   1.817   4.704   6.625 -0.2333 -0.4651 -0.4856
 3697SOL    HW122550   1.742   0.043   6.615 -1.4031 -1.8175  0.3064
 3697SOL    HW222551   1.796   4.636   6.562 -2.2948  0.2688 -0.6221
 3698SOL     OW22552   0.407   3.125   7.338  0.0919  0.7205  0.6957
 3698SOL    HW122553   0.441   3.213   7.353 -1.1106  1.5247 -1.4373
 3698SOL    HW222554   0.404   3.126   7.243  0.0225  1.3549  0.7072
 3699SOL     OW22555   3.068   4.436   5.322  0.0557  0.3253  0.0479
 3699SOL    HW122556   3.122   4.394   5.256  0.0776  1.4433 -0.6504
 3699SOL    HW222557   3.011   4.362   5.340 -2.7112  2.6847  0.9132
 3700SOL     OW22558   3.896   3.210   1.835  0.2019  0.5746 -0.2368
 3700SOL    HW122559   3.841   3.181   1.908  1.8901  2.0835  1.6427
 3700SOL    HW222560   3.986   3.204   1.869  0.9134  0.1171 -2.1991
 3701SOL     OW22561   3.637   4.034   6.307  0.0282 -0.0641  0.1685
 3701SOL    HW122562   3.652   4.012   6.215  1.3109 -2.7970  1.0503
 3701SOL    HW222563   3.696   4.109   6.314 -1.2889  0.5999  3.7474
 3702SOL     OW22564   0.024   4.571   3.386  0.3007  0.9375  0.5790
 3702SOL    HW122565   0.085   4.508   3.423  0.7418  1.1906  0.2784
 3702SOL    HW222566   4.675   4.510   3.360 -0.8318  2.7647 -0.7055
 3703SOL     OW22567   1.222   1.193   3.867  0.1614  0.2317  0.0100
 3703SOL    HW122568   1.172   1.236   3.798  0.9612  1.3850  0.1341
 3703SOL    HW222569   1.295   1.165   3.812  0.8389  0.4645  0.7966
 3704SOL     OW22570   1.069   0.781   4.160 -0.4547  0.6633 -0.1820
 3704SOL    HW122571   1.026   0.713   4.211 -0.9953  0.8796 -0.3441
 3704SOL    HW222572   1.122   0.730   4.099  0.4422  1.4955 -0.1096
 3705SOL     OW22573   4.234   0.571   1.075 -0.7250 -0.4742  0.3805
 3705SOL    HW122574   4.159   0.627   1.053 -0.0465  0.6010  0.7869
 3705SOL    HW222575   4.306   0.631   1.058 -2.6080  2.4974  2.8102
 3706SOL     OW22576   0.979   4.268   6.102 -0.4458 -0.4826 -0.0475
 3706SOL    HW122577   0.987   4.177   6.130  0.6550 -0.9482 -1.8796
 3706SOL    HW222578   0.935   4.313   6.174 -0.7296  0.1895 -0.6347
 3707SOL     OW22579   0.066   3.695   3.543  0.9003 -0.5273 -0.2244
 3707SOL    HW122580   0.034   3.654   3.462 -0.4761  0.4561 -0.1856
 3707SOL    HW222581   0.146   3.739   3.515  1.0624 -0.2771  0.6538
 3708SOL     OW22582   1.562   4.379   2.721 -0.2012  0.2462 -0.3661
 3708SOL    HW122583   1.645   4.349   2.759 -0.3747 -1.2139 -1.1291
 3708SOL    HW222584   1.598   4.418   2.642 -0.3274 -2.4502 -1.7446
 3709SOL     OW22585   2.030   4.472   0.675 -0.2285  0.6883 -0.3271
 3709SOL    HW122586   1.978   4.456   0.596  0.9901 -0.1833 -0.9453
 3709SOL    HW222587   2.118   4.455   0.642  0.4761  0.1651  1.8274
 3710SOL     OW22588   4.283   0.556   7.558  0.2317  0.3532  0.0420
 3710SOL    HW122589   4.345   0.484   7.561 -0.8506 -0.5389  1.0853
 3710SOL    HW222590   4.257   0.561   7.650 -0.3064  0.8251 -0.1326
 3711SOL     OW22591   2.878   1.280  12.772 -0.5452 -0.6011 -0.5145
 3711SOL    HW122592   2.859   1.199  12.819 -0.1621  0.0046  0.7115
 3711SOL    HW222593   2.806   1.335  12.805  0.5280  0.6547 -0.2654
 3712SOL     OW22594   3.194   2.581   4.287 -0.4275 -0.1467 -0.0476
 3712SOL    HW122595   3.214   2.495   4.251 -0.0815  0.7452 -1.9938
 3712SOL    HW222596   3.240   2.575   4.371 -2.2450 -0.5743  0.9366
 3713SOL     OW22597   0.323   2.325   3.842  0.2949 -0.4595 -0.5573
 3713SOL    HW122598   0.394   2.297   3.900  2.8833  0.2777 -3.3489
 3713SOL    HW222599   0.303   2.411   3.881  1.3178  0.2451 -1.5763
 3714SOL     OW22600   1.225   1.680   5.632  0.5424 -0.4151  0.2832
 3714SOL    HW122601   1.255   1.600   5.674  0.0955 -0.8250 -0.1818
 3714SOL    HW222602   1.164   1.706   5.702 -0.3428  0.0940 -0.6725
 3715SOL     OW22603   2.635   4.331   5.493 -0.3150 -0.2551 -0.3534
 3715SOL    HW122604   2.576   4.292   5.557  1.8261 -0.2682  1.6231
 3715SOL    HW222605   2.590   4.322   5.409 -0.4701 -0.4122 -0.2525
 3716SOL     OW22606   0.582   3.980  11.500 -0.4926 -0.2800  0.2635
 3716SOL    HW122607   0.639   4.054  11.479  1.8916 -2.3094 -0.5599
 3716SOL    HW222608   0.526   3.973  11.423  0.4424 -0.9570 -0.3665
 3717SOL     OW22609   4.482   2.585   8.733 -0.1990  0.2637 -1.1588
 3717SOL    HW122610   4.429   2.560   8.809  1.0396 -1.5965 -0.9153
 3717SOL    HW222611   4.569   2.563   8.765 -0.1872 -1.0456 -2.1079
 3718SOL     OW22612   4.481   4.117   3.178  0.5390  0.1585 -0.1492
 3718SOL    HW122613   4.464   4.149   3.267  0.8696  1.2484 -0.4866
 3718SOL    HW222614   4.415   4.050   3.159  1.4666 -0.7320 -0.2345
 3719SOL     OW22615   0.937   3.190   4.779  0.5133 -0.0137  0.0411
 3719SOL    HW122616   0.876   3.120   4.800  0.9421 -0.9077 -1.6280
 3719SOL    HW222617   1.014   3.132   4.769  0.6932 -0.1739  2.4760
 3720SOL     OW22618   0.769   0.854   3.708  0.2358 -0.5540 -0.5052
 3720SOL    HW122619   0.741   0.852   3.616 -0.6227 -0.0729 -0.2460
 3720SOL    HW222620   0.780   0.944   3.737 -0.5501 -0.7901  0.5348
 3721SOL     OW22621   1.576   0.714   4.162 -0.7762 -0.4933 -0.0215
 3721SOL    HW122622   1.585   0.710   4.067  0.2084 -1.9476  0.1379
 3721SOL    HW222623   1.581   0.626   4.198 -0.9837  0.2250  1.7656
 3722SOL     OW22624   2.721   0.769   4.742  0.0645 -0.7401 -0.2214
 3722SOL    HW122625   2.698   0.739   4.654 -0.4304 -2.0222  0.3483
 3722SOL    HW222626   2.796   0.715   4.768  1.2969  0.9308 -0.2450
 3723SOL     OW22627   4.611   0.695  17.158 -0.2930 -0.6247 -0.3426
 3723SOL    HW122628   4.582   0.619  17.108 -0.1053  0.3410 -1.9344
 3723SOL    HW222629   4.684   0.658  17.208 -0.0086 -2.7612 -2.3254
 3724SOL     OW22630   3.637   3.718   3.210  0.0680 -0.3949  0.4865
 3724SOL    HW122631   3.650   3.722   3.304 -0.8998 -3.5606  0.7301
 3724SOL    HW222632   3.729   3.699   3.194  0.5161  0.4979  2.0696
 3725SOL     OW22633   3.525   4.246  15.566 -0.2306  0.4843 -0.5123
 3725SOL    HW122634   3.564   4.322  15.610 -1.2841 -0.4569  2.0379
 3725SOL    HW222635   3.523   4.293  15.483 -1.9783  1.9151  0.3453
 3726SOL     OW22636   2.178   2.409   3.421  0.5637 -0.5501 -0.2407
 3726SOL    HW122637   2.104   2.466   3.442  0.8670  0.1192 -0.9888
 3726SOL    HW222638   2.159   2.349   3.493  1.1179  1.3874  1.5345
 3727SOL     OW22639   0.359   4.214   6.704  0.4548  0.4029  0.4523
 3727SOL    HW122640   0.294   4.243   6.769 -0.3129  1.8163 -0.9279
 3727SOL    HW222641   0.407   4.144   6.749  1.7584 -0.5048 -2.3980
 3728SOL     OW22642   0.754   3.388  11.212 -0.9944  0.0158 -0.1271
 3728SOL    HW122643   0.690   3.317  11.206 -0.8053  0.1859 -4.0032
 3728SOL    HW222644   0.741   3.419  11.302 -0.7365  2.2058 -0.8391
 3729SOL     OW22645   1.533   2.318  15.857 -0.4119  0.5091  1.0778
 3729SOL    HW122646   1.607   2.331  15.798 -1.7921 -0.7060 -0.9617
 3729SOL    HW222647   1.497   2.407  15.852  0.3738  0.7334 -0.5124
 3730SOL     OW22648   2.270   1.685   4.526  0.2746  0.1024 -0.0526
 3730SOL    HW122649   2.265   1.595   4.559 -1.2789 -0.1127 -0.8676
 3730SOL    HW222650   2.196   1.678   4.466  0.1501 -2.8942  0.4443
 3731SOL     OW22651   4.717   1.266   2.271  0.1000  0.7674 -0.6100
 3731SOL    HW122652   4.624   1.273   2.293  0.2066  1.4330 -0.3593
 3731SOL    HW222653   4.704   1.277   2.177 -0.1063  1.6867 -0.4687
 3732SOL     OW22654   4.027   1.883   5.875 -0.7080  0.5851 -0.6773
 3732SOL    HW122655   3.946   1.933   5.878 -0.7981  0.4782 -1.3000
 3732SOL    HW222656   4.001   1.796   5.844 -0.2250  0.1084  0.2457
 3733SOL     OW22657   3.732   2.567   2.739 -0.2724 -0.2051 -0.1798
 3733SOL    HW122658   3.754   2.587   2.648 -1.2771  1.2096 -0.1057
 3733SOL    HW222659   3.785   2.488   2.737 -0.2102 -0.2741  3.7461
 3734SOL     OW22660   2.925   2.493   4.759  0.4998 -0.1815  0.0221
 3734SOL    HW122661   2.861   2.550   4.716 -0.1980 -0.0321  1.2455
 3734SOL    HW222662   2.854   2.444   4.801  2.1218 -2.9279 -0.4018
 3735SOL     OW22663   2.583   3.442   4.123  0.7870  0.8674  0.5293
 3735SOL    HW122664   2.589   3.348   4.109 -0.8251  0.6772  1.1080
 3735SOL    HW222665   2.570   3.475   4.034 -1.2190  2.5291  1.4187
 3736SOL     OW22666   0.251   1.828   6.478 -0.2285 -0.0285  0.6889
 3736SOL    HW122667   0.289   1.903   6.524 -1.3417  0.4502  0.8386
 3736SOL    HW222668   0.191   1.865   6.414 -1.0778  0.6695  1.8933
 3737SOL     OW22669   2.073   0.453  14.034  0.1064  0.4582  0.1968
 3737SOL    HW122670   2.138   0.510  14.074  1.0163  0.3526 -1.1448
 3737SOL    HW222671   2.106   0.366  14.057 -1.0815 -0.0344  0.0416
 3738SOL     OW22672   0.276   3.072   6.801  0.1324 -0.2026  0.0469
 3738SOL    HW122673   0.296   2.984   6.769 -1.9429 -0.3843 -0.7202
 3738SOL    HW222674   0.224   3.107   6.729 -1.4106  1.3906  1.9393
 3739SOL     OW22675   0.405   0.892   4.407  0.2553 -0.4855 -0.0192
 3739SOL    HW122676   0.372   0.967   4.456 -0.4990 -0.6170 -0.3243
 3739SOL    HW222677   0.497   0.918   4.411  0.8117 -2.6894  2.2035
 3740SOL     OW22678   1.109   4.515   3.636  0.1086 -0.2074 -0.8198
 3740SOL    HW122679   1.049   4.494   3.564  0.4133 -0.5752 -0.9683
 3740SOL    HW222680   1.175   4.564   3.587  1.7352 -0.4455  1.1306
 3741SOL     OW22681   2.915   4.507   6.417 -0.1684 -0.3528  0.0904
 3741SOL    HW122682   2.889   4.575   6.479 -0.4366 -0.8394  0.5089
 3741SOL    HW222683   2.851   4.515   6.346  0.2189  1.4954 -0.0412
 3742SOL     OW22684   2.050   3.977   3.972 -0.1770 -0.6569  0.2409
 3742SOL    HW122685   2.143   3.951   3.973  0.1007  0.4034  2.4533
 3742SOL    HW222686   2.010   3.901   3.930  1.2853 -0.5718 -1.3298
 3743SOL     OW22687   2.855   0.939   7.333 -0.3009 -0.1423 -0.0823
 3743SOL    HW122688   2.947   0.944   7.358 -0.9411  2.1912  1.7610
 3743SOL    HW222689   2.856   0.873   7.263 -0.9641 -0.8520  0.5751
 3744SOL     OW22690   0.611   2.711   0.590  0.2293  0.2113 -1.0065
 3744SOL    HW122691   0.671   2.697   0.664 -0.4326  1.5711 -0.2254
 3744SOL    HW222692   0.604   2.621   0.557 -0.5430  0.5084 -1.6287
 3745SOL     OW22693   0.421   1.804   1.781  0.1098  0.2684 -0.3813
 3745SOL    HW122694   0.389   1.891   1.804  0.9717  0.5232 -0.1602
 3745SOL    HW222695   0.498   1.822   1.727  0.5901 -0.8615 -0.0834
 3746SOL     OW22696   1.329   3.672  13.506  0.0939 -0.6777  0.0464
 3746SOL    HW122697   1.259   3.722  13.463 -0.4318 -1.1822  0.3073
 3746SOL    HW222698   1.371   3.745  13.551  0.3119  0.7630 -2.4292
 3747SOL     OW22699   4.635   2.335   6.087 -0.1663  0.2312 -0.3609
 3747SOL    HW122700   4.571   2.376   6.030  1.4750  0.0224 -2.3512
 3747SOL    HW222701   4.714   2.369   6.045  1.4172 -1.1520  1.4811
 3748SOL     OW22702   1.862   0.496  11.857  0.2446  0.6302  0.3618
 3748SOL    HW122703   1.950   0.482  11.822 -0.6055 -1.7726 -0.7616
 3748SOL    HW222704   1.816   0.455  11.785  2.3999 -0.0640 -0.6155
 3749SOL     OW22705   1.119   4.173   4.638 -0.0375 -0.3022 -0.2062
 3749SOL    HW122706   1.162   4.203   4.717  0.6096  1.3316 -1.1933
 3749SOL    HW222707   1.115   4.259   4.596  2.2330  1.1620  2.6298
 3750SOL     OW22708   0.805   0.662   5.048 -0.0976 -0.4412  0.1862
 3750SOL    HW122709   0.789   0.613   5.129 -0.7271  3.1175  2.1951
 3750SOL    HW222710   0.899   0.678   5.055  0.0308 -1.0461 -0.1349
 3751SOL     OW22711   3.281   1.208   0.925  0.0474 -0.1682 -0.0379
 3751SOL    HW122712   3.199   1.193   0.973  1.2308 -2.6453  1.2267
 3751SOL    HW222713   3.355   1.161   0.965  0.1532 -0.2513 -0.3307
 3752SOL     OW22714   0.477   3.862   2.449 -0.0768 -0.5445 -0.0358
 3752SOL    HW122715   0.421   3.922   2.401  2.7912  2.1933  0.0254
 3752SOL    HW222716   0.491   3.794   2.382 -1.4857  1.4504 -2.3367
 3753SOL     OW22717   2.141   2.730   5.728 -0.4236  0.1943 -0.4954
 3753SOL    HW122718   2.222   2.682   5.712 -0.2446  0.3746 -0.1307
 3753SOL    HW222719   2.168   2.822   5.718  1.7406 -0.3426  0.4489
 3754SOL     OW22720   1.570   2.741  15.946 -0.2587  0.4623  0.2000
 3754SOL    HW122721   1.594   2.830  15.974 -1.0996  0.2846  1.4674
 3754SOL    HW222722   1.600   2.744  15.855 -0.7411  0.1006  0.0288
 3755SOL     OW22723   1.673   0.719   3.897 -0.4290 -0.3559  0.1443
 3755SOL    HW122724   1.691   0.717   3.803  1.8234 -2.2608  0.6251
 3755SOL    HW222725   1.740   0.659   3.930  1.8166  1.3920 -1.2756
 3756SOL     OW22726   4.393   0.522   1.303  0.0934  0.3435  0.4123
 3756SOL    HW122727   4.401   0.427   1.308  0.6214  0.2339 -2.3824
 3756SOL    HW222728   4.352   0.538   1.218  0.2555  2.0941  0.6480
 3757SOL     OW22729   4.199   3.898  11.253  0.0282 -0.1588  0.2012
 3757SOL    HW122730   4.238   3.957  11.318  0.9627 -0.0167 -0.4817
 3757SOL    HW222731   4.279   3.868  11.210 -0.4969  1.9664 -2.2377
 3758SOL     OW22732   2.386   2.324  10.214 -0.0549  0.1858  0.3933
 3758SOL    HW122733   2.403   2.375  10.293 -0.8639  0.4677  0.3850
 3758SOL    HW222734   2.437   2.243  10.221 -2.3389 -1.3205 -0.4250
 3759SOL     OW22735   1.389   2.981  11.166  0.0656 -0.4357 -0.3484
 3759SOL    HW122736   1.372   3.063  11.119  1.1999 -0.2682 -0.4636
 3759SOL    HW222737   1.466   3.008  11.217 -0.9755  1.5412  0.1696
 3760SOL     OW22738   2.797   1.965  13.265  0.1396  0.3201  0.5734
 3760SOL    HW122739   2.760   2.053  13.258 -0.8585 -0.1573 -0.0533
 3760SOL    HW222740   2.855   1.976  13.340  1.9989 -0.1709 -0.7871
 3761SOL     OW22741   1.006   4.421   6.427  0.5873  0.2568  0.3531
 3761SOL    HW122742   1.022   4.468   6.509 -0.1802  1.5668 -0.2629
 3761SOL    HW222743   0.935   4.472   6.389  0.5040  0.9539  1.4413
 3762SOL     OW22744   3.027   4.206  16.107 -0.2687  0.1111  0.0204
 3762SOL    HW122745   2.950   4.211  16.050  0.8025 -0.0897 -1.4365
 3762SOL    HW222746   3.057   4.116  16.114 -0.3162 -0.0796 -2.2874
 3763SOL     OW22747   1.950   2.752  14.407  0.0951 -0.3967 -0.1069
 3763SOL    HW122748   2.025   2.741  14.349 -0.2604 -0.2958 -0.5921
 3763SOL    HW222749   1.932   2.658  14.417 -2.0356 -0.2166 -2.1094
 3764SOL     OW22750   2.305   1.641   1.919  0.9435 -0.2419  0.5663
 3764SOL    HW122751   2.358   1.566   1.946  0.7386 -0.6273 -0.0873
 3764SOL    HW222752   2.272   1.606   1.836  2.9522 -1.0837  0.1288
 3765SOL     OW22753   4.353   2.160   6.998  0.5855  0.2738 -0.4848
 3765SOL    HW122754   4.350   2.176   7.092 -2.0367  0.6486 -0.6459
 3765SOL    HW222755   4.353   2.247   6.958 -1.4915  0.5845  0.1912
 3766SOL     OW22756   0.478   3.417   9.399  0.1449 -0.5017  0.1556
 3766SOL    HW122757   0.423   3.421   9.477  2.5464  0.0296  1.8181
 3766SOL    HW222758   0.443   3.340   9.355  0.7697 -0.9213  0.3949
 3767SOL     OW22759   3.801   0.013   9.321 -0.3221 -0.3402  0.4013
 3767SOL    HW122760   3.847   0.093   9.346 -0.7837  0.1234 -0.2232
 3767SOL    HW222761   3.856   4.675   9.373  0.6264  1.2316  1.1544
 3768SOL     OW22762   4.007   3.166  17.429 -0.1369  0.7571  0.1448
 3768SOL    HW122763   3.936   3.106  17.453  1.6574 -2.2302 -1.9999
 3768SOL    HW222764   4.080   3.114  17.397 -1.5156 -2.4932  2.3071
 3769SOL     OW22765   4.493   3.205   8.666  0.3045  0.3420  0.5490
 3769SOL    HW122766   4.471   3.119   8.701 -0.1579  0.3370  0.2383
 3769SOL    HW222767   4.526   3.168   8.584 -1.4145 -1.6412  0.7540
 3770SOL     OW22768   2.152   1.639   2.792  0.1058  0.2785 -0.3299
 3770SOL    HW122769   2.073   1.594   2.762 -0.8730  1.7456  0.0472
 3770SOL    HW222770   2.217   1.624   2.723 -0.4108 -2.4014 -0.2278
 3771SOL     OW22771   2.241   3.819   3.187 -0.3901 -0.5595  0.6243
 3771SOL    HW122772   2.322   3.868   3.199 -0.4422  0.2720 -2.3676
 3771SOL    HW222773   2.200   3.835   3.272 -1.1754  1.2398 -0.0757
 3772SOL     OW22774   3.984   4.559  14.630  0.0581  0.4674  0.2809
 3772SOL    HW122775   4.002   4.550  14.724  1.1342 -1.7111 -0.1382
 3772SOL    HW222776   3.908   4.617  14.630  0.2754  0.7349 -3.1176
 3773SOL     OW22777   4.098   2.356  10.168 -0.3711 -0.6707  0.1584
 3773SOL    HW122778   4.160   2.392  10.231 -0.7931  0.7806 -0.2713
 3773SOL    HW222779   4.015   2.375  10.212 -2.3462  0.2351 -3.9803
 3774SOL     OW22780   1.933   0.575   4.979 -0.2458  0.7835  0.1929
 3774SOL    HW122781   1.952   0.626   4.900  1.2454  2.3241  1.5355
 3774SOL    HW222782   1.966   0.628   5.051 -1.1490  0.7123  0.6589
 3775SOL     OW22783   2.472   1.178   8.976  0.4384 -0.8548 -0.5274
 3775SOL    HW122784   2.395   1.152   9.027  1.3779  0.1176  1.3741
 3775SOL    HW222785   2.468   1.120   8.900 -0.3128 -2.6607  0.8688
 3776SOL     OW22786   1.855   4.051   4.568 -0.1073  0.1189  0.3923
 3776SOL    HW122787   1.840   3.974   4.513 -0.8843  2.0366 -2.0856
 3776SOL    HW222788   1.891   4.112   4.504 -0.2183 -0.6170 -0.3739
 3777SOL     OW22789   0.383   4.633   3.298 -0.3684 -0.0242 -0.7293
 3777SOL    HW122790   0.331   4.713   3.304  0.3003  0.5045 -2.0825
 3777SOL    HW222791   0.447   4.640   3.369 -1.3770  2.7453 -0.0979
 3778SOL     OW22792   3.112   3.396  13.249  0.4605  0.1744  0.3129
 3778SOL    HW122793   3.182   3.451  13.214  1.7660 -1.6836 -0.0294
 3778SOL    HW222794   3.095   3.451  13.325 -1.2222 -1.1453  0.8993
 3779SOL     OW22795   0.754   1.404   2.283 -0.1336  0.4096  0.0293
 3779SOL    HW122796   0.664   1.371   2.284 -0.9181  2.5778  0.3493
 3779SOL    HW222797   0.759   1.455   2.364  1.0989 -0.6934  0.6611
 3780SOL     OW22798   1.486   0.745   7.734  0.1499  0.5702 -0.1603
 3780SOL    HW122799   1.460   0.834   7.756  1.0069  0.5593  0.9244
 3780SOL    HW222800   1.432   0.692   7.793 -0.2642  0.7072 -0.4167
 3781SOL     OW22801   2.006   3.262  15.605 -0.5320  0.0375 -0.2646
 3781SOL    HW122802   1.917   3.278  15.576 -1.2637 -0.5290  1.6410
 3781SOL    HW222803   2.047   3.346  15.625 -0.2874 -0.0776 -0.2800
 3782SOL     OW22804   4.622   1.554   5.949  0.0379 -0.0934 -0.5945
 3782SOL    HW122805   4.684   1.547   6.022 -0.3980  3.4442  0.0987
 3782SOL    HW222806   4.661   1.497   5.883  2.7650  0.7278  0.2867
 3783SOL     OW22807   1.330   1.502  10.633 -0.4223  0.5572 -0.1764
 3783SOL    HW122808   1.349   1.516  10.725  0.3856 -0.9091 -0.1154
 3783SOL    HW222809   1.240   1.477  10.654 -0.1580  1.2179  1.7222
 3784SOL     OW22810   2.155   1.733  14.561  0.0823 -0.7202  0.2851
 3784SOL    HW122811   2.088   1.737  14.493  1.9516  1.3059 -1.4154
 3784SOL    HW222812   2.106   1.729  14.644 -1.0010  1.5795 -0.2512
 3785SOL     OW22813   2.304   3.574   1.012 -0.6463  0.4041  0.3239
 3785SOL    HW122814   2.268   3.553   0.926 -0.8784 -0.8278  0.7190
 3785SOL    HW222815   2.366   3.646   0.997 -1.4218  1.3216  1.5406
 3786SOL     OW22816   0.662   1.167   4.926  0.1079 -0.1402  0.1785
 3786SOL    HW122817   0.580   1.128   4.896  0.1940 -0.1823 -0.0036
 3786SOL    HW222818   0.708   1.097   4.974 -1.3142  0.2683  2.1355
 3787SOL     OW22819   3.621   4.343   5.358 -0.1886  0.0453 -0.1137
 3787SOL    HW122820   3.594   4.433   5.343 -3.2788 -1.1937 -2.1093
 3787SOL    HW222821   3.540   4.298   5.381 -0.1237  0.2046  0.4297
 3788SOL     OW22822   4.297   2.643   8.488 -0.5442 -0.5606 -0.6753
 3788SOL    HW122823   4.356   2.643   8.564 -0.9694  1.3868 -0.3446
 3788SOL    HW222824   4.245   2.721   8.504  0.0847 -0.7889  2.6173
 3789SOL     OW22825   0.577   3.520   6.893 -0.1399 -0.1388 -0.3858
 3789SOL    HW122826   0.659   3.526   6.844 -0.1589 -0.6839 -0.4935
 3789SOL    HW222827   0.527   3.452   6.847 -0.3167  0.2402 -0.7543
 3790SOL     OW22828   0.260   0.027  15.942 -0.2313 -0.1805  0.3904
 3790SOL    HW122829   0.324   0.053  16.008 -1.2037  1.0848  0.8223
 3790SOL    HW222830   0.231   0.113  15.913  0.6888  0.3731  1.1463
 3791SOL     OW22831   1.455   1.258   0.531  0.1771 -0.2730 -0.2502
 3791SOL    HW122832   1.440   1.169   0.564  1.0582 -0.5834 -0.6648
 3791SOL    HW222833   1.403   1.261   0.451  0.7056  0.8218 -0.5598
 3792SOL     OW22834   1.923   3.573   1.563 -0.6319 -0.3466  0.2696
 3792SOL    HW122835   1.948   3.660   1.594 -0.2639 -0.6639  0.8785
 3792SOL    HW222836   1.827   3.571   1.563 -0.6515  0.3985  0.0916
 3793SOL     OW22837   4.200   3.887   8.728  0.6511 -0.3698  0.4215
 3793SOL    HW122838   4.228   3.870   8.818 -0.0912  1.8550  1.0833
 3793SOL    HW222839   4.117   3.841   8.734 -0.0985  0.7020 -1.5625
 3794SOL     OW22840   2.037   0.452  12.480 -0.4401 -0.3080 -0.0385
 3794SOL    HW122841   2.039   0.463  12.385  1.7947  1.2315  0.1942
 3794SOL    HW222842   1.971   0.384  12.473 -0.4207 -0.3268 -0.0386
 3795SOL     OW22843   1.527   1.778   6.743  0.0704 -0.6004  0.1949
 3795SOL    HW122844   1.573   1.817   6.668 -0.9531  0.5960  0.1905
 3795SOL    HW222845   1.560   1.834   6.813  1.6803 -0.1442 -0.9215
 3796SOL     OW22846   3.234   4.285   2.939 -0.2911  0.8921  0.3967
 3796SOL    HW122847   3.266   4.256   2.853  0.5078  0.5236  0.8109
 3796SOL    HW222848   3.176   4.361   2.928 -2.1641 -0.9214 -2.1125
 3797SOL     OW22849   3.698   4.512  10.984  0.6557 -0.0908  1.0245
 3797SOL    HW122850   3.694   4.593  10.934  3.4677 -1.2303 -0.9821
 3797SOL    HW222851   3.729   4.546  11.068 -1.5877  1.8449  1.0613
 3798SOL     OW22852   0.720   1.508   0.843  0.2629 -0.3281 -0.3873
 3798SOL    HW122853   0.799   1.562   0.849 -0.5459  0.9153 -0.9104
 3798SOL    HW222854   0.657   1.568   0.883 -0.9698 -1.8880 -0.0058
 3799SOL     OW22855   2.611   0.660   5.174 -0.4018 -0.4684  0.0650
 3799SOL    HW122856   2.616   0.756   5.179  2.4592 -0.6477  0.1380
 3799SOL    HW222857   2.564   0.637   5.094  1.3285  0.4716 -1.2173
 3800SOL     OW22858   1.384   2.335   1.933  0.5954  0.2500  0.0269
 3800SOL    HW122859   1.394   2.286   1.851 -0.7284 -0.3460  0.2281
 3800SOL    HW222860   1.475   2.337   1.963  1.3732 -0.4621 -2.2668
 3801SOL     OW22861   3.996   0.745   6.549  0.3450  0.2103 -0.3613
 3801SOL    HW122862   4.090   0.741   6.530 -0.0277  0.7593 -2.3500
 3801SOL    HW222863   3.973   0.653   6.533  0.9085 -0.1143  0.6945
 3802SOL     OW22864   3.137   4.687   2.309  0.3500  0.2059  0.6789
 3802SOL    HW122865   3.185   0.010   2.379 -0.0833  1.4591  0.1944
 3802SOL    HW222866   3.140   4.600   2.349 -1.5539  0.0547  0.4934
 3803SOL     OW22867   3.110   1.176   7.918 -0.3763 -0.1030  0.5423
 3803SOL    HW122868   3.126   1.107   7.981 -0.0317 -0.2416  0.3018
 3803SOL    HW222869   3.196   1.218   7.921 -0.0138 -1.0541  2.8065
 3804SOL     OW22870   0.967   4.044   2.367 -0.0690  0.2379 -0.1238
 3804SOL    HW122871   1.030   4.094   2.418 -0.0225 -0.2652  0.3085
 3804SOL    HW222872   0.887   4.073   2.411 -1.0631 -0.5913 -1.3720
 3805SOL     OW22873   3.482   3.463   7.051  0.4172  0.6973  0.6439
 3805SOL    HW122874   3.430   3.538   7.023 -1.8322 -1.5081 -1.0135
 3805SOL    HW222875   3.426   3.386   7.047  0.1286  0.8768  1.2853
 3806SOL     OW22876   4.221   1.239   6.868 -0.2532 -0.7339  0.1952
 3806SOL    HW122877   4.172   1.192   6.935  0.3825  1.2085  2.0094
 3806SOL    HW222878   4.199   1.330   6.888 -0.3862 -0.7613  0.1722
 3807SOL     OW22879   3.250   3.095   8.765 -0.3601  0.2077  0.0200
 3807SOL    HW122880   3.319   3.036   8.795 -0.6393 -0.9870 -1.6914
 3807SOL    HW222881   3.242   3.065   8.674 -0.8192  2.0211 -0.5466
 3808SOL     OW22882   4.129   4.365   8.347 -0.5761 -0.0789 -0.2652
 3808SOL    HW122883   4.190   4.405   8.409 -0.7478 -0.6850  0.2930
 3808SOL    HW222884   4.077   4.441   8.319 -1.5549 -0.2666  1.0552
 3809SOL     OW22885   3.365   4.579  15.208  0.4483 -0.4438  0.1777
 3809SOL    HW122886   3.346   4.654  15.151  0.9476  0.9885  1.9011
 3809SOL    HW222887   3.296   4.591  15.273 -0.1269  0.5722 -0.6278
 3810SOL     OW22888   2.812   2.034   2.899  0.2798  0.1493  0.2152
 3810SOL    HW122889   2.795   1.946   2.865  2.5637 -0.0294 -0.4772
 3810SOL    HW222890   2.725   2.072   2.913  0.5143  0.7026  0.1961
 3811SOL     OW22891   0.922   4.021   5.082 -0.1376 -0.6357 -0.3130
 3811SOL    HW122892   0.834   4.054   5.064  0.4212  0.3712 -1.1936
 3811SOL    HW222893   0.908   3.927   5.075 -2.6737 -0.3306  0.6434
 3812SOL     OW22894   2.399   3.939   9.148  0.0088 -0.2148 -0.3141
 3812SOL    HW122895   2.308   3.945   9.178  1.0522  0.5967  2.5647
 3812SOL    HW222896   2.437   3.981   9.225  0.8931  0.5049 -1.1453
 3813SOL     OW22897   3.873   3.025  13.461 -0.1814  0.3602 -0.2118
 3813SOL    HW122898   3.830   3.109  13.444 -1.1803  0.2334  1.7226
 3813SOL    HW222899   3.813   2.986  13.525 -1.4577  0.6584 -1.2240
 3814SOL     OW22900   2.396   1.223   6.214  0.3230  0.0789  0.0040
 3814SOL    HW122901   2.456   1.204   6.142 -0.8645  2.2772 -1.5781
 3814SOL    HW222902   2.430   1.308   6.241  1.3570 -1.1490  2.4886
 3815SOL     OW22903   4.056   0.687   4.262  0.4091  0.4022 -0.1248
 3815SOL    HW122904   4.034   0.737   4.184 -1.0971 -0.5467 -0.3031
 3815SOL    HW222905   3.980   0.701   4.319 -0.8515 -1.3152 -1.3829
 3816SOL     OW22906   0.573   2.505   8.653 -0.0990  0.0330  0.3561
 3816SOL    HW122907   0.493   2.551   8.626 -0.0324  1.3021  2.3659
 3816SOL    HW222908   0.589   2.461   8.569  2.6900 -0.7581  1.2871
 3817SOL     OW22909   3.373   1.659   6.891  0.9900 -0.4040  0.0484
 3817SOL    HW122910   3.363   1.750   6.917  0.1895 -0.1624 -1.0750
 3817SOL    HW222911   3.429   1.636   6.965  1.4626 -0.5177 -0.3467
 3818SOL     OW22912   1.912   0.348   4.815 -0.4045 -0.3238 -0.1089
 3818SOL    HW122913   1.936   0.409   4.884 -0.3979 -0.3707 -0.0695
 3818SOL    HW222914   1.852   0.399   4.761 -0.6308  1.4515  1.8398
 3819SOL     OW22915   1.874   2.813  16.858 -0.0420  0.1588 -0.0801
 3819SOL    HW122916   1.927   2.736  16.880  0.4371  0.7888  1.0033
 3819SOL    HW222917   1.921   2.885  16.901  1.0109 -1.3604  1.3446
 3820SOL     OW22918   1.537   1.327   2.192  0.0734 -0.0832 -0.0086
 3820SOL    HW122919   1.457   1.354   2.236 -1.5608 -2.9925 -1.2135
 3820SOL    HW222920   1.553   1.409   2.147  1.5145 -1.2162 -1.5521
 3821SOL     OW22921   2.113   1.781   5.864 -0.3122 -0.2938 -0.0519
 3821SOL    HW122922   2.035   1.825   5.831 -0.6573  1.5288  3.1684
 3821SOL    HW222923   2.119   1.805   5.957  0.4733 -0.1718 -0.1339
 3822SOL     OW22924   3.304   0.258  11.497 -0.1456  0.8842  0.6928
 3822SOL    HW122925   3.307   0.190  11.564  1.5341 -0.6151 -0.9069
 3822SOL    HW222926   3.383   0.310  11.511  1.2027 -0.4747 -1.8951
 3823SOL     OW22927   3.856   4.230   5.294  0.3394 -0.0059  0.7254
 3823SOL    HW122928   3.913   4.270   5.360  0.0872 -2.1467  2.2389
 3823SOL    HW222929   3.781   4.285   5.314  1.7217  1.4832  1.8318
 3824SOL     OW22930   4.390   0.581  10.648 -0.5857  0.1827 -0.3715
 3824SOL    HW122931   4.311   0.574  10.594 -0.9730  1.6460  0.0048
 3824SOL    HW222932   4.461   0.557  10.589 -0.7619 -2.4116  0.4784
 3825SOL     OW22933   3.409   1.841  10.256 -0.4317 -0.1523  0.3800
 3825SOL    HW122934   3.393   1.810  10.345 -0.8899 -0.8818  0.0446
 3825SOL    HW222935   3.380   1.760  10.214 -2.3382 -0.2776  1.9393
 3826SOL     OW22936   3.400   0.699   5.566  1.2511  0.4206 -0.1595
 3826SOL    HW122937   3.458   0.625   5.548 -1.8971 -2.1336  0.3192
 3826SOL    HW222938   3.437   0.744   5.642  1.2010 -1.0871  0.7600
 3827SOL     OW22939   2.858   3.891   4.684  0.0679 -0.4863 -0.1871
 3827SOL    HW122940   2.922   3.955   4.654 -1.2192  1.0069  0.2328
 3827SOL    HW222941   2.783   3.949   4.700  0.9475  0.2687  1.2142
 3828SOL     OW22942   0.795   4.558  11.696 -0.0088  0.3039 -0.2099
 3828SOL    HW122943   0.852   4.539  11.622 -1.0791 -2.5519 -0.2918
 3828SOL    HW222944   0.708   4.550  11.659 -0.0634  0.0488 -0.0301
 3829SOL     OW22945   3.938   0.945  14.738 -0.5110 -0.1367 -0.2473
 3829SOL    HW122946   3.941   1.040  14.748  1.7523 -0.0463 -1.8228
 3829SOL    HW222947   4.012   0.927  14.680  0.0775  0.0039  0.4681
 3830SOL     OW22948   4.025   0.444   0.847  0.3831 -0.0230 -0.2182
 3830SOL    HW122949   3.976   0.450   0.928 -2.0101 -0.8191 -1.6143
 3830SOL    HW222950   3.972   0.384   0.794  3.2934 -0.9639 -2.0568
 3831SOL     OW22951   2.826   3.417   4.307 -0.3472  0.4793  0.4179
 3831SOL    HW122952   2.889   3.485   4.333  1.9365 -1.1746 -0.7955
 3831SOL    HW222953   2.801   3.447   4.219 -1.6731  1.0156  0.9815
 3832SOL     OW22954   0.946   3.700  16.814 -0.5804  0.0689  0.2042
 3832SOL    HW122955   0.990   3.755  16.879 -0.5928 -0.0340  0.3008
 3832SOL    HW222956   0.866   3.685  16.865  0.2406  0.7439  1.6756
 3833SOL     OW22957   4.283   3.934   2.862 -0.2073 -0.2382  0.2282
 3833SOL    HW122958   4.282   3.942   2.957 -0.2122  0.9066  0.1354
 3833SOL    HW222959   4.297   3.841   2.844 -0.5748 -0.3028  0.2892
 3834SOL     OW22960   1.422   4.503   3.859 -0.3360 -0.2018  0.5398
 3834SOL    HW122961   1.454   4.499   3.768 -0.4900 -1.9136  0.5640
 3834SOL    HW222962   1.477   4.575   3.890  0.0792 -0.9606  1.5425
 3835SOL     OW22963   2.389   2.452   5.384 -0.6685 -0.3077  0.3448
 3835SOL    HW122964   2.312   2.509   5.386 -0.5741 -0.0943 -2.5936
 3835SOL    HW222965   2.354   2.363   5.391 -1.2042 -0.1943 -0.8780
 3836SOL     OW22966   4.404   2.906  17.048 -0.3346 -0.1003  0.1010
 3836SOL    HW122967   4.484   2.882  17.001 -0.6931  0.9643 -1.0494
 3836SOL    HW222968   4.382   2.979  16.991  0.7026 -0.2114 -0.4428
 3837SOL     OW22969   4.508   4.377   3.600  0.2649 -0.0789 -0.6598
 3837SOL    HW122970   4.524   4.400   3.509  1.5948 -2.2044 -0.9877
 3837SOL    HW222971   4.574   4.435   3.638 -0.6573  1.3099 -1.2110
 3838SOL     OW22972   4.342   4.426  15.522 -0.3354  0.0062 -0.1050
 3838SOL    HW122973   4.341   4.342  15.567 -0.9932  2.3516  4.1957
 3838SOL    HW222974   4.248   4.444  15.519 -0.3599 -0.2294 -0.8710
 3839SOL     OW22975   3.759   1.742   9.472  0.6031 -0.4853 -0.0286
 3839SOL    HW122976   3.843   1.701   9.455  0.2948 -1.3158  0.4719
 3839SOL    HW222977   3.763   1.742   9.568  1.1211  0.8813 -0.0527
 3840SOL     OW22978   1.219   1.270  17.518 -0.2871  0.7949 -0.0898
 3840SOL    HW122979   1.167   1.217  17.457  0.3875 -0.5880  0.5274
 3840SOL    HW222980   1.223   1.347  17.462 -1.7566 -0.2323 -1.6198
 3841SOL     OW22981   1.929   4.589  13.325  0.1462 -0.4765 -0.0474
 3841SOL    HW122982   2.007   4.547  13.289 -1.2841 -0.1836 -3.4578
 3841SOL    HW222983   1.875   4.570  13.248 -0.1968 -0.2241  0.1294
 3842SOL     OW22984   2.432   3.740   5.771 -0.2099  0.4310 -0.0615
 3842SOL    HW122985   2.409   3.750   5.863  1.5468  0.4443  0.3699
 3842SOL    HW222986   2.527   3.743   5.774 -0.0760 -0.6482 -3.0902
 3843SOL     OW22987   3.455   0.637  13.253  0.2878 -0.5851  0.1865
 3843SOL    HW122988   3.509   0.589  13.315  1.7218  1.7549  0.7340
 3843SOL    HW222989   3.512   0.710  13.231 -0.9067  0.3850  0.2833
 3844SOL     OW22990   3.613   1.119   3.504 -0.6021  0.6122  0.3395
 3844SOL    HW122991   3.541   1.094   3.561  0.2914 -2.1116  0.3208
 3844SOL    HW222992   3.581   1.078   3.424  1.6446  0.8717 -0.6980
 3845SOL     OW22993   0.476   0.742   4.896  0.2580 -1.1057 -0.2621
 3845SOL    HW122994   0.460   0.765   4.987 -0.4075  1.3838 -1.0128
 3845SOL    HW222995   0.448   0.820   4.848 -1.2143 -1.8945 -0.6798
 3846SOL     OW22996   2.865   1.161  17.015  0.1534  0.4923  0.0772
 3846SOL    HW122997   2.868   1.107  16.936 -1.1743  1.8776 -0.9195
 3846SOL    HW222998   2.956   1.183  17.037 -0.4333  0.1770  2.7945
 3847SOL     OW22999   2.314   0.476   2.721  0.1669  0.5391 -0.2977
 3847SOL    HW123000   2.331   0.549   2.781 -0.5296 -0.8928  1.6655
 3847SOL    HW223001   2.353   0.512   2.641 -0.6510  0.3822 -0.7670
 3848SOL     OW23002   4.016   2.542   7.695 -0.5910  0.0873 -0.0413
 3848SOL    HW123003   4.096   2.593   7.705  0.1018 -0.9429 -0.3422
 3848SOL    HW223004   4.020   2.490   7.776  1.1996  1.3509  0.6718
 3849SOL     OW23005   0.369   2.870   4.745  0.0152  0.1825 -0.2560
 3849SOL    HW123006   0.426   2.807   4.700  0.2877  0.7581 -0.7143
 3849SOL    HW223007   0.286   2.822   4.746  0.4747 -0.6165 -0.3738
 3850SOL     OW23008   1.064   2.746  15.530  0.4423 -0.1315 -0.2311
 3850SOL    HW123009   1.067   2.729  15.624  0.0942 -0.9648 -0.3759
 3850SOL    HW223010   0.986   2.802  15.532  0.4141 -0.1492 -0.8323
 3851SOL     OW23011   0.807   3.168   3.995 -0.3246  0.2863 -0.5061
 3851SOL    HW123012   0.781   3.255   4.026  0.5931  1.1731 -2.2248
 3851SOL    HW223013   0.902   3.167   4.009 -0.5634 -1.2194  0.9889
 3852SOL     OW23014   0.645   3.674  16.103 -0.1180  0.0899 -0.4354
 3852SOL    HW123015   0.735   3.644  16.090 -0.4706 -0.1548 -2.3003
 3852SOL    HW223016   0.597   3.608  16.053 -0.6345 -0.0543  0.2502
 3853SOL     OW23017   2.561   2.989  10.607  0.4409  0.1689  0.4142
 3853SOL    HW123018   2.563   3.069  10.659  0.1044  0.4895 -0.0768
 3853SOL    HW223019   2.467   2.984  10.588  0.4949 -1.7342  0.6043
 3854SOL     OW23020   1.193   4.598  14.300  0.1447 -0.1042 -0.3398
 3854SOL    HW123021   1.116   4.597  14.357  0.4077 -0.1055  0.0154
 3854SOL    HW223022   1.255   4.634  14.364  1.1372  0.8249 -1.8108
 3855SOL     OW23023   1.581   3.422   9.742  0.0547 -0.3153  0.1454
 3855SOL    HW123024   1.667   3.423   9.700  0.6022 -3.2810  1.1966
 3855SOL    HW223025   1.545   3.343   9.703  1.3430 -2.1774  2.7741
 3856SOL     OW23026   2.881   2.968   8.486  0.2212  0.3307  0.1127
 3856SOL    HW123027   2.903   2.881   8.453 -0.7010  0.1563 -0.0431
 3856SOL    HW223028   2.852   2.935   8.571  1.1893 -1.5567 -0.2949
 3857SOL     OW23029   1.710   0.724   6.163  0.0710  0.3125  0.2534
 3857SOL    HW123030   1.773   0.741   6.093 -1.6753  0.3605 -1.3075
 3857SOL    HW223031   1.628   0.727   6.113 -0.4866  1.4865  1.2299
 3858SOL     OW23032   1.410   3.239   4.286  0.6557 -0.8018 -0.1957
 3858SOL    HW123033   1.380   3.312   4.341  2.4665  0.4792 -0.8969
 3858SOL    HW223034   1.473   3.287   4.232  0.1693 -0.8010 -0.7600
 3859SOL     OW23035   2.686   2.336   3.055 -0.0441  0.3229  0.3994
 3859SOL    HW123036   2.642   2.275   2.996 -0.7617 -0.8258  2.1270
 3859SOL    HW223037   2.611   2.396   3.055 -0.2087  0.1352 -1.2162
 3860SOL     OW23038   3.959   0.776   6.067 -0.1113 -0.2852 -0.1795
 3860SOL    HW123039   4.041   0.803   6.109  0.1464  0.7321 -1.3389
 3860SOL    HW223040   3.938   0.692   6.107  0.9226 -1.7601 -2.7303
 3861SOL     OW23041   4.109   0.129   3.670  0.1029 -0.7865 -0.5044
 3861SOL    HW123042   4.200   0.102   3.679 -0.5084 -1.5230  3.6302
 3861SOL    HW223043   4.105   0.135   3.574  1.0775  0.8440 -0.4340
 3862SOL     OW23044   1.566   4.611  16.714 -0.2327  0.0352  0.1250
 3862SOL    HW123045   1.593   4.592  16.624 -0.1333  1.7541 -0.1937
 3862SOL    HW223046   1.624   4.686  16.727  2.2137 -1.2908 -3.1854
 3863SOL     OW23047   0.509   4.335   4.681  0.1396 -0.7807 -0.2873
 3863SOL    HW123048   0.494   4.243   4.661  0.5053 -0.8236 -0.3612
 3863SOL    HW223049   0.436   4.356   4.740 -0.7254  0.7888 -1.9224
 3864SOL     OW23050   1.101   1.165   7.643  0.1949  0.3587 -0.3389
 3864SOL    HW123051   1.135   1.253   7.661 -0.7827  0.7331 -0.3047
 3864SOL    HW223052   1.121   1.154   7.550 -1.3023  0.4187 -0.6762
 3865SOL     OW23053   1.149   2.147   6.132  0.4938 -0.0148  0.6958
 3865SOL    HW123054   1.098   2.226   6.149  1.1621  0.1610  1.8608
 3865SOL    HW223055   1.217   2.153   6.199  0.5608 -1.5245  0.7617
 3866SOL     OW23056   4.543   1.302   9.192 -0.3937 -0.1893  0.0822
 3866SOL    HW123057   4.541   1.367   9.263  0.8182 -0.0464 -0.0250
 3866SOL    HW223058   4.636   1.308   9.173 -0.5715  0.0776 -0.7357
 3867SOL     OW23059   3.290   0.583   3.561 -0.4720 -0.0592  0.1278
 3867SOL    HW123060   3.198   0.612   3.554 -0.5493 -0.5271 -0.8041
 3867SOL    HW223061   3.291   0.488   3.554  2.1781 -0.1650  2.1196
 3868SOL     OW23062   0.235   0.122   8.796  0.2769  0.1324  0.0345
 3868SOL    HW123063   0.323   0.159   8.791  0.5440 -0.2969  1.6361
 3868SOL    HW223064   0.239   0.047   8.737 -1.4278  0.6691 -0.7509
 3869SOL     OW23065   0.265   3.052   3.215 -0.1054  0.2195 -0.0101
 3869SOL    HW123066   0.357   3.056   3.239  0.2062  0.2106 -1.2269
 3869SOL    HW223067   0.267   3.014   3.127  1.2307  1.0502 -0.3205
 3870SOL     OW23068   3.844   4.312   3.305  0.1571  0.6909 -0.0976
 3870SOL    HW123069   3.819   4.220   3.309  0.9429  0.5149  0.8378
 3870SOL    HW223070   3.769   4.345   3.355  0.1470 -0.6361  0.7634
 3871SOL     OW23071   0.005   0.284   4.600  0.4481  0.3689 -0.3638
 3871SOL    HW123072   0.067   0.343   4.557  0.1722  0.0365 -1.2212
 3871SOL    HW223073   0.049   0.252   4.679  0.2704  0.5801 -0.1778
 3872SOL     OW23074   0.011   3.108   2.520 -0.3866  0.0292 -0.6434
 3872SOL    HW123075   0.067   3.042   2.478 -1.1196 -1.7594  1.1348
 3872SOL    HW223076   0.081   3.157   2.564 -0.3218 -0.9393  0.3411
 3873SOL     OW23077   2.788   1.832   9.159  0.1007 -0.1501  0.2830
 3873SOL    HW123078   2.826   1.792   9.238 -0.1000  1.0252  0.9749
 3873SOL    HW223079   2.697   1.830   9.186  0.1081  0.0015  0.3190
 3874SOL     OW23080   4.066   1.158  15.692  0.1075 -0.0862  0.1833
 3874SOL    HW123081   4.144   1.210  15.672  1.2597 -1.1441  1.8952
 3874SOL    HW223082   3.990   1.213  15.711 -1.7208 -1.7247 -2.2682
 3875SOL     OW23083   4.350   2.169   2.176 -0.0392  0.0666 -0.1605
 3875SOL    HW123084   4.374   2.109   2.247 -0.3981 -0.3814 -0.4187
 3875SOL    HW223085   4.305   2.236   2.228 -1.5156 -1.0483  0.0253
 3876SOL     OW23086   4.176   4.220   8.057  0.5235  0.6479  0.2085
 3876SOL    HW123087   4.254   4.274   8.044 -0.4745  1.9428 -0.3230
 3876SOL    HW223088   4.158   4.244   8.148 -0.0984  1.0429 -0.0200
 3877SOL     OW23089   0.980   2.280   6.720 -0.2752  0.0180  0.1130
 3877SOL    HW123090   1.028   2.250   6.643 -0.2337 -2.5813  1.1586
 3877SOL    HW223091   1.012   2.232   6.796 -1.1985  1.0929  1.1843
 3878SOL     OW23092   0.100   3.941  11.262  0.3099 -0.0323 -0.1034
 3878SOL    HW123093   0.080   3.901  11.177  0.6035  0.9019 -0.6153
 3878SOL    HW223094   0.018   3.927  11.310  0.1751 -0.7835 -0.5448
 3879SOL     OW23095   3.333   2.285   3.651 -0.1349 -0.4816 -0.2919
 3879SOL    HW123096   3.384   2.267   3.572  1.1459  0.6130  0.2979
 3879SOL    HW223097   3.262   2.221   3.641 -1.9734  1.4692  0.4777
 3880SOL     OW23098   2.414   2.674  11.986 -0.2880  0.3366 -0.0459
 3880SOL    HW123099   2.324   2.683  12.018 -0.3747  2.7603 -0.9750
 3880SOL    HW223100   2.458   2.646  12.066  0.9814  2.6020  0.0390
 3881SOL     OW23101   2.663   4.364   4.836  0.0763  0.0123 -0.2656
 3881SOL    HW123102   2.722   4.404   4.773 -0.2184  0.6535 -0.1344
 3881SOL    HW223103   2.732   4.340   4.898  0.5551  2.1249  0.0362
 3882SOL     OW23104   1.800   1.268   3.674  0.7162 -0.0946 -0.3152
 3882SOL    HW123105   1.812   1.193   3.732  3.1755  2.0880  1.9305
 3882SOL    HW223106   1.866   1.239   3.611  1.2474 -0.0381  0.2170
 3883SOL     OW23107   3.144   1.271  12.615  0.1161  0.1585 -0.0787
 3883SOL    HW123108   3.073   1.236  12.669 -0.4152  0.8914 -0.3090
 3883SOL    HW223109   3.219   1.245  12.669  1.0929  2.3688 -0.3683
 3884SOL     OW23110   3.567   1.769   3.120 -0.0272  0.0280  0.2248
 3884SOL    HW123111   3.631   1.840   3.121 -1.1536  1.0587 -1.6754
 3884SOL    HW223112   3.483   1.809   3.146  0.4622  1.2591 -0.1056
 3885SOL     OW23113   1.443   3.536   3.725 -0.1805  0.1883 -0.0781
 3885SOL    HW123114   1.471   3.627   3.718  1.1005 -0.0491  1.9424
 3885SOL    HW223115   1.515   3.512   3.784  0.1215  1.6436  0.1306
 3886SOL     OW23116   0.905   4.312   5.129  0.2314  0.1072  0.2821
 3886SOL    HW123117   0.852   4.364   5.068  2.2961  3.4085  1.2971
 3886SOL    HW223118   0.923   4.232   5.079 -2.9101 -1.1345  1.1479
 3887SOL     OW23119   1.059   1.534  10.828 -0.1869 -0.0419  0.0497
 3887SOL    HW123120   1.003   1.544  10.905 -1.4493 -1.6078 -0.6657
 3887SOL    HW223121   1.068   1.624  10.797  0.8789 -0.4247 -0.7725
 3888SOL     OW23122   2.246   0.805   8.535 -0.3386 -0.2105 -0.7289
 3888SOL    HW123123   2.263   0.715   8.563  0.6414 -0.2112 -1.3394
 3888SOL    HW223124   2.301   0.850   8.598  0.3425  1.9604 -2.8943
 3889SOL     OW23125   2.468   0.953   4.489  0.2858 -0.5333  0.1961
 3889SOL    HW123126   2.498   0.914   4.407  3.3581  0.1326  1.0053
 3889SOL    HW223127   2.478   0.878   4.547 -0.7211 -0.9874 -0.2262
 3890SOL     OW23128   1.196   3.571  10.443 -0.5317  0.7965  0.1242
 3890SOL    HW123129   1.173   3.662  10.458  1.2688  1.5683 -1.9078
 3890SOL    HW223130   1.142   3.535  10.514 -0.8228 -1.6961 -1.3684
 3891SOL     OW23131   3.579   0.788  16.661  0.1940  0.6335  0.0317
 3891SOL    HW123132   3.610   0.811  16.749  1.5996 -0.8632 -0.0823
 3891SOL    HW223133   3.570   0.694  16.674 -0.7260  0.7091 -0.0673
 3892SOL     OW23134   4.603   3.574   6.132 -0.0694  0.4724  0.5012
 3892SOL    HW123135   4.693   3.604   6.144  0.7123 -2.1034  1.0286
 3892SOL    HW223136   4.572   3.650   6.083 -0.0833  1.6419  2.3267
 3893SOL     OW23137   0.994   2.973   1.143  0.2576 -0.5966  0.3885
 3893SOL    HW123138   1.078   2.942   1.178  0.5688 -1.0742 -0.7803
 3893SOL    HW223139   1.021   3.046   1.088 -2.2878  0.6998  0.8822
 3894SOL     OW23140   2.130   2.346  17.286  0.0899  0.1576 -0.9380
 3894SOL    HW123141   2.082   2.426  17.264 -0.2357 -0.2423 -1.6698
 3894SOL    HW223142   2.217   2.376  17.261  0.0348  1.7193  0.7302
 3895SOL     OW23143   0.007   3.169   6.633  0.5568 -0.3649 -0.1746
 3895SOL    HW123144   0.024   3.263   6.640  1.2930 -0.7362  3.0881
 3895SOL    HW223145   4.648   3.175   6.579  1.3896 -1.8238 -1.5578
 3896SOL     OW23146   0.880   1.671  16.242 -0.1065  0.4172 -0.0462
 3896SOL    HW123147   0.938   1.596  16.255  0.1757  0.7489  0.5805
 3896SOL    HW223148   0.893   1.684  16.148 -0.5295  2.4401  0.1768
 3897SOL     OW23149   0.377   0.237   4.536 -0.0303 -0.1799  0.1746
 3897SOL    HW123150   0.367   0.147   4.506  0.6194 -0.1825 -0.0158
 3897SOL    HW223151   0.399   0.232   4.629 -0.2898  0.6346  0.2894
 3898SOL     OW23152   3.836   0.263  16.469  0.2288 -0.2953 -0.0133
 3898SOL    HW123153   3.834   0.356  16.491 -1.0595 -1.2409  3.7537
 3898SOL    HW223154   3.788   0.271  16.386  0.8113 -2.1085 -0.5190
 3899SOL     OW23155   3.655   1.547   7.863  0.5745 -0.4747 -0.0351
 3899SOL    HW123156   3.670   1.456   7.836  0.9090 -0.1564 -0.8991
 3899SOL    HW223157   3.573   1.533   7.912 -0.6263  0.3360 -1.8042
 3900SOL     OW23158   0.345   3.396   7.584  0.2177 -0.0331 -0.0532
 3900SOL    HW123159   0.402   3.334   7.630  0.9168  0.7444  0.1383
 3900SOL    HW223160   0.326   3.374   7.493  1.8293  0.1739 -0.4413
 3901SOL     OW23161   0.872   3.504   4.417  0.3283 -0.2062  0.2514
 3901SOL    HW123162   0.952   3.452   4.431 -0.1658 -0.9116  0.4550
 3901SOL    HW223163   0.832   3.479   4.500 -3.1656  1.5963 -0.8869
 3902SOL     OW23164   1.323   2.268  13.867 -0.2438  0.0191  0.0116
 3902SOL    HW123165   1.238   2.288  13.828 -0.2067  2.0821  1.0245
 3902SOL    HW223166   1.367   2.345  13.832  0.4567  0.3958  1.7241
 3903SOL     OW23167   0.075   0.129   2.440 -0.1431 -0.0811  0.0962
 3903SOL    HW123168   0.049   0.190   2.371  1.3732  1.7217  1.0941
 3903SOL    HW223169   4.715   0.109   2.488 -0.1047 -0.2580  0.0866
 3904SOL     OW23170   2.184   1.369   8.678 -1.2008 -0.2432  0.1704
 3904SOL    HW123171   2.204   1.375   8.772  1.0718 -0.3610 -0.3154
 3904SOL    HW223172   2.167   1.275   8.665 -0.1118 -0.6721  1.8178
 3905SOL     OW23173   3.147   4.026   6.121 -0.6833 -0.3400 -0.2690
 3905SOL    HW123174   3.187   3.997   6.203 -0.4441  0.0658 -0.2461
 3905SOL    HW223175   3.228   4.045   6.073 -0.5715 -0.2652 -0.0505
 3906SOL     OW23176   1.710   0.981   3.273 -0.0293 -0.7132  0.7400
 3906SOL    HW123177   1.757   0.970   3.190 -0.7060  0.5905  0.1895
 3906SOL    HW223178   1.651   0.906   3.275 -0.8738 -0.1526 -2.9494
 3907SOL     OW23179   2.134   1.169  15.133  0.2295  0.5175 -0.0151
 3907SOL    HW123180   2.224   1.142  15.153  1.4266  2.0928 -3.3519
 3907SOL    HW223181   2.151   1.262  15.153  2.2165  0.3736 -1.0687
 3908SOL     OW23182   0.874   2.486   6.581  0.5077  0.1175  0.5931
 3908SOL    HW123183   0.923   2.421   6.632  1.0878 -0.7384 -1.0614
 3908SOL    HW223184   0.916   2.571   6.595 -0.6442  0.8222 -0.1945
 3909SOL     OW23185   2.793   1.846   3.133 -0.1693 -0.1964 -0.2160
 3909SOL    HW123186   2.703   1.814   3.128  0.1371 -0.6117 -3.3082
 3909SOL    HW223187   2.781   1.941   3.141 -1.7989 -0.3076 -1.2563
 3910SOL     OW23188   1.742   1.331   1.823  0.8033  0.0715 -0.4466
 3910SOL    HW123189   1.750   1.249   1.774 -3.8508 -0.3411 -0.4384
 3910SOL    HW223190   1.647   1.340   1.818  0.8308  0.8519  0.4234
 3911SOL     OW23191   0.871   0.296   4.006 -0.0141  0.4760  0.1552
 3911SOL    HW123192   0.897   0.333   4.091 -0.5256 -0.3389  0.6720
 3911SOL    HW223193   0.793   0.351   3.994 -0.4520  0.1430  1.4429
 3912SOL     OW23194   2.352   2.737   6.157  0.4312  0.6974 -0.0800
 3912SOL    HW123195   2.409   2.664   6.134 -0.8271  0.4776 -2.5027
 3912SOL    HW223196   2.387   2.815   6.113  1.8174 -0.0592 -0.3266
 3913SOL     OW23197   3.846   0.383   5.540  0.4043  0.1506 -0.1086
 3913SOL    HW123198   3.879   0.297   5.565  1.4940  0.5414 -0.2398
 3913SOL    HW223199   3.923   0.437   5.520 -1.0388  1.3816 -2.4827
 3914SOL     OW23200   3.157   2.931  14.581  0.1368 -0.1286  0.4352
 3914SOL    HW123201   3.134   2.892  14.496 -0.7561 -2.4704  1.7507
 3914SOL    HW223202   3.237   2.976  14.553 -0.0196 -0.3992 -0.4578
 3915SOL     OW23203   4.651   1.353  11.171  0.3666  0.0449  0.1990
 3915SOL    HW123204   4.599   1.414  11.223 -1.5934 -1.1467 -0.3448
 3915SOL    HW223205   4.614   1.266  11.187  2.1867 -0.8843 -0.6549
 3916SOL     OW23206   1.066   2.559   2.913  0.5054  0.4537 -0.0187
 3916SOL    HW123207   1.038   2.651   2.907  1.9734  0.9055  0.0319
 3916SOL    HW223208   0.998   2.520   2.968  1.0189  0.9965  0.9944
 3917SOL     OW23209   0.562   3.692  11.473  0.1696 -0.0552 -0.1992
 3917SOL    HW123210   0.550   3.710  11.380 -2.0266 -1.9586 -0.2725
 3917SOL    HW223211   0.472   3.673  11.497 -0.1710  0.6129 -0.9638
 3918SOL     OW23212   4.243   1.615   2.345 -0.0553 -0.2731 -0.2357
 3918SOL    HW123213   4.164   1.602   2.292  0.9579  2.0604 -2.3253
 3918SOL    HW223214   4.218   1.552   2.412  1.0092  2.9530  3.1447
 3919SOL     OW23215   2.040   3.115   6.700 -0.1018  0.5880  0.3937
 3919SOL    HW123216   1.976   3.155   6.642 -2.2249 -2.0791  0.8953
 3919SOL    HW223217   2.013   3.023   6.698 -0.2472  0.6485 -0.2795
 3920SOL     OW23218   0.288   3.232  16.566 -0.4229  0.1085  0.4638
 3920SOL    HW123219   0.247   3.252  16.481  1.7715  0.4093 -0.5296
 3920SOL    HW223220   0.216   3.263  16.620 -1.3811  0.6547 -1.1109
 3921SOL     OW23221   1.853   2.865  13.772  0.7842 -0.2181  0.3838
 3921SOL    HW123222   1.937   2.836  13.808  1.1529 -0.1637 -0.4424
 3921SOL    HW223223   1.850   2.954  13.807 -1.6344  0.1243 -0.6942
 3922SOL     OW23224   4.434   3.768   0.609 -0.0421 -0.1974  0.0568
 3922SOL    HW123225   4.349   3.731   0.630 -1.2061  1.7692 -1.1404
 3922SOL    HW223226   4.417   3.859   0.635  0.6276  0.5908 -2.1922
 3923SOL     OW23227   3.751   4.458   1.340 -0.0429  0.9032 -0.2350
 3923SOL    HW123228   3.662   4.428   1.327 -0.0466  0.2606  1.1918
 3923SOL    HW223229   3.738   4.548   1.372 -0.6678  0.6281  0.2842
 3924SOL     OW23230   3.065   1.282  10.596 -0.4628 -0.0724  0.0894
 3924SOL    HW123231   3.118   1.223  10.542  2.2460  0.4245  2.2154
 3924SOL    HW223232   3.062   1.363  10.545  2.3115 -0.3968 -0.6351
 3925SOL     OW23233   2.467   3.128   3.606  0.2676  0.1466  0.0903
 3925SOL    HW123234   2.468   3.183   3.528  0.6676  0.8156  0.5580
 3925SOL    HW223235   2.398   3.066   3.586  1.8938 -1.7126  0.1631
 3926SOL     OW23236   0.300   2.181   5.682  0.0623  0.2583 -0.4261
 3926SOL    HW123237   0.252   2.263   5.698 -1.6230 -0.6962 -0.5801
 3926SOL    HW223238   0.275   2.158   5.592 -0.6803 -2.9105  0.5883
 3927SOL     OW23239   3.561   0.950   3.296 -0.0101 -0.7388 -0.6366
 3927SOL    HW123240   3.543   0.856   3.302  0.0548 -0.6844  0.3592
 3927SOL    HW223241   3.568   0.965   3.201 -0.8209  2.2078 -0.2351
 3928SOL     OW23242   1.396   0.802  16.469 -0.5299  0.0295  0.5886
 3928SOL    HW123243   1.481   0.806  16.426  0.0018  2.4378  1.9012
 3928SOL    HW223244   1.346   0.827  16.391 -1.4856  0.4174  1.3277
 3929SOL     OW23245   1.965   3.857   5.216 -0.1101 -0.4720 -0.3383
 3929SOL    HW123246   1.961   3.823   5.126 -0.5897  1.3219 -0.9855
 3929SOL    HW223247   1.887   3.912   5.217  1.8062  2.1673  2.4241
 3930SOL     OW23248   2.826   2.183   1.173 -0.1495  0.4805 -0.5754
 3930SOL    HW123249   2.755   2.118   1.173  0.9958 -0.7309  3.1571
 3930SOL    HW223250   2.864   2.172   1.260 -1.9757 -2.1392 -0.0964
 3931SOL     OW23251   1.048   0.133   3.365 -0.4980  0.2114  0.2896
 3931SOL    HW123252   1.101   0.206   3.394  1.4832 -0.5361 -1.4993
 3931SOL    HW223253   1.095   0.110   3.285  0.5316 -0.6914  1.1685
 3932SOL     OW23254   3.347   4.428   6.138  0.0801  0.2057 -0.5031
 3932SOL    HW123255   3.348   4.461   6.228 -0.1373 -0.0438 -0.4083
 3932SOL    HW223256   3.441   4.438   6.129  0.0073  0.3558 -1.1167
 3933SOL     OW23257   4.332   2.865   5.918 -0.3741  0.3303 -0.9165
 3933SOL    HW123258   4.302   2.954   5.938 -0.5738 -0.3128  1.6751
 3933SOL    HW223259   4.256   2.806   5.918 -0.5630  0.5712  2.3068
 3934SOL     OW23260   2.046   1.343   6.250  0.0721  0.5461 -0.4116
 3934SOL    HW123261   2.071   1.431   6.223 -0.8584  0.9748  0.1613
 3934SOL    HW223262   2.037   1.369   6.342  0.7107 -3.8666  0.9045
 3935SOL     OW23263   2.321   2.529   4.277 -0.4771 -0.1857 -0.4122
 3935SOL    HW123264   2.266   2.520   4.354  1.4823  1.7589  1.2410
 3935SOL    HW223265   2.276   2.467   4.220 -0.5134 -0.9021  0.4028
 3936SOL     OW23266   1.967   2.119  15.066 -0.3608 -0.4121  0.1484
 3936SOL    HW123267   2.055   2.095  15.040 -0.8734 -0.8787 -1.1608
 3936SOL    HW223268   1.955   2.045  15.126  1.1060  1.9579  3.3928
 3937SOL     OW23269   1.520   4.282   6.087 -0.3130 -0.0359 -0.6520
 3937SOL    HW123270   1.563   4.288   6.002  2.3058  2.0477  0.8248
 3937SOL    HW223271   1.553   4.354   6.142 -2.1667 -0.0014  0.4163
 3938SOL     OW23272   0.073   1.947  15.915  0.0570 -0.2505  0.0903
 3938SOL    HW123273   0.100   1.928  16.005  0.3389 -0.6975 -0.0926
 3938SOL    HW223274   0.148   1.926  15.860 -0.7928 -0.8316 -0.8380
 3939SOL     OW23275   0.732   2.944   8.903 -0.3393  0.3260  0.1992
 3939SOL    HW123276   0.654   2.891   8.886 -0.1134  0.6900 -1.9694
 3939SOL    HW223277   0.768   2.919   8.988  1.7605 -1.1914 -1.1468
 3940SOL     OW23278   2.239   2.988   4.055 -0.3583 -0.2615 -0.0406
 3940SOL    HW123279   2.231   3.013   4.147 -0.1109  2.3102 -0.7166
 3940SOL    HW223280   2.292   2.909   4.055  0.3170  0.1884  0.8590
 3941SOL     OW23281   4.619   0.308   0.389 -0.2913 -0.1454 -0.0830
 3941SOL    HW123282   4.567   0.374   0.343 -0.7292 -1.0515 -0.9016
 3941SOL    HW223283   4.600   0.227   0.340  3.5947 -1.3556  0.4601
 3942SOL     OW23284   0.232   2.623  16.889 -0.0350  0.8077  0.4172
 3942SOL    HW123285   0.201   2.552  16.945  0.2777  1.1388  1.0063
 3942SOL    HW223286   0.304   2.644  16.948  0.4779  2.8687 -0.9739
 3943SOL     OW23287   4.460   2.924  15.408  0.4976  0.3188 -0.2744
 3943SOL    HW123288   4.503   2.987  15.351 -2.3426  1.7304 -0.8656
 3943SOL    HW223289   4.392   2.980  15.448  0.6632  0.7054 -0.5353
 3944SOL     OW23290   0.622   3.534   8.000  0.1099  0.0980  0.2210
 3944SOL    HW123291   0.640   3.596   7.930  0.0429 -0.1251  0.0080
 3944SOL    HW223292   0.526   3.526   8.000  0.1601 -0.2875 -2.2654
 3945SOL     OW23293   4.713   0.169   9.949 -0.4757  0.5247 -0.0796
 3945SOL    HW123294   4.673   0.186   9.864 -2.0500  2.2827  1.0300
 3945SOL    HW223295   4.654   0.104   9.987 -3.1335  2.8233 -0.2695
 3946SOL     OW23296   2.080   3.411  11.906 -0.6730 -0.0849  0.6331
 3946SOL    HW123297   2.125   3.465  11.971  1.8079  0.0507 -1.2045
 3946SOL    HW223298   2.155   3.382  11.855 -0.7642  0.9296 -0.0827
 3947SOL     OW23299   4.203   1.013   8.874 -0.0146  0.1526  0.1957
 3947SOL    HW123300   4.191   0.985   8.784  1.1657  1.6889 -0.4391
 3947SOL    HW223301   4.270   1.074   8.846 -1.6225  1.6213 -0.4496
 3948SOL     OW23302   0.691   0.933  14.001 -0.6017 -0.5323  0.1448
 3948SOL    HW123303   0.780   0.943  14.034 -0.2835  1.3136 -1.2750
 3948SOL    HW223304   0.701   0.894  13.914  0.6837 -2.1370  1.0065
 3949SOL     OW23305   2.471   2.043   8.313 -0.5963  0.0977  0.2611
 3949SOL    HW123306   2.469   2.087   8.227 -2.6437  0.7207  0.6183
 3949SOL    HW223307   2.559   2.007   8.311 -0.9248 -0.6946 -0.4717
 3950SOL     OW23308   1.992   3.098   3.563 -0.1995  0.1816 -0.1342
 3950SOL    HW123309   1.927   3.153   3.519 -0.7616 -0.2450  0.1515
 3950SOL    HW223310   1.963   3.114   3.653 -1.3172 -0.9955 -0.2833
 3951SOL     OW23311   0.541   4.444   2.098  0.4428 -0.6469 -0.3123
 3951SOL    HW123312   0.533   4.410   2.187  0.2256 -0.8815 -0.4206
 3951SOL    HW223313   0.574   4.530   2.123 -0.0404 -0.8706  1.1023
 3952SOL     OW23314   3.876   0.729  11.165  0.6213  0.4309  0.1222
 3952SOL    HW123315   3.841   0.792  11.228  0.2329 -1.7392  2.0676
 3952SOL    HW223316   3.968   0.753  11.157  0.6148  0.2115 -0.6071
 3953SOL     OW23317   3.990   0.544   3.474  0.0270 -0.2879  0.2056
 3953SOL    HW123318   4.001   0.480   3.403 -1.0363 -0.4494  0.1840
 3953SOL    HW223319   3.914   0.510   3.521  0.6729 -1.5140  0.3639
 3954SOL     OW23320   2.783   0.793   3.592 -0.0093 -0.1403  0.0563
 3954SOL    HW123321   2.688   0.802   3.601 -0.1944 -2.2035 -0.0362
 3954SOL    HW223322   2.789   0.838   3.508  1.5349 -0.2449  0.1073
 3955SOL     OW23323   2.105   1.111   6.874 -0.4904  0.0591 -0.6098
 3955SOL    HW123324   2.066   1.051   6.810  1.2647  0.0108 -1.6363
 3955SOL    HW223325   2.075   1.197   6.845  0.5828  0.3361 -0.8887
 3956SOL     OW23326   0.630   3.965   3.367  0.3568  0.0424  0.1569
 3956SOL    HW123327   0.673   3.944   3.284 -0.8656 -1.6877 -0.0322
 3956SOL    HW223328   0.667   3.907   3.434  2.2266 -1.5379 -2.2484
 3957SOL     OW23329   4.013   2.336  17.172 -0.1311  0.0216  0.1502
 3957SOL    HW123330   4.036   2.401  17.238  0.6479 -0.1344  0.0290
 3957SOL    HW223331   4.089   2.352  17.116 -1.6338  0.7351 -1.6800
 3958SOL     OW23332   0.323   3.410   7.068  0.1310  0.0007  0.1587
 3958SOL    HW123333   0.376   3.415   6.988 -0.4062 -3.1664 -0.3889
 3958SOL    HW223334   0.267   3.484   7.043  0.5028  0.3273  0.2909
 3959SOL     OW23335   1.169   1.108   7.381 -0.5860  0.1310 -0.4523
 3959SOL    HW123336   1.200   1.191   7.417 -1.1358 -0.1916  0.7327
 3959SOL    HW223337   1.235   1.080   7.317 -0.8472 -1.5795  0.0333
 3960SOL     OW23338   0.028   1.454   0.682 -0.0193 -0.1555 -0.6865
 3960SOL    HW123339   4.658   1.463   0.712 -0.5904 -0.4611 -2.3199
 3960SOL    HW223340   0.051   1.546   0.672 -2.2980  0.5307  0.3583
 3961SOL     OW23341   1.290   3.757  16.100 -0.0612  0.4826 -0.1152
 3961SOL    HW123342   1.239   3.742  16.180 -1.0067 -1.5521 -1.0974
 3961SOL    HW223343   1.248   3.689  16.048 -1.5665 -0.6913  2.5954
 3962SOL     OW23344   3.245   1.018   5.590  0.4365  0.0591 -0.2057
 3962SOL    HW123345   3.200   0.995   5.671  2.2760  2.5104  1.4926
 3962SOL    HW223346   3.334   1.041   5.616  0.6959 -0.4333 -0.6741
 3963SOL     OW23347   0.033   0.659  12.139 -0.2299 -0.8310 -0.1517
 3963SOL    HW123348   4.660   0.675  12.150 -0.6496 -2.3452 -1.4124
 3963SOL    HW223349   0.030   0.597  12.065  2.1230  0.1347 -1.0439
 3964SOL     OW23350   0.546   1.829   0.143  0.2247  0.0335  0.2888
 3964SOL    HW123351   0.519   1.834   0.051  1.6113  1.1895 -0.0610
 3964SOL    HW223352   0.626   1.777   0.142  1.1148  1.3607  1.2638
 3965SOL     OW23353   3.725   2.652   5.546  0.1946 -0.8787 -0.5435
 3965SOL    HW123354   3.797   2.697   5.590 -0.5891  0.0232 -0.2079
 3965SOL    HW223355   3.732   2.699   5.463 -1.5465 -0.4091 -0.4129
 3966SOL     OW23356   2.377   0.080   7.415 -0.3669  0.2316  1.1055
 3966SOL    HW123357   2.393   0.162   7.369  1.7636 -1.4256 -1.1356
 3966SOL    HW223358   2.467   0.052   7.428  0.4089  1.9150 -0.7033
 3967SOL     OW23359   3.083   0.034   7.602  0.0780  0.1136  0.0350
 3967SOL    HW123360   3.148   0.032   7.672  1.2625 -0.7615 -1.1050
 3967SOL    HW223361   3.031   0.110   7.628 -0.6134 -0.0777 -0.7658
 3968SOL     OW23362   2.613   0.138   7.970 -0.4269  0.4711 -0.1940
 3968SOL    HW123363   2.576   0.105   7.888  0.1951 -1.5019  0.3198
 3968SOL    HW223364   2.676   0.066   7.981 -0.7882 -0.1568 -2.2660
 3969SOL     OW23365   1.509   0.901   8.930  0.3468 -0.0712  0.0368
 3969SOL    HW123366   1.553   0.886   9.014  0.4432 -1.9568 -0.3634
 3969SOL    HW223367   1.585   0.925   8.876 -0.0096 -0.7534 -0.7741
 3970SOL     OW23368   4.271   2.891   1.534  0.0226  0.1964  0.3918
 3970SOL    HW123369   4.202   2.840   1.492 -0.1981  2.1740 -1.6141
 3970SOL    HW223370   4.297   2.837   1.609  1.7431 -0.8828 -0.9800
 3971SOL     OW23371   3.117   1.831   5.037 -0.0275 -0.2373  0.6226
 3971SOL    HW123372   3.053   1.791   5.095 -0.8712  0.8066  0.4121
 3971SOL    HW223373   3.066   1.903   5.001 -0.8049 -0.6999  0.8101
 3972SOL     OW23374   1.223   2.611   3.152 -0.5305 -0.1553 -0.1446
 3972SOL    HW123375   1.174   2.580   3.075 -0.0921 -0.0696 -0.4549
 3972SOL    HW223376   1.195   2.542   3.211 -2.4942  1.3922  0.7455
 3973SOL     OW23377   0.373   0.316  14.042 -0.1215  0.0453  0.1940
 3973SOL    HW123378   0.386   0.370  13.964 -2.1377  0.1571 -0.0632
 3973SOL    HW223379   0.325   0.238  14.013  1.1461 -0.5518 -0.3048
 3974SOL     OW23380   3.859   3.869   3.935  0.6014  0.1301  0.3852
 3974SOL    HW123381   3.884   3.779   3.959  1.0592  0.3398  0.6940
 3974SOL    HW223382   3.868   3.873   3.840 -3.6459  0.9642  0.0310
 3975SOL     OW23383   4.325   1.410   3.927 -0.0503 -0.1897  0.6338
 3975SOL    HW123384   4.282   1.352   3.989 -1.4297  0.5836  0.3882
 3975SOL    HW223385   4.307   1.496   3.964  0.8190  0.5812 -0.7002
 3976SOL     OW23386   2.835   2.887   4.845 -0.2594  0.4495 -0.0822
 3976SOL    HW123387   2.774   2.825   4.805  0.8846 -0.7414  0.0145
 3976SOL    HW223388   2.777   2.963   4.840  1.6840  2.0034  0.8175
 3977SOL     OW23389   1.082   0.426  11.463  0.4752 -0.0144 -0.3346
 3977SOL    HW123390   1.092   0.510  11.417 -3.5779  0.7672  0.1886
 3977SOL    HW223391   1.100   0.364  11.393  0.2190 -0.9810  0.4660
 3978SOL     OW23392   1.542   1.731   8.189 -0.5104 -0.2059 -0.1474
 3978SOL    HW123393   1.483   1.748   8.116 -0.0460  2.0403  0.0190
 3978SOL    HW223394   1.483   1.745   8.264 -1.7524 -1.6244 -0.8483
 3979SOL     OW23395   0.784   4.198   3.487  0.6897 -0.0320 -0.0567
 3979SOL    HW123396   0.738   4.115   3.486  1.4057 -0.4507  1.4320
 3979SOL    HW223397   0.871   4.166   3.465  0.1321 -1.3261 -0.3311
 3980SOL     OW23398   1.384   3.516   7.586  0.3540 -0.6664 -0.3626
 3980SOL    HW123399   1.369   3.556   7.500  1.2529 -0.0415 -0.2176
 3980SOL    HW223400   1.308   3.460   7.604  0.9889 -1.7764 -1.1055
 3981SOL     OW23401   0.666   3.601   3.290 -0.1591  0.2652  0.2420
 3981SOL    HW123402   0.732   3.661   3.255 -0.3747 -0.6605 -1.7394
 3981SOL    HW223403   0.696   3.587   3.380  3.0814  0.7655 -0.7688
 3982SOL     OW23404   3.245   1.561   3.688 -0.2073  0.0586 -0.2416
 3982SOL    HW123405   3.329   1.546   3.643 -1.3279 -0.2956 -2.2054
 3982SOL    HW223406   3.202   1.481   3.657 -1.0091  0.3745  0.0569
 3983SOL     OW23407   2.103   0.309   2.720  0.3512 -0.3173 -0.4894
 3983SOL    HW123408   2.045   0.343   2.788 -0.5865 -1.0513 -0.9228
 3983SOL    HW223409   2.176   0.370   2.727  2.7381 -3.1628 -0.8043
 3984SOL     OW23410   2.454   2.929   6.021  0.0893  0.9614 -0.2750
 3984SOL    HW123411   2.393   2.926   5.948 -0.6805 -2.2227  0.4868
 3984SOL    HW223412   2.437   3.009   6.070 -2.6882 -0.5719  1.2396
 3985SOL     OW23413   3.238   3.564   0.163 -0.3784 -0.1213  0.6530
 3985SOL    HW123414   3.304   3.585   0.228  0.7965 -1.6074 -0.0652
 3985SOL    HW223415   3.290   3.565   0.083  0.7640 -1.1481  1.3980
 3986SOL     OW23416   3.848   2.401  12.449  0.0645 -0.1677  0.7030
 3986SOL    HW123417   3.881   2.352  12.523 -2.0390 -2.4985  0.0874
 3986SOL    HW223418   3.878   2.343  12.379  0.3850 -0.3822  1.0239
 3987SOL     OW23419   3.891   2.595   3.094 -0.2986 -0.0827 -0.4035
 3987SOL    HW123420   3.932   2.520   3.051 -1.1368 -0.8001  0.0639
 3987SOL    HW223421   3.968   2.612   3.148 -2.5991  0.5814  2.6022
 3988SOL     OW23422   3.539   1.514   8.144  0.1498  0.5430  0.2467
 3988SOL    HW123423   3.482   1.584   8.176 -2.3327 -1.3589 -0.0945
 3988SOL    HW223424   3.623   1.559   8.154  1.6509 -1.9560 -1.1845
 3989SOL     OW23425   2.310   0.347   2.965  0.0950  0.3920  0.2855
 3989SOL    HW123426   2.318   0.256   2.937  1.3542  0.6197 -0.1116
 3989SOL    HW223427   2.319   0.390   2.880  0.2436 -0.4852 -0.1457
 3990SOL     OW23428   2.531   2.379   0.614 -0.6276 -0.7022  0.2082
 3990SOL    HW123429   2.456   2.320   0.606 -1.8080  0.9401 -0.9513
 3990SOL    HW223430   2.604   2.318   0.615 -0.7772 -0.9093 -1.1842
 3991SOL     OW23431   2.892   0.700   3.869 -0.1543  0.4753 -0.0208
 3991SOL    HW123432   2.896   0.730   3.960  1.3606 -1.2162  0.4619
 3991SOL    HW223433   2.930   0.769   3.815  2.5493 -2.0367 -1.2991
 3992SOL     OW23434   2.059   1.227   5.993  0.1278  0.3029 -0.0325
 3992SOL    HW123435   2.147   1.224   5.955  0.3492  1.4605  0.3965
 3992SOL    HW223436   2.069   1.251   6.085 -1.9936  1.0107 -0.0079
 3993SOL     OW23437   0.242   0.395   9.579  0.5679 -0.1443 -0.3863
 3993SOL    HW123438   0.281   0.424   9.662 -0.7343  2.0896 -0.5783
 3993SOL    HW223439   0.301   0.328   9.544 -0.3276 -1.4299  0.5857
 3994SOL     OW23440   0.428   1.657  11.925 -0.2963 -0.3778  0.0520
 3994SOL    HW123441   0.388   1.742  11.905  1.7667  0.1334 -1.8957
 3994SOL    HW223442   0.497   1.664  11.859 -1.4985  0.1083 -1.1581
 3995SOL     OW23443   4.503   4.035   8.345 -0.5459 -0.2004  0.5262
 3995SOL    HW123444   4.421   4.007   8.386 -0.0925 -1.1557  0.7822
 3995SOL    HW223445   4.554   4.076   8.415  0.9846 -0.3767 -0.4888
 3996SOL     OW23446   0.101   1.120  10.832 -0.2648  0.3656 -0.4652
 3996SOL    HW123447   0.088   1.095  10.741 -2.6416 -0.6285  0.1466
 3996SOL    HW223448   0.023   1.077  10.867  0.0828  0.9174  1.0178
 3997SOL     OW23449   2.945   0.680   5.386  0.0177  0.0564 -0.5040
 3997SOL    HW123450   2.967   0.650   5.474 -1.5382  1.4326  0.3421
 3997SOL    HW223451   3.030   0.720   5.369  1.2346 -2.3750 -0.1386
 3998SOL     OW23452   4.200   2.907   5.219 -0.5257 -0.3601  0.1728
 3998SOL    HW123453   4.179   2.946   5.134 -1.7577  0.1263  0.7052
 3998SOL    HW223454   4.294   2.923   5.234 -0.5817  0.1523 -0.0095
 3999SOL     OW23455   2.736   1.305   5.983 -0.2658 -0.3366 -0.4000
 3999SOL    HW123456   2.780   1.338   6.061  1.0987 -2.2600 -0.3463
 3999SOL    HW223457   2.656   1.357   5.977 -0.7353 -0.7670  2.4646
 4000SOL     OW23458   2.233   3.617   4.310  0.1418 -0.2741 -0.2369
 4000SOL    HW123459   2.256   3.601   4.402  2.1278 -2.7578 -1.1577
 4000SOL    HW223460   2.199   3.706   4.315  2.6082  0.6170  0.7068
 4001SOL     OW23461   3.695   0.123   5.831  0.4938  0.4571 -0.4451
 4001SOL    HW123462   3.604   0.125   5.861  0.1868 -0.0798 -1.3245
 4001SOL    HW223463   3.734   0.066   5.896 -3.6473 -0.3969  1.2771
 4002SOL     OW23464   1.111   0.388   3.556 -0.1317  0.5622  0.1045
 4002SOL    HW123465   1.099   0.325   3.627  1.4919  1.0508  0.8204
 4002SOL    HW223466   1.031   0.438   3.569  0.0606  0.6321  1.0145
 4003SOL     OW23467   4.604   3.403  13.975  0.2700 -0.0077  0.3063
 4003SOL    HW123468   4.661   3.479  13.969  0.3029 -0.0308  0.3255
 4003SOL    HW223469   4.559   3.415  14.058  1.3075  2.2351  0.5260
 4004SOL     OW23470   2.288   4.054   3.333 -0.8138 -0.5295  0.5131
 4004SOL    HW123471   2.358   3.998   3.365 -0.7249 -1.1140 -0.6832
 4004SOL    HW223472   2.287   4.126   3.395  1.8418  0.6035 -0.7310
 4005SOL     OW23473   1.042   4.042   4.156  0.5532 -0.0381 -0.1156
 4005SOL    HW123474   1.073   3.964   4.203 -1.9505 -0.9183  0.0546
 4005SOL    HW223475   1.120   4.096   4.170  0.5397 -0.8613  3.0123
 4006SOL     OW23476   0.790   1.006   3.072 -1.0512  0.2951 -0.1008
 4006SOL    HW123477   0.761   1.095   3.092  1.3204  1.3493 -1.2944
 4006SOL    HW223478   0.706   0.961   3.062 -0.9431 -0.7131  3.7104
 4007SOL     OW23479   3.408   1.243   6.378  0.3357  0.1110 -0.4097
 4007SOL    HW123480   3.477   1.178   6.391  0.6625  0.6296  0.4579
 4007SOL    HW223481   3.345   1.218   6.446  0.7268 -0.6778 -0.3407
 4008SOL     OW23482   4.076   3.872   6.746  0.5898  0.0608  0.0715
 4008SOL    HW123483   4.054   3.820   6.823  0.8495  1.3240  1.0020
 4008SOL    HW223484   4.030   3.832   6.672 -0.1189  1.1762 -0.1024
 4009SOL     OW23485   1.745   3.517  14.724  0.0256 -0.4940 -0.0576
 4009SOL    HW123486   1.718   3.521  14.816  2.8214  1.7886  0.6457
 4009SOL    HW223487   1.822   3.461  14.728  0.1277 -0.3174  0.4054
 4010SOL     OW23488   3.997   1.235   6.287 -0.0374  0.2782 -0.3183
 4010SOL    HW123489   4.004   1.204   6.197  1.6919  0.3550 -0.2171
 4010SOL    HW223490   3.978   1.150   6.328 -0.9251  0.2041 -0.8898
 4011SOL     OW23491   3.398   4.020   4.650  0.2459  0.0701  0.3194
 4011SOL    HW123492   3.449   3.939   4.660 -0.7961 -0.5289  0.8090
 4011SOL    HW223493   3.359   4.021   4.562  0.5745  3.2992  0.2250
 4012SOL     OW23494   4.177   2.257   3.956  0.1266  0.7561 -0.1787
 4012SOL    HW123495   4.164   2.282   3.865  0.0377  0.8093 -0.1514
 4012SOL    HW223496   4.128   2.323   4.006 -0.3132  1.1772 -1.1713
 4013SOL     OW23497   3.781   1.492   6.056  0.6678  0.0844  0.4455
 4013SOL    HW123498   3.866   1.508   6.095 -0.3700  1.5913  2.1215
 4013SOL    HW223499   3.726   1.559   6.098 -0.5506  0.8233 -2.2966
 4014SOL     OW23500   0.004   0.736   0.852  0.2068  0.0067 -0.5776
 4014SOL    HW123501   0.043   0.823   0.853 -1.5458  0.8166 -2.5495
 4014SOL    HW223502   4.669   0.739   0.774  0.1692  0.4002 -0.5342
 4015SOL     OW23503   2.187   0.948  14.785 -0.5899  0.5129 -0.0617
 4015SOL    HW123504   2.135   1.024  14.811  0.6044  1.1119  0.6258
 4015SOL    HW223505   2.125   0.877  14.797  0.4912 -0.5170 -0.5916
 4016SOL     OW23506   4.182   1.154   2.651  0.2048  0.5280  0.0325
 4016SOL    HW123507   4.122   1.079   2.654  2.2569 -1.1310 -0.9157
 4016SOL    HW223508   4.127   1.223   2.689 -1.0747 -1.9587  2.6810
 4017SOL     OW23509   3.659   3.484   7.565  0.0070 -0.4960 -0.5226
 4017SOL    HW123510   3.666   3.479   7.660 -1.1901  0.6638 -0.3853
 4017SOL    HW223511   3.753   3.475   7.548  0.4536 -1.3332  2.3562
 4018SOL     OW23512   0.241   2.797  10.328  0.3859 -0.4642  0.5758
 4018SOL    HW123513   0.198   2.760  10.251 -2.4118  0.0056  1.9259
 4018SOL    HW223514   0.208   2.729  10.387 -0.7593  0.1302  0.6086
 4019SOL     OW23515   0.934   2.895   1.985  0.3235 -0.4424  0.0615
 4019SOL    HW123516   0.901   2.829   1.924  0.8732 -0.3760 -0.3062
 4019SOL    HW223517   1.023   2.908   1.954  0.7550 -2.7674  0.3273
 4020SOL     OW23518   3.365   1.533   0.996  0.1735  0.1101 -0.2374
 4020SOL    HW123519   3.290   1.591   0.995  0.5809  0.6319 -1.1829
 4020SOL    HW223520   3.444   1.587   0.998  0.4039 -0.2162 -0.4206
 4021SOL     OW23521   1.476   2.881  12.154 -0.4421 -0.1791 -0.1104
 4021SOL    HW123522   1.473   2.932  12.072  3.4402 -0.1459 -0.2240
 4021SOL    HW223523   1.505   2.953  12.209 -0.3615 -0.2871 -0.0133
 4022SOL     OW23524   0.804   4.506   3.000 -0.3857 -0.3428  0.5665
 4022SOL    HW123525   0.747   4.559   2.944 -0.9370  0.9183  2.3210
 4022SOL    HW223526   0.745   4.433   3.021  1.1696 -1.3011  1.6353
 4023SOL     OW23527   2.186   3.451   2.052 -0.3975 -0.1741 -0.7498
 4023SOL    HW123528   2.104   3.420   2.089 -0.2505  0.7076  0.2810
 4023SOL    HW223529   2.151   3.487   1.971 -2.5448 -2.4486 -0.8234
 4024SOL     OW23530   1.242   2.569  17.194  0.0730  0.5932 -0.3098
 4024SOL    HW123531   1.168   2.618  17.230 -0.9665 -0.1756 -1.3802
 4024SOL    HW223532   1.311   2.612  17.245 -0.2074 -0.4893  0.9792
 4025SOL     OW23533   0.800   3.480   2.208 -0.2867  0.5258 -0.0511
 4025SOL    HW123534   0.881   3.456   2.252  0.3078  1.5268 -0.5952
 4025SOL    HW223535   0.833   3.470   2.119 -0.3229 -1.2266  0.1293
 4026SOL     OW23536   0.400   0.426   9.299  0.1912 -0.4127 -0.3127
 4026SOL    HW123537   0.493   0.433   9.278  0.3212  0.7443  0.6810
 4026SOL    HW223538   0.397   0.332   9.312  0.4240 -0.2906  0.5713
 4027SOL     OW23539   0.489   1.751  15.925 -0.1811  0.4778  0.1559
 4027SOL    HW123540   0.416   1.763  15.864 -0.7528  1.2497  0.9923
 4027SOL    HW223541   0.563   1.770  15.867 -0.4638 -0.0383 -0.3799
 4028SOL     OW23542   2.237   1.621  13.412 -0.5378 -0.1281  0.2900
 4028SOL    HW123543   2.263   1.615  13.504  3.8694  2.0364 -0.8415
 4028SOL    HW223544   2.206   1.532  13.392  0.7885 -0.4527 -0.3143
 4029SOL     OW23545   4.537   0.257   4.391  0.0027  0.0992 -0.5749
 4029SOL    HW123546   4.605   0.264   4.457 -0.4751  0.5451 -0.1317
 4029SOL    HW223547   4.577   0.297   4.313  0.0115 -1.7684 -1.5342
 4030SOL     OW23548   0.068   3.236  13.699 -0.0309  0.6021  0.1263
 4030SOL    HW123549   4.717   3.223  13.637 -0.0696 -0.4161  0.3910
 4030SOL    HW223550   0.144   3.194  13.659 -0.1812  0.8849 -0.4612
 4031SOL     OW23551   4.544   2.840   7.885  0.7070  0.2163  0.4802
 4031SOL    HW123552   4.496   2.896   7.824 -3.0062 -2.7627  0.6591
 4031SOL    HW223553   4.574   2.773   7.823  2.7404 -0.0186  1.7434
 4032SOL     OW23554   0.208   1.934   5.441 -0.1333  0.3207 -0.5755
 4032SOL    HW123555   0.209   1.911   5.533  0.5493 -1.0434 -0.9183
 4032SOL    HW223556   0.181   2.025   5.440  0.2592  0.4487  1.5374
 4033SOL     OW23557   1.917   0.889  15.557 -0.6064  0.1977 -0.4196
 4033SOL    HW123558   1.958   0.924  15.636  0.5222 -1.9139 -0.0690
 4033SOL    HW223559   1.997   0.868  15.510  1.2205 -0.3543  2.9534
 4034SOL     OW23560   1.953   2.860   4.823  0.5393  0.3393 -0.2291
 4034SOL    HW123561   2.019   2.930   4.817 -0.9173  1.6356 -0.9728
 4034SOL    HW223562   1.900   2.878   4.746  0.3001  1.0171  0.0967
 4035SOL     OW23563   2.934   1.684   4.024 -0.1585  0.0910  1.0185
 4035SOL    HW123564   3.013   1.632   4.010 -0.3559  0.1787 -0.4516
 4035SOL    HW223565   2.925   1.681   4.119  0.4316 -0.6626  1.0504
 4036SOL     OW23566   3.946   0.295  10.279 -0.3784 -0.1827 -0.3623
 4036SOL    HW123567   3.928   0.215  10.329 -1.5148  1.4266  1.7687
 4036SOL    HW223568   3.904   0.361  10.333 -3.0648 -0.1380 -2.4895
 4037SOL     OW23569   4.297   2.534   6.625  0.6597 -0.1671 -0.2051
 4037SOL    HW123570   4.323   2.519   6.535  0.8290 -0.9007 -0.0359
 4037SOL    HW223571   4.219   2.590   6.619  0.6062 -0.1744  0.4033
 4038SOL     OW23572   1.544   1.178  10.527 -0.1271 -0.3285 -0.0783
 4038SOL    HW123573   1.535   1.271  10.505 -2.0100 -0.5150 -0.1034
 4038SOL    HW223574   1.537   1.189  10.621  1.7914  0.9583 -0.0824
 4039SOL     OW23575   2.343   0.951   1.641  0.2998 -0.3838  0.4539
 4039SOL    HW123576   2.295   0.868   1.645 -1.9859  0.7729 -3.3626
 4039SOL    HW223577   2.295   1.004   1.705 -2.4519  2.1364 -3.6606
 4040SOL     OW23578   2.213   2.606  12.280  0.4675  0.1039 -0.6738
 4040SOL    HW123579   2.125   2.641  12.293  1.2940  2.4294 -1.2863
 4040SOL    HW223580   2.195   2.526  12.231  0.8511  0.4951 -1.4503
 4041SOL     OW23581   1.450   3.059   3.822 -0.1085  0.0258  0.1055
 4041SOL    HW123582   1.394   3.060   3.900  2.9071 -0.0209  2.2706
 4041SOL    HW223583   1.534   3.023   3.852 -1.2404 -1.1991  1.7887
 4042SOL     OW23584   1.312   0.003  17.205  0.1864  0.0645  0.0856
 4042SOL    HW123585   1.239   0.061  17.184 -0.2683 -0.4592  0.2335
 4042SOL    HW223586   1.269   4.670  17.271 -0.1192 -1.5924 -1.4346
 4043SOL     OW23587   2.823   3.055  12.475 -0.3604 -0.0732  0.1632
 4043SOL    HW123588   2.809   3.131  12.531  1.2878 -0.2170  0.7677
 4043SOL    HW223589   2.919   3.058  12.473 -0.3097 -1.1057  0.8850
 4044SOL     OW23590   1.183   2.599   5.153 -0.1706 -0.0509  0.1259
 4044SOL    HW123591   1.151   2.509   5.162 -0.8646  0.1517 -0.3405
 4044SOL    HW223592   1.257   2.597   5.214 -1.1306  0.8606  1.3085
 4045SOL     OW23593   1.073   1.469   2.882  0.0654  0.5982  0.1544
 4045SOL    HW123594   1.145   1.520   2.846 -1.1306  1.4195 -1.0818
 4045SOL    HW223595   1.106   1.381   2.865 -0.6946  0.0545  1.4765
 4046SOL     OW23596   2.434   1.805   9.113  0.3757 -0.3553  0.1491
 4046SOL    HW123597   2.437   1.771   9.024 -2.4658  0.0647 -0.1119
 4046SOL    HW223598   2.361   1.761   9.157  2.0386 -3.3293 -0.0878
 4047SOL     OW23599   3.220   2.268   1.281  0.1861 -0.2368 -0.1635
 4047SOL    HW123600   3.253   2.315   1.358 -1.6427 -0.7865  0.9708
 4047SOL    HW223601   3.189   2.348   1.239 -0.0182 -0.2936 -0.1236
 4048SOL     OW23602   2.890   4.425   4.705 -0.6789  0.2860 -0.8144
 4048SOL    HW123603   2.945   4.376   4.644 -0.3821 -0.6671  0.2304
 4048SOL    HW223604   2.932   4.511   4.716 -1.4321  0.7910 -1.8478
 4049SOL     OW23605   3.921   0.817   5.570  0.5364  0.4549  0.1805
 4049SOL    HW123606   3.912   0.883   5.639 -1.2223 -0.8749  1.2183
 4049SOL    HW223607   4.004   0.777   5.595  1.8686  1.8819 -1.9433
 4050SOL     OW23608   0.810   0.937   5.045  0.0454  0.0518 -0.1582
 4050SOL    HW123609   0.832   0.924   5.138  0.6574  0.8785 -0.1846
 4050SOL    HW223610   0.768   0.854   5.025 -1.2154  0.8285 -0.7227
 4051SOL     OW23611   2.710   0.060   4.481 -0.0360 -0.3803 -0.5644
 4051SOL    HW123612   2.795   0.087   4.514 -0.1778 -1.8725  1.0218
 4051SOL    HW223613   2.730   0.057   4.387 -0.6248 -0.6169 -0.6884
 4052SOL     OW23614   4.683   0.387   1.304  0.4468  0.0416 -0.1535
 4052SOL    HW123615   0.033   0.446   1.276  2.4645 -2.5701 -0.5890
 4052SOL    HW223616   4.623   0.445   1.350  0.3538  0.8829 -1.3370
 4053SOL     OW23617   4.712   0.956  13.248 -0.1648 -0.1686 -0.4309
 4053SOL    HW123618   0.057   0.957  13.178  2.0701  1.2576  1.6899
 4053SOL    HW223619   0.044   1.003  13.312  0.6675  0.0201 -1.2495
 4054SOL     OW23620   3.844   2.749   6.511  0.5829  0.3785 -0.4139
 4054SOL    HW123621   3.804   2.662   6.510  0.8949  0.2169  0.4867
 4054SOL    HW223622   3.775   2.810   6.538  1.1767  0.6991  0.3810
 4055SOL     OW23623   0.826   0.714   2.832 -0.2961  0.1719 -0.3552
 4055SOL    HW123624   0.883   0.724   2.756 -0.6485  1.4209 -0.4573
 4055SOL    HW223625   0.849   0.625   2.859 -1.3147  0.5821  1.9401
 4056SOL     OW23626   3.398   3.103   5.698  0.3379 -0.0052 -0.1434
 4056SOL    HW123627   3.440   3.023   5.665  1.8964  0.8430 -0.2414
 4056SOL    HW223628   3.311   3.097   5.659  0.3195  1.4824 -0.3585
 4057SOL     OW23629   0.321   1.975   4.649  0.5829 -0.3571  0.0174
 4057SOL    HW123630   0.329   1.986   4.554  1.2520  2.2043  0.3719
 4057SOL    HW223631   0.377   2.045   4.682  2.6265 -0.0826 -4.0677
 4058SOL     OW23632   0.778   0.980   1.108 -0.1019  0.6586 -0.1108
 4058SOL    HW123633   0.814   1.049   1.164  0.5389  1.4766 -1.5215
 4058SOL    HW223634   0.744   0.918   1.172  0.8883 -0.8468 -1.0567
 4059SOL     OW23635   2.478   1.260   7.001 -0.1372  0.1222  0.2573
 4059SOL    HW123636   2.488   1.346   6.960  0.5902 -0.4669 -0.7983
 4059SOL    HW223637   2.546   1.263   7.067 -0.0581 -2.5826  0.2815
 4060SOL     OW23638   4.703   2.486   3.208 -0.1872 -0.5622 -0.3932
 4060SOL    HW123639   4.638   2.448   3.148 -0.0173  1.3099 -1.7616
 4060SOL    HW223640   4.694   2.421   3.277 -0.6760 -1.8103 -1.6247
 4061SOL     OW23641   0.562   3.370   8.392  0.2301  0.0780  0.2021
 4061SOL    HW123642   0.577   3.283   8.428 -0.0875 -0.0350  0.0586
 4061SOL    HW223643   0.649   3.410   8.390  0.6027 -0.7104  1.2548
 4062SOL     OW23644   0.463   2.428  10.654 -0.1819  0.3373 -0.1164
 4062SOL    HW123645   0.501   2.413  10.740  1.3885  2.7204 -0.3994
 4062SOL    HW223646   0.370   2.411  10.670 -0.1391  1.5307  1.3558
 4063SOL     OW23647   3.814   2.026   5.904 -0.1520  0.4560 -0.8384
 4063SOL    HW123648   3.823   2.077   5.824 -1.3533  0.9235 -0.6863
 4063SOL    HW223649   3.789   2.087   5.973  0.8686 -0.5621  0.4321
 4064SOL     OW23650   0.106   1.223   1.599 -0.7041  0.5216 -0.0142
 4064SOL    HW123651   0.030   1.281   1.604  0.5323  1.9985  1.8105
 4064SOL    HW223652   0.083   1.162   1.669 -2.4367  1.1210 -0.0593
 4065SOL     OW23653   0.892   3.345   7.011 -0.1894  0.0833 -0.6590
 4065SOL    HW123654   0.807   3.301   7.018 -0.4511  0.2720 -2.5297
 4065SOL    HW223655   0.871   3.384   6.926  0.4618 -0.5602 -1.1215
 4066SOL     OW23656   2.892   0.022  16.939  0.5619  0.4114 -0.1262
 4066SOL    HW123657   2.853   0.007  17.025 -0.9048  2.6830 -0.3783
 4066SOL    HW223658   2.951   4.667  16.932  1.8378  1.6087 -2.3767
 4067SOL     OW23659   3.283   1.885   7.674  0.5346 -0.1897  0.6676
 4067SOL    HW123660   3.285   1.791   7.694 -0.3278 -0.1286  1.0372
 4067SOL    HW223661   3.376   1.897   7.653  0.3487 -1.4992 -0.8557
 4068SOL     OW23662   3.413   0.813   8.108 -0.4182 -0.0110  0.1993
 4068SOL    HW123663   3.482   0.751   8.132  0.9350  1.2430 -0.4698
 4068SOL    HW223664   3.411   0.875   8.181 -0.8198 -0.1374  0.2956
 4069SOL     OW23665   4.517   4.443   7.738 -0.6082 -0.5882 -0.0311
 4069SOL    HW123666   4.526   4.533   7.707  2.2675 -0.1754  2.1082
 4069SOL    HW223667   4.432   4.428   7.696 -0.0409  0.9126 -1.6851
 4070SOL     OW23668   2.675   3.927   5.811  0.1089 -0.0985  0.1321
 4070SOL    HW123669   2.642   3.894   5.895 -0.9742 -2.3381 -1.1873
 4070SOL    HW223670   2.752   3.969   5.850  0.0587 -0.8598  1.0681
 4071SOL     OW23671   1.359   2.024   7.893  0.1875  0.3453  0.1586
 4071SOL    HW123672   1.345   1.983   7.807  2.4489  1.3523 -0.6973
 4071SOL    HW223673   1.359   2.115   7.863 -1.0018  0.6386  1.0550
 4072SOL     OW23674   2.405   0.629  17.057 -0.3261  0.1167  0.3231
 4072SOL    HW123675   2.447   0.604  16.974 -0.5351  0.5178  0.1001
 4072SOL    HW223676   2.413   0.724  17.060  1.0509 -0.0567  2.2192
 4073SOL     OW23677   1.060   4.119   1.906 -0.4761  0.6801  0.1785
 4073SOL    HW123678   1.019   4.203   1.930 -1.1395 -0.1718  2.0819
 4073SOL    HW223679   1.062   4.075   1.991 -1.2269 -1.1316 -0.7406
 4074SOL     OW23680   0.123   1.182   3.633  0.0085 -0.2020  0.0480
 4074SOL    HW123681   0.111   1.220   3.719  0.8577 -1.8791  0.9058
 4074SOL    HW223682   0.140   1.094   3.665 -0.3622 -1.1665 -2.3546
 4075SOL     OW23683   4.273   4.274   4.305 -0.0843  0.7499  0.0101
 4075SOL    HW123684   4.343   4.312   4.250  0.9141 -0.0204  0.7516
 4075SOL    HW223685   4.300   4.288   4.396  1.6552  2.9594 -0.8340
 4076SOL     OW23686   1.037   0.458   6.265 -0.1363 -0.6821  0.2829
 4076SOL    HW123687   1.085   0.377   6.247  1.1884 -0.0175  0.8191
 4076SOL    HW223688   1.033   0.447   6.360  1.0477 -1.3982  0.2546
 4077SOL     OW23689   4.077   1.011   3.739 -0.8086  0.2610 -0.0650
 4077SOL    HW123690   4.039   0.924   3.746 -1.4732  0.5548 -0.0615
 4077SOL    HW223691   4.170   0.992   3.724 -0.9315  0.7844 -1.4188
 4078SOL     OW23692   2.609   3.031   8.190  0.0545  0.2546  0.5323
 4078SOL    HW123693   2.650   2.949   8.218  0.6925  0.1005 -0.8723
 4078SOL    HW223694   2.681   3.086   8.161 -0.9692  1.3735  0.1393
 4079SOL     OW23695   1.007   1.322   5.337 -0.0360 -0.6422  0.0224
 4079SOL    HW123696   1.013   1.411   5.371 -0.6040  0.3493 -2.5225
 4079SOL    HW223697   1.069   1.334   5.266 -0.7809  2.9417 -0.0256
 4080SOL     OW23698   3.233   2.866   4.219 -0.5293 -0.0855  0.4867
 4080SOL    HW123699   3.258   2.843   4.129 -2.3245 -1.9770  0.4777
 4080SOL    HW223700   3.192   2.782   4.239 -0.4764 -0.5085 -1.2109
 4081SOL     OW23701   0.384   0.443   4.115 -0.6163  0.5974  0.3449
 4081SOL    HW123702   0.414   0.508   4.179 -0.9797  0.5864  0.5241
 4081SOL    HW223703   0.413   0.363   4.158 -1.2375  0.9720  1.4539
 4082SOL     OW23704   2.035   2.604  16.957 -0.1325 -0.0202  0.1651
 4082SOL    HW123705   1.982   2.526  16.973 -0.5483  0.2973  0.3149
 4082SOL    HW223706   2.087   2.611  17.037 -1.3800 -0.2888  0.9965
 4083SOL     OW23707   2.123   1.842   0.509  0.2947  0.1862 -0.0263
 4083SOL    HW123708   2.195   1.833   0.572  0.7305  2.5136 -0.2054
 4083SOL    HW223709   2.152   1.770   0.452 -1.0429 -0.7993  0.5351
 4084SOL     OW23710   0.609   0.974  17.620 -0.2600  0.1356 -0.4832
 4084SOL    HW123711   0.676   1.040  17.607 -1.5509  1.1773 -1.8788
 4084SOL    HW223712   0.561   1.014   0.008 -1.0478  1.7532 -1.9101
 4085SOL     OW23713   0.166   0.509   4.703 -0.4259 -0.4136  0.7254
 4085SOL    HW123714   0.119   0.549   4.630  2.6506  2.1940  0.1766
 4085SOL    HW223715   0.109   0.533   4.776 -3.3766 -0.8710 -1.4140
 4086SOL     OW23716   2.723   0.769  14.886  0.1145  0.0219  0.2512
 4086SOL    HW123717   2.669   0.691  14.885 -1.1503  0.8790  1.2760
 4086SOL    HW223718   2.765   0.763  14.972 -2.2458  2.2605  1.5730
 4087SOL     OW23719   0.624   1.084   2.515  0.6246  0.2070 -0.1890
 4087SOL    HW123720   0.650   1.035   2.592 -1.2916 -1.4080 -0.5842
 4087SOL    HW223721   0.642   1.017   2.449 -0.7103 -1.4521  1.1492
 4088SOL     OW23722   0.311   0.853   6.768 -0.1504  0.2312 -0.2401
 4088SOL    HW123723   0.282   0.926   6.713 -0.5929  0.8005  0.7625
 4088SOL    HW223724   0.388   0.823   6.719  0.7282  2.2546 -0.1249
 4089SOL     OW23725   4.502   1.748   4.960  1.4652 -0.1721 -0.0582
 4089SOL    HW123726   4.460   1.749   5.046  1.1474 -0.6317 -0.2034
 4089SOL    HW223727   4.460   1.829   4.931  2.4264  0.5489  0.6008
 4090SOL     OW23728   0.500   1.310   2.289 -0.4333  1.1047 -0.1586
 4090SOL    HW123729   0.533   1.220   2.287 -2.7066  0.2532  0.8547
 4090SOL    HW223730   0.446   1.303   2.368 -2.0251 -0.2612 -1.3716
 4091SOL     OW23731   3.204   2.042   3.843 -0.1353 -0.2351 -0.0427
 4091SOL    HW123732   3.180   1.960   3.799 -2.9959  0.2025  0.7239
 4091SOL    HW223733   3.136   2.102   3.812 -1.8055 -2.5021 -0.7291
 4092SOL     OW23734   1.662   0.248  11.326  0.1646  0.1942  0.3552
 4092SOL    HW123735   1.756   0.236  11.338  0.1317 -1.6056 -1.1974
 4092SOL    HW223736   1.656   0.317  11.261  3.1024  0.8403  0.7810
 4093SOL     OW23737   2.898   3.401   3.991 -0.1619  0.4119  0.2806
 4093SOL    HW123738   2.943   3.483   4.013  0.6235  0.7902 -2.6266
 4093SOL    HW223739   2.879   3.429   3.901  1.3250 -0.9307 -0.4486
 4094SOL     OW23740   2.672   1.439   3.842 -0.0865 -0.7518 -0.0540
 4094SOL    HW123741   2.705   1.465   3.756  0.0149 -1.8393 -0.3474
 4094SOL    HW223742   2.582   1.410   3.828  0.1863 -1.9906  0.6945
 4095SOL     OW23743   3.973   2.093   3.731 -0.1323  0.4096  0.0138
 4095SOL    HW123744   3.920   2.019   3.702  1.7735  0.5543 -3.8579
 4095SOL    HW223745   3.947   2.156   3.663  1.2361 -1.0064 -1.8282
 4096SOL     OW23746   0.328   0.877   5.620 -0.6789  0.0969  0.0811
 4096SOL    HW123747   0.259   0.903   5.681 -0.0899  2.8030 -0.4099
 4096SOL    HW223748   0.340   0.954   5.565 -0.7851  0.0463 -0.0149
 4097SOL     OW23749   3.693   0.427   9.676 -0.4712  0.5500  0.0586
 4097SOL    HW123750   3.686   0.332   9.680 -0.8476  0.5202 -1.1569
 4097SOL    HW223751   3.711   0.436   9.582 -0.2207 -1.3320 -0.0672
 4098SOL     OW23752   1.188   4.178   6.963 -0.7810 -0.0701 -0.0552
 4098SOL    HW123753   1.259   4.219   6.913  0.8093 -1.1464  1.3056
 4098SOL    HW223754   1.232   4.128   7.033  0.7588  2.8645  1.0957
 4099SOL     OW23755   0.242   2.743   8.151 -0.1047  0.3379  0.0878
 4099SOL    HW123756   0.150   2.765   8.134 -0.4910 -1.3089  0.0109
 4099SOL    HW223757   0.223   2.653   8.177 -0.1872 -0.3384 -2.3165
 4100SOL     OW23758   0.134   0.402   7.082  0.1819 -0.5336  0.1054
 4100SOL    HW123759   0.180   0.480   7.051  0.5645 -0.7296  0.1758
 4100SOL    HW223760   0.045   0.436   7.069  0.4918  0.0245 -0.5406
 4101SOL     OW23761   0.864   1.258   8.193 -0.2531 -0.2539 -0.2270
 4101SOL    HW123762   0.813   1.337   8.213  0.1164 -0.6191  2.1165
 4101SOL    HW223763   0.805   1.189   8.224 -1.5607  0.9724  0.0099
 4102SOL     OW23764   3.513   1.043   6.958  0.9340 -0.4805  0.0462
 4102SOL    HW123765   3.563   1.070   7.035 -2.0469 -1.0228  2.1630
 4102SOL    HW223766   3.497   1.131   6.923  0.7888 -1.9109 -3.4693
 4103SOL     OW23767   2.403   0.196  17.671  0.0929  0.0273 -0.1017
 4103SOL    HW123768   2.402   0.266  17.606 -2.0833 -0.9681 -1.1310
 4103SOL    HW223769   2.377   0.242   0.066 -1.4235 -1.1418  0.0693
 4104SOL     OW23770   2.614   0.661   1.401  0.9793 -0.6063 -0.3337
 4104SOL    HW123771   2.590   0.570   1.421 -2.1685  0.6448  1.5898
 4104SOL    HW223772   2.666   0.684   1.478 -1.8437  1.0244  1.1050
 4105SOL     OW23773   0.217   0.932   2.904 -0.0618 -0.0381 -0.1414
 4105SOL    HW123774   0.195   0.957   2.815  0.7836  0.1564 -0.2878
 4105SOL    HW223775   0.169   0.996   2.958 -0.4971 -1.3367  1.0141
 4106SOL     OW23776   0.442   3.911   6.535 -0.1013 -0.3606  0.0240
 4106SOL    HW123777   0.384   3.968   6.485  1.8144  1.5472 -0.0217
 4106SOL    HW223778   0.520   3.961   6.510  0.6176 -0.2775  2.3819
 4107SOL     OW23779   4.588   3.715   7.492 -0.2115  0.0429  0.6610
 4107SOL    HW123780   4.638   3.760   7.559 -2.5215  0.9111  1.7955
 4107SOL    HW223781   4.660   3.699   7.432 -0.5226 -1.6455  0.7189
 4108SOL     OW23782   1.096   2.719   1.514 -0.1129  0.0489  0.4495
 4108SOL    HW123783   1.132   2.707   1.601 -1.9012  0.7378  1.2790
 4108SOL    HW223784   1.163   2.766   1.464  0.2360  0.1887  1.0520
 4109SOL     OW23785   2.646   4.254   4.549  0.4681  0.0394 -0.1823
 4109SOL    HW123786   2.623   4.347   4.555 -1.6920 -0.4912 -0.2973
 4109SOL    HW223787   2.726   4.260   4.497  2.1766  1.1108  2.6103
 4110SOL     OW23788   1.526   3.552  14.527  0.0562 -0.2005 -0.4738
 4110SOL    HW123789   1.453   3.599  14.567  0.0876  0.7227 -1.5065
 4110SOL    HW223790   1.571   3.520  14.605  0.9802  0.1751 -0.8478
 4111SOL     OW23791   0.194   1.215   4.955  0.0962  0.1739  0.4361
 4111SOL    HW123792   0.125   1.274   4.987  0.4043  0.9625 -0.3712
 4111SOL    HW223793   0.151   1.130   4.970 -1.2646  0.8166  0.2408
 4112SOL     OW23794   1.352   1.338  14.932 -0.0306 -0.2860 -0.1976
 4112SOL    HW123795   1.370   1.419  14.979 -1.6912  0.5759 -1.0301
 4112SOL    HW223796   1.339   1.273  15.001  0.9890  1.7737  1.9061
 4113SOL     OW23797   4.417   4.471   6.445  0.3701  0.2050  0.6531
 4113SOL    HW123798   4.384   4.505   6.362 -1.8638  1.8816  2.2396
 4113SOL    HW223799   4.504   4.510   6.433 -0.2350  1.2993 -0.1927
 4114SOL     OW23800   2.395   3.740  15.850 -0.4106  0.5695  0.2488
 4114SOL    HW123801   2.479   3.775  15.819  0.4582 -0.3531  1.5718
 4114SOL    HW223802   2.419   3.695  15.931 -0.9889  0.3364  0.2881
 4115SOL     OW23803   2.376   3.220   7.603 -0.3161 -0.0412  0.0520
 4115SOL    HW123804   2.401   3.153   7.666 -2.2088 -2.3078 -1.6494
 4115SOL    HW223805   2.285   3.226   7.632  0.0852 -0.9871  1.4661
 4116SOL     OW23806   4.375   3.958   1.629 -0.5577 -0.2828  0.1523
 4116SOL    HW123807   4.324   3.890   1.672 -1.1665 -0.1230 -0.3163
 4116SOL    HW223808   4.456   3.969   1.680 -0.1522 -0.5691 -0.4337
 4117SOL     OW23809   0.837   0.797  11.123  0.4213  0.3515 -0.4474
 4117SOL    HW123810   0.741   0.802  11.117  0.4291 -0.9980 -1.6940
 4117SOL    HW223811   0.861   0.709  11.096 -1.8297 -0.1295 -0.9135
 4118SOL     OW23812   3.940   0.118   5.339  0.7739  0.0426  0.5756
 4118SOL    HW123813   3.921   0.030   5.308  0.5783 -0.1584  1.2639
 4118SOL    HW223814   3.889   0.116   5.421 -0.4849  0.2051 -0.1961
 4119SOL     OW23815   3.103   1.932   8.056 -0.6952  0.0951  0.6114
 4119SOL    HW123816   3.126   1.969   8.142  0.8776 -2.0246  1.0953
 4119SOL    HW223817   3.015   1.967   8.044  0.0760  1.8126 -0.1628
 4120SOL     OW23818   3.085   2.368   4.578  0.0458 -0.3399  0.0654
 4120SOL    HW123819   3.045   2.418   4.649  1.4502 -1.8468  1.9122
 4120SOL    HW223820   3.104   2.289   4.628 -0.7274 -1.1209 -0.8731
 4121SOL     OW23821   4.063   1.145  16.731  0.3733 -0.1152 -0.8642
 4121SOL    HW123822   4.138   1.088  16.747  0.1403 -0.3178 -0.4745
 4121SOL    HW223823   4.096   1.234  16.727  1.3272 -0.3798  0.9045
 4122SOL     OW23824   3.075   3.435   5.642 -0.2753  0.4440  0.1596
 4122SOL    HW123825   3.023   3.362   5.609  0.3593 -0.1248  0.4198
 4122SOL    HW223826   3.049   3.435   5.734 -2.4431 -0.0697 -0.4663
 4123SOL     OW23827   3.774   2.695   0.862  0.2607 -0.0002 -0.0956
 4123SOL    HW123828   3.723   2.622   0.826  1.5531 -1.0210  0.1684
 4123SOL    HW223829   3.721   2.708   0.941 -1.4595  0.1033 -1.2569
 4124SOL     OW23830   3.613   0.970   3.752  0.1659  0.0304 -0.1589
 4124SOL    HW123831   3.531   1.013   3.728 -1.5338 -2.5816  0.9156
 4124SOL    HW223832   3.638   0.924   3.672  0.0035  0.1862 -0.2999
 4125SOL     OW23833   3.718   3.104  15.618  0.3289  0.1785  0.1132
 4125SOL    HW123834   3.677   3.050  15.551 -1.1692  1.0725  0.2968
 4125SOL    HW223835   3.782   3.158  15.572 -0.2460  0.7098 -0.0759
 4126SOL     OW23836   1.562   1.557   3.137 -0.2507  0.1607  0.1343
 4126SOL    HW123837   1.567   1.470   3.096  2.3588  0.8804 -1.0885
 4126SOL    HW223838   1.586   1.540   3.228  1.9059  1.1831 -0.2568
 4127SOL     OW23839   3.360   0.673  11.494  0.0925  0.0695 -0.0819
 4127SOL    HW123840   3.332   0.660  11.584  1.4318  1.5482  0.5312
 4127SOL    HW223841   3.304   0.605  11.455  0.6414 -0.7967  0.6483
 4128SOL     OW23842   4.314   1.463  11.911 -0.5006 -0.6206  0.0418
 4128SOL    HW123843   4.282   1.510  11.988 -0.6111 -1.4745  0.5136
 4128SOL    HW223844   4.284   1.373  11.922  1.8749 -1.5057 -0.8459
 4129SOL     OW23845   4.283   0.284   8.865 -0.5718 -0.0560 -0.0808
 4129SOL    HW123846   4.243   0.296   8.779  1.4987  1.9109 -0.7614
 4129SOL    HW223847   4.218   0.222   8.900 -0.8751  0.8554  0.9718
 4130SOL     OW23848   3.685   0.493  14.111  0.3747 -0.0960  0.4918
 4130SOL    HW123849   3.760   0.551  14.125  0.7047 -0.5191  0.4689
 4130SOL    HW223850   3.616   0.547  14.073  2.2894  0.4432 -2.2190
 4131SOL     OW23851   3.791   0.924  13.726 -0.0318  0.4936 -0.3322
 4131SOL    HW123852   3.799   1.005  13.778 -0.6759  1.1160 -1.2081
 4131SOL    HW223853   3.864   0.930  13.665 -0.5627  1.8273 -0.8420
 4132SOL     OW23854   2.431   4.318   6.787  0.4222 -0.3960  0.2342
 4132SOL    HW123855   2.471   4.339   6.703  0.5400 -2.3721 -0.2102
 4132SOL    HW223856   2.347   4.280   6.761 -0.2018  0.4942  0.9612
 4133SOL     OW23857   3.823   0.340   7.315 -0.4002  0.5915 -0.3288
 4133SOL    HW123858   3.870   0.367   7.394 -1.9082  0.1838  0.7026
 4133SOL    HW223859   3.825   0.245   7.324  0.4965  0.6792  0.3386
 4134SOL     OW23860   0.105   2.170   6.194  0.0628 -0.7160 -0.6367
 4134SOL    HW123861   0.136   2.132   6.111 -0.7878  0.3249 -1.4180
 4134SOL    HW223862   0.039   2.226   6.156 -0.6961 -1.5223 -0.5061
 4135SOL     OW23863   2.579   3.306   0.031  0.0220 -0.0207 -0.1494
 4135SOL    HW123864   2.647   3.276   0.091  0.4901  1.0990 -0.1271
 4135SOL    HW223865   2.504   3.277   0.083  0.8296 -0.0500  1.0014
 4136SOL     OW23866   1.268   2.750  13.482 -0.1780  0.0040  0.5434
 4136SOL    HW123867   1.325   2.763  13.558  2.1358  1.2246 -1.4281
 4136SOL    HW223868   1.181   2.745  13.524  0.0894 -4.6144  0.5119
 4137SOL     OW23869   2.038   2.640   3.467 -0.5698 -0.0772  0.0429
 4137SOL    HW123870   2.014   2.621   3.557  0.6848  0.4975  0.4978
 4137SOL    HW223871   1.953   2.648   3.423 -1.1831  0.2664  1.3011
 4138SOL     OW23872   0.732   2.457  10.269 -0.0251 -0.5247  0.6413
 4138SOL    HW123873   0.652   2.492  10.308 -0.4355 -0.6941 -0.0379
 4138SOL    HW223874   0.726   2.515  10.193 -0.4441 -0.0052  1.0766
 4139SOL     OW23875   4.161   2.715  11.842 -0.0375  0.0359  0.7754
 4139SOL    HW123876   4.209   2.797  11.826  0.6947 -0.7452 -1.0162
 4139SOL    HW223877   4.082   2.734  11.791  1.7377 -2.5062 -2.9202
 4140SOL     OW23878   4.054   0.426   7.476  0.1043  0.0327 -0.4143
 4140SOL    HW123879   4.118   0.482   7.520 -0.6745  1.4770 -1.1260
 4140SOL    HW223880   4.105   0.398   7.400  1.2160  0.6843  0.0929
 4141SOL     OW23881   0.133   0.283  10.217 -0.1758  0.8630 -0.7388
 4141SOL    HW123882   0.170   0.221  10.155 -0.8201  1.9329 -2.1777
 4141SOL    HW223883   0.040   0.261  10.211 -0.1819  0.8130 -0.4714
 4142SOL     OW23884   3.828   2.286   4.435  0.5570 -0.3720 -0.0616
 4142SOL    HW123885   3.911   2.241   4.421  1.3335  1.6273 -1.9062
 4142SOL    HW223886   3.775   2.225   4.486 -2.7192  1.9082 -0.7236
 4143SOL     OW23887   0.691   1.566   6.703  0.1038  0.5201 -0.3239
 4143SOL    HW123888   0.622   1.525   6.755  1.3375  1.3022  1.9401
 4143SOL    HW223889   0.639   1.638   6.668  0.7192  0.2627 -1.7721
 4144SOL     OW23890   0.642   1.148   1.350 -0.3481  0.3968 -0.1396
 4144SOL    HW123891   0.712   1.105   1.399  1.1445  3.5199  0.4688
 4144SOL    HW223892   0.610   1.211   1.414 -3.7236 -0.5482 -0.9048
 4145SOL     OW23893   3.145   0.548   7.588  0.4799  0.0748 -0.4279
 4145SOL    HW123894   3.149   0.480   7.656 -0.3638  0.8068  0.3433
 4145SOL    HW223895   3.052   0.564   7.571 -0.0500 -1.5587  0.8920
 4146SOL     OW23896   1.555   1.906   6.010  0.7289 -0.2569 -0.3830
 4146SOL    HW123897   1.535   1.916   5.917 -1.0036  0.6931  0.0796
 4146SOL    HW223898   1.463   1.897   6.034  0.9806  0.2041  0.7368
 4147SOL     OW23899   1.771   4.644   3.725  0.5097 -0.1091 -0.8239
 4147SOL    HW123900   1.681   4.676   3.720  0.5599  0.5716  2.7832
 4147SOL    HW223901   1.757   4.550   3.716  1.6123 -0.4930  1.4174
 4148SOL     OW23902   0.123   1.271  10.589 -0.4805  0.7601  0.0741
 4148SOL    HW123903   0.036   1.234  10.605  0.5914 -1.3255  1.0156
 4148SOL    HW223904   0.122   1.325  10.668 -0.0607 -2.2426  2.1400
 4149SOL     OW23905   2.154   0.197  12.848 -0.4209  0.2423  0.0419
 4149SOL    HW123906   2.232   0.146  12.871 -0.6707  0.7527  2.0311
 4149SOL    HW223907   2.178   0.287  12.868 -0.4044  0.3706 -0.5465
 4150SOL     OW23908   3.806   1.723  16.517 -0.5281 -0.6131 -0.2381
 4150SOL    HW123909   3.725   1.767  16.543 -0.4523 -0.6487  0.0495
 4150SOL    HW223910   3.881   1.774  16.548  0.0934 -1.2414 -0.6878
 4151SOL     OW23911   2.773   3.850   8.977 -0.4660  0.1659 -0.3524
 4151SOL    HW123912   2.740   3.938   8.963  0.1170  0.3085 -0.8286
 4151SOL    HW223913   2.863   3.867   8.950 -0.7836  0.9296 -0.9237
 4152SOL     OW23914   4.697   1.509  17.192 -0.3048  1.0612  0.2228
 4152SOL    HW123915   4.671   1.427  17.235  0.2986 -0.8065 -2.9585
 4152SOL    HW223916   4.609   1.544  17.177  0.9170  3.0716 -2.3458
 4153SOL     OW23917   4.195   4.551   4.153 -0.6326  0.2816 -0.6171
 4153SOL    HW123918   4.120   4.496   4.133 -0.0893 -0.7260  0.1034
 4153SOL    HW223919   4.159   4.633   4.185  1.5061  0.5971  1.0235
 4154SOL     OW23920   2.410   3.068   2.580  0.2139 -0.0938 -0.0791
 4154SOL    HW123921   2.459   3.017   2.644  0.1139  0.0793  0.1394
 4154SOL    HW223922   2.427   3.027   2.495 -1.0521 -0.4196 -0.1792
 4155SOL     OW23923   1.752   2.008   6.831 -0.1189 -0.3200  0.6014
 4155SOL    HW123924   1.832   2.058   6.841 -1.2368  1.8202 -1.0756
 4155SOL    HW223925   1.699   2.065   6.775  1.4683 -0.8247 -1.4135
 4156SOL     OW23926   1.969   2.233   8.707  0.1169  0.3127  0.1106
 4156SOL    HW123927   1.998   2.290   8.779  1.4817  1.0113 -1.0049
 4156SOL    HW223928   1.893   2.199   8.754  0.9860 -0.1676  1.1817
 4157SOL     OW23929   4.289   4.490   8.512  0.2877 -0.1760  0.0124
 4157SOL    HW123930   4.272   4.578   8.544  0.6457  0.0004 -0.2895
 4157SOL    HW223931   4.342   4.450   8.580  2.0409  1.3874 -0.4379
 4158SOL     OW23932   2.467   0.913   5.144  0.4643 -0.3131 -0.0735
 4158SOL    HW123933   2.399   0.975   5.117  0.2682 -0.3651  0.2876
 4158SOL    HW223934   2.504   0.908   5.056  0.2819 -3.1264  0.0099
 4159SOL     OW23935   2.022   1.628   5.225 -0.0644  0.1712 -0.6750
 4159SOL    HW123936   2.108   1.639   5.265  0.6689  0.6151 -2.3609
 4159SOL    HW223937   1.965   1.619   5.301  1.0558  0.3875  0.1989
 4160SOL     OW23938   1.030   3.232   4.240 -0.0619 -0.3534  0.1694
 4160SOL    HW123939   0.944   3.193   4.259 -0.5350 -0.7625 -2.8451
 4160SOL    HW223940   1.084   3.197   4.311  0.3337  1.4860  0.7774
 4161SOL     OW23941   0.772   1.572  16.482  0.0635 -0.1937 -0.2160
 4161SOL    HW123942   0.800   1.595  16.393  2.6827  0.3194  0.7361
 4161SOL    HW223943   0.739   1.485  16.459  1.7407 -1.3360  1.7607
 4162SOL     OW23944   1.236   0.310  13.486  0.0031  0.0142 -0.7541
 4162SOL    HW123945   1.184   0.344  13.559 -0.6055  0.4231 -1.3765
 4162SOL    HW223946   1.173   0.318  13.414 -1.7520  0.7360  0.8804
 4163SOL     OW23947   0.902   3.471  12.423  0.5794  0.1073 -0.1575
 4163SOL    HW123948   0.818   3.463  12.468  0.7045  1.9228  0.4084
 4163SOL    HW223949   0.957   3.507  12.492  0.2447  0.4023 -0.0469
 4164SOL     OW23950   2.944   2.044  13.507  0.1554  0.0478  0.7367
 4164SOL    HW123951   2.933   2.010  13.596 -0.9576 -1.8973 -0.1312
 4164SOL    HW223952   2.918   2.136  13.511 -1.4667 -0.5146  3.0163
 4165SOL     OW23953   2.215   4.237   6.161 -0.0298 -0.2594  0.0924
 4165SOL    HW123954   2.177   4.324   6.169  0.1672 -0.3197  1.5489
 4165SOL    HW223955   2.141   4.181   6.137  0.2635  0.2328 -1.9596
 4166SOL     OW23956   2.632   4.078   6.252  0.2814 -0.1502  0.3306
 4166SOL    HW123957   2.578   4.097   6.176  1.8447  1.0038 -0.4912
 4166SOL    HW223958   2.670   4.163   6.274 -1.2282  0.1091  1.9757
 4167SOL     OW23959   1.278   0.988   7.122  0.0963 -0.4104 -0.2520
 4167SOL    HW123960   1.351   0.953   7.173 -0.0965 -2.0999 -1.1387
 4167SOL    HW223961   1.231   0.906   7.105 -1.1857  0.4187 -0.7332
 4168SOL     OW23962   2.810   0.667   8.166  0.0206 -0.0272 -0.6566
 4168SOL    HW123963   2.844   0.654   8.255  0.5588 -1.4391 -1.0780
 4168SOL    HW223964   2.790   0.576   8.145  3.1259 -1.2924  1.7420
 4169SOL     OW23965   2.123   3.298  16.565 -0.1726 -0.0213 -0.4402
 4169SOL    HW123966   2.163   3.217  16.596 -1.4609 -0.5956 -0.2489
 4169SOL    HW223967   2.091   3.329  16.650  1.7690  2.0198 -0.4677
 4170SOL     OW23968   2.171   0.689   0.514  0.1895  0.4962  0.2724
 4170SOL    HW123969   2.110   0.660   0.446  0.1687  1.8150 -0.2690
 4170SOL    HW223970   2.110   0.746   0.560 -2.4149 -1.5114 -0.6552
 4171SOL     OW23971   0.109   1.689   3.388 -0.7695  0.5529 -0.0553
 4171SOL    HW123972   0.121   1.627   3.460 -1.6448  1.1340  0.5938
 4171SOL    HW223973   0.062   1.626   3.334  1.2744 -1.5789  0.6782
 4172SOL     OW23974   1.408   2.272  16.084 -0.2250 -0.1669 -0.5153
 4172SOL    HW123975   1.319   2.291  16.052  0.2213  3.8198  0.6479
 4172SOL    HW223976   1.460   2.294  16.006  1.3561 -3.0207 -0.2740
 4173SOL     OW23977   4.140   2.697   5.985 -0.2420  0.2958  0.2285
 4173SOL    HW123978   4.182   2.616   6.016 -0.4388  0.9728  2.2594
 4173SOL    HW223979   4.049   2.672   5.973 -0.1362  0.2627 -0.5078
 4174SOL     OW23980   2.100   0.453   6.155  0.0846  0.2951  0.4058
 4174SOL    HW123981   2.177   0.449   6.212  0.5994  1.1757 -0.2350
 4174SOL    HW223982   2.059   0.373   6.189  2.8434  0.3204  3.7510
 4175SOL     OW23983   0.335   0.572   2.378 -0.1503  0.0576  0.1093
 4175SOL    HW123984   0.271   0.567   2.307 -1.3188  1.9224  1.0057
 4175SOL    HW223985   0.279   0.576   2.456 -0.7836 -0.2472 -0.3321
 4176SOL     OW23986   0.522   2.649   9.650 -0.3721 -0.6078 -0.6102
 4176SOL    HW123987   0.501   2.561   9.682 -0.4981 -0.1519  0.5837
 4176SOL    HW223988   0.524   2.698   9.733  0.6359  0.4914 -1.2848
 4177SOL     OW23989   0.372   3.211   4.209  0.4150  0.1462  0.4479
 4177SOL    HW123990   0.286   3.225   4.250  0.6186  1.3845  0.4574
 4177SOL    HW223991   0.434   3.269   4.255 -0.2322  0.0445  1.4650
 4178SOL     OW23992   3.738   0.836   6.537 -0.2322  0.5324  0.0196
 4178SOL    HW123993   3.719   0.856   6.629  0.0099  1.0816 -0.0484
 4178SOL    HW223994   3.833   0.820   6.542 -0.3499 -0.1403  0.0843
 4179SOL     OW23995   1.639   2.243   2.234 -0.2515  0.1335  0.0270
 4179SOL    HW123996   1.637   2.305   2.162  0.7448  0.0215 -0.0960
 4179SOL    HW223997   1.580   2.175   2.202 -0.7116  0.9606 -0.8602
 4180SOL     OW23998   1.559   1.170   7.554 -0.7395 -0.2094  0.2943
 4180SOL    HW123999   1.546   1.194   7.463 -2.9099  1.1752  0.9507
 4180SOL    HW224000   1.588   1.079   7.551 -2.4657 -0.6686 -2.0026
 4181SOL     OW24001   3.297   3.278   0.233 -0.1697  0.2793 -0.2096
 4181SOL    HW124002   3.345   3.243   0.308 -1.7450 -1.9346 -0.2174
 4181SOL    HW224003   3.317   3.370   0.245 -1.0028  0.4215  0.1193
 4182SOL     OW24004   3.257   3.272   6.701  0.4302  0.0129 -0.4652
 4182SOL    HW124005   3.179   3.326   6.689  1.7461  2.3794  1.6590
 4182SOL    HW224006   3.239   3.215   6.626  1.6805  0.4026 -1.0657
 4183SOL     OW24007   0.945   0.475   8.417  0.6535  0.5117 -0.1240
 4183SOL    HW124008   1.020   0.533   8.432  1.4351 -1.0685  2.1698
 4183SOL    HW224009   0.904   0.469   8.503 -0.7336  0.0130 -0.8180
 4184SOL     OW24010   4.429   0.169   9.837 -0.3799 -0.4972 -0.3039
 4184SOL    HW124011   4.475   0.136   9.760 -0.5925 -0.4040 -0.4715
 4184SOL    HW224012   4.344   0.133   9.813 -1.2483  0.1210  1.8607
 4185SOL     OW24013   1.110   4.415  10.889 -0.3255 -0.5194 -0.7581
 4185SOL    HW124014   1.178   4.469  10.848 -0.2888 -1.4022 -1.8456
 4185SOL    HW224015   1.045   4.411  10.819 -1.4005 -0.3949  0.2361
 4186SOL     OW24016   2.469   2.850   0.612 -0.2655 -0.1578 -0.0390
 4186SOL    HW124017   2.501   2.936   0.638 -1.7700  0.5306 -0.4457
 4186SOL    HW224018   2.499   2.841   0.521 -2.0937  0.3591 -0.6886
 4187SOL     OW24019   0.945   0.245   6.807  0.5048  0.9663 -0.3339
 4187SOL    HW124020   1.005   0.257   6.880  0.8174  0.5906 -0.5242
 4187SOL    HW224021   0.912   0.157   6.826 -0.5323  1.2635 -0.7288
 4188SOL     OW24022   0.478   0.211  17.677 -0.6868  0.4048 -0.2331
 4188SOL    HW124023   0.403   0.247  17.631 -1.4080 -0.3256  0.3807
 4188SOL    HW224024   0.494   0.119  17.655 -2.7721  0.1920 -0.8265
 4189SOL     OW24025   2.547   4.067   7.718 -0.0940 -0.1685  0.2654
 4189SOL    HW124026   2.515   3.978   7.731  1.0780 -0.9393 -2.0695
 4189SOL    HW224027   2.598   4.050   7.638 -0.8770 -1.0075 -0.0549
 4190SOL     OW24028   1.957   1.566   6.800 -0.1583  0.4331 -0.0793
 4190SOL    HW124029   1.983   1.476   6.784 -1.0742  0.1553 -0.0067
 4190SOL    HW224030   1.973   1.560   6.894  0.0014 -1.6607 -0.2425
 4191SOL     OW24031   3.621   4.437  10.741  0.3577  0.2117 -0.3786
 4191SOL    HW124032   3.660   4.355  10.711 -0.9752 -0.1368 -1.1342
 4191SOL    HW224033   3.653   4.443  10.831  2.1333  2.1544 -1.1466
 4192SOL     OW24034   4.234   4.107  16.878 -0.4021 -0.5353  0.6256
 4192SOL    HW124035   4.208   4.142  16.963  4.0555  2.6055  0.6858
 4192SOL    HW224036   4.210   4.014  16.878 -0.4508 -0.5229  0.5930
 4193SOL     OW24037   0.341   2.561   6.690  0.1596 -0.1659 -0.2802
 4193SOL    HW124038   0.374   2.472   6.700  1.6713  0.1736 -2.3578
 4193SOL    HW224039   0.250   2.535   6.675  0.0460  0.5278 -0.7879
 4194SOL     OW24040   0.241   0.694   8.457  0.6682 -0.4468  0.8170
 4194SOL    HW124041   0.334   0.711   8.468  0.3603  1.5314  0.2786
 4194SOL    HW224042   0.223   0.623   8.520  0.0106 -0.4047  0.6787
 4195SOL     OW24043   4.513   3.598   1.852  0.0704 -0.1726  0.5913
 4195SOL    HW124044   4.607   3.587   1.835 -0.2789  0.5119 -1.9120
 4195SOL    HW224045   4.522   3.681   1.900  1.8472 -0.4323  0.7337
 4196SOL     OW24046   4.691   2.101   7.177 -0.3041  0.3294  1.0135
 4196SOL    HW124047   4.703   2.034   7.110 -0.7794  0.0570  1.2100
 4196SOL    HW224048   4.597   2.106   7.192 -0.7899  1.0981 -2.3355
 4197SOL     OW24049   2.693   3.464  11.123  0.2945  0.1221 -0.1194
 4197SOL    HW124050   2.764   3.509  11.169  0.2721 -0.8725  0.8772
 4197SOL    HW224051   2.741   3.382  11.110 -3.0937 -1.7330 -0.9795
 4198SOL     OW24052   3.120   2.931   3.861  0.1200  0.7036  0.5414
 4198SOL    HW124053   3.169   2.860   3.902 -1.4020 -1.1546 -0.8712
 4198SOL    HW224054   3.035   2.888   3.851  1.0942 -0.7126 -1.8627
 4199SOL     OW24055   2.938   2.522   2.654  0.3536  0.7447 -0.4125
 4199SOL    HW124056   2.863   2.556   2.702 -0.7171 -2.0562 -0.1095
 4199SOL    HW224057   2.944   2.434   2.693 -1.9276  0.6091 -0.3863
 4200SOL     OW24058   2.188   2.728   1.953 -0.1363 -0.3664 -0.6048
 4200SOL    HW124059   2.276   2.707   1.923 -0.5200  1.5040 -3.1238
 4200SOL    HW224060   2.180   2.658   2.017 -1.5068 -0.5731 -1.0101
 4201SOL     OW24061   2.509   1.023   2.709  0.0419 -0.1236  0.0624
 4201SOL    HW124062   2.601   0.997   2.707 -0.0722 -0.5004 -0.2498
 4201SOL    HW224063   2.514   1.090   2.778 -0.8120  0.3612 -0.3411
 4202SOL     OW24064   1.270   2.522  14.062 -0.3691  0.3209  0.1001
 4202SOL    HW124065   1.352   2.570  14.050 -0.1759  0.2679  1.2666
 4202SOL    HW224066   1.294   2.492  14.150  0.0339 -0.1157 -0.1568
 4203SOL     OW24067   1.509   0.466  12.186 -0.2856  0.0777 -0.0977
 4203SOL    HW124068   1.459   0.389  12.215  1.2025 -0.8665 -0.0179
 4203SOL    HW224069   1.586   0.420  12.155 -0.0534 -0.2381  0.9319
 4204SOL     OW24070   1.477   1.995   1.814  0.2566 -0.5615 -0.0076
 4204SOL    HW124071   1.410   2.056   1.845 -0.6191 -1.1394 -0.7640
 4204SOL    HW224072   1.496   2.030   1.727 -0.6649 -1.1445 -0.4421
 4205SOL     OW24073   0.757   0.703   2.114  0.1262  0.2007 -0.3178
 4205SOL    HW124074   0.738   0.721   2.022  0.6475  2.7835  0.0784
 4205SOL    HW224075   0.669   0.679   2.144  0.4007  4.0227  3.5297
 4206SOL     OW24076   0.157   0.978   0.547  0.5235 -0.0145 -0.6187
 4206SOL    HW124077   0.151   0.934   0.632 -0.3388 -0.4915 -0.9249
 4206SOL    HW224078   0.205   1.058   0.570  0.4140 -0.1298 -0.0069
 4207SOL     OW24079   0.114   2.797   6.751 -0.3315  0.1904 -0.1317
 4207SOL    HW124080   0.124   2.702   6.760 -1.6189  0.0962  0.2292
 4207SOL    HW224081   0.127   2.799   6.656 -0.0484 -0.0520 -0.1001
 4208SOL     OW24082   4.691   3.140   3.069 -0.1812 -0.0162 -0.0350
 4208SOL    HW124083   4.688   3.235   3.079  1.2950 -0.2661  2.7353
 4208SOL    HW224084   0.033   3.139   2.997  0.6879  1.2684  0.6868
 4209SOL     OW24085   3.845   4.603   3.682  0.3474  0.5008 -0.3962
 4209SOL    HW124086   3.904   4.536   3.648 -1.5988 -0.7776 -1.2443
 4209SOL    HW224087   3.877   4.610   3.772 -0.9318  2.6262 -0.1051
 4210SOL     OW24088   3.933   1.746   5.283 -0.5049 -0.4441  0.2297
 4210SOL    HW124089   3.897   1.809   5.345  0.2779 -0.0832  0.3122
 4210SOL    HW224090   3.861   1.682   5.281 -1.1044  0.2212  0.5257
 4211SOL     OW24091   4.320   1.135   3.134 -0.2300  0.5859  0.1879
 4211SOL    HW124092   4.306   1.149   3.040 -2.9681  3.0868  0.9520
 4211SOL    HW224093   4.364   1.050   3.127  0.9930  1.0564  2.2865
 4212SOL     OW24094   0.623   2.547  11.820  0.1035  0.1337  0.2655
 4212SOL    HW124095   0.547   2.488  11.826 -0.4675  0.7080 -1.4768
 4212SOL    HW224096   0.673   2.479  11.774  1.9699  0.2077  2.1755
 4213SOL     OW24097   3.719   3.084  11.763 -0.7404  0.2561 -0.0380
 4213SOL    HW124098   3.754   3.046  11.843  0.4893  0.5799 -0.4264
 4213SOL    HW224099   3.691   3.004  11.717  0.7438 -0.6522  0.6576
 4214SOL     OW24100   4.178   4.049   0.910  0.0014  0.3977  0.2449
 4214SOL    HW124101   4.144   4.131   0.946 -0.3904  0.0767  0.6205
 4214SOL    HW224102   4.219   4.012   0.988 -1.0760  1.3358  1.2646
 4215SOL     OW24103   1.544   3.798  14.691  0.1083  0.2303  0.0414
 4215SOL    HW124104   1.489   3.771  14.765 -0.4375  1.2655  0.0082
 4215SOL    HW224105   1.628   3.765  14.722  0.4443  0.9454 -0.1107
 4216SOL     OW24106   4.682   0.729   2.694  0.2503  0.1422 -0.2764
 4216SOL    HW124107   4.624   0.666   2.735  0.3419  0.0333 -0.3136
 4216SOL    HW224108   4.651   0.722   2.604  1.4420 -1.0963 -0.5925
 4217SOL     OW24109   0.540   4.544   5.965 -1.5335 -0.4544 -0.2370
 4217SOL    HW124110   0.613   4.538   5.903 -0.7020  2.2260  0.4524
 4217SOL    HW224111   0.586   4.492   6.031  1.0464  0.3554 -1.3995
 4218SOL     OW24112   0.872   0.641   7.353  0.0403  0.2595 -0.1510
 4218SOL    HW124113   0.804   0.583   7.386  0.1489  0.6363  0.7421
 4218SOL    HW224114   0.929   0.642   7.430 -0.3273  0.9870  0.1149
 4219SOL     OW24115   4.456   1.537   8.401 -0.0366  0.5605 -0.3830
 4219SOL    HW124116   4.509   1.617   8.396  1.5825 -0.4949  0.0356
 4219SOL    HW224117   4.432   1.542   8.494 -1.1972 -2.1387 -0.5579
 4220SOL     OW24118   2.925   4.152  13.477 -0.2181 -0.6493  0.9967
 4220SOL    HW124119   2.986   4.115  13.414 -0.7579 -0.9896  0.6740
 4220SOL    HW224120   2.976   4.230  13.500 -0.4680  0.1112 -0.9860
 4221SOL     OW24121   2.706   1.338   4.367 -0.2546 -0.5935  0.0414
 4221SOL    HW124122   2.736   1.248   4.355  0.4592 -0.2339 -0.8401
 4221SOL    HW224123   2.618   1.339   4.329  0.0872  0.7826 -0.7044
 4222SOL     OW24124   4.103   2.525   4.558  0.3241 -0.4009 -0.1058
 4222SOL    HW124125   4.127   2.491   4.472 -0.6598 -0.3386 -0.4073
 4222SOL    HW224126   4.009   2.504   4.559 -0.3517  2.7919  3.3222
 4223SOL     OW24127   1.423   0.573   2.084 -0.0725  0.2034 -0.2237
 4223SOL    HW124128   1.357   0.507   2.061  0.9148 -0.1460 -1.9662
 4223SOL    HW224129   1.434   0.549   2.176 -1.9340  2.0931  0.5026
 4224SOL     OW24130   0.001   2.707  15.987 -0.4798  0.4842  0.3955
 4224SOL    HW124131   0.038   2.795  15.997  0.6495 -0.0089  0.6018
 4224SOL    HW224132   0.011   2.671  16.076 -0.3217  1.4108  0.7569
 4225SOL     OW24133   2.074   1.168   9.778 -0.1872 -0.3385 -0.3878
 4225SOL    HW124134   2.067   1.225   9.702  1.1994 -1.3266 -1.2485
 4225SOL    HW224135   2.163   1.183   9.809 -1.0862  1.3061  1.4169
 4226SOL     OW24136   0.862   0.458   2.391 -0.6030 -0.3179  0.8225
 4226SOL    HW124137   0.773   0.462   2.425 -0.3882 -2.2116  1.6184
 4226SOL    HW224138   0.881   0.370   2.422  1.8006 -0.3566 -0.7072
 4227SOL     OW24139   3.271   0.917   6.969 -0.1188  0.0730  0.4485
 4227SOL    HW124140   3.362   0.931   6.943 -0.2255 -2.2737 -1.2151
 4227SOL    HW224141   3.254   0.831   6.930 -0.2636  0.3449 -0.0861
 4228SOL     OW24142   2.043   3.730   0.934 -0.1973  0.0276 -0.1939
 4228SOL    HW124143   2.130   3.720   0.894 -0.4969 -1.9388 -0.3847
 4228SOL    HW224144   2.063   3.734   1.028  2.2662  4.1176 -0.8826
 4229SOL     OW24145   1.293   1.925  11.349  0.6297 -0.1328  0.1665
 4229SOL    HW124146   1.246   2.009  11.353  2.7829  1.0676  0.3664
 4229SOL    HW224147   1.243   1.869  11.289  1.1091  0.4567 -0.7833
 4230SOL     OW24148   1.493   4.198   8.721 -1.1882 -0.0331 -0.0616
 4230SOL    HW124149   1.489   4.245   8.805  0.4304  0.3701 -0.2080
 4230SOL    HW224150   1.474   4.106   8.741  0.3550 -0.2973  0.1689
 4231SOL     OW24151   4.279   2.900   9.026 -0.1432  0.2497  0.3498
 4231SOL    HW124152   4.298   2.853   9.107 -0.7648 -1.1234 -0.3021
 4231SOL    HW224153   4.184   2.888   9.017 -0.0664  1.0382 -1.5150
 4232SOL     OW24154   1.445   3.803   3.574 -0.0200  0.3208  0.3213
 4232SOL    HW124155   1.380   3.829   3.639  1.1415  1.0332  1.1925
 4232SOL    HW224156   1.395   3.773   3.498 -0.7747 -1.2217  1.4206
 4233SOL     OW24157   0.254   4.404   7.870 -0.0543 -0.1022 -0.9862
 4233SOL    HW124158   0.185   4.338   7.865 -1.0421  0.6526  2.5821
 4233SOL    HW224159   0.313   4.385   7.943  0.6108 -1.1664 -1.8101
 4234SOL     OW24160   2.592   0.395  11.910 -0.0992 -0.3240  0.2660
 4234SOL    HW124161   2.669   0.443  11.880 -1.8045  2.0157 -0.4533
 4234SOL    HW224162   2.621   0.307  11.888 -1.6377 -0.9121  0.6257
 4235SOL     OW24163   0.889   2.682   3.768 -0.0976 -0.2168 -0.3510
 4235SOL    HW124164   0.923   2.743   3.833  0.7330 -0.9537 -0.0880
 4235SOL    HW224165   0.831   2.734   3.713  0.8307  2.4349  1.1971
 4236SOL     OW24166   1.224   0.519   2.708 -0.4471 -0.2018  0.2498
 4236SOL    HW124167   1.255   0.470   2.632  0.2859 -3.0663  2.3678
 4236SOL    HW224168   1.252   0.604   2.675 -1.7729  0.6950  1.4278
 4237SOL     OW24169   2.629   4.065   0.669 -0.0905  0.3094  0.2788
 4237SOL    HW124170   2.592   4.101   0.750 -0.9211  0.0453  0.0134
 4237SOL    HW224171   2.663   3.980   0.697 -1.5714 -1.0485 -2.0414
 4238SOL     OW24172   0.428   0.606   3.510 -0.1950  0.0355 -0.8567
 4238SOL    HW124173   0.478   0.547   3.453  0.4263  0.4944 -0.7865
 4238SOL    HW224174   0.490   0.618   3.582  0.1171  0.1278 -1.1415
 4239SOL     OW24175   0.638   1.696  13.588  0.4080 -0.5639  0.5062
 4239SOL    HW124176   0.547   1.683  13.563  0.9908 -0.7744 -1.5601
 4239SOL    HW224177   0.633   1.754  13.664 -0.2795  2.3028 -1.7257
 4240SOL     OW24178   1.655   3.012   4.000  0.0807  0.0455  0.0966
 4240SOL    HW124179   1.741   3.044   4.027  0.5266 -1.6662  0.6595
 4240SOL    HW224180   1.616   2.988   4.084  1.9970 -0.9720  0.6816
 4241SOL     OW24181   0.432   0.994   4.779  0.0666  0.2108 -0.3937
 4241SOL    HW124182   0.338   0.976   4.769  0.3605 -1.7682  0.3670
 4241SOL    HW224183   0.466   1.030   4.697  1.7436  0.9698  0.6452
 4242SOL     OW24184   2.897   2.630  12.684 -0.0529 -0.1487  0.6388
 4242SOL    HW124185   2.850   2.705  12.648  1.1070  0.5774  0.6443
 4242SOL    HW224186   2.823   2.569  12.689 -0.5747  0.4585  0.3088
 4243SOL     OW24187   2.274   0.126  16.603 -0.0480  0.1919 -0.2317
 4243SOL    HW124188   2.249   0.033  16.610 -1.2789  0.6423  1.2343
 4243SOL    HW224189   2.213   0.162  16.667  0.0192  0.3052 -0.2314
 4244SOL     OW24190   4.103   1.053   7.759 -0.1617  0.2059 -0.4074
 4244SOL    HW124191   4.101   1.061   7.854 -0.9992 -0.9070 -0.3368
 4244SOL    HW224192   4.125   0.962   7.741 -0.0286  0.1872 -0.1490
 4245SOL     OW24193   0.735   4.540   8.484  0.2626 -0.3843  0.2868
 4245SOL    HW124194   0.741   4.446   8.504 -0.6523 -1.2182 -3.3893
 4245SOL    HW224195   0.650   4.552   8.525  0.1068  0.5175 -0.3128
 4246SOL     OW24196   1.694   3.222   7.249 -0.1335 -0.1500 -0.3672
 4246SOL    HW124197   1.748   3.295   7.220 -0.4417 -0.0293 -0.6371
 4246SOL    HW224198   1.621   3.261   7.296  1.3008  0.6563  1.1856
 4247SOL     OW24199   2.950   3.556   7.426  0.0023  0.6366 -0.4787
 4247SOL    HW124200   2.984   3.471   7.453 -3.0148 -0.3291  0.2538
 4247SOL    HW224201   2.870   3.557   7.478  1.1932  1.4896  1.3469
 4248SOL     OW24202   2.234   2.314   7.752  0.4140  0.6144 -0.0962
 4248SOL    HW124203   2.304   2.379   7.741  0.5354  0.4779 -0.1257
 4248SOL    HW224204   2.165   2.350   7.697 -2.0262 -0.6083  2.1975
 4249SOL     OW24205   4.699   4.313  11.343  0.4110  0.1461 -0.0476
 4249SOL    HW124206   4.707   4.300  11.438 -0.1029  2.0191  0.2513
 4249SOL    HW224207   4.682   4.407  11.345 -3.2038 -0.5006 -0.6657
 4250SOL     OW24208   4.170   2.647  17.570  0.5885  0.2367 -0.1714
 4250SOL    HW124209   4.135   2.695  17.645 -2.0411 -0.5089 -0.9398
 4250SOL    HW224210   4.261   2.655  17.600  0.5145 -0.5759  0.2709
 4251SOL     OW24211   3.119   0.847   7.894 -0.0988 -0.1814 -0.1986
 4251SOL    HW124212   3.206   0.815   7.868 -0.4599 -1.7608  0.5340
 4251SOL    HW224213   3.101   0.798   7.974  1.5382 -0.8158 -0.2163
 4252SOL     OW24214   4.199   1.361  13.379  0.0325  0.0700  0.4735
 4252SOL    HW124215   4.259   1.436  13.381 -0.3279  0.3230  1.5473
 4252SOL    HW224216   4.131   1.386  13.441  1.2978 -2.6175  2.9530
 4253SOL     OW24217   3.867   2.928  10.582 -0.7869 -0.2337 -0.5410
 4253SOL    HW124218   3.870   2.959  10.492 -0.5815 -0.2254 -0.5320
 4253SOL    HW224219   3.919   2.848  10.577 -1.9099 -1.0593  0.8980
 4254SOL     OW24220   2.062   2.155  11.361 -0.2310  0.3826  0.6353
 4254SOL    HW124221   2.004   2.231  11.377  2.2685  2.0603  1.7448
 4254SOL    HW224222   2.008   2.090  11.317  1.7263 -0.3387 -0.6623
 4255SOL     OW24223   1.099   4.443   7.842  0.0750 -0.0791  0.3960
 4255SOL    HW124224   1.048   4.375   7.886 -0.5217  0.0741 -0.0502
 4255SOL    HW224225   1.051   4.523   7.867  0.0426  0.0626 -0.1118
 4256SOL     OW24226   4.462   2.705   3.024  0.0157  0.4098 -0.1477
 4256SOL    HW124227   4.466   2.623   2.975  0.7580 -0.6835  1.7566
 4256SOL    HW224228   4.379   2.743   2.995 -0.0593  1.0330  0.8728
 4257SOL     OW24229   2.620   4.580   1.211 -0.1128 -0.5245  0.2534
 4257SOL    HW124230   2.690   4.561   1.273 -1.5905 -0.8367  1.8151
 4257SOL    HW224231   2.553   4.545   1.269 -0.9299  0.0603 -0.3310
 4258SOL     OW24232   2.603   1.745   8.178  0.6620  0.4214 -0.2276
 4258SOL    HW124233   2.621   1.673   8.118 -1.5160  0.7193 -1.2269
 4258SOL    HW224234   2.638   1.824   8.137  2.9241 -0.2445  0.4037
 4259SOL     OW24235   2.559   3.126   1.161 -0.1716 -0.0619  0.1840
 4259SOL    HW124236   2.547   3.111   1.254 -0.8298 -0.6886 -0.0049
 4259SOL    HW224237   2.487   3.188   1.151 -1.9836 -1.9484  1.6643
 4260SOL     OW24238   0.600   0.300   7.604  0.3726 -0.3819  0.2767
 4260SOL    HW124239   0.566   0.228   7.551  1.6374  1.0405 -2.4948
 4260SOL    HW224240   0.664   0.252   7.656  0.5908  0.6058  0.9107
 4261SOL     OW24241   1.451   0.049   4.785  0.3156 -0.4947 -0.0178
 4261SOL    HW124242   1.453   0.142   4.807 -0.4223 -0.3322 -0.6197
 4261SOL    HW224243   1.359   0.025   4.777  0.2851 -0.9330  1.5978
 4262SOL     OW24244   2.800   4.719   3.968 -0.8562  0.1693 -0.3390
 4262SOL    HW124245   2.780   0.046   3.887  1.6899  2.0822  0.1396
 4262SOL    HW224246   2.803   4.626   3.947  1.0089  0.2386 -0.4151
 4263SOL     OW24247   0.211   0.114   4.957  0.3754 -0.1006 -0.4199
 4263SOL    HW124248   0.145   0.111   4.887 -0.0078  0.4546 -0.0850
 4263SOL    HW224249   0.177   0.195   4.996 -0.4541  0.3804 -2.1294
 4264SOL     OW24250   1.464   0.251   6.279 -0.1580 -0.0247  0.3704
 4264SOL    HW124251   1.518   0.310   6.332 -0.8241  2.3049 -1.5411
 4264SOL    HW224252   1.531   0.220   6.218 -0.8309  1.1895 -0.9980
 4265SOL     OW24253   1.559   4.616   2.956 -0.3783  0.4720  0.2304
 4265SOL    HW124254   1.607   4.673   2.896 -1.4931  0.9935 -0.1825
 4265SOL    HW224255   1.561   4.534   2.907  4.9104  1.1392 -0.6146
 4266SOL     OW24256   1.959   0.609   8.716  0.6202  0.7187  0.0388
 4266SOL    HW124257   1.917   0.564   8.643  0.5832 -0.1206  0.5833
 4266SOL    HW224258   1.878   0.611   8.768  0.0083 -1.4429 -0.8286
 4267SOL     OW24259   4.254   0.203  10.269  0.0142  0.2904  0.4134
 4267SOL    HW124260   4.297   0.251  10.199 -0.4519  0.8594  0.5173
 4267SOL    HW224261   4.207   0.274  10.314 -1.1665 -1.5685  2.1401
 4268SOL     OW24262   4.214   0.738   3.485 -0.4690 -0.1473  0.0161
 4268SOL    HW124263   4.140   0.688   3.450 -2.0269  1.4062  1.0776
 4268SOL    HW224264   4.254   0.776   3.407 -2.6875  1.1434 -0.4840
 4269SOL     OW24265   3.182   4.279   4.726  0.3898  0.2353 -0.1266
 4269SOL    HW124266   3.151   4.353   4.674 -1.3456 -0.6294 -0.3365
 4269SOL    HW224267   3.266   4.315   4.755 -0.6738  2.2531  0.4794
 4270SOL     OW24268   2.873   3.483   8.531 -0.7598 -0.0374  0.0459
 4270SOL    HW124269   2.812   3.411   8.515 -1.8936  0.3972  2.3764
 4270SOL    HW224270   2.806   3.540   8.569  1.6282  1.9089  1.3767
 4271SOL     OW24271   3.395   1.330   8.445 -0.1346 -0.0349 -0.2288
 4271SOL    HW124272   3.438   1.265   8.500  0.7402 -0.0983 -0.9918
 4271SOL    HW224273   3.451   1.322   8.368  0.0248 -4.4021  0.3218
 4272SOL     OW24274   4.231   0.233  13.826 -0.2082 -0.3601 -0.2888
 4272SOL    HW124275   4.149   0.276  13.802 -1.3137 -2.6782 -0.6203
 4272SOL    HW224276   4.239   0.165  13.760 -0.5679  0.7244 -1.4508
 4273SOL     OW24277   4.226   1.557   5.100  0.0849 -0.1703  0.1327
 4273SOL    HW124278   4.136   1.585   5.082 -0.0274 -0.0305  0.9288
 4273SOL    HW224279   4.268   1.643   5.100 -2.7033  1.2079 -0.5385
 4274SOL     OW24280   0.596   1.586  12.120 -0.8777 -0.1744 -0.2010
 4274SOL    HW124281   0.647   1.667  12.122 -0.7205 -0.3026  1.8401
 4274SOL    HW224282   0.535   1.600  12.048 -1.5697 -0.4938  0.3171
 4275SOL     OW24283   3.307   4.177   6.475  0.1765  0.2554 -0.6915
 4275SOL    HW124284   3.328   4.252   6.530 -0.4722 -1.1321  1.4480
 4275SOL    HW224285   3.214   4.193   6.467  0.0360 -0.9397 -1.4937
 4276SOL     OW24286   0.016   2.732   5.715  0.3586 -0.5652 -0.5903
 4276SOL    HW124287   0.005   2.827   5.715  1.0829 -0.4811  2.0054
 4276SOL    HW224288   4.696   2.714   5.800 -0.0779  0.3439 -0.6007
 4277SOL     OW24289   1.322   2.310   6.983  0.5192 -0.2906 -0.5302
 4277SOL    HW124290   1.382   2.267   7.044  0.6099 -1.7348 -1.6482
 4277SOL    HW224291   1.243   2.291   7.035  0.8935  0.2529  0.2461
 4278SOL     OW24292   3.317   2.207   8.958 -0.5157 -0.5462  0.1359
 4278SOL    HW124293   3.324   2.282   8.900  1.5350 -1.0683 -0.2731
 4278SOL    HW224294   3.398   2.217   9.008  0.0150  0.1885 -0.8810
 4279SOL     OW24295   0.301   0.460   7.331 -0.5425  0.2315  0.1385
 4279SOL    HW124296   0.327   0.376   7.368 -0.3073  0.2660  0.0534
 4279SOL    HW224297   0.252   0.424   7.258  0.7487 -0.6308 -0.3028
 4280SOL     OW24298   4.634   0.268  10.651  0.1922  0.7498  0.0523
 4280SOL    HW124299   4.651   0.332  10.583 -2.7070  1.7531  0.2552
 4280SOL    HW224300   4.542   0.245  10.637  0.4921 -0.4679  0.0983
 4281SOL     OW24301   4.337   2.507   8.958  0.6668  1.0179 -0.3250
 4281SOL    HW124302   4.398   2.494   9.031 -0.6131  0.9808  0.7514
 4281SOL    HW224303   4.330   2.415   8.932 -2.3632  0.9206  0.8467
 4282SOL     OW24304   4.043   1.599   9.117  1.2075 -0.5329  0.4107
 4282SOL    HW124305   4.028   1.507   9.137  0.9316 -0.2659  1.4269
 4282SOL    HW224306   4.136   1.602   9.141  1.6463 -2.6193 -1.1055
 4283SOL     OW24307   2.416   0.099   4.785  0.4009  0.2407  0.4308
 4283SOL    HW124308   2.433   0.159   4.712  2.5989 -3.3318 -1.9771
 4283SOL    HW224309   2.332   0.132   4.816  1.0106  1.3752  0.8924
 4284SOL     OW24310   3.713   0.654   2.947  0.1068  0.4059 -0.3354
 4284SOL    HW124311   3.702   0.745   2.976 -0.2922 -0.1013  1.0886
 4284SOL    HW224312   3.701   0.658   2.852 -0.6697  0.4049 -0.2336
 4285SOL     OW24313   1.738   0.915   7.877 -0.0131  0.0799  0.1583
 4285SOL    HW124314   1.784   0.996   7.853 -1.6308  0.4425 -1.7449
 4285SOL    HW224315   1.771   0.904   7.966  0.7337 -0.1559 -0.1484
 4286SOL     OW24316   2.288   1.935  11.526 -0.2704  0.7237 -0.0393
 4286SOL    HW124317   2.277   1.840  11.530  0.3756  0.5970 -1.3828
 4286SOL    HW224318   2.364   1.953  11.581  1.1688  0.7881 -2.0515
 4287SOL     OW24319   2.580   3.147  11.289 -0.2159 -0.0850 -0.0934
 4287SOL    HW124320   2.629   3.157  11.370 -0.8150  0.3307  0.2106
 4287SOL    HW224321   2.654   3.139  11.228  2.0030  1.7141  2.3613
 4288SOL     OW24322   2.530   2.399  10.454 -0.2443  0.3667 -0.2902
 4288SOL    HW124323   2.532   2.495  10.450 -1.6519  0.4159  0.1891
 4288SOL    HW224324   2.609   2.384  10.507 -1.4240  1.8124  1.9108
 4289SOL     OW24325   3.049   2.654   7.362  0.8193 -0.5135 -0.4407
 4289SOL    HW124326   3.007   2.691   7.284 -0.4630  0.9667  0.9529
 4289SOL    HW224327   3.030   2.562   7.347 -0.3562 -0.6318  1.8663
 4290SOL     OW24328   2.631   3.538   4.980 -0.4856 -0.0264  0.0216
 4290SOL    HW124329   2.634   3.506   4.890 -0.9135  0.4626 -0.1718
 4290SOL    HW224330   2.627   3.634   4.973 -0.2415 -0.1175 -1.3426
 4291SOL     OW24331   0.201   3.566   4.644  0.0738  0.2094 -0.0097
 4291SOL    HW124332   0.178   3.476   4.664  2.9378 -0.8829 -1.6614
 4291SOL    HW224333   0.147   3.565   4.566  1.8461  0.8281 -1.2545
 4292SOL     OW24334   0.405   4.099   3.397 -0.0842 -0.4641 -0.1060
 4292SOL    HW124335   0.429   4.166   3.461  0.8285 -0.9078  0.0216
 4292SOL    HW224336   0.488   4.056   3.378 -0.4197 -1.1497 -0.0252
 4293SOL     OW24337   2.695   3.131   3.802  0.5569 -0.4528 -0.2106
 4293SOL    HW124338   2.614   3.141   3.753  1.1839  0.8335 -0.9706
 4293SOL    HW224339   2.677   3.170   3.888 -0.3370 -3.0074  0.7497
 4294SOL     OW24340   2.321   0.439   6.327 -0.4660  0.3255  0.0258
 4294SOL    HW124341   2.298   0.379   6.399 -1.7028 -0.1915 -0.8065
 4294SOL    HW224342   2.415   0.439   6.341 -0.5879 -0.6514  0.9160
 4295SOL     OW24343   3.972   4.473   7.784 -0.0112  0.1417  0.4060
 4295SOL    HW124344   3.989   4.383   7.813  0.8548  0.5887  1.2800
 4295SOL    HW224345   4.014   4.532   7.847  0.4963  0.1464  0.0633
 4296SOL     OW24346   3.708   3.028   4.772 -0.4880 -0.7345  0.5567
 4296SOL    HW124347   3.778   3.087   4.802 -0.9348 -0.1475  0.4425
 4296SOL    HW224348   3.630   3.073   4.806  0.8524  1.2214  1.0626
 4297SOL     OW24349   0.985   3.626   9.257  0.0959 -0.2122  0.7609
 4297SOL    HW124350   0.900   3.604   9.294 -0.0558 -0.3244  0.3478
 4297SOL    HW224351   0.981   3.715   9.293 -0.1810  0.5988 -1.2599
 4298SOL     OW24352   4.000   4.607   8.324  0.1684 -0.2916 -0.3745
 4298SOL    HW124353   4.059   4.656   8.381 -0.5601 -1.0384  1.0263
 4298SOL    HW224354   3.988   4.668   8.251 -0.4426 -1.7373 -1.4856
 4299SOL     OW24355   1.692   0.673   2.020 -0.4445  0.5671  0.6749
 4299SOL    HW124356   1.600   0.649   2.032 -0.1175 -1.3699 -0.5989
 4299SOL    HW224357   1.731   0.595   1.980 -1.8287 -0.2191  0.8583
 4300SOL     OW24358   2.114   0.243   1.362  0.3728  0.1080  0.0754
 4300SOL    HW124359   2.175   0.285   1.422  0.3661 -3.4610  2.5614
 4300SOL    HW224360   2.052   0.219   1.430  1.6277  1.1201  1.5561
 4301SOL     OW24361   1.046   3.201   8.113 -0.2999 -0.0869  0.6550
 4301SOL    HW124362   0.974   3.157   8.158 -0.4583 -1.1023 -0.6023
 4301SOL    HW224363   1.076   3.127   8.061 -2.5150 -0.0933 -0.6392
 4302SOL     OW24364   3.674   2.488  13.892 -0.4285  0.0727  0.3475
 4302SOL    HW124365   3.648   2.551  13.959  2.0593  3.0201 -1.4401
 4302SOL    HW224366   3.770   2.485  13.893 -0.4327 -0.5729 -1.3664
 4303SOL     OW24367   3.423   1.894   7.287  0.4747  0.3733 -0.0174
 4303SOL    HW124368   3.422   1.799   7.302 -0.4870  0.5695  1.0820
 4303SOL    HW224369   3.516   1.918   7.285  0.6757 -0.3052  1.1101
 4304SOL     OW24370   1.979   1.704   3.094  0.0768  0.1438  0.8087
 4304SOL    HW124371   1.939   1.681   3.011 -1.4727 -0.6500  1.7717
 4304SOL    HW224372   1.925   1.782   3.112 -0.2413 -0.0655  0.7536
 4305SOL     OW24373   3.298   0.242   6.881 -0.5884 -0.3316 -0.1528
 4305SOL    HW124374   3.311   0.290   6.799 -2.4181  1.0589  0.3675
 4305SOL    HW224375   3.280   0.310   6.946  1.8459 -1.5456  1.7761
 4306SOL     OW24376   3.156   0.002  15.656  0.3080  0.3615  0.3474
 4306SOL    HW124377   3.136   0.021  15.747 -0.5854 -1.0639  0.4555
 4306SOL    HW224378   3.223   0.067  15.634 -0.4074 -0.6217 -4.7239
 4307SOL     OW24379   3.990   0.699   4.966 -0.2564  0.4046  0.3582
 4307SOL    HW124380   4.009   0.782   4.922 -2.0915  0.2219 -0.7975
 4307SOL    HW224381   3.908   0.726   5.007  0.4660  1.5758  0.9919
 4308SOL     OW24382   3.029   1.276  16.634  0.0850  0.2237 -0.7247
 4308SOL    HW124383   2.986   1.362  16.633 -3.3870 -1.4714  0.4497
 4308SOL    HW224384   3.068   1.272  16.546 -2.0682  1.2705 -1.7325
 4309SOL     OW24385   0.444   0.651   0.641  0.4244 -0.0072  0.1000
 4309SOL    HW124386   0.363   0.625   0.685  0.7691 -2.1510 -0.5547
 4309SOL    HW224387   0.493   0.668   0.722 -0.1159  0.6074  0.3052
 4310SOL     OW24388   1.241   0.844   0.059 -0.3305  0.6575  0.4415
 4310SOL    HW124389   1.330   0.871   0.036  0.1414  0.4725  2.0443
 4310SOL    HW224390   1.254   0.775   0.125 -2.9613  1.6862  2.0608
 4311SOL     OW24391   3.908   1.961  12.711 -0.1224 -0.1517 -0.2626
 4311SOL    HW124392   3.974   1.931  12.648 -0.2956 -0.1712 -0.4338
 4311SOL    HW224393   3.924   2.054  12.698 -0.7229 -0.3101 -2.1477
 4312SOL     OW24394   4.699   4.590   9.268 -0.5499 -0.2548 -0.3383
 4312SOL    HW124395   0.023   4.508   9.246  1.4560  0.4635  1.0339
 4312SOL    HW224396   4.653   4.602   9.185  1.4940  1.1541 -1.2476
 4313SOL     OW24397   1.618   0.637   6.877  0.2473 -0.3000 -0.0017
 4313SOL    HW124398   1.678   0.563   6.871  0.4820 -0.0539 -0.7351
 4313SOL    HW224399   1.658   0.691   6.945 -0.2562 -0.6763  0.5966
 4314SOL     OW24400   3.085   2.201   3.465 -0.0295  0.3646 -0.0785
 4314SOL    HW124401   3.138   2.136   3.418 -0.0692  0.8147 -0.7307
 4314SOL    HW224402   3.084   2.281   3.412  1.9286 -0.2435 -1.0520
 4315SOL     OW24403   3.593   4.219   9.417  0.1026 -0.0307 -0.1742
 4315SOL    HW124404   3.659   4.266   9.366 -0.9880 -0.2747 -1.7924
 4315SOL    HW224405   3.644   4.195   9.495  1.2720  0.1418 -0.8854
 4316SOL     OW24406   1.607   2.959   5.186  0.4573 -0.2668  0.1997
 4316SOL    HW124407   1.626   2.914   5.268  0.6311 -3.6231 -1.6686
 4316SOL    HW224408   1.691   2.960   5.139  0.6850  0.5967  0.6105
 4317SOL     OW24409   1.044   4.683   1.260  0.0674 -0.6597  0.1022
 4317SOL    HW124410   0.962   0.007   1.239  0.8105  0.3825 -0.5822
 4317SOL    HW224411   1.038   4.609   1.200 -1.6191 -1.8835  1.7604
 4318SOL     OW24412   2.082   1.400  16.014  0.6938 -0.2484 -0.1048
 4318SOL    HW124413   2.055   1.310  15.994 -0.7228  0.2911 -0.6565
 4318SOL    HW224414   2.046   1.439  15.934 -1.4315  1.7819  1.8451
 4319SOL     OW24415   4.356   2.717   1.756 -0.1961 -0.1070  0.0978
 4319SOL    HW124416   4.350   2.637   1.808  4.0843 -0.8399 -0.5549
 4319SOL    HW224417   4.431   2.765   1.790  1.5815 -0.2290 -3.6434
 4320SOL     OW24418   4.582   0.263  10.275  0.1343 -0.0137  0.0500
 4320SOL    HW124419   4.528   0.284  10.198 -0.4541 -0.5923  0.3006
 4320SOL    HW224420   4.541   0.187  10.315  2.5049 -1.6216 -0.5882
 4321SOL     OW24421   0.219   0.986   7.005 -0.1975 -0.2750  0.0533
 4321SOL    HW124422   0.236   0.931   6.928  1.3929 -1.1856  1.0583
 4321SOL    HW224423   0.274   0.953   7.076 -0.2098  2.0983  1.1589
 4322SOL     OW24424   0.836   2.714   1.774  0.1027 -0.3391  0.1906
 4322SOL    HW124425   0.766   2.650   1.760 -0.5180  0.2031  0.7975
 4322SOL    HW224426   0.914   2.662   1.790  1.9370  2.2825 -0.2405
 4323SOL     OW24427   2.157   4.260   6.637 -0.5240  0.2679 -0.2232
 4323SOL    HW124428   2.128   4.201   6.708 -1.1314  1.4560  0.5140
 4323SOL    HW224429   2.074   4.243   6.591 -0.3636 -1.3016  0.0417
 4324SOL     OW24430   1.874   0.796  17.208 -0.4310 -0.1780 -0.0237
 4324SOL    HW124431   1.819   0.842  17.144  2.0763  1.8082 -0.7628
 4324SOL    HW224432   1.822   0.717  17.220 -1.5623  0.6321  0.4394
 4325SOL     OW24433   0.060   3.571   8.792  0.2330  0.0904  0.1010
 4325SOL    HW124434   4.690   3.541   8.783 -0.0442 -0.0306  3.2916
 4325SOL    HW224435   0.103   3.567   8.707  1.8257 -2.0739  1.0111
 4326SOL     OW24436   0.074   0.688   9.192  0.2294 -0.0670  0.7803
 4326SOL    HW124437   0.056   0.780   9.212  0.1344  0.5129 -1.9855
 4326SOL    HW224438   0.108   0.661   9.278 -0.1426  1.0722  1.2929
 4327SOL     OW24439   3.421   0.669   4.751  0.0477  0.4558 -0.6158
 4327SOL    HW124440   3.334   0.650   4.717 -0.0442 -1.2549  0.5701
 4327SOL    HW224441   3.393   0.687   4.840  2.4928  2.3559 -0.2185
 4328SOL     OW24442   1.279   4.197   2.778  0.1112  0.2397  0.1043
 4328SOL    HW124443   1.366   4.217   2.743 -0.5130  2.4851 -0.1569
 4328SOL    HW224444   1.276   4.223   2.870  0.3473  1.0780 -0.1254
 4329SOL     OW24445   2.502   1.418  11.314  0.0554  0.1025 -0.4242
 4329SOL    HW124446   2.524   1.493  11.258  0.2125  0.1359 -0.3177
 4329SOL    HW224447   2.503   1.463  11.399  2.2225 -0.5716 -0.1070
 4330SOL     OW24448   2.950   4.204   2.981  0.4155 -0.1303 -0.9422
 4330SOL    HW124449   2.988   4.261   2.914 -0.6495 -0.3413 -1.7214
 4330SOL    HW224450   3.012   4.132   2.977 -2.1164 -2.3311 -0.4223
 4331SOL     OW24451   2.784   0.461   7.166  0.4545 -0.1183  0.1840
 4331SOL    HW124452   2.760   0.399   7.235 -2.4951  1.1304  0.2719
 4331SOL    HW224453   2.701   0.478   7.121 -0.3871 -2.5731  0.7969
 4332SOL     OW24454   0.609   2.059   8.554 -0.4101  0.4329  0.1825
 4332SOL    HW124455   0.579   1.970   8.535 -0.2031 -0.4113  3.9499
 4332SOL    HW224456   0.703   2.052   8.569 -0.2635 -1.2448 -1.4533
 4333SOL     OW24457   0.857   2.439   5.632  0.2027  0.1857 -0.2073
 4333SOL    HW124458   0.795   2.511   5.625  1.3415  1.0884 -0.9853
 4333SOL    HW224459   0.817   2.369   5.580 -0.2792 -1.0081  1.7538
 4334SOL     OW24460   0.721   3.567  11.868  0.4809 -0.7229 -0.1080
 4334SOL    HW124461   0.627   3.561  11.854  0.6604  0.8157 -1.9085
 4334SOL    HW224462   0.745   3.476  11.881  2.2102  0.2056  3.4321
 4335SOL     OW24463   3.151   1.500   6.491  0.0963  0.2455 -0.1044
 4335SOL    HW124464   3.065   1.468   6.515 -0.5523  1.1047 -1.2658
 4335SOL    HW224465   3.179   1.419   6.446 -0.3403  0.3004 -0.4718
 4336SOL     OW24466   1.806   2.503   8.410  0.0814  0.0414  0.5217
 4336SOL    HW124467   1.845   2.430   8.459  2.1269  1.0445  0.4109
 4336SOL    HW224468   1.745   2.544   8.471  0.2160  0.2464  0.5189
 4337SOL     OW24469   1.786   3.899   3.310  0.0748  0.3400  0.2195
 4337SOL    HW124470   1.835   3.953   3.372 -1.1272  0.0550  1.4141
 4337SOL    HW224471   1.842   3.838   3.262  0.8510  1.2186  0.0140
 4338SOL     OW24472   2.496   3.672   8.123 -0.9397  0.2667 -0.5255
 4338SOL    HW124473   2.504   3.620   8.203  0.2518  2.3317  0.7114
 4338SOL    HW224474   2.419   3.631   8.084 -0.8982  0.5117 -0.8597
 4339SOL     OW24475   0.629   0.858   1.546  0.1568 -0.0374  0.4035
 4339SOL    HW124476   0.574   0.863   1.624 -0.2005 -1.7606  0.2571
 4339SOL    HW224477   0.675   0.775   1.557  0.6717  0.3558  1.1696
 4340SOL     OW24478   0.548   0.626   2.770 -0.1409 -0.3379  0.1638
 4340SOL    HW124479   0.547   0.653   2.678 -0.3634 -1.9232 -0.2909
 4340SOL    HW224480   0.643   0.617   2.776  0.2488  3.5448  0.1824
 4341SOL     OW24481   3.505   1.636   2.866 -0.0828 -0.1660  0.2441
 4341SOL    HW124482   3.447   1.683   2.926 -0.6362  0.2968 -0.6510
 4341SOL    HW224483   3.583   1.612   2.915 -0.7727 -2.1907  0.3611
 4342SOL     OW24484   4.664   0.415   8.229  0.1305  0.2919 -0.1579
 4342SOL    HW124485   4.626   0.490   8.185  0.1455 -0.0697 -0.7842
 4342SOL    HW224486   4.602   0.400   8.301  0.9076  0.3692  0.5257
 4343SOL     OW24487   1.157   3.679   7.000 -0.3701 -0.1319  0.2050
 4343SOL    HW124488   1.173   3.742   7.070 -1.1208 -0.8234  0.9936
 4343SOL    HW224489   1.108   3.621   7.058 -0.7481 -2.2392 -2.2484
 4344SOL     OW24490   1.460   4.136   7.655  0.4412 -0.0371  0.1542
 4344SOL    HW124491   1.492   4.073   7.590  2.0881 -0.4078  1.3354
 4344SOL    HW224492   1.413   4.074   7.712  2.2505  0.0798  1.7509
 4345SOL     OW24493   2.339   2.983   1.729  0.6519  0.0205  0.2060
 4345SOL    HW124494   2.397   3.057   1.710  1.2330 -0.2212  1.0336
 4345SOL    HW224495   2.333   3.002   1.822 -1.8715  4.2966 -0.8038
 4346SOL     OW24496   2.541   0.458   1.608 -0.3128  0.0658 -0.2388
 4346SOL    HW124497   2.575   0.407   1.535  1.0484  2.9343 -1.5935
 4346SOL    HW224498   2.624   0.472   1.654 -1.2848  1.3543  1.1127
 4347SOL     OW24499   3.668   4.424  12.423 -0.5706  0.2056  0.7702
 4347SOL    HW124500   3.705   4.456  12.341 -0.9090  1.4033  1.0707
 4347SOL    HW224501   3.670   4.501  12.481  1.3864  0.9161 -0.2530
 4348SOL     OW24502   4.275   1.789   8.946 -0.1204 -0.3001 -0.2888
 4348SOL    HW124503   4.218   1.792   9.023 -0.8642 -2.4554 -0.7504
 4348SOL    HW224504   4.227   1.845   8.884  1.4480  2.8581  1.3250
 4349SOL     OW24505   2.828   1.899   1.539  0.0403  0.3933 -0.2064
 4349SOL    HW124506   2.915   1.897   1.500 -0.0940  0.8291 -0.5282
 4349SOL    HW224507   2.796   1.986   1.515 -1.8046 -0.7025 -1.7071
 4350SOL     OW24508   0.366   3.892  10.019 -0.1127 -0.4482  0.0255
 4350SOL    HW124509   0.441   3.936   9.979  0.3428 -2.0637 -0.9041
 4350SOL    HW224510   0.308   3.892   9.943 -0.3383 -0.0728  0.1964
 4351SOL     OW24511   0.364   3.136   6.272  0.5260 -0.1409 -0.1321
 4351SOL    HW124512   0.276   3.166   6.251  1.0760  1.6630  0.1508
 4351SOL    HW224513   0.345   3.088   6.352 -0.5057 -0.9695 -0.8779
 4352SOL     OW24514   3.448   3.209   0.960  0.2100  0.1555 -0.3964
 4352SOL    HW124515   3.364   3.203   1.007  1.3161  2.7474  1.9296
 4352SOL    HW224516   3.423   3.264   0.886 -0.9215 -0.0586 -0.1751
 4353SOL     OW24517   2.458   3.838  10.801 -0.1738 -0.5753 -0.8103
 4353SOL    HW124518   2.525   3.785  10.844  0.5129  0.2417 -0.8503
 4353SOL    HW224519   2.417   3.769  10.750 -0.3451  0.2470 -1.7903
 4354SOL     OW24520   1.858   0.371   2.901  0.1831 -0.4558 -0.1751
 4354SOL    HW124521   1.819   0.332   2.823  0.8697 -1.1455 -0.1708
 4354SOL    HW224522   1.848   0.293   2.956 -0.7509  0.2957  0.7140
 4355SOL     OW24523   1.186   4.641   6.118  0.0204  0.5660  0.6487
 4355SOL    HW124524   1.244   4.695   6.065  0.7852  0.1843  1.0888
 4355SOL    HW224525   1.202   4.554   6.082  0.2243  0.7641  0.2633
 4356SOL     OW24526   0.938   2.080   2.190  1.6893 -0.0610 -0.1085
 4356SOL    HW124527   1.023   2.043   2.166  0.5682 -2.9354  0.4423
 4356SOL    HW224528   0.905   2.104   2.104  1.7346  1.7593  0.3783
 4357SOL     OW24529   3.428   3.774  13.059 -0.8814 -0.4484 -0.4995
 4357SOL    HW124530   3.451   3.820  13.140  0.0026 -3.1553  0.8014
 4357SOL    HW224531   3.356   3.826  13.024 -0.6736 -1.2827 -2.1561
 4358SOL     OW24532   0.004   0.351  12.728  0.0254  0.3362 -0.0438
 4358SOL    HW124533   4.720   0.339  12.823  0.2806  1.7552  0.1502
 4358SOL    HW224534   0.078   0.291  12.719  0.3504  0.8642 -0.8572
 4359SOL     OW24535   4.136   4.252   5.082 -0.0591  0.1377  0.0141
 4359SOL    HW124536   4.148   4.262   5.176 -1.1506 -1.0804  0.2637
 4359SOL    HW224537   4.141   4.157   5.075  2.0979  0.4301 -2.4344
 4360SOL     OW24538   1.443   1.619   6.240 -0.4573 -0.1766  0.4392
 4360SOL    HW124539   1.389   1.554   6.194 -2.1796  1.3281  0.3379
 4360SOL    HW224540   1.365   1.668   6.267 -0.0383  1.8861 -2.1768
 4361SOL     OW24541   2.254   1.648   9.249  0.5040 -0.0770 -0.1364
 4361SOL    HW124542   2.240   1.667   9.342 -1.0532  0.3572 -0.4577
 4361SOL    HW224543   2.185   1.583   9.235  1.9166 -1.9110  1.3812
 4362SOL     OW24544   1.157   3.996   3.784  0.4797  0.1335  0.8806
 4362SOL    HW124545   1.144   4.082   3.745  0.0755 -0.3694 -0.1001
 4362SOL    HW224546   1.243   4.014   3.822  0.6853  0.8242  0.0983
 4363SOL     OW24547   0.812   1.663   5.603 -0.0155  0.3958 -0.3158
 4363SOL    HW124548   0.769   1.739   5.563 -0.1304 -0.8018 -2.4287
 4363SOL    HW224549   0.837   1.703   5.687  0.1141  1.0342 -0.6530
 4364SOL     OW24550   4.523   4.580  15.633  0.3456  0.5826 -1.0126
 4364SOL    HW124551   4.451   4.540  15.585 -1.1579 -1.0508  2.6188
 4364SOL    HW224552   4.465   4.632  15.689 -0.3126 -0.6129 -0.5778
 4365SOL     OW24553   2.801   3.842   0.694 -0.1802  0.2850 -0.8582
 4365SOL    HW124554   2.871   3.872   0.751  0.2254 -0.8787 -0.7362
 4365SOL    HW224555   2.847   3.812   0.615  2.1658  0.4916  0.4516
 4366SOL     OW24556   2.720   1.428   3.553 -0.2302  0.9047  0.2213
 4366SOL    HW124557   2.813   1.443   3.536  0.2055 -2.0072 -0.0213
 4366SOL    HW224558   2.695   1.360   3.490 -1.0603  0.7901  0.6664
 4367SOL     OW24559   1.145   3.602   6.066  0.0350  0.1475  0.4983
 4367SOL    HW124560   1.111   3.549   5.994  1.8228  0.8643 -0.8696
 4367SOL    HW224561   1.070   3.592   6.125 -1.0792  0.3234 -0.8861
 4368SOL     OW24562   1.904   1.334  14.481  0.1857  0.1418  0.2331
 4368SOL    HW124563   1.961   1.300  14.550  0.1812  1.6320  0.9653
 4368SOL    HW224564   1.867   1.411  14.523 -0.3967  0.5340 -0.9888
 4369SOL     OW24565   4.536   3.710   2.713  0.3532  0.5174 -0.1864
 4369SOL    HW124566   4.612   3.752   2.754 -0.9957 -1.0315  3.8837
 4369SOL    HW224567   4.496   3.673   2.791  0.8634  1.2142  0.4033
 4370SOL     OW24568   3.131   1.905   4.130  0.0523 -0.3619  0.1962
 4370SOL    HW124569   3.212   1.949   4.102  0.0413  0.1903  1.0085
 4370SOL    HW224570   3.150   1.813   4.115  0.3426 -0.3437  0.4350
 4371SOL     OW24571   0.510   3.155   4.705  0.0543 -0.7140 -0.6740
 4371SOL    HW124572   0.470   3.072   4.678 -1.0109  0.4862 -2.7526
 4371SOL    HW224573   0.583   3.150   4.644  0.2757 -1.1834 -0.3754
 4372SOL     OW24574   4.403   1.972   9.513  0.2638 -0.1062 -0.7117
 4372SOL    HW124575   4.394   1.920   9.593 -3.5317 -0.0699 -1.1241
 4372SOL    HW224576   4.323   2.026   9.515 -0.6844 -1.4471 -2.7972
 4373SOL     OW24577   1.511   0.597  17.561 -0.1002  0.2052  0.1072
 4373SOL    HW124578   1.498   0.655  17.486  0.2896  0.8133  0.5081
 4373SOL    HW224579   1.426   0.555  17.574 -0.6135  0.9859 -0.7968
 4374SOL     OW24580   3.977   1.424  15.707  0.1111  0.4660  0.2212
 4374SOL    HW124581   3.991   1.455  15.796  1.4175 -1.0746  0.5701
 4374SOL    HW224582   4.049   1.462  15.656 -0.7052  0.9932 -0.5463
 4375SOL     OW24583   2.967   0.194  10.512 -0.2630 -0.1467 -0.1396
 4375SOL    HW124584   3.020   0.257  10.560  0.0752  1.9406 -3.2015
 4375SOL    HW224585   2.889   0.193  10.567 -0.3419 -2.2432 -0.2803
 4376SOL     OW24586   0.840   2.548   7.998 -0.6821  0.3458 -0.1233
 4376SOL    HW124587   0.789   2.468   8.009 -0.7449  0.1017 -2.0866
 4376SOL    HW224588   0.816   2.579   7.910 -2.4613 -1.2596 -0.1854
 4377SOL     OW24589   3.421   2.120  10.224  0.2558 -0.4016 -0.0109
 4377SOL    HW124590   3.377   2.116  10.309  0.3732 -3.0852 -0.0895
 4377SOL    HW224591   3.412   2.027  10.205 -0.5359 -0.7100  1.9202
 4378SOL     OW24592   1.108   1.492  11.113 -0.2635 -0.2699  0.4321
 4378SOL    HW124593   1.173   1.559  11.136 -1.2395 -0.0190  2.4510
 4378SOL    HW224594   1.033   1.547  11.090  0.1285  0.0356 -0.1261
 4379SOL     OW24595   2.068   1.846   4.001 -0.0292 -0.7867  0.7467
 4379SOL    HW124596   1.976   1.820   4.004 -0.7600  1.6120 -0.4184
 4379SOL    HW224597   2.103   1.761   3.976 -0.4609 -1.2257  1.6552
 4380SOL     OW24598   0.665   2.496   1.725 -0.3061 -0.4257  0.5263
 4380SOL    HW124599   0.609   2.420   1.741 -0.5671 -0.6243 -1.3482
 4380SOL    HW224600   0.611   2.572   1.744  0.5877 -0.0272  1.4923
 4381SOL     OW24601   4.047   4.128   4.322  0.5184 -0.2044  0.1630
 4381SOL    HW124602   4.078   4.041   4.348 -1.0521 -0.4717  1.1064
 4381SOL    HW224603   4.127   4.178   4.305 -0.5880  0.6215 -2.5462
 4382SOL     OW24604   3.552   0.469   6.107 -0.1946 -0.0240 -0.1581
 4382SOL    HW124605   3.506   0.452   6.025  2.1123 -3.0337 -0.8106
 4382SOL    HW224606   3.585   0.556   6.085  0.2255  0.1262  1.0418
 4383SOL     OW24607   1.789   1.125   9.764 -0.0001 -0.1386  0.3126
 4383SOL    HW124608   1.777   1.218   9.745 -0.4159 -0.3222 -0.3058
 4383SOL    HW224609   1.884   1.135   9.777 -0.1126 -1.0299  1.8454
 4384SOL     OW24610   2.249   1.185   6.453 -0.5425 -0.0573 -0.0556
 4384SOL    HW124611   2.300   1.206   6.375 -0.9035  2.5185  0.3855
 4384SOL    HW224612   2.225   1.097   6.424 -0.6752  0.3651 -1.1971
 4385SOL     OW24613   3.302   0.825  12.045 -0.5023  0.3329  0.5129
 4385SOL    HW124614   3.243   0.857  11.977 -0.3404 -1.7200 -0.5698
 4385SOL    HW224615   3.377   0.872  12.008 -0.7786 -0.9472 -1.6913
 4386SOL     OW24616   3.394   2.258   7.111 -0.3592  0.6369 -0.0770
 4386SOL    HW124617   3.361   2.194   7.174 -0.5563 -0.6503 -1.4899
 4386SOL    HW224618   3.447   2.314   7.167 -0.3154  0.6093 -0.0907
 4387SOL     OW24619   0.692   4.214  13.583  0.5882  0.2209 -0.2547
 4387SOL    HW124620   0.782   4.218  13.615 -0.3124  0.8428  2.1963
 4387SOL    HW224621   0.651   4.144  13.633 -2.9616  0.4908 -2.7799
 4388SOL     OW24622   1.859   0.556   7.112  0.3955  0.4373 -0.1845
 4388SOL    HW124623   1.795   0.621   7.142  1.7498  0.9387  1.6609
 4388SOL    HW224624   1.929   0.558   7.178  1.3066 -1.7831 -1.0768
 4389SOL     OW24625   0.982   3.958   2.118  0.0994  0.3978 -1.1766
 4389SOL    HW124626   0.978   3.970   2.213 -0.7382 -1.3903 -0.9801
 4389SOL    HW224627   0.900   3.915   2.090  0.8773 -1.5951 -0.3999
 4390SOL     OW24628   3.068   2.646   5.359 -0.3101 -0.7478 -0.0765
 4390SOL    HW124629   3.042   2.641   5.267  2.2910 -2.0440 -0.7163
 4390SOL    HW224630   3.124   2.723   5.358 -0.7093 -0.4619 -0.2004
 4391SOL     OW24631   2.568   0.780  12.164 -0.1497 -0.7685 -0.0982
 4391SOL    HW124632   2.498   0.769  12.228  1.3936 -0.4769  1.6412
 4391SOL    HW224633   2.534   0.856  12.117 -2.4219 -1.4292  0.5039
 4392SOL     OW24634   3.614   0.860  13.271 -0.2257  0.2977  0.1531
 4392SOL    HW124635   3.580   0.877  13.359 -1.7118  1.2530 -0.6077
 4392SOL    HW224636   3.670   0.937  13.258  0.4563  0.0907  1.8222
 4393SOL     OW24637   2.577   4.249   5.227 -0.1839 -0.4879  0.4356
 4393SOL    HW124638   2.581   4.153   5.221 -0.6760 -0.4406 -0.6533
 4393SOL    HW224639   2.630   4.284   5.156 -1.2269  0.2564  0.0252
 4394SOL     OW24640   2.592   3.922   8.113 -0.1095 -0.3664  0.1924
 4394SOL    HW124641   2.505   3.949   8.082 -0.0754  1.4231  1.6765
 4394SOL    HW224642   2.571   3.832   8.139  0.9567 -0.8114 -0.5043
 4395SOL     OW24643   1.442   3.408  11.664  0.3329  0.3466  0.8906
 4395SOL    HW124644   1.398   3.484  11.702 -0.8179  0.0343  0.1861
 4395SOL    HW224645   1.370   3.344  11.671  0.6364 -0.1488 -0.4048
 4396SOL     OW24646   0.136   0.934   4.998  0.1047  0.0840  0.3783
 4396SOL    HW124647   0.206   0.883   5.040 -0.2166 -1.7744 -1.3369
 4396SOL    HW224648   0.135   0.898   4.910 -1.3988  0.1227  0.3836
 4397SOL     OW24649   2.857   2.409   6.952 -0.3577  0.0568  0.4168
 4397SOL    HW124650   2.821   2.456   7.028 -1.5572  2.0053 -1.3435
 4397SOL    HW224651   2.948   2.391   6.973  0.2834  2.3545 -0.3609
 4398SOL     OW24652   1.763   1.613   5.442 -0.4357  0.0669 -0.0912
 4398SOL    HW124653   1.819   1.545   5.480  0.1733  0.4719 -0.2741
 4398SOL    HW224654   1.796   1.689   5.491  2.6226 -0.1477 -1.8256
 4399SOL     OW24655   4.411   0.119  16.807 -0.6714 -0.0470 -0.1291
 4399SOL    HW124656   4.364   0.172  16.872 -1.1712  0.1537 -0.6611
 4399SOL    HW224657   4.499   0.156  16.820 -0.2533 -1.0022 -0.2342
 4400SOL     OW24658   3.335   3.864   3.855  0.4766  0.2355  0.0551
 4400SOL    HW124659   3.278   3.940   3.861  1.0243  0.4870  2.1899
 4400SOL    HW224660   3.298   3.819   3.779 -0.5233  0.2550  0.5401
 4401SOL     OW24661   4.277   4.448   6.704 -0.0036  0.8458 -0.5716
 4401SOL    HW124662   4.329   4.368   6.699 -1.3669 -0.0298 -0.7491
 4401SOL    HW224663   4.309   4.498   6.629  2.1455  1.5962  0.8469
 4402SOL     OW24664   1.252   2.347   0.292  0.4273  0.0515  0.2996
 4402SOL    HW124665   1.219   2.379   0.209 -1.0313 -1.3183  0.3477
 4402SOL    HW224666   1.268   2.424   0.346 -1.4827 -0.3450  1.4181
 4403SOL     OW24667   3.787   0.064   1.041 -0.1542  0.0428  0.1853
 4403SOL    HW124668   3.732   4.706   1.042 -0.7895  0.4463 -2.0769
 4403SOL    HW224669   3.729   0.120   0.988 -0.9020 -0.6532  0.2629
 4404SOL     OW24670   1.113   0.459   4.538 -0.2600  0.8197  0.5472
 4404SOL    HW124671   1.206   0.475   4.550 -0.1974  1.7802 -1.2713
 4404SOL    HW224672   1.114   0.363   4.547  2.6094  0.7588 -0.5328
 4405SOL     OW24673   0.754   1.603   2.494  0.0532 -0.2466 -0.5954
 4405SOL    HW124674   0.709   1.651   2.425  0.5837 -0.3899 -1.0385
 4405SOL    HW224675   0.796   1.669   2.551 -1.1463 -0.6644  0.7725
 4406SOL     OW24676   3.799   1.028   4.763  0.5404 -0.1790 -0.2823
 4406SOL    HW124677   3.882   0.983   4.750  0.7031  0.2637 -0.7824
 4406SOL    HW224678   3.744   0.985   4.697  1.8424 -0.2955 -1.2913
 4407SOL     OW24679   3.893   3.280  15.528  0.3937 -0.4512 -0.0836
 4407SOL    HW124680   3.940   3.321  15.456 -0.4403 -0.8691 -0.8712
 4407SOL    HW224681   3.963   3.225  15.561  0.1589  0.4775  1.9651
 4408SOL     OW24682   3.565   1.296   6.794  0.5693 -0.0158 -0.2646
 4408SOL    HW124683   3.469   1.294   6.803  0.5780 -1.5081 -0.6074
 4408SOL    HW224684   3.574   1.302   6.699  0.0667 -0.3193 -0.3337
 4409SOL     OW24685   0.946   0.201   2.461 -0.6468 -0.5103  0.4183
 4409SOL    HW124686   1.030   0.189   2.416 -0.7251 -2.1217  0.6789
 4409SOL    HW224687   0.982   0.252   2.533  0.3145  1.7468 -1.6371
 4410SOL     OW24688   1.465   1.830  14.582 -0.2157 -0.7102  0.4555
 4410SOL    HW124689   1.423   1.745  14.595  0.2815 -1.1142 -0.6104
 4410SOL    HW224690   1.551   1.825  14.623 -0.9490 -0.2183  2.0373
 4411SOL     OW24691   1.914   4.215   6.489  0.0436  0.0118  0.4768
 4411SOL    HW124692   1.902   4.275   6.415 -2.7739 -1.5060 -0.2675
 4411SOL    HW224693   1.881   4.136   6.447  1.3244  0.0002 -0.5171
 4412SOL     OW24694   0.436   0.486   4.507 -0.7368  0.2199  0.3757
 4412SOL    HW124695   0.444   0.398   4.542 -1.5905  1.3583  3.4436
 4412SOL    HW224696   0.392   0.532   4.579  0.1068  0.5365  0.6873
 4413SOL     OW24697   1.634   3.131   7.012 -0.2850  0.2637  0.5269
 4413SOL    HW124698   1.674   3.207   6.969  1.5197 -2.2380 -2.2226
 4413SOL    HW224699   1.639   3.165   7.101  0.1571 -0.4692  0.7785
 4414SOL     OW24700   2.880   1.818  11.185 -0.2089 -0.1424 -0.4453
 4414SOL    HW124701   2.803   1.789  11.233  0.3772  1.0669  1.2439
 4414SOL    HW224702   2.938   1.749  11.216 -2.0022 -1.1449  0.6561
 4415SOL     OW24703   4.456   0.973   6.962  0.6726 -0.2693 -0.3418
 4415SOL    HW124704   4.495   0.907   6.904 -1.6999 -1.6308 -0.3670
 4415SOL    HW224705   4.381   0.980   6.903  1.0092  1.0886 -0.6309
 4416SOL     OW24706   3.683   0.219  17.425  0.0973  0.4219  0.2176
 4416SOL    HW124707   3.595   0.213  17.388 -0.4339 -0.8091  1.6796
 4416SOL    HW224708   3.739   0.178  17.360 -1.9833 -3.0424  0.6226
 4417SOL     OW24709   3.799   2.984   5.491  0.5949  0.5106 -0.4787
 4417SOL    HW124710   3.882   3.030   5.479  0.1738  1.1494 -0.9767
 4417SOL    HW224711   3.790   2.990   5.586 -0.9907 -1.1036 -0.5165
 4418SOL     OW24712   2.493   3.765   0.928  0.0942 -0.0432  0.2344
 4418SOL    HW124713   2.477   3.856   0.954 -1.5925 -0.5958  1.1247
 4418SOL    HW224714   2.574   3.759   0.978 -0.6651  2.4553  1.7767
 4419SOL     OW24715   3.519   0.968  15.530 -0.0385  0.0630  0.0784
 4419SOL    HW124716   3.507   0.982  15.436  0.4763 -1.3896 -0.2073
 4419SOL    HW224717   3.608   0.932  15.539 -0.4467 -1.7357 -3.0885
 4420SOL     OW24718   1.085   3.790  15.636  0.1766  0.0869  0.5091
 4420SOL    HW124719   1.064   3.880  15.663  0.7504  0.8391 -1.5776
 4420SOL    HW224720   1.014   3.748  15.684  0.5185 -0.4176  0.5727
 4421SOL     OW24721   0.026   0.909   6.024  0.4001 -0.1924  0.8676
 4421SOL    HW124722   0.117   0.889   6.045  0.5095  0.9619  1.5111
 4421SOL    HW224723   0.021   1.003   6.044 -2.3656 -0.6322  2.3926
 4422SOL     OW24724   2.837   2.414   4.330 -0.9735 -0.0249  0.4923
 4422SOL    HW124725   2.875   2.500   4.345 -2.2711  0.5228  0.6580
 4422SOL    HW224726   2.763   2.414   4.391 -1.9060  2.3703 -0.6682
 4423SOL     OW24727   1.795   4.555   4.363 -0.7657 -0.4718  0.1378
 4423SOL    HW124728   1.775   4.613   4.436  1.1958 -1.6973  1.6542
 4423SOL    HW224729   1.730   4.486   4.355  0.2111 -1.2713 -0.8606
 4424SOL     OW24730   0.077   3.865   8.787 -0.0655  0.0114  0.2551
 4424SOL    HW124731   0.098   3.775   8.813 -2.7020 -0.7014 -0.1491
 4424SOL    HW224732   4.706   3.871   8.813  0.2173  0.7690  1.0655
 4425SOL     OW24733   0.824   2.136   3.595 -0.1928 -0.1791 -0.5042
 4425SOL    HW124734   0.839   2.141   3.501  1.3418 -1.2724 -0.3140
 4425SOL    HW224735   0.772   2.056   3.597 -0.1834 -0.1250  2.0287
 4426SOL     OW24736   4.400   3.789  10.393  0.2288  0.2687  0.5594
 4426SOL    HW124737   4.365   3.872  10.359  0.4570  0.8445  1.7434
 4426SOL    HW224738   4.493   3.808  10.379  0.0973  0.7976  0.3864
 4427SOL     OW24739   1.924   2.129   4.049  0.2576  0.5016 -0.2241
 4427SOL    HW124740   1.867   2.053   4.058  0.1253  0.6139 -0.1037
 4427SOL    HW224741   2.007   2.085   4.031  0.2381  0.4292 -0.1350
 4428SOL     OW24742   2.903   1.188   7.674  0.1361 -0.1763 -0.4311
 4428SOL    HW124743   2.948   1.208   7.756 -0.1242  3.3167 -1.1431
 4428SOL    HW224744   2.897   1.092   7.677 -1.3080 -0.1110 -1.2662
 4429SOL     OW24745   2.343   2.184   0.545 -0.4531 -0.1181 -0.3925
 4429SOL    HW124746   2.274   2.156   0.485  0.6435  0.7993 -2.0918
 4429SOL    HW224747   2.421   2.146   0.506  0.1734 -0.6653  1.4144
 4430SOL     OW24748   2.066   2.162   6.002  0.7860 -0.0016  0.0573
 4430SOL    HW124749   2.137   2.211   5.962  0.4616 -1.0672 -1.8335
 4430SOL    HW224750   2.107   2.086   6.044  2.1042  0.5498 -0.2385
 4431SOL     OW24751   2.661   3.465  16.440 -0.2811 -0.0775 -0.4807
 4431SOL    HW124752   2.620   3.552  16.436 -0.6464 -0.1996  0.5460
 4431SOL    HW224753   2.744   3.494  16.479 -0.4674  0.1467 -0.2474
 4432SOL     OW24754   4.686   3.226   7.752 -0.1478 -0.1477 -0.7879
 4432SOL    HW124755   4.621   3.289   7.782  1.5778  1.5285 -0.5683
 4432SOL    HW224756   4.668   3.223   7.657  0.0753  0.4639 -0.8455
 4433SOL     OW24757   3.715   3.134   1.011  0.3146 -0.3375  0.4733
 4433SOL    HW124758   3.683   3.097   0.928  0.8646  0.1175  0.0536
 4433SOL    HW224759   3.647   3.201   1.016 -0.0193 -0.4382 -2.3471
 4434SOL     OW24760   1.948   2.748   7.153  0.4697  0.3601  0.0594
 4434SOL    HW124761   1.883   2.811   7.123  0.0586  1.6907  3.7420
 4434SOL    HW224762   2.018   2.775   7.093  0.8104 -1.8173 -0.5180
 4435SOL     OW24763   3.281   3.241   0.699 -0.2253 -0.0925 -0.0909
 4435SOL    HW124764   3.199   3.260   0.745  0.6706  2.5082  0.3912
 4435SOL    HW224765   3.271   3.146   0.691 -2.5677  0.2623 -1.6564
 4436SOL     OW24766   4.408   0.849   1.839 -0.6517 -0.1196 -0.2929
 4436SOL    HW124767   4.417   0.891   1.924 -1.2969  0.2964 -0.4260
 4436SOL    HW224768   4.317   0.873   1.822 -0.2432  0.8501 -1.1505
 4437SOL     OW24769   4.144   1.327   7.652 -0.1634 -0.1640  0.1715
 4437SOL    HW124770   4.143   1.240   7.692  1.6258  0.6202  1.9326
 4437SOL    HW224771   4.119   1.382   7.726  2.5432 -0.8853  1.6424
 4438SOL     OW24772   1.359   0.309   5.357 -0.1970  0.4948 -0.2092
 4438SOL    HW124773   1.326   0.390   5.317 -2.1201 -1.8495 -3.2981
 4438SOL    HW224774   1.455   0.315   5.351 -0.3586  3.4896 -0.0783
 4439SOL     OW24775   2.481   1.656  11.512  0.3944  0.0326  0.4616
 4439SOL    HW124776   2.398   1.645  11.558  0.2689 -1.1756 -0.0506
 4439SOL    HW224777   2.545   1.673  11.580 -2.5520  0.5847  3.0950
 4440SOL     OW24778   3.235   1.775   3.096 -0.2402  0.6591  0.6557
 4440SOL    HW124779   3.158   1.745   3.047  0.4323  0.3669 -0.2437
 4440SOL    HW224780   3.201   1.789   3.184 -0.7734 -0.8938  0.6972
 4441SOL     OW24781   2.019   2.947   2.730 -0.1506 -0.5484 -0.3037
 4441SOL    HW124782   2.100   2.971   2.686  0.7394 -2.4792  0.2428
 4441SOL    HW224783   2.025   2.968   2.824 -1.7735 -0.9894 -0.0884
 4442SOL     OW24784   0.627   4.540  15.225 -0.2252 -0.2431  0.3435
 4442SOL    HW124785   0.646   4.549  15.319  0.8706  1.6971 -0.0779
 4442SOL    HW224786   0.668   4.619  15.191  0.4592  0.4598  2.7756
 4443SOL     OW24787   1.113   1.496  13.852 -0.0838 -0.1244  0.2373
 4443SOL    HW124788   1.130   1.423  13.911 -0.9270  0.3466  1.0572
 4443SOL    HW224789   1.026   1.523  13.881  1.1298  0.5822  3.1717
 4444SOL     OW24790   4.338   2.406   6.857  0.2914 -0.0385 -0.3288
 4444SOL    HW124791   4.310   2.445   6.774  0.2432  1.1762  0.2496
 4444SOL    HW224792   4.375   2.483   6.900 -0.9197  1.2293 -1.5477
 4445SOL     OW24793   3.059   2.835   4.739  0.3239  0.1961 -0.7120
 4445SOL    HW124794   3.039   2.878   4.656  0.6122  1.0187 -0.3605
 4445SOL    HW224795   2.980   2.850   4.791  1.1149 -0.7087  0.7348
 4446SOL     OW24796   2.943   1.116   4.824  0.1223 -0.2884 -0.3863
 4446SOL    HW124797   2.885   1.054   4.869  0.7740 -0.8382 -0.2984
 4446SOL    HW224798   2.889   1.127   4.746  1.6414  1.1393 -1.2174
 4447SOL     OW24799   3.257   0.249   4.898  0.1705 -0.2751  0.1321
 4447SOL    HW124800   3.188   0.296   4.944 -0.4074  0.9857 -2.0601
 4447SOL    HW224801   3.268   0.295   4.815 -0.7953 -1.0290 -0.4141
 4448SOL     OW24802   1.376   4.428   0.597 -0.2206  0.6698 -0.2670
 4448SOL    HW124803   1.332   4.368   0.537  0.8597  0.2420 -0.6332
 4448SOL    HW224804   1.367   4.508   0.547 -0.1890  0.6340 -0.3304
 4449SOL     OW24805   0.944   0.792   3.086  0.4245  0.4471  0.4299
 4449SOL    HW124806   0.899   0.876   3.073  1.9462  1.1509 -0.4740
 4449SOL    HW224807   0.891   0.728   3.040  3.9144 -1.2996 -1.1836
 4450SOL     OW24808   3.183   2.010   2.823 -0.0981 -0.2204 -0.6760
 4450SOL    HW124809   3.209   2.102   2.826 -0.6991  0.0271 -2.9551
 4450SOL    HW224810   3.245   1.989   2.753 -0.9899 -2.2394 -0.8693
 4451SOL     OW24811   2.769   3.899   2.740 -0.1125 -0.1728  0.2453
 4451SOL    HW124812   2.860   3.869   2.742  0.1438  0.5659 -0.4474
 4451SOL    HW224813   2.724   3.863   2.816 -1.5588  1.5395  0.1852
 4452SOL     OW24814   4.187   1.110   4.820  0.0670  0.0952  0.6835
 4452SOL    HW124815   4.198   1.187   4.876  1.7829 -0.1750  0.6946
 4452SOL    HW224816   4.244   1.143   4.751 -1.6011  2.4530  0.4250
 4453SOL     OW24817   1.293   1.057   2.436  0.0693 -0.0734  0.0563
 4453SOL    HW124818   1.276   1.007   2.356  1.1532 -1.2142  0.5295
 4453SOL    HW224819   1.212   1.034   2.481  0.3022  1.9858  1.5090
 4454SOL     OW24820   1.471   0.304   6.751 -0.2541  0.3074 -0.0567
 4454SOL    HW124821   1.516   0.226   6.717 -1.6791 -1.0980  1.3144
 4454SOL    HW224822   1.446   0.264   6.834  2.3984 -0.5425  0.3402
 4455SOL     OW24823   2.513   0.789   3.644  0.3115  0.3401  0.1456
 4455SOL    HW124824   2.454   0.780   3.569 -0.3573  3.7042  0.2755
 4455SOL    HW224825   2.463   0.816   3.721 -2.4434 -4.2869 -0.0409
 4456SOL     OW24826   4.281   1.151   5.856 -0.1725  0.2103  0.1699
 4456SOL    HW124827   4.213   1.156   5.924 -0.1238 -1.4738  0.3452
 4456SOL    HW224828   4.233   1.106   5.786 -3.2421  0.7768  1.8819
 4457SOL     OW24829   3.901   4.477   8.692  0.2322 -0.6691 -0.0005
 4457SOL    HW124830   3.844   4.467   8.767  0.9687  1.1646  0.8158
 4457SOL    HW224831   3.836   4.483   8.622 -1.4663  0.6359  1.6984
 4458SOL     OW24832   1.488   0.425   4.421  0.1287  0.4145 -0.2105
 4458SOL    HW124833   1.510   0.443   4.330 -1.4550  1.0792 -0.4689
 4458SOL    HW224834   1.426   0.353   4.412 -0.2445  0.9251 -1.7596
 4459SOL     OW24835   0.542   1.279   1.565  0.3524  0.1236 -0.2750
 4459SOL    HW124836   0.508   1.209   1.621 -2.8050  0.8954 -1.2373
 4459SOL    HW224837   0.491   1.353   1.597  0.2493  0.0456 -0.2570
 4460SOL     OW24838   2.848   1.352  12.489  0.1821 -0.3204 -0.0022
 4460SOL    HW124839   2.900   1.359  12.569  0.6958  0.4387 -0.4010
 4460SOL    HW224840   2.803   1.269  12.503 -1.0379  0.5160  1.1255
 4461SOL     OW24841   1.901   0.979   0.367 -0.5708 -0.2084  0.3691
 4461SOL    HW124842   1.949   1.060   0.387  1.1979 -1.2378  0.3193
 4461SOL    HW224843   1.833   1.018   0.312  0.4108 -1.8405 -2.0018
 4462SOL     OW24844   1.150   0.900  10.702 -0.3479 -0.2625  0.0347
 4462SOL    HW124845   1.180   0.986  10.729  1.5008  0.0411 -2.9197
 4462SOL    HW224846   1.059   0.895  10.732 -0.9353 -1.2660 -1.8587
 4463SOL     OW24847   4.029   4.410   6.818  0.0986 -0.2517 -0.3105
 4463SOL    HW124848   4.100   4.430   6.757  0.1067  1.1840  0.1784
 4463SOL    HW224849   4.085   4.403   6.895  2.3121  1.8871 -1.7385
 4464SOL     OW24850   3.182   2.649   8.560  0.0855  0.2010 -0.1499
 4464SOL    HW124851   3.113   2.600   8.605 -0.7483  0.6058 -1.0038
 4464SOL    HW224852   3.221   2.579   8.509  0.0479  2.4291 -3.1996
 4465SOL     OW24853   3.102   0.821   6.519 -0.2048  0.0495 -0.3110
 4465SOL    HW124854   3.133   0.731   6.523 -1.6297 -0.3906  0.9839
 4465SOL    HW224855   3.064   0.839   6.605 -0.9531 -2.1360 -0.1890
 4466SOL     OW24856   2.304   4.301   3.443 -0.0067  0.3870  0.0116
 4466SOL    HW124857   2.346   4.277   3.526  0.2675 -1.3918 -0.6462
 4466SOL    HW224858   2.371   4.362   3.410  0.8757 -0.6125 -0.0568
 4467SOL     OW24859   0.094   2.177   5.379  0.3717  0.1447 -0.3566
 4467SOL    HW124860   0.156   2.249   5.371  0.6873 -0.0754  0.1064
 4467SOL    HW224861   0.096   2.156   5.286  2.8945  0.7080 -0.4251
 4468SOL     OW24862   1.659   1.592   5.898  0.4097 -0.0472 -0.1555
 4468SOL    HW124863   1.588   1.635   5.946 -0.2363 -2.1262  0.7385
 4468SOL    HW224864   1.633   1.611   5.807 -3.7572  1.8437  1.4260
 4469SOL     OW24865   1.912   2.751   5.379 -0.2882  0.4007  0.0976
 4469SOL    HW124866   1.942   2.794   5.298  0.3673  0.3766  0.3258
 4469SOL    HW224867   1.829   2.796   5.396  0.8908  0.8444  4.5509
 4470SOL     OW24868   1.405   4.032   7.154 -0.2335  0.4254  0.2225
 4470SOL    HW124869   1.371   3.953   7.195 -2.0826  1.1289  0.0552
 4470SOL    HW224870   1.449   4.069   7.231 -0.8630  3.1170 -0.7274
 4471SOL     OW24871   4.557   2.353   3.002 -0.1087  0.0643  0.4367
 4471SOL    HW124872   4.521   2.274   3.042 -1.0718 -0.0018 -0.5579
 4471SOL    HW224873   4.503   2.357   2.923 -0.3830  1.6230  0.6846
 4472SOL     OW24874   4.312   1.822   9.708 -0.2984  0.1064 -0.2230
 4472SOL    HW124875   4.242   1.872   9.750  1.2688  0.6211  1.7760
 4472SOL    HW224876   4.261   1.744   9.686 -0.2788  0.3171 -0.9933
 4473SOL     OW24877   1.416   2.262   1.144  0.0640 -0.1227 -0.4599
 4473SOL    HW124878   1.365   2.221   1.074  0.6579  0.4063 -1.2044
 4473SOL    HW224879   1.503   2.237   1.115  0.9711  2.1904  0.2973
 4474SOL     OW24880   0.588   3.968   2.074 -0.3151 -0.4091 -0.2623
 4474SOL    HW124881   0.569   4.060   2.057 -1.4527 -0.4591  0.7556
 4474SOL    HW224882   0.504   3.922   2.076  1.3556 -3.4863  0.3340
 4475SOL     OW24883   0.721   3.823   2.603  0.0516  0.3195 -0.2479
 4475SOL    HW124884   0.732   3.743   2.551 -0.4415 -0.1831  0.4188
 4475SOL    HW224885   0.644   3.862   2.561  0.7432 -0.7892 -2.5775
 4476SOL     OW24886   0.917   4.098  16.937 -0.2198 -0.4842 -0.6204
 4476SOL    HW124887   0.906   4.151  17.016  0.3339 -1.7591  0.3018
 4476SOL    HW224888   0.962   4.152  16.871  0.8764 -2.5506 -1.5462
 4477SOL     OW24889   0.131   0.865   3.624  0.5317 -0.1163  0.5981
 4477SOL    HW124890   0.205   0.879   3.684 -0.1052  0.8683  1.1541
 4477SOL    HW224891   0.155   0.799   3.559  1.4941  2.1067 -1.2893
 4478SOL     OW24892   2.461   3.823   6.026  0.3322  0.2438  0.1463
 4478SOL    HW124893   2.382   3.805   6.075  1.6101 -1.5398  1.5316
 4478SOL    HW224894   2.526   3.776   6.077 -1.0934 -0.9577  0.8218
 4479SOL     OW24895   2.521   2.874  13.995  0.3483  0.2845  0.1099
 4479SOL    HW124896   2.451   2.814  13.971 -0.1533 -0.0140  2.2913
 4479SOL    HW224897   2.551   2.918  13.916  2.7637 -0.6460  0.5019
 4480SOL     OW24898   4.494   2.656   3.333 -0.0852  0.4594  0.0697
 4480SOL    HW124899   4.526   2.650   3.242 -0.1998  1.4052 -0.0360
 4480SOL    HW224900   4.578   2.655   3.380  0.1592 -1.1221 -0.4086
 4481SOL     OW24901   2.442   2.008   4.772 -0.1327  0.2527  0.1877
 4481SOL    HW124902   2.482   1.990   4.687 -0.0307  0.4503  0.1920
 4481SOL    HW224903   2.425   1.919   4.802  0.4026  0.7939  2.1361
 4482SOL     OW24904   0.216   3.363   7.330  0.0230  0.2141  0.3353
 4482SOL    HW124905   0.185   3.273   7.336  0.4291  0.1527  1.5853
 4482SOL    HW224906   0.242   3.373   7.238  1.2255  2.9935  0.9832
 4483SOL     OW24907   1.981   4.177   8.994  0.4854  0.1185  0.3142
 4483SOL    HW124908   1.910   4.201   8.933  0.2558 -0.5027  0.3375
 4483SOL    HW224909   1.955   4.086   9.011  2.7301 -0.9754 -2.0984
 4484SOL     OW24910   2.883   4.073   5.917  0.4006 -0.6589  0.3379
 4484SOL    HW124911   2.973   4.041   5.909  1.4199  2.0795  0.8400
 4484SOL    HW224912   2.882   4.128   5.839  2.5245 -0.1515  0.6692
 4485SOL     OW24913   1.537   3.621  16.854 -0.1383 -0.3862 -0.1249
 4485SOL    HW124914   1.588   3.570  16.791  0.6000  0.3879 -0.1435
 4485SOL    HW224915   1.462   3.561  16.855 -1.3533  1.1330 -0.4304
 4486SOL     OW24916   0.030   2.031   7.447  0.3385 -0.1720  0.1227
 4486SOL    HW124917   4.665   1.989   7.462  0.0959  0.1119 -0.4541
 4486SOL    HW224918   0.020   2.044   7.353 -0.7126  1.7029  0.5113
 4487SOL     OW24919   3.989   0.189  17.472 -0.1525 -0.3442  0.4027
 4487SOL    HW124920   3.905   0.184  17.519 -1.7761 -2.2289 -2.7430
 4487SOL    HW224921   4.047   0.195  17.548  1.5545  0.3476 -0.9831
 4488SOL     OW24922   0.967   1.102   4.468 -0.1170 -0.3566 -0.3093
 4488SOL    HW124923   0.928   1.022   4.433  1.5550 -3.0586  4.0420
 4488SOL    HW224924   1.018   1.062   4.538  0.6925  1.3782  0.0763
 4489SOL     OW24925   2.301   4.111  17.589  0.8275  0.3495  0.0799
 4489SOL    HW124926   2.336   4.148  17.670 -0.9479  3.2512 -0.4867
 4489SOL    HW224927   2.286   4.020  17.616  0.6221 -0.7226 -3.6282
 4490SOL     OW24928   3.743   4.148   7.840 -0.0895  0.0323 -0.0732
 4490SOL    HW124929   3.721   4.159   7.932 -0.3076  0.2774 -0.1507
 4490SOL    HW224930   3.834   4.177   7.848  0.4302 -1.1767 -1.5973
 4491SOL     OW24931   1.379   2.627  12.196 -0.1359 -0.1378  0.2174
 4491SOL    HW124932   1.427   2.705  12.171 -2.5419  2.1464  2.7658
 4491SOL    HW224933   1.385   2.577  12.114  1.7439  0.3664  0.0572
 4492SOL     OW24934   1.529   1.179   7.251 -0.1781 -0.3116 -0.0828
 4492SOL    HW124935   1.553   1.263   7.212  0.9380 -1.6929 -2.3723
 4492SOL    HW224936   1.564   1.122   7.183  1.8026  0.9707 -0.1458
 4493SOL     OW24937   2.580   2.522  17.351  0.2632 -0.1761  0.4226
 4493SOL    HW124938   2.590   2.452  17.415  0.1187  0.0792  0.7211
 4493SOL    HW224939   2.671   2.546  17.332  0.1866  0.0670  0.3538
 4494SOL     OW24940   1.357   0.053   2.758 -0.3602 -0.1448  0.5435
 4494SOL    HW124941   1.383   4.711   2.825  1.4777  0.0170 -0.0370
 4494SOL    HW224942   1.269   0.076   2.788 -1.4218 -0.5621 -2.1961
 4495SOL     OW24943   2.618   1.242  13.861 -1.0810 -0.1646 -0.4485
 4495SOL    HW124944   2.611   1.169  13.801  0.4872 -2.1025  1.7035
 4495SOL    HW224945   2.677   1.197  13.922 -0.5766  0.2385 -0.6368
 4496SOL     OW24946   2.350   3.082  15.613  0.0062  0.3336 -0.1470
 4496SOL    HW124947   2.443   3.060  15.620 -0.7504 -2.9704 -0.1344
 4496SOL    HW224948   2.342   3.133  15.694  1.2706 -1.1879  0.9352
 4497SOL     OW24949   1.814   0.988   5.803  0.0185 -0.6086 -0.6255
 4497SOL    HW124950   1.905   0.987   5.773  0.7498  0.2774  1.5521
 4497SOL    HW224951   1.781   1.056   5.745 -1.9417 -0.2624  0.8988
 4498SOL     OW24952   1.824   3.374   0.142  0.7851 -0.1792 -0.7468
 4498SOL    HW124953   1.914   3.371   0.172 -0.0388 -0.1699  1.7687
 4498SOL    HW224954   1.792   3.297   0.189  0.1480  3.0370  4.1389
 4499SOL     OW24955   3.383   0.098   3.362 -0.6607  0.1723  0.2180
 4499SOL    HW124956   3.460   0.059   3.320 -0.3954  2.2090 -1.2003
 4499SOL    HW224957   3.381   0.058   3.449  1.1611 -0.7015 -0.1322
 4500SOL     OW24958   1.316   1.424   0.875  0.4583  0.6393 -0.1489
 4500SOL    HW124959   1.284   1.486   0.940 -0.8155  1.4379 -1.5306
 4500SOL    HW224960   1.313   1.346   0.930  1.4310  0.5277 -0.2458
 4501SOL     OW24961   0.262   3.113  13.546  0.7803 -0.2039 -0.6204
 4501SOL    HW124962   0.302   3.031  13.515  0.8505  0.6610 -2.8466
 4501SOL    HW224963   0.338   3.171  13.543 -0.8469  1.9425 -0.0738
 4502SOL     OW24964   1.076   1.784   0.657  0.6172  0.0314 -0.2400
 4502SOL    HW124965   1.037   1.751   0.577 -1.5381  0.7851  0.5012
 4502SOL    HW224966   1.171   1.790   0.642  0.5544 -0.6763 -0.9142
 4503SOL     OW24967   1.198   4.412  12.733  0.5189  0.0543 -0.3905
 4503SOL    HW124968   1.264   4.405  12.664 -1.5800 -1.3070 -2.2590
 4503SOL    HW224969   1.255   4.434  12.806  0.4998 -1.0065 -0.0594
 4504SOL     OW24970   1.106   2.417  13.733 -0.0651  0.2836  0.5360
 4504SOL    HW124971   1.053   2.422  13.653 -0.2994  2.1044  0.7908
 4504SOL    HW224972   1.118   2.511  13.749  2.0938 -0.1279  1.3092
 4505SOL     OW24973   0.612   3.361   0.140  0.3137  0.1505 -0.4593
 4505SOL    HW124974   0.666   3.335   0.065  0.0808  0.0366 -0.5879
 4505SOL    HW224975   0.678   3.404   0.195 -1.0256  1.3703  0.1922
 4506SOL     OW24976   4.690   2.332   7.395  0.3030  0.3262 -0.0667
 4506SOL    HW124977   4.650   2.276   7.328  2.0921 -0.3731 -0.5690
 4506SOL    HW224978   0.061   2.320   7.369 -0.2130 -2.6594 -0.5293
 4507SOL     OW24979   4.495   0.826  10.969 -0.6224  0.0099 -0.1042
 4507SOL    HW124980   4.480   0.920  10.973  1.2611  0.3669 -1.0866
 4507SOL    HW224981   4.425   0.802  10.909  0.0960  0.4571 -1.1163
 4508SOL     OW24982   4.089   0.067   3.955  0.5541 -0.3412 -0.1543
 4508SOL    HW124983   4.157   0.125   3.988  1.9963 -0.3578 -3.0918
 4508SOL    HW224984   4.103   0.057   3.861 -0.6588 -0.3549 -0.3420
 4509SOL     OW24985   4.513   3.270   4.724  0.1237  0.5008 -0.0341
 4509SOL    HW124986   4.514   3.184   4.765 -2.8054  0.4485 -0.0439
 4509SOL    HW224987   4.427   3.259   4.682  0.7173  0.3775 -1.2105
 4510SOL     OW24988   2.674   4.077   0.415  0.1616  0.5167 -0.0605
 4510SOL    HW124989   2.681   3.984   0.395  1.0509  0.4100  0.7644
 4510SOL    HW224990   2.674   4.078   0.510 -0.0092  0.2157 -0.0567
 4511SOL     OW24991   1.081   4.344  11.342 -0.4025 -0.0318  0.2809
 4511SOL    HW124992   1.079   4.317  11.250 -1.7784  3.5852 -0.7448
 4511SOL    HW224993   1.142   4.417  11.335 -2.2770  1.4572 -0.4795
 4512SOL     OW24994   1.405   3.189   1.937 -0.4929  0.3206  0.3127
 4512SOL    HW124995   1.457   3.264   1.909  1.3840 -1.0700  0.0604
 4512SOL    HW224996   1.467   3.118   1.923 -0.5970 -0.0826  1.9115
 4513SOL     OW24997   4.315   1.582   5.523 -0.0492 -0.1366  0.2148
 4513SOL    HW124998   4.324   1.493   5.490  4.3889  0.2083  0.4314
 4513SOL    HW224999   4.274   1.619   5.444  1.9750  1.9336  0.1308
 4514SOL     OW25000   1.109   3.758  14.950  0.2817  0.2491  0.8504
 4514SOL    HW125001   1.191   3.757  14.999  0.5016 -2.2612  0.4180
 4514SOL    HW225002   1.083   3.666  14.951 -0.8060  0.5607  0.3753
 4515SOL     OW25003   0.628   3.944  10.612 -0.7488 -0.9057  0.1826
 4515SOL    HW125004   0.646   4.019  10.555 -2.2680 -1.1737 -0.6633
 4515SOL    HW225005   0.629   3.984  10.699  0.7105  0.2798 -0.3692
 4516SOL     OW25006   3.241   1.621  13.283  0.2922 -0.5820 -0.6401
 4516SOL    HW125007   3.160   1.627  13.232  0.4794  0.9457 -0.7617
 4516SOL    HW225008   3.210   1.575  13.361 -0.6274  2.6005  0.8734
 4517SOL     OW25009   1.785   3.581   5.364 -0.6365 -0.3926 -0.2476
 4517SOL    HW125010   1.856   3.522   5.339 -0.2213  0.5226 -1.2482
 4517SOL    HW225011   1.781   3.641   5.289 -1.2224  0.3460  0.3746
 4518SOL     OW25012   2.313   4.433   8.442 -0.1538  0.3058 -0.2775
 4518SOL    HW125013   2.394   4.389   8.418  1.1161  3.4527 -1.7076
 4518SOL    HW225014   2.328   4.448   8.535  0.3535  1.6781 -0.5739
 4519SOL     OW25015   0.968   3.631  11.377 -0.1347 -0.0533 -0.1650
 4519SOL    HW125016   1.039   3.689  11.352 -1.2798  0.0458 -3.1117
 4519SOL    HW225017   0.896   3.660  11.321  0.1343  0.7544 -0.0817
 4520SOL     OW25018   1.083   0.692   5.157 -0.0665 -0.5046 -0.1422
 4520SOL    HW125019   1.098   0.598   5.165 -0.0206 -0.5201 -0.4372
 4520SOL    HW225020   1.094   0.718   5.249 -1.5918 -0.4746  0.0337
 4521SOL     OW25021   3.617   2.091   8.441 -0.0946  0.3459  0.5704
 4521SOL    HW125022   3.685   2.024   8.435 -1.1794 -0.8519  1.8215
 4521SOL    HW225023   3.550   2.055   8.499 -0.6033  0.4879  0.0711
 4522SOL     OW25024   3.521   2.141   6.599  0.0320  0.1156 -0.0667
 4522SOL    HW125025   3.491   2.054   6.573 -1.6892  0.0934  2.0496
 4522SOL    HW225026   3.465   2.174   6.669 -0.6929 -0.2384 -0.4856
 4523SOL     OW25027   4.470   0.442  10.880 -0.6930 -0.3061  0.0197
 4523SOL    HW125028   4.497   0.360  10.839 -2.5893 -0.5696 -0.6922
 4523SOL    HW225029   4.447   0.490  10.801 -1.4557 -0.4730  0.1441
 4524SOL     OW25030   0.159   3.940   5.284 -0.2087  0.7993  0.1992
 4524SOL    HW125031   0.195   4.028   5.274 -2.5026  1.7357  0.2145
 4524SOL    HW225032   0.189   3.916   5.372 -0.5016  0.6770  0.2674
 4525SOL     OW25033   0.996   3.039   3.531  0.0964  0.2010 -0.1884
 4525SOL    HW125034   0.923   2.999   3.578 -0.1285 -2.3437 -2.6731
 4525SOL    HW225035   0.957   3.115   3.487  0.6084  1.5373  1.6353
 4526SOL     OW25036   1.308   4.498  10.656  0.8271 -0.1403 -0.1883
 4526SOL    HW125037   1.346   4.570  10.605 -0.9875  0.5494 -0.5591
 4526SOL    HW225038   1.267   4.447  10.586  1.0399 -0.8595  0.2086
 4527SOL     OW25039   3.904   0.352   6.355 -0.0428 -0.0873  0.3025
 4527SOL    HW125040   3.872   0.414   6.420 -0.1488  0.2009 -0.0223
 4527SOL    HW225041   3.993   0.339   6.388  0.2632  0.9034 -0.1274
 4528SOL     OW25042   3.016   3.337   6.649 -0.1964  0.8726  0.1842
 4528SOL    HW125043   2.921   3.326   6.645  0.2513 -2.3263 -1.1132
 4528SOL    HW225044   3.018   3.412   6.590  1.0019  0.1620 -0.6774
 4529SOL     OW25045   0.472   1.412   3.454 -0.6046 -0.0717 -0.7502
 4529SOL    HW125046   0.564   1.385   3.464 -0.9429 -1.6006 -1.7170
 4529SOL    HW225047   0.486   1.459   3.372 -1.1805  0.4659 -0.5413
 4530SOL     OW25048   4.376   0.878   7.497  0.4560 -0.1333  0.5159
 4530SOL    HW125049   4.323   0.846   7.570 -0.7306  0.3275 -0.1352
 4530SOL    HW225050   4.312   0.898   7.428  1.4983 -2.1628 -1.0235
 4531SOL     OW25051   0.930   4.477  10.605 -0.6120  0.0506  0.9155
 4531SOL    HW125052   0.986   4.440  10.537  2.1733  2.2447  2.0123
 4531SOL    HW225053   0.928   4.569  10.581  1.1150 -0.1420  0.0154
 4532SOL     OW25054   2.280   1.225   1.797  0.1782  0.2299  0.1894
 4532SOL    HW125055   2.335   1.238   1.874 -1.0744 -1.9697  1.4799
 4532SOL    HW225056   2.261   1.314   1.769 -0.1912 -0.1966 -0.8979
 4533SOL     OW25057   1.561   2.944   6.334  0.5059 -0.3753  0.0607
 4533SOL    HW125058   1.483   2.940   6.388 -0.0622 -0.4131 -0.7672
 4533SOL    HW225059   1.593   3.034   6.346  1.7304 -1.1013  2.2310
 4534SOL     OW25060   4.527   3.283  10.797 -0.1096  0.1100 -0.4684
 4534SOL    HW125061   4.557   3.307  10.885 -0.9899  0.2136 -0.2015
 4534SOL    HW225062   4.445   3.331  10.802  0.1148  0.4970 -0.5057
 4535SOL     OW25063   0.583   0.661   6.005  0.0705  0.1928  0.3232
 4535SOL    HW125064   0.650   0.646   6.071 -0.7426  0.7595  1.2800
 4535SOL    HW225065   0.599   0.750   5.973 -1.7556  0.0836 -0.9622
 4536SOL     OW25066   3.532   0.523  11.959  0.5341 -0.1867  0.0544
 4536SOL    HW125067   3.549   0.436  11.994  1.2965  0.8523  2.2254
 4536SOL    HW225068   3.558   0.578  12.033  0.6883 -0.5270  0.2492
 4537SOL     OW25069   4.201   0.589   1.808  0.1715  0.2541 -0.8837
 4537SOL    HW125070   4.111   0.559   1.822  0.1725  0.3388 -0.6977
 4537SOL    HW225071   4.196   0.677   1.844 -1.2941  0.5596 -1.8723
 4538SOL     OW25072   1.940   4.134   4.324 -0.1470  0.0992  0.2798
 4538SOL    HW125073   1.983   4.208   4.281  1.5832 -0.2917  1.3290
 4538SOL    HW225074   1.872   4.117   4.259  1.0763  1.2047 -1.2855
 4539SOL     OW25075   0.340   1.355  13.940  0.0951 -0.4503 -0.3329
 4539SOL    HW125076   0.343   1.418  13.868  1.1133  0.0558  0.1484
 4539SOL    HW225077   0.421   1.305  13.946  1.4143  1.4185 -2.2541
 4540SOL     OW25078   0.632   0.603   1.204  0.3698  0.3786  0.2917
 4540SOL    HW125079   0.626   0.560   1.289  2.2945 -2.2688 -0.9305
 4540SOL    HW225080   0.725   0.603   1.185  0.3803  0.5229  0.3396
 4541SOL     OW25081   2.630   0.662   3.157  0.1246  0.0309  0.2843
 4541SOL    HW125082   2.640   0.572   3.127 -5.1332 -0.3080 -0.5941
 4541SOL    HW225083   2.632   0.654   3.252  2.3774  3.4603  0.5279
 4542SOL     OW25084   0.717   2.748   7.788  0.1504 -0.6486  0.2724
 4542SOL    HW125085   0.636   2.698   7.800 -1.6673  2.5021  1.0347
 4542SOL    HW225086   0.683   2.827   7.748  0.4490  1.3460  3.9430
 4543SOL     OW25087   0.746   0.507   5.279  0.0565 -0.2865  0.1445
 4543SOL    HW125088   0.665   0.465   5.308 -0.3884 -0.4405 -1.3092
 4543SOL    HW225089   0.772   0.558   5.356 -0.6166 -1.1594  0.9372
 4544SOL     OW25090   4.441   1.909   6.548  0.7021 -0.3683 -0.0218
 4544SOL    HW125091   4.369   1.917   6.485  1.1539 -1.3166 -0.6599
 4544SOL    HW225092   4.482   1.826   6.525  0.6986  0.1148 -1.7808
 4545SOL     OW25093   1.004   2.129   4.068 -0.6376  0.7378 -0.4171
 4545SOL    HW125094   1.026   2.039   4.093  0.8700  0.8763 -1.2434
 4545SOL    HW225095   0.916   2.109   4.034 -1.4272  3.6783 -0.0491
 4546SOL     OW25096   0.326   2.975  12.695 -0.5254 -0.2650 -0.2727
 4546SOL    HW125097   0.325   2.883  12.670 -0.3549 -0.3378 -0.0057
 4546SOL    HW225098   0.414   3.004  12.671 -0.9588  3.0514  2.2461
 4547SOL     OW25099   0.077   4.056  12.415  0.1847  0.1241  0.1100
 4547SOL    HW125100   0.010   4.032  12.479  0.3931 -1.0689 -0.1293
 4547SOL    HW225101   0.091   4.148  12.440 -1.3553  0.9693 -2.0861
 4548SOL     OW25102   4.361   1.613   1.741 -0.0402 -0.2967 -0.5922
 4548SOL    HW125103   4.299   1.598   1.813 -0.8528  1.6247 -0.8855
 4548SOL    HW225104   4.434   1.634   1.799 -2.2999 -1.2524  2.6495
 4549SOL     OW25105   3.531   3.869   2.406 -0.3800  0.0285 -0.3930
 4549SOL    HW125106   3.447   3.915   2.400  0.3309  1.4729  0.7717
 4549SOL    HW225107   3.545   3.838   2.316 -1.2975  1.2931 -0.9792
 4550SOL     OW25108   4.488   0.133   1.017 -0.4229  0.1917 -0.3105
 4550SOL    HW125109   4.415   0.078   0.987  0.5480 -1.9387  1.2495
 4550SOL    HW225110   4.534   0.087   1.087 -1.0568 -0.1429 -0.1135
 4551SOL     OW25111   2.480   1.860  13.568  0.1958  0.9187 -0.3235
 4551SOL    HW125112   2.514   1.947  13.589 -1.7467  1.4704  0.5019
 4551SOL    HW225113   2.460   1.834  13.658  1.2989 -0.0088 -0.3359
 4552SOL     OW25114   3.695   2.515   7.687  0.0805  0.3179  0.1590
 4552SOL    HW125115   3.686   2.440   7.628 -0.3511  0.6697 -0.2145
 4552SOL    HW225116   3.788   2.505   7.709  0.0309  2.4926  1.3243
 4553SOL     OW25117   1.690   3.075  15.331  0.1930  0.0577 -0.7040
 4553SOL    HW125118   1.750   3.041  15.397 -1.4358  1.1209  1.3265
 4553SOL    HW225119   1.749   3.058  15.257  0.2664 -1.6891 -0.2418
 4554SOL     OW25120   4.652   0.870  17.485 -0.3412  0.3766 -0.3303
 4554SOL    HW125121   4.616   0.875  17.396 -0.5947  0.5360 -0.2197
 4554SOL    HW225122   4.590   0.928  17.530 -1.5123 -1.4679  0.4404
 4555SOL     OW25123   1.154   0.607  11.257  0.3866 -0.4960  0.5586
 4555SOL    HW125124   1.168   0.682  11.314  1.2326 -0.2177 -0.0167
 4555SOL    HW225125   1.241   0.594  11.219 -0.9806 -2.5828 -1.8530
 4556SOL     OW25126   0.189   2.160  17.007 -0.5389  0.1305  0.6765
 4556SOL    HW125127   0.223   2.189  16.923 -1.1464 -1.1882 -0.0223
 4556SOL    HW225128   0.197   2.066  16.987 -2.9958 -0.3778  2.0862
 4557SOL     OW25129   0.639   4.383  13.829 -0.6210 -0.0159  0.5195
 4557SOL    HW125130   0.634   4.427  13.914  1.2112 -1.5722  1.4270
 4557SOL    HW225131   0.628   4.291  13.852  4.2444 -0.4152  1.3081
 4558SOL     OW25132   2.745   3.087   6.439  0.2747 -0.1321  0.0585
 4558SOL    HW125133   2.746   3.166   6.494 -0.8129 -1.1276  1.5113
 4558SOL    HW225134   2.775   3.116   6.353 -0.1984  1.4172  0.4205
 4559SOL     OW25135   1.021   1.174   6.164  0.2609 -0.6282 -0.3812
 4559SOL    HW125136   1.098   1.123   6.189 -0.2233 -2.1415 -1.9766
 4559SOL    HW225137   1.057   1.217   6.087  0.2297 -0.2889 -0.2038
 4560SOL     OW25138   1.471   0.279  14.853  0.4832  0.3865  0.0882
 4560SOL    HW125139   1.464   0.374  14.846  0.4885  0.2508 -1.6958
 4560SOL    HW225140   1.474   0.254  14.761 -2.6114  3.3095 -0.8292
 4561SOL     OW25141   1.608   0.393   5.405  0.1908  0.7098 -0.0268
 4561SOL    HW125142   1.621   0.466   5.466 -3.1901  0.7974  0.5554
 4561SOL    HW225143   1.654   0.415   5.324  2.3987 -1.5446  0.6193
 4562SOL     OW25144   0.128   0.782   1.817  0.2211 -0.0698 -0.6557
 4562SOL    HW125145   0.096   0.830   1.894  0.5594  3.3237 -2.6065
 4562SOL    HW225146   0.070   0.824   1.755 -0.0308 -1.1195 -1.1230
 4563SOL     OW25147   1.286   3.070   4.060  0.3639 -0.5582  0.2320
 4563SOL    HW125148   1.271   3.001   4.125  2.0031  0.7593  2.0116
 4563SOL    HW225149   1.296   3.150   4.112  2.2920 -1.0070  0.5552
 4564SOL     OW25150   0.779   3.820   5.885 -0.4930  0.4761 -0.0201
 4564SOL    HW125151   0.821   3.872   5.816  1.3569  1.2474  1.6955
 4564SOL    HW225152   0.781   3.883   5.956 -2.7149  0.5639 -0.0339
 4565SOL     OW25153   1.326   2.764   7.646  0.5079  0.1494 -0.1662
 4565SOL    HW125154   1.352   2.856   7.646  1.2364 -0.0588 -0.6366
 4565SOL    HW225155   1.255   2.769   7.582 -0.3624  1.1998  0.8652
 4566SOL     OW25156   1.242   2.549  10.311  0.1010 -0.5656 -0.2953
 4566SOL    HW125157   1.200   2.565  10.227  1.5063  2.5667 -0.4071
 4566SOL    HW225158   1.166   2.564  10.368 -0.0422 -0.1676 -0.5900
 4567SOL     OW25159   0.976   4.249   8.003  0.7604 -0.1603  0.3031
 4567SOL    HW125160   0.990   4.287   8.090  1.6871  1.3227 -0.5074
 4567SOL    HW225161   0.904   4.186   8.013  0.8012 -0.3240 -0.4623
 4568SOL     OW25162   1.015   4.578  17.577  0.1091 -0.2075 -0.2717
 4568SOL    HW125163   0.998   4.565  17.483 -0.4022  0.2647 -0.2418
 4568SOL    HW225164   1.083   4.644  17.573  0.3294 -0.3535  0.9998
 4569SOL     OW25165   2.420   4.534  10.619  0.0087 -0.3371 -0.0860
 4569SOL    HW125166   2.424   4.523  10.524 -3.9614  2.0619 -0.5543
 4569SOL    HW225167   2.440   4.447  10.654 -1.9548 -0.6147  0.3669
 4570SOL     OW25168   2.435   0.454  16.432  0.9112 -0.2428 -0.3230
 4570SOL    HW125169   2.492   0.510  16.485  1.0195  0.1431 -0.8496
 4570SOL    HW225170   2.499   0.443  16.361 -1.6141  1.3006 -2.8207
 4571SOL     OW25171   1.195   1.218   2.792  0.6324  0.0442 -0.7353
 4571SOL    HW125172   1.128   1.151   2.804  3.2118 -2.4559 -0.2705
 4571SOL    HW225173   1.273   1.184   2.836 -0.0464  0.6953  0.9653
 4572SOL     OW25174   1.400   1.437   8.731  0.2278  0.8292  0.1909
 4572SOL    HW125175   1.477   1.469   8.684  0.4555  1.7088  1.1682
 4572SOL    HW225176   1.392   1.344   8.711  0.8124  1.2898 -2.2564
 4573SOL     OW25177   3.862   1.866   9.253  0.0499  0.0130  0.5980
 4573SOL    HW125178   3.808   1.811   9.310 -0.2382 -0.5508 -0.2230
 4573SOL    HW225179   3.795   1.932   9.238  0.3403  0.0205 -0.6017
 4574SOL     OW25180   3.267   4.606   4.464  0.5622 -0.0998 -0.8122
 4574SOL    HW125181   3.336   4.618   4.529 -2.4521  1.7996  2.0558
 4574SOL    HW225182   3.290   4.664   4.391  0.9561  1.2522  0.3788
 4575SOL     OW25183   1.554   1.499   1.513  0.1277  0.6405  0.3280
 4575SOL    HW125184   1.529   1.588   1.537 -0.0763  1.0651 -1.4477
 4575SOL    HW225185   1.523   1.451   1.589  2.4937 -1.0036  0.2586
 4576SOL     OW25186   0.139   0.078   3.303  0.2974  0.2707  0.6240
 4576SOL    HW125187   0.078   0.095   3.231 -0.5021 -2.5874  0.6217
 4576SOL    HW225188   0.096   0.001   3.340 -0.0922  0.1086 -0.1610
 4577SOL     OW25189   2.614   3.066  15.636 -0.2853  0.0321  0.9934
 4577SOL    HW125190   2.665   3.136  15.676 -0.8930  0.2516  1.3901
 4577SOL    HW225191   2.689   3.010  15.616  0.5117  0.1480  3.6631
 4578SOL     OW25192   2.396   1.957  12.320 -0.3799 -0.1125  0.3872
 4578SOL    HW125193   2.359   1.872  12.344  1.9118 -1.2677 -0.2172
 4578SOL    HW225194   2.354   1.973  12.236 -3.6138 -0.1472  1.9884
 4579SOL     OW25195   0.701   3.680   7.754  0.1610  0.4005  0.2899
 4579SOL    HW125196   0.619   3.725   7.734 -1.6044 -2.1134  1.9732
 4579SOL    HW225197   0.756   3.759   7.758 -0.7477  0.9789  1.5724
 4580SOL     OW25198   1.065   4.081   5.308 -0.5035  0.0667  0.1835
 4580SOL    HW125199   1.028   4.090   5.220 -2.7432  3.6545  1.4832
 4580SOL    HW225200   1.074   3.986   5.318 -0.1346 -0.0579 -1.3399
 4581SOL     OW25201   4.677   0.301   3.668 -0.5696 -0.0891 -0.4562
 4581SOL    HW125202   0.004   0.373   3.710  0.8102 -0.9797 -0.4953
 4581SOL    HW225203   4.583   0.314   3.673 -0.2561  2.1325 -0.3452
 4582SOL     OW25204   3.780   2.639   2.198 -0.2460  0.3342 -0.5145
 4582SOL    HW125205   3.794   2.718   2.146 -1.5777  0.1802 -1.0895
 4582SOL    HW225206   3.685   2.636   2.201 -0.2468  3.1520  2.4580
 4583SOL     OW25207   1.589   0.925   1.366 -0.5164 -0.0580 -0.5183
 4583SOL    HW125208   1.591   1.015   1.398 -3.0975 -0.2151  0.0694
 4583SOL    HW225209   1.557   0.879   1.443 -0.8204 -0.2229 -0.7438
 4584SOL     OW25210   1.948   2.743  12.724  0.2571  0.4013 -0.2636
 4584SOL    HW125211   2.019   2.711  12.669  0.6809  0.7385  0.0923
 4584SOL    HW225212   1.997   2.810  12.770  1.6870 -0.9173  0.1275
 4585SOL     OW25213   4.572   0.670   5.791 -0.6627 -0.1187 -0.8468
 4585SOL    HW125214   4.611   0.651   5.876  3.1588 -1.4657 -2.8801
 4585SOL    HW225215   4.536   0.584   5.766  3.2887 -1.8647 -0.4721
 4586SOL     OW25216   2.692   2.589  15.557  0.1652  0.3266 -0.1010
 4586SOL    HW125217   2.715   2.549  15.473 -1.8291  1.6972 -1.3103
 4586SOL    HW225218   2.762   2.561  15.616 -0.0279  2.4445  1.1375
 4587SOL     OW25219   2.552   0.156  16.554 -0.0432 -0.4909 -0.0191
 4587SOL    HW125220   2.459   0.177  16.551 -0.5391 -2.9904 -2.7328
 4587SOL    HW225221   2.542   0.100  16.631 -0.4797  1.5981  1.4368
 4588SOL     OW25222   1.316   0.933   4.117  0.3087 -0.0003 -0.5647
 4588SOL    HW125223   1.355   1.020   4.110 -1.9046  0.8891 -1.8604
 4588SOL    HW225224   1.347   0.886   4.039  0.0574  2.0815 -1.9208
 4589SOL     OW25225   0.519   2.989  10.029 -0.6389  0.4602 -0.4547
 4589SOL    HW125226   0.476   3.021  10.108 -0.7468 -0.7909 -0.0082
 4589SOL    HW225227   0.516   3.071   9.981 -2.7356  0.6185 -0.0377
 4590SOL     OW25228   4.686   2.755   8.115 -0.2467 -0.3568 -0.1108
 4590SOL    HW125229   4.636   2.799   8.046  0.6282  1.9041  0.6745
 4590SOL    HW225230   4.617   2.741   8.180  0.2120 -0.9019  0.2561
 4591SOL     OW25231   0.906   3.763   4.337 -0.1347  0.4122 -0.1828
 4591SOL    HW125232   0.909   3.668   4.347 -0.2229  0.4362  0.0708
 4591SOL    HW225233   0.872   3.772   4.426 -0.0406 -2.2821  0.1175
 4592SOL     OW25234   2.963   4.161   7.938 -0.1951  0.4860 -0.6008
 4592SOL    HW125235   3.047   4.191   7.904 -0.1554  0.2474 -0.7132
 4592SOL    HW225236   2.971   4.067   7.919 -0.3359  0.0392  1.5789
 4593SOL     OW25237   1.631   2.547  14.438 -0.1520  0.0766 -0.2869
 4593SOL    HW125238   1.696   2.509  14.379 -0.5971  0.2174 -0.8664
 4593SOL    HW225239   1.557   2.488  14.428  0.5507 -1.2467  2.1990
 4594SOL     OW25240   3.264   3.934   3.395  0.0407  0.4033 -0.3395
 4594SOL    HW125241   3.270   4.012   3.340 -1.0665 -0.7347 -2.0734
 4594SOL    HW225242   3.232   3.874   3.328 -1.4761  0.4930  0.2962
 4595SOL     OW25243   1.774   0.202  15.257 -0.3298 -0.3949  0.7624
 4595SOL    HW125244   1.861   0.181  15.290  0.1626 -0.3098 -0.4632
 4595SOL    HW225245   1.766   0.172  15.166 -1.2891  1.2580  0.2904
 4596SOL     OW25246   3.730   3.784   7.559 -0.1900  0.0066  0.2714
 4596SOL    HW125247   3.658   3.841   7.531 -0.1238 -0.0778 -0.0762
 4596SOL    HW225248   3.784   3.779   7.480  0.8366 -0.7382  1.0258
 4597SOL     OW25249   4.410   0.229   1.550  0.2746  0.0129 -0.2115
 4597SOL    HW125250   4.489   0.201   1.596  1.5649  3.1231 -0.4714
 4597SOL    HW225251   4.346   0.224   1.621  1.0936  0.9734  0.6217
 4598SOL     OW25252   2.719   0.760  11.701  0.8662 -0.1846  0.0732
 4598SOL    HW125253   2.759   0.689  11.751  0.9179 -0.1709  0.0513
 4598SOL    HW225254   2.766   0.749  11.618 -0.1069 -0.1376 -0.4852
 4599SOL     OW25255   1.087   3.867   6.389 -0.4031 -0.2158 -0.1315
 4599SOL    HW125256   1.125   3.828   6.468  0.7645 -0.8877 -1.0129
 4599SOL    HW225257   1.090   3.955   6.427 -0.2594  0.2918 -1.3112
 4600SOL     OW25258   3.809   1.815   1.040  0.1240  0.3586 -0.3749
 4600SOL    HW125259   3.789   1.908   1.051 -0.6096  0.1405  0.1492
 4600SOL    HW225260   3.905   1.820   1.047  0.0889  0.6492 -0.1276
 4601SOL     OW25261   1.736   2.297   3.542 -0.5622  0.1074  0.2324
 4601SOL    HW125262   1.704   2.358   3.609 -1.3703  2.1195 -1.9886
 4601SOL    HW225263   1.654   2.274   3.498 -0.4648  2.5654 -1.2301
 4602SOL     OW25264   3.225   3.423   6.213 -0.3856 -1.0821  0.2652
 4602SOL    HW125265   3.298   3.444   6.154 -2.8615 -0.9785 -2.7428
 4602SOL    HW225266   3.271   3.377   6.283 -3.8607 -0.7816  2.6991
 4603SOL     OW25267   0.019   3.819   4.213 -0.4476 -0.5744 -0.7506
 4603SOL    HW125268   0.049   3.844   4.125  0.5446 -0.2258 -0.3131
 4603SOL    HW225269   4.673   3.888   4.217  0.6357  0.3774  1.2461
 4604SOL     OW25270   0.298   1.330  15.819 -0.1057  0.2776  0.2100
 4604SOL    HW125271   0.276   1.404  15.761 -0.7654 -0.6931 -0.7774
 4604SOL    HW225272   0.392   1.317  15.806  0.4191  1.3801  3.0002
 4605SOL     OW25273   3.985   0.672   8.498 -0.3003  0.1259 -0.1591
 4605SOL    HW125274   3.985   0.729   8.575 -0.5898 -0.3248  0.1812
 4605SOL    HW225275   3.920   0.607   8.525 -0.5678 -0.2607 -1.7338
 4606SOL     OW25276   1.681   2.431   0.593 -0.5589  0.5269 -0.1585
 4606SOL    HW125277   1.755   2.413   0.651  0.2801  0.3686 -1.2909
 4606SOL    HW225278   1.725   2.492   0.534 -0.3349  1.8262  1.3506
 4607SOL     OW25279   1.366   2.861   1.995  0.6064  0.0979  0.2978
 4607SOL    HW125280   1.444   2.901   1.955 -0.0305  1.4673  0.4431
 4607SOL    HW225281   1.400   2.844   2.083  1.3686  1.5981  0.3034
 4608SOL     OW25282   2.693   0.106   4.198 -0.6049 -0.3158 -0.6329
 4608SOL    HW125283   2.613   0.053   4.204 -0.0164 -1.0972  0.3787
 4608SOL    HW225284   2.740   0.046   4.139  1.0365  1.2720 -0.9390
 4609SOL     OW25285   2.044   2.363   2.793  0.4011  0.1544  0.4450
 4609SOL    HW125286   1.976   2.301   2.766  0.4554 -0.3304  1.4007
 4609SOL    HW225287   2.018   2.441   2.744 -0.6518 -1.2652 -1.2471
 4610SOL     OW25288   0.498   3.866   7.161  0.9316  0.0123 -0.0653
 4610SOL    HW125289   0.526   3.957   7.169 -0.3565  0.2024  2.4335
 4610SOL    HW225290   0.475   3.865   7.068 -1.4645 -0.6100  0.5326
 4611SOL     OW25291   3.320   3.732   6.979  0.0344  0.3723 -0.2835
 4611SOL    HW125292   3.337   3.787   7.056  0.5924  0.2860 -0.3448
 4611SOL    HW225293   3.228   3.752   6.965 -0.1593  1.4427  2.4724
 4612SOL     OW25294   0.222   3.172   9.732 -0.0700 -0.6369  0.5691
 4612SOL    HW125295   0.174   3.194   9.812  0.9578  0.2845  0.9316
 4612SOL    HW225296   0.149   3.122   9.695  0.7040 -0.3179 -1.3745
 4613SOL     OW25297   0.652   3.446   6.159  0.0701 -0.4193  0.3920
 4613SOL    HW125298   0.593   3.520   6.143  0.4419 -0.4468 -1.1340
 4613SOL    HW225299   0.615   3.431   6.246  0.7142  3.1243  1.2807
 4614SOL     OW25300   0.194   2.771   9.744  0.8868  0.3377  0.3971
 4614SOL    HW125301   0.132   2.843   9.756 -1.3976 -1.7625  1.1709
 4614SOL    HW225302   0.163   2.702   9.803 -1.7092  0.8925 -0.3095
 4615SOL     OW25303   0.803   1.528   9.444 -0.4991  0.1796 -0.3181
 4615SOL    HW125304   0.874   1.514   9.381 -1.5670 -1.6153 -1.1349
 4615SOL    HW225305   0.786   1.440   9.476 -0.6852  0.3085 -0.0645
 4616SOL     OW25306   1.905   1.066  14.992 -0.3664 -0.0187  0.5202
 4616SOL    HW125307   1.989   1.102  15.023 -0.7326  0.8331  0.5285
 4616SOL    HW225308   1.907   1.074  14.897  2.9272 -0.4176  0.5387
 4617SOL     OW25309   4.588   2.620  17.264  0.6129 -0.6614  0.3357
 4617SOL    HW125310   4.523   2.559  17.300 -0.1152 -0.7817 -1.1598
 4617SOL    HW225311   4.569   2.640  17.172 -0.5000  1.5410  1.0563
 4618SOL     OW25312   0.196   2.495   5.002  0.5489  0.0258  0.0307
 4618SOL    HW125313   0.105   2.518   5.020  0.0336 -0.2729 -2.1471
 4618SOL    HW225314   0.235   2.550   5.070 -0.9275  1.8421 -0.6052
 4619SOL     OW25315   2.209   1.475   8.924 -0.2767  1.3056  0.5047
 4619SOL    HW125316   2.149   1.540   8.887 -0.0533  1.8362  1.0703
 4619SOL    HW225317   2.160   1.457   9.004  1.6140 -0.3147  1.3286
 4620SOL     OW25318   2.408   3.599   6.388 -0.2850 -0.3569  0.4622
 4620SOL    HW125319   2.344   3.612   6.459 -0.7203  1.5729 -0.2791
 4620SOL    HW225320   2.377   3.675   6.339  1.6466 -0.6098 -1.1408
 4621SOL     OW25321   0.750   2.612   2.200 -0.1221  0.1177  0.4343
 4621SOL    HW125322   0.742   2.517   2.199 -0.6602  0.1599  1.6605
 4621SOL    HW225323   0.705   2.619   2.116  0.2505 -1.8750  0.0743
 4622SOL     OW25324   0.128   4.652  10.265 -0.1279  0.3702  0.1489
 4622SOL    HW125325   0.199   4.708  10.233 -0.1788  0.3814  0.0548
 4622SOL    HW225326   0.126   4.671  10.359 -3.3027  2.0946 -0.2458
 4623SOL     OW25327   3.335   0.339   4.090 -0.3318  0.0639  0.0303
 4623SOL    HW125328   3.383   0.421   4.103 -3.2145  1.6818  0.4087
 4623SOL    HW225329   3.394   0.295   4.028  1.4502 -0.0422  1.8094
 4624SOL     OW25330   4.681   0.257   2.223  0.1181 -0.2831  0.3355
 4624SOL    HW125331   4.690   0.266   2.128 -0.1125  0.7117  0.4039
 4624SOL    HW225332   4.588   0.233   2.221 -0.0484  0.0932  3.1772
 4625SOL     OW25333   0.014   3.497   2.641 -0.1758 -0.2916  0.8231
 4625SOL    HW125334   0.031   3.441   2.717  0.4111 -0.9725  0.1809
 4625SOL    HW225335   4.659   3.541   2.682 -0.0026  0.9748 -0.2136
 4626SOL     OW25336   3.736   2.692   4.937 -0.0486  0.2610 -0.2801
 4626SOL    HW125337   3.786   2.743   4.874  0.6614 -0.4398 -0.2805
 4626SOL    HW225338   3.785   2.610   4.940  1.4790  1.2549  1.5073
 4627SOL     OW25339   0.017   4.426   6.171  0.0805 -0.4235  0.0289
 4627SOL    HW125340   0.023   4.472   6.087 -4.4176 -0.2917 -0.2093
 4627SOL    HW225341   0.109   4.410   6.192  0.0066 -0.9964 -0.0968
 4628SOL     OW25342   3.926   2.280   3.543 -0.0420 -0.0883 -0.4269
 4628SOL    HW125343   3.913   2.372   3.519 -0.0587 -0.3011 -1.2493
 4628SOL    HW225344   3.934   2.236   3.458 -0.1103  0.8414 -0.9097
 4629SOL     OW25345   0.980   2.387  11.342 -0.4643 -0.4987  0.7555
 4629SOL    HW125346   1.045   2.452  11.367 -0.2108 -1.0858  1.6173
 4629SOL    HW225347   0.901   2.421  11.385  0.3654 -0.0411  1.9013
 4630SOL     OW25348   1.185   0.608   8.463 -0.3048  0.2221 -0.1367
 4630SOL    HW125349   1.211   0.629   8.553 -1.2908  2.2508 -0.3327
 4630SOL    HW225350   1.268   0.587   8.421 -0.2324  0.3367 -0.0478
 4631SOL     OW25351   1.084   2.566   5.685  0.4582  0.0679 -0.1502
 4631SOL    HW125352   1.010   2.506   5.686 -0.5584  1.3310 -0.0025
 4631SOL    HW225353   1.054   2.635   5.744 -1.5940  0.1020 -1.2335
 4632SOL     OW25354   4.686   3.764   6.808 -0.7445  0.0877  0.0246
 4632SOL    HW125355   4.650   3.840   6.855 -0.9092  0.5840 -0.9024
 4632SOL    HW225356   4.610   3.708   6.820  0.1788 -0.9911  0.8150
 4633SOL     OW25357   0.438   2.806  17.319  0.4612  0.0002 -0.1158
 4633SOL    HW125358   0.462   2.873  17.384 -1.8328  0.3078  0.4293
 4633SOL    HW225359   0.347   2.806  17.349  0.4743  1.1413 -0.0604
 4634SOL     OW25360   1.296   4.605   5.246 -0.3038 -1.0261 -0.8203
 4634SOL    HW125361   1.358   4.538   5.278  1.6851  1.8875  1.4670
 4634SOL    HW225362   1.291   4.581   5.153  2.4067  0.6596 -1.4245
 4635SOL     OW25363   2.858   0.563   6.631  0.2855 -0.2167  0.3077
 4635SOL    HW125364   2.823   0.622   6.698 -0.0558 -0.1342  0.0529
 4635SOL    HW225365   2.840   0.602   6.546 -3.4206 -0.1959  1.0907
 4636SOL     OW25366   0.381   2.116   3.362  0.3544 -0.3343 -0.2566
 4636SOL    HW125367   0.290   2.123   3.388  0.0543  0.7565 -1.6068
 4636SOL    HW225368   0.394   2.024   3.336 -1.8846 -1.0054  1.0427
 4637SOL     OW25369   4.469   0.461   3.974  0.1247 -0.3007 -0.5590
 4637SOL    HW125370   4.546   0.516   3.958 -0.3951  0.6161  0.1459
 4637SOL    HW225371   4.465   0.470   4.069  0.3163  2.9136 -0.8681
 4638SOL     OW25372   2.917   0.259   8.416 -0.5407 -0.1010 -0.6087
 4638SOL    HW125373   2.950   0.249   8.505 -1.0233 -2.1724 -0.6592
 4638SOL    HW225374   2.885   0.170   8.404 -1.4170  0.1483 -0.1183
 4639SOL     OW25375   1.394   0.218  12.239 -0.1790  0.0128 -0.4154
 4639SOL    HW125376   1.423   0.134  12.202 -1.0930 -1.3302  1.9516
 4639SOL    HW225377   1.343   0.189  12.314 -2.0318 -2.7659 -2.7240
 4640SOL     OW25378   2.477   4.695   6.632  0.2275 -0.1051  0.2139
 4640SOL    HW125379   2.416   4.625   6.607 -0.0542  0.2570 -0.1256
 4640SOL    HW225380   2.529   4.640   6.689  2.1349  2.3281  0.8080
 4641SOL     OW25381   1.608   2.431   9.624 -0.4265  0.1451  0.1756
 4641SOL    HW125382   1.621   2.366   9.692  0.5391  1.6670  1.4414
 4641SOL    HW225383   1.645   2.389   9.546 -1.0904  1.7753 -1.0427
 4642SOL     OW25384   4.567   1.086   5.891 -0.1936 -0.0621  0.0809
 4642SOL    HW125385   4.582   1.030   5.815 -1.9891 -1.1739  0.5487
 4642SOL    HW225386   4.471   1.089   5.897 -0.3244 -0.6948 -1.5836
 4643SOL     OW25387   1.535   1.477   5.315  0.2237  0.2129 -0.4366
 4643SOL    HW125388   1.585   1.544   5.361 -0.8427  0.2656  0.6347
 4643SOL    HW225389   1.589   1.456   5.238  0.7974 -0.0049  0.0315
 4644SOL     OW25390   0.244   2.816   8.547  0.4633 -0.2428  0.0682
 4644SOL    HW125391   0.221   2.896   8.498 -2.4122  0.4765  2.6409
 4644SOL    HW225392   0.157   2.779   8.561  0.2414 -0.5498 -2.0418
 4645SOL     OW25393   4.317   3.967   5.564  0.0979 -0.4375 -0.3511
 4645SOL    HW125394   4.409   3.968   5.540  0.3275  1.3096  0.5135
 4645SOL    HW225395   4.303   4.062   5.564  0.6179 -0.3716 -1.7350
 4646SOL     OW25396   0.029   3.791  16.141  0.2635 -0.5207 -0.3483
 4646SOL    HW125397   0.090   3.718  16.149  1.8003  0.4354 -3.2324
 4646SOL    HW225398   0.067   3.838  16.067 -0.0369  1.8170  0.9969
 4647SOL     OW25399   0.363   0.389   8.955 -0.7126  0.0560  0.1790
 4647SOL    HW125400   0.409   0.358   8.877 -0.0883 -0.7049  0.8506
 4647SOL    HW225401   0.404   0.329   9.018  2.1591  0.2016 -1.5611
 4648SOL     OW25402   3.207   2.705   7.025 -0.6754 -0.1004  0.0782
 4648SOL    HW125403   3.279   2.733   7.081 -0.4310  1.5780 -1.0756
 4648SOL    HW225404   3.236   2.752   6.947 -0.1380  0.8239  0.8430
 4649SOL     OW25405   3.576   0.457  10.516  0.0233  0.4410  0.5113
 4649SOL    HW125406   3.586   0.496  10.603 -2.1429 -2.4330  2.0349
 4649SOL    HW225407   3.503   0.513  10.493 -0.5315  0.0483  1.3099
 4650SOL     OW25408   1.757   0.174   1.025  0.7778  0.4340  0.1690
 4650SOL    HW125409   1.821   0.113   0.989 -0.5268 -2.7137  3.1900
 4650SOL    HW225410   1.769   0.168   1.120 -3.1133 -1.6265  0.5642
 4651SOL     OW25411   0.335   0.656   9.086  0.2105  0.2353 -0.3294
 4651SOL    HW125412   0.352   0.562   9.079  0.4228  0.3504 -1.3482
 4651SOL    HW225413   0.240   0.650   9.096  0.2044 -0.8968 -1.1350
 4652SOL     OW25414   3.081   2.339  13.756 -0.6331 -0.2431 -0.1916
 4652SOL    HW125415   3.123   2.370  13.676  0.7622 -1.0617  0.2346
 4652SOL    HW225416   3.163   2.318  13.800 -0.4978  1.1049  0.1893
 4653SOL     OW25417   0.115   4.290  10.410 -0.0097  0.3741 -0.3169
 4653SOL    HW125418   0.141   4.342  10.486  0.9844 -1.8550  0.8672
 4653SOL    HW225419   0.163   4.324  10.334 -1.2641 -0.1506 -1.3526
 4654SOL     OW25420   4.386   0.689   7.156  0.6497  0.4198  0.0106
 4654SOL    HW125421   4.452   0.752   7.183  0.1578  1.0789 -0.3084
 4654SOL    HW225422   4.340   0.731   7.083  2.1628 -1.4290 -1.9926
 4655SOL     OW25423   2.950   3.157   7.708 -0.1790  0.1510  0.6437
 4655SOL    HW125424   2.932   3.246   7.741 -0.7258 -0.1474  1.1430
 4655SOL    HW225425   2.968   3.188   7.619  0.5289 -0.5141  0.5492
 4656SOL     OW25426   4.667   2.297   5.107 -0.0967 -0.3529  0.2400
 4656SOL    HW125427   4.613   2.325   5.180  0.3924 -2.8176  1.5515
 4656SOL    HW225428   4.606   2.287   5.034  1.0245 -3.8909 -0.2096
 4657SOL     OW25429   1.732   2.116  17.125 -0.4071  0.1023 -0.0329
 4657SOL    HW125430   1.683   2.190  17.159  0.8722  0.4927  0.9590
 4657SOL    HW225431   1.807   2.126  17.184 -0.3145  0.4499 -0.2088
 4658SOL     OW25432   1.819   1.233   9.498  0.5024 -0.3021  0.0744
 4658SOL    HW125433   1.819   1.138   9.513 -1.5053 -0.1109  1.1900
 4658SOL    HW225434   1.756   1.262   9.564  0.3807 -1.4811  0.4770
 4659SOL     OW25435   2.286   4.380  14.839 -0.0155  0.5820  0.4541
 4659SOL    HW125436   2.275   4.468  14.804 -0.2274  0.7348  0.9036
 4659SOL    HW225437   2.375   4.366  14.808  0.5744  0.6525  2.1454
 4660SOL     OW25438   4.041   0.126   3.370  0.3466  0.3809  0.2431
 4660SOL    HW125439   4.081   0.048   3.409  0.6111 -0.2427 -1.2785
 4660SOL    HW225440   3.950   0.101   3.389  0.3352 -1.0915 -1.7071
 4661SOL     OW25441   3.756   0.750   5.789 -0.2029  0.5227 -0.7482
 4661SOL    HW125442   3.799   0.758   5.874 -2.3189 -0.1502  0.3761
 4661SOL    HW225443   3.778   0.832   5.743 -0.8016  0.1811 -1.6542
 4662SOL     OW25444   1.852   3.953  11.783  0.0432  0.6354 -0.0146
 4662SOL    HW125445   1.868   4.037  11.827 -1.3952  2.1806 -2.4233
 4662SOL    HW225446   1.867   3.979  11.692 -0.2882  0.0012 -0.2490
 4663SOL     OW25447   3.364   1.414   5.766  0.2860 -0.1465 -0.2185
 4663SOL    HW125448   3.437   1.401   5.706  0.3467  1.4715 -0.5004
 4663SOL    HW225449   3.379   1.346   5.831 -1.1451  0.6205  0.9364
 4664SOL     OW25450   4.222   3.496   7.876 -0.1863 -0.1036  0.1769
 4664SOL    HW125451   4.188   3.524   7.961  1.5841  0.3493  0.7217
 4664SOL    HW225452   4.304   3.453   7.901  0.2870  0.2013 -0.8758
 4665SOL     OW25453   1.111   3.515  11.568  0.3691  0.5304  0.1724
 4665SOL    HW125454   1.027   3.546  11.533 -0.8829 -2.3340  0.6287
 4665SOL    HW225455   1.149   3.455  11.505  0.1724  0.5535  0.0337
 4666SOL     OW25456   2.896   1.415   2.347 -0.4130 -0.2523 -0.2071
 4666SOL    HW125457   2.941   1.332   2.330 -0.7434 -0.4660 -0.0300
 4666SOL    HW225458   2.944   1.440   2.425  1.5343 -0.0549 -1.4666
 4667SOL     OW25459   2.413   1.767   7.212 -0.4303  0.0580 -0.1851
 4667SOL    HW125460   2.404   1.856   7.179  0.9085  0.5755  0.8603
 4667SOL    HW225461   2.502   1.755   7.180 -0.8934 -1.6430 -0.8223
 4668SOL     OW25462   2.074   4.437   1.286 -0.4333  0.9365 -0.5610
 4668SOL    HW125463   2.015   4.361   1.290 -1.1230  1.3933 -2.1956
 4668SOL    HW225464   2.009   4.499   1.255 -0.0210  3.0859  2.8885
 4669SOL     OW25465   3.406   2.482   5.239  0.4474 -0.1363 -0.2773
 4669SOL    HW125466   3.478   2.446   5.187  0.6976 -0.2923  0.1674
 4669SOL    HW225467   3.415   2.575   5.217 -0.3100 -0.5602 -2.3533
 4670SOL     OW25468   2.608   3.636   7.017 -0.6694  0.1088 -0.3443
 4670SOL    HW125469   2.676   3.589   7.064 -0.2717  2.5981  1.6028
 4670SOL    HW225470   2.544   3.566   7.015  0.7715 -1.1675 -1.4792
 4671SOL     OW25471   0.445   2.145   4.827 -0.0462 -1.1953 -0.5193
 4671SOL    HW125472   0.497   2.086   4.883  1.2157  1.9511  1.6678
 4671SOL    HW225473   0.378   2.154   4.895 -0.5359  0.1188 -1.1938
 4672SOL     OW25474   0.250   1.234  14.908  0.2770  0.2628  0.4891
 4672SOL    HW125475   0.210   1.319  14.926 -1.6421 -0.5007 -0.1072
 4672SOL    HW225476   0.340   1.267  14.908  0.8123 -1.1716 -0.5682
 4673SOL     OW25477   4.266   1.217  10.483  0.1929  0.6952  0.0401
 4673SOL    HW125478   4.291   1.309  10.490  3.5868 -0.3162  1.1711
 4673SOL    HW225479   4.336   1.183  10.428 -0.1670 -3.6111  2.2031
 4674SOL     OW25480   0.086   4.018  10.098  0.7831 -0.0182  0.1967
 4674SOL    HW125481   0.033   4.081  10.050  0.1208 -1.5581 -1.1167
 4674SOL    HW225482   0.117   3.959  10.030  0.1971  1.2313 -1.1436
 4675SOL     OW25483   3.949   2.457   7.955  0.4052  0.3385  0.5212
 4675SOL    HW125484   3.857   2.432   7.962 -0.1129  2.5308  1.3160
 4675SOL    HW225485   3.977   2.476   8.044  1.1914 -0.9653  0.5542
 4676SOL     OW25486   3.326   0.095  14.261  0.3524 -0.1772 -0.1030
 4676SOL    HW125487   3.387   0.047  14.205  0.4853  0.4382 -0.4906
 4676SOL    HW225488   3.240   0.083  14.221  0.2894  0.6120 -0.2129
 4677SOL     OW25489   3.041   3.639   7.718  0.4668  0.2673  0.2210
 4677SOL    HW125490   3.058   3.726   7.755  3.8935 -0.1198 -0.4195
 4677SOL    HW225491   2.946   3.636   7.705  0.2849 -0.1811  1.6565
 4678SOL     OW25492   3.357   0.393  12.173  0.4184 -0.2250 -0.3489
 4678SOL    HW125493   3.313   0.476  12.153  0.6871  0.2150  0.9324
 4678SOL    HW225494   3.308   0.361  12.248 -1.7238  2.3921 -0.6453
 4679SOL     OW25495   1.096   1.658  11.498 -0.0186 -0.3642  0.1124
 4679SOL    HW125496   1.029   1.595  11.472 -0.3734 -0.1737  0.5665
 4679SOL    HW225497   1.089   1.714  11.421 -2.0221 -0.3181  0.3196
 4680SOL     OW25498   3.653   3.719  14.745  0.4745 -0.1038 -0.0922
 4680SOL    HW125499   3.559   3.724  14.763  0.5150 -3.4573  1.0707
 4680SOL    HW225500   3.646   3.769  14.664 -1.9128 -1.7593 -0.8952
 4681SOL     OW25501   2.799   1.370   6.271 -0.3294  0.0977 -0.0675
 4681SOL    HW125502   2.707   1.357   6.295 -0.8540  2.0469 -1.0263
 4681SOL    HW225503   2.835   1.406   6.352 -1.3462  0.1610  0.3612
 4682SOL     OW25504   2.932   1.356   8.873 -0.1629 -0.2354  0.3711
 4682SOL    HW125505   2.994   1.418   8.833  0.2483 -0.4773  0.6316
 4682SOL    HW225506   2.893   1.305   8.803 -0.1431 -1.2704  1.1178
 4683SOL     OW25507   0.913   1.366   3.777  1.0637  0.1577 -0.3093
 4683SOL    HW125508   0.943   1.402   3.861  0.8405 -0.0224 -0.1523
 4683SOL    HW225509   0.877   1.447   3.740 -0.7870 -1.2170 -1.4761
 4684SOL     OW25510   3.759   0.448  14.813 -0.4325  0.1957 -0.0847
 4684SOL    HW125511   3.802   0.364  14.831 -1.3101 -0.3250 -0.4492
 4684SOL    HW225512   3.789   0.475  14.726  0.2705 -1.1879 -0.2656
 4685SOL     OW25513   2.008   0.871  12.486  0.1058  0.1991 -0.2129
 4685SOL    HW125514   2.089   0.863  12.536  0.5055  0.9550 -0.7476
 4685SOL    HW225515   1.940   0.866  12.553 -0.8900  1.3683 -1.1393
 4686SOL     OW25516   1.522   2.995  14.662  0.4390  0.7850  0.2507
 4686SOL    HW125517   1.612   3.016  14.635  1.7069 -3.0979  1.4801
 4686SOL    HW225518   1.485   2.976  14.576  0.3515  1.0362  0.2342
 4687SOL     OW25519   1.295   0.845  16.216  0.4080  0.0719 -0.3963
 4687SOL    HW125520   1.372   0.844  16.160  1.0284  1.6283  0.4239
 4687SOL    HW225521   1.276   0.752  16.202  2.4947  0.3300 -4.9807
 4688SOL     OW25522   2.311   3.365  12.351 -0.5820  0.1862 -0.5349
 4688SOL    HW125523   2.262   3.309  12.411 -1.2213  0.4956 -0.7706
 4688SOL    HW225524   2.392   3.315  12.337 -0.6109  0.3361 -1.2450
 4689SOL     OW25525   2.051   3.809   7.692  0.0357  0.2847  0.0267
 4689SOL    HW125526   2.082   3.762   7.769  1.7916  0.9340 -0.2876
 4689SOL    HW225527   2.063   3.898   7.725 -0.5745  0.9354 -1.4834
 4690SOL     OW25528   4.640   4.446   3.982 -0.2362  0.3151 -0.3217
 4690SOL    HW125529   4.711   4.382   3.987 -1.7087 -1.3217  0.1043
 4690SOL    HW225530   4.663   4.512   3.917 -0.1109  0.1176 -0.4767
 4691SOL     OW25531   1.651   3.054  14.175 -0.3264 -0.3245  0.2436
 4691SOL    HW125532   1.588   3.119  14.145 -2.0703 -1.7073  0.8547
 4691SOL    HW225533   1.715   3.116  14.210 -0.7863 -0.7047  1.7777
 4692SOL     OW25534   0.714   0.858   3.440  0.2238 -0.2125  0.4430
 4692SOL    HW125535   0.685   0.825   3.355 -0.0242  1.0639  0.0276
 4692SOL    HW225536   0.677   0.947   3.439  4.8696  1.6907 -1.4727
 4693SOL     OW25537   0.637   1.235   6.098 -0.0915 -0.2450  0.2860
 4693SOL    HW125538   0.683   1.181   6.162 -0.1820 -1.5916 -0.7725
 4693SOL    HW225539   0.663   1.190   6.018 -0.4163  0.3627 -0.1603
 4694SOL     OW25540   3.067   1.500   3.274  0.0533 -0.0471 -0.2482
 4694SOL    HW125541   3.040   1.529   3.362  2.5354  0.4293  0.3588
 4694SOL    HW225542   3.066   1.584   3.228 -4.4743 -0.0762 -0.1557
 4695SOL     OW25543   4.622   0.218   5.453 -0.2606 -0.5172 -0.2622
 4695SOL    HW125544   4.552   0.250   5.511  0.8376  0.3644  0.5815
 4695SOL    HW225545   4.572   0.144   5.418 -0.3060 -0.1054 -1.0523
 4696SOL     OW25546   3.076   3.207   1.465 -0.5227  0.3779 -0.2629
 4696SOL    HW125547   3.087   3.174   1.554  0.1314  1.2160 -0.0374
 4696SOL    HW225548   3.079   3.303   1.473  0.4949  0.3746 -0.6309
 4697SOL     OW25549   0.279   0.248   0.864  0.1498  0.1288 -0.1954
 4697SOL    HW125550   0.251   0.311   0.798 -0.4033  1.6673  1.4778
 4697SOL    HW225551   0.205   0.250   0.925 -0.7785  0.5874 -1.3451
 4698SOL     OW25552   1.912   4.388   6.264 -0.0857 -0.1052 -0.1906
 4698SOL    HW125553   1.905   4.367   6.171  0.2335  1.4454 -0.5646
 4698SOL    HW225554   1.835   4.444   6.264  0.6795  0.9487 -2.8908
 4699SOL     OW25555   4.367   2.786   7.356 -0.3106  0.1033 -0.2669
 4699SOL    HW125556   4.352   2.762   7.447  1.3322  1.7826  0.4424
 4699SOL    HW225557   4.274   2.789   7.334 -0.7259 -0.9103  1.3963
 4700SOL     OW25558   1.476   3.289   2.930 -0.8631  0.1081  0.1097
 4700SOL    HW125559   1.548   3.331   2.977 -1.9018 -0.1298  1.8972
 4700SOL    HW225560   1.515   3.202   2.918 -0.5609  0.1688  0.6534
 4701SOL     OW25561   4.040   0.115   0.933  0.1731  0.0071  0.4376
 4701SOL    HW125562   3.953   0.091   0.966 -0.9806  1.8399 -1.2612
 4701SOL    HW225563   4.057   0.178   1.004  0.1816  1.4452 -0.8443
 4702SOL     OW25564   2.298   3.832   6.242 -0.2452 -0.6289 -0.0834
 4702SOL    HW125565   2.206   3.817   6.223 -0.7523  0.5830  1.3901
 4702SOL    HW225566   2.303   3.919   6.281 -0.6265 -1.6449  2.2681
 4703SOL     OW25567   3.563   2.082   5.606 -0.6938  0.0255 -0.0635
 4703SOL    HW125568   3.498   2.131   5.655 -1.2281  1.3909 -2.1112
 4703SOL    HW225569   3.514   2.053   5.529  1.8878 -1.3014 -1.2263
 4704SOL     OW25570   1.212   0.040  17.565 -0.0440  0.4048  0.3856
 4704SOL    HW125571   1.237   0.131  17.556 -0.7221  0.4562 -0.8723
 4704SOL    HW225572   1.297   0.004  17.538 -1.3123 -0.8232 -1.9292
 4705SOL     OW25573   1.155   0.684  12.847  0.3896  0.6821  0.4251
 4705SOL    HW125574   1.204   0.699  12.766 -1.3583 -0.0237 -0.7654
 4705SOL    HW225575   1.190   0.600  12.875 -2.4929 -0.6112  0.1257
 4706SOL     OW25576   1.428   0.173   4.344  0.0528  0.1213  0.4178
 4706SOL    HW125577   1.523   0.167   4.354 -0.0387  1.7078  2.3143
 4706SOL    HW225578   1.428   0.150   4.251 -0.4173 -0.4734  0.5699
 4707SOL     OW25579   1.088   1.900   1.635 -0.5761  0.0816  0.2976
 4707SOL    HW125580   1.148   1.848   1.688 -1.2655  1.0734  2.0515
 4707SOL    HW225581   1.039   1.931   1.711 -1.6507  1.1814 -0.8429
 4708SOL     OW25582   0.981   2.960  16.573 -0.1469 -0.5051 -0.6341
 4708SOL    HW125583   0.934   2.897  16.518 -3.0013  3.0049 -2.2197
 4708SOL    HW225584   0.903   3.000  16.612 -0.4594 -0.3630 -1.4157
 4709SOL     OW25585   2.273   1.214   9.550  0.0045  0.3329  0.3779
 4709SOL    HW125586   2.268   1.143   9.614 -1.1789 -0.0597 -0.1585
 4709SOL    HW225587   2.340   1.175   9.494 -0.0151 -2.0972  2.0273
 4710SOL     OW25588   1.941   0.911  11.127  0.2545  0.1838  0.0472
 4710SOL    HW125589   2.035   0.906  11.140  0.3061 -2.2255 -1.2841
 4710SOL    HW225590   1.925   0.961  11.207 -3.3180  1.0784 -1.2033
 4711SOL     OW25591   1.533   0.446  17.158 -0.0589  0.2375 -0.3799
 4711SOL    HW125592   1.478   0.502  17.103  0.3983  0.5025 -0.5686
 4711SOL    HW225593   1.467   0.383  17.187 -0.8321  0.0253 -2.6639
 4712SOL     OW25594   4.539   2.286  10.163 -0.0358 -0.0583  0.2262
 4712SOL    HW125595   4.597   2.240  10.103  0.5230 -1.1426  1.5848
 4712SOL    HW225596   4.576   2.264  10.249 -0.4870  1.4970  0.8212
 4713SOL     OW25597   4.290   2.639  14.276 -0.2065  0.1841 -0.4397
 4713SOL    HW125598   4.328   2.640  14.365 -2.4152  2.4853  0.4489
 4713SOL    HW225599   4.361   2.600  14.224  1.8830 -1.5394  3.6125
 4714SOL     OW25600   0.154   4.574   2.356 -0.3783  0.3489  0.0143
 4714SOL    HW125601   0.208   4.527   2.420 -2.6433 -1.5599  0.5272
 4714SOL    HW225602   0.143   4.662   2.392 -2.0929  0.6372 -1.2302
 4715SOL     OW25603   2.678   0.434  16.612  0.4272  0.1518 -0.7786
 4715SOL    HW125604   2.771   0.415  16.623  0.3119 -0.7482 -1.3325
 4715SOL    HW225605   2.666   0.361  16.551  1.7792  0.0752 -0.9535
 4716SOL     OW25606   3.491   1.134   5.659  0.3396  0.1278  0.0151
 4716SOL    HW125607   3.459   1.147   5.748  2.1888 -0.8383  0.8082
 4716SOL    HW225608   3.578   1.172   5.670  1.3616 -2.6419  1.4147
 4717SOL     OW25609   3.389   1.469   8.912 -0.2656  0.2351 -0.2367
 4717SOL    HW125610   3.367   1.376   8.903  0.8982  0.1110 -1.8713
 4717SOL    HW225611   3.410   1.477   9.005  1.6118 -2.3413 -0.4259
 4718SOL     OW25612   1.371   2.855   5.799 -0.9102  0.0239 -0.5214
 4718SOL    HW125613   1.299   2.857   5.735 -0.5920 -2.8753 -0.9840
 4718SOL    HW225614   1.415   2.774   5.773  0.5070  0.6169  0.0749
 4719SOL     OW25615   2.579   2.769   0.381  0.0086  0.7208  0.5135
 4719SOL    HW125616   2.567   2.732   0.293  0.6456 -0.3469  0.8752
 4719SOL    HW225617   2.650   2.716   0.417 -0.7093 -0.5049  0.1376
 4720SOL     OW25618   1.295   1.566   1.364  0.3356 -0.5668 -0.1085
 4720SOL    HW125619   1.369   1.589   1.421 -0.9042 -0.1890  1.3209
 4720SOL    HW225620   1.236   1.548   1.437  0.9967 -0.3267  0.4836
 4721SOL     OW25621   0.431   1.210  14.670 -0.3813  0.3389 -0.4492
 4721SOL    HW125622   0.472   1.269  14.734 -1.9084  2.0767 -1.0934
 4721SOL    HW225623   0.453   1.128  14.715 -0.7377 -0.6016 -2.0030
 4722SOL     OW25624   3.855   0.412  10.821  0.4482 -0.0269 -0.0641
 4722SOL    HW125625   3.915   0.484  10.801  3.7348 -2.6042  0.3395
 4722SOL    HW225626   3.886   0.376  10.905  0.0973 -2.6072 -1.0305
 4723SOL     OW25627   3.818   0.645   7.743 -0.1751 -0.5953  0.1923
 4723SOL    HW125628   3.771   0.727   7.730 -0.9798 -0.9413  0.8422
 4723SOL    HW225629   3.832   0.604   7.658 -0.0896 -3.4400  1.5812
 4724SOL     OW25630   1.477   4.052   4.413 -0.0254  0.4054 -0.4145
 4724SOL    HW125631   1.543   3.991   4.380 -0.2555  0.5081 -1.0686
 4724SOL    HW225632   1.496   4.050   4.507 -0.0067  0.0334 -0.4268
 4725SOL     OW25633   0.791   3.202  11.601 -0.4860 -0.7701 -0.0882
 4725SOL    HW125634   0.767   3.293  11.588 -0.8198 -0.6540  1.3083
 4725SOL    HW225635   0.774   3.160  11.517  2.3478 -0.5346 -0.7655
 4726SOL     OW25636   1.044   2.552   1.901  0.1400  0.1895 -0.8216
 4726SOL    HW125637   1.071   2.482   1.961  1.4476  1.7727  0.4274
 4726SOL    HW225638   0.986   2.504   1.841 -0.4760  0.0063 -0.0832
 4727SOL     OW25639   4.067   3.429   3.247 -0.2884  0.4378 -0.8802
 4727SOL    HW125640   4.147   3.453   3.202 -0.1317  1.4069 -0.0834
 4727SOL    HW225641   4.066   3.333   3.242  1.8090  0.2854  1.4316
 4728SOL     OW25642   4.522   0.298   7.255  0.2809 -0.0460 -0.4034
 4728SOL    HW125643   4.469   0.269   7.181  0.3807  1.0455 -0.9037
 4728SOL    HW225644   4.608   0.259   7.237  0.2574 -1.0711  1.6653
 4729SOL     OW25645   0.207   3.686   3.098  0.4463  0.0092  0.0862
 4729SOL    HW125646   0.300   3.698   3.078  0.5552 -1.2326 -0.1395
 4729SOL    HW225647   0.195   3.761   3.157  0.5687  0.1469 -0.0615
 4730SOL     OW25648   3.905   4.134   8.807 -0.5570  0.0087  0.0570
 4730SOL    HW125649   3.937   4.180   8.729 -2.2192 -0.1921 -0.7464
 4730SOL    HW225650   3.856   4.201   8.854 -0.0797 -0.2503  0.9333
 4731SOL     OW25651   4.174   2.219   9.112 -0.0513  0.3349  0.3663
 4731SOL    HW125652   4.228   2.158   9.164  2.0003  1.0885 -0.9146
 4731SOL    HW225653   4.143   2.289   9.169 -0.5521  0.5240 -0.1489
 4732SOL     OW25654   4.146   1.195   4.137  0.1861 -0.0502 -0.6670
 4732SOL    HW125655   4.066   1.224   4.180 -0.5895 -1.8811 -0.8782
 4732SOL    HW225656   4.175   1.128   4.198 -1.2151  0.3134  0.3762
 4733SOL     OW25657   1.668   3.064  12.328 -0.0211  0.1390  0.1135
 4733SOL    HW125658   1.729   3.130  12.293  1.1719 -2.0263 -1.9143
 4733SOL    HW225659   1.647   3.105  12.412  0.8340 -2.8868  1.8036
 4734SOL     OW25660   4.152   2.781   6.863 -0.4131  0.4081  0.6998
 4734SOL    HW125661   4.068   2.823   6.880 -1.3864 -1.3298  0.2126
 4734SOL    HW225662   4.127   2.728   6.787  1.9863 -0.3809  0.4519
 4735SOL     OW25663   4.618   4.525   1.001 -0.0951  0.5450  0.0181
 4735SOL    HW125664   4.702   4.544   1.044 -0.0199  0.7461 -0.2108
 4735SOL    HW225665   4.598   4.600   0.945  0.8277 -0.2824 -1.4552
 4736SOL     OW25666   0.801   3.769   2.069 -0.2599  0.6587 -0.1101
 4736SOL    HW125667   0.801   3.684   2.114 -1.1437  0.6989 -0.0206
 4736SOL    HW225668   0.730   3.822   2.106  1.4655  1.6832  1.7665
 4737SOL     OW25669   2.995   2.470   3.711 -0.5077 -0.1096 -0.2684
 4737SOL    HW125670   2.920   2.514   3.750 -0.2115  0.5277 -0.4174
 4737SOL    HW225671   2.976   2.485   3.619  0.1467 -0.8183 -0.5180
 4738SOL     OW25672   1.596   3.068  16.582 -0.2469  0.1043 -0.4568
 4738SOL    HW125673   1.610   2.985  16.626 -0.4756 -1.0098 -2.4866
 4738SOL    HW225674   1.545   3.112  16.650  1.2547  3.4878 -1.5145
 4739SOL     OW25675   0.433   2.534  17.493 -0.1885 -0.2734 -0.5539
 4739SOL    HW125676   0.355   2.485  17.518  0.3753 -1.3069 -0.8055
 4739SOL    HW225677   0.450   2.570  17.580  1.0617  0.9245 -1.2869
 4740SOL     OW25678   2.039   3.191   9.919 -0.4722 -0.1013 -0.3474
 4740SOL    HW125679   2.079   3.206  10.004  0.7262  0.4273 -1.0070
 4740SOL    HW225680   2.066   3.101   9.902  0.8307  0.2740 -0.1984
 4741SOL     OW25681   4.336   2.808  15.037  0.1000 -0.0607 -0.2233
 4741SOL    HW125682   4.297   2.722  15.053  0.8538  0.0036  2.1038
 4741SOL    HW225683   4.275   2.844  14.973  0.1499 -0.6070 -0.5751
 4742SOL     OW25684   3.934   3.853   3.660 -0.4337 -0.0644  0.1404
 4742SOL    HW125685   3.976   3.919   3.605  0.4221 -1.0767 -0.4396
 4742SOL    HW225686   3.998   3.781   3.658  1.7292  1.8843 -0.6475
 4743SOL     OW25687   0.642   0.896   2.330  0.3225  0.4733  0.3656
 4743SOL    HW125688   0.714   0.925   2.273  1.2718  0.5301  1.5931
 4743SOL    HW225689   0.564   0.908   2.276  1.2436  0.2678 -1.0098
 4744SOL     OW25690   3.089   0.320   5.638 -0.1843  0.1004 -0.0529
 4744SOL    HW125691   3.161   0.279   5.590  1.2038  0.2531  1.9076
 4744SOL    HW225692   3.033   0.352   5.567  2.3505 -0.0735 -2.1447
 4745SOL     OW25693   2.749   3.561  17.402  0.1053  0.1138 -0.0222
 4745SOL    HW125694   2.686   3.631  17.383 -1.2246 -1.4533 -1.3424
 4745SOL    HW225695   2.702   3.485  17.368  0.9103  0.2597 -1.4414
 4746SOL     OW25696   0.827   2.061   7.160 -0.3323  0.9255  0.2806
 4746SOL    HW125697   0.908   2.032   7.200 -1.0547  1.5463  2.1868
 4746SOL    HW225698   0.859   2.069   7.070 -1.8978 -2.4739 -0.5687
 4747SOL     OW25699   1.504   2.183   4.197  0.0300  0.7197 -0.2205
 4747SOL    HW125700   1.484   2.217   4.284  0.4012 -1.0575  0.5626
 4747SOL    HW225701   1.447   2.229   4.134 -0.1605  0.9107  0.0925
 4748SOL     OW25702   1.345   1.271   1.084  0.4438 -0.3292 -0.2646
 4748SOL    HW125703   1.305   1.240   1.165  2.4381  1.4756  1.4223
 4748SOL    HW225704   1.407   1.333   1.123 -1.1412  2.5956 -2.4221
 4749SOL     OW25705   2.437   3.794   7.296 -0.5841 -0.8773  0.0531
 4749SOL    HW125706   2.387   3.834   7.225 -1.5276 -1.8513  0.1614
 4749SOL    HW225707   2.368   3.781   7.361 -0.0325  0.5450  0.9376
 4750SOL     OW25708   0.574   1.557   7.779  0.0482  0.1956  0.0065
 4750SOL    HW125709   0.557   1.561   7.685  1.0755 -1.3052 -0.2459
 4750SOL    HW225710   0.503   1.502   7.812  2.7211 -2.0451  2.0876
 4751SOL     OW25711   4.261   2.367   8.562 -0.1927  0.1086 -0.2977
 4751SOL    HW125712   4.290   2.452   8.530  0.3585 -1.9203 -5.1564
 4751SOL    HW225713   4.342   2.319   8.545 -0.4486 -1.4680  2.8470
 4752SOL     OW25714   3.575   1.387   6.542 -0.0712  0.2104  0.3420
 4752SOL    HW125715   3.521   1.352   6.471  0.1326 -0.3525  0.4578
 4752SOL    HW225716   3.538   1.475   6.543 -0.4697  0.0952 -2.1299
 4753SOL     OW25717   4.661   4.505   7.306  0.5814  0.5303 -0.3748
 4753SOL    HW125718   4.590   4.556   7.266  0.3418 -0.5483 -1.3144
 4753SOL    HW225719   4.618   4.437   7.357  1.0609 -1.6013 -2.8137
 4754SOL     OW25720   2.400   1.983   4.121 -0.0412  0.3025  0.3468
 4754SOL    HW125721   2.494   1.975   4.139  0.2097  1.6300 -0.4169
 4754SOL    HW225722   2.400   1.997   4.026 -2.1773  3.1509  0.7699
 4755SOL     OW25723   3.564   4.091  16.826 -0.4802  0.1685 -0.2442
 4755SOL    HW125724   3.621   4.144  16.771  1.2912 -1.7356 -0.2501
 4755SOL    HW225725   3.579   4.137  16.908 -2.0740 -0.6728  0.5049
 4756SOL     OW25726   4.123   1.036   5.649  0.4809 -0.7291 -0.1633
 4756SOL    HW125727   4.084   1.110   5.603 -0.1676 -1.4794 -0.8172
 4756SOL    HW225728   4.206   1.029   5.602 -0.5748 -0.7890 -1.9922
 4757SOL     OW25729   0.078   3.538   7.563  0.1254  0.4565  0.3119
 4757SOL    HW125730   0.113   3.623   7.589 -1.9750  1.3871  0.1145
 4757SOL    HW225731   0.150   3.480   7.587  0.0846  1.8758  3.9069
 4758SOL     OW25732   1.135   3.540  16.726  0.0222 -0.7480 -0.0905
 4758SOL    HW125733   1.065   3.591  16.768  1.4040  1.9616 -1.0507
 4758SOL    HW225734   1.095   3.473  16.670 -0.2204 -1.4647  0.9490
 4759SOL     OW25735   0.004   0.734  14.270  0.0869 -0.3319  0.1876
 4759SOL    HW125736   4.632   0.713  14.259 -0.2315 -1.5393  4.9596
 4759SOL    HW225737   0.018   0.815  14.220  3.2536 -1.2654 -0.3960
 4760SOL     OW25738   1.292   3.168  10.903  0.1298  0.3766 -0.0981
 4760SOL    HW125739   1.209   3.171  10.950  0.4386 -0.4373  0.4949
 4760SOL    HW225740   1.286   3.109  10.828 -0.6170  1.7604 -1.1315
 4761SOL     OW25741   0.467   1.782   8.220 -0.4656  0.2967  0.4538
 4761SOL    HW125742   0.479   1.745   8.133  2.0444 -3.0409  2.1903
 4761SOL    HW225743   0.554   1.782   8.260  0.4716 -1.8616 -1.6115
 4762SOL     OW25744   1.100   1.149   8.201 -0.3063 -0.0547  0.1969
 4762SOL    HW125745   1.122   1.097   8.123  0.8662 -0.8969  1.0827
 4762SOL    HW225746   1.013   1.185   8.184  0.7526  1.4572 -2.1054
 4763SOL     OW25747   4.287   3.809  12.446  0.0145 -0.3365 -0.0413
 4763SOL    HW125748   4.216   3.758  12.486 -1.4962  1.4237 -0.4931
 4763SOL    HW225749   4.249   3.833  12.361 -1.7446 -1.7708  0.3449
 4764SOL     OW25750   0.209   4.341   6.981 -0.6566 -0.1216  0.1156
 4764SOL    HW125751   0.115   4.330   6.989 -0.4879 -2.2912 -0.8186
 4764SOL    HW225752   0.232   4.251   7.002  1.6723  0.7170  1.2038
 4765SOL     OW25753   4.383   4.262   0.764 -0.2333 -0.0406  0.1990
 4765SOL    HW125754   4.332   4.338   0.790  0.3430 -0.9999  4.1098
 4765SOL    HW225755   4.422   4.239   0.849  0.2021  0.1613  0.0523
 4766SOL     OW25756   2.031   3.582  15.389  0.7019  0.3286 -0.4020
 4766SOL    HW125757   2.058   3.508  15.335 -1.4726  0.2793 -1.3952
 4766SOL    HW225758   2.079   3.575  15.472 -0.5429  5.3008  0.7673
 4767SOL     OW25759   1.493   0.518   2.362 -0.6267  0.0865  0.2262
 4767SOL    HW125760   1.562   0.556   2.417 -3.0344  1.5838  2.2732
 4767SOL    HW225761   1.430   0.490   2.430 -0.5633  1.4464  0.8472
 4768SOL     OW25762   1.273   1.898   0.379 -0.0981 -0.0107 -0.5580
 4768SOL    HW125763   1.317   1.844   0.445 -2.5193  0.2091  1.2331
 4768SOL    HW225764   1.205   1.835   0.357 -0.0458 -0.1124 -0.4332
 4769SOL     OW25765   4.491   0.091   6.753  0.4908  0.5824 -0.1071
 4769SOL    HW125766   4.578   0.092   6.713 -0.2617  0.1368 -1.7502
 4769SOL    HW225767   4.527   0.078   6.841  2.8323 -1.3286 -1.3568
 4770SOL     OW25768   4.277   4.680   0.989  0.0667 -0.9764  0.0113
 4770SOL    HW125769   4.205   0.022   0.978  1.4678  0.8098  0.9873
 4770SOL    HW225770   4.251   4.617   1.056  2.4123 -2.1581 -0.1663
 4771SOL     OW25771   0.361   3.568   1.981 -0.3879 -0.4723  0.0685
 4771SOL    HW125772   0.407   3.501   2.032 -0.4480 -0.4764  0.1173
 4771SOL    HW225773   0.341   3.520   1.901 -1.0773  2.4442 -1.4938
 4772SOL     OW25774   4.334   2.504   5.646  0.4272 -0.2002  0.5248
 4772SOL    HW125775   4.369   2.501   5.556 -0.4893 -3.2900  0.2649
 4772SOL    HW225776   4.298   2.591   5.631  1.0649  0.2445  1.5741
 4773SOL     OW25777   4.681   3.193  16.449 -0.2780  0.0248  0.1855
 4773SOL    HW125778   4.696   3.206  16.355 -0.1577  1.4481  0.4034
 4773SOL    HW225779   4.684   3.286  16.470  0.5325  0.2071 -0.7446
 4774SOL     OW25780   1.225   1.061   5.027  0.4724 -0.4777  0.3138
 4774SOL    HW125781   1.166   0.997   4.986 -0.5064  0.5696  0.0878
 4774SOL    HW225782   1.273   1.090   4.949 -1.5364  0.1369 -0.7020
 4775SOL     OW25783   4.288   4.181  10.015  0.1654 -0.4187 -0.3557
 4775SOL    HW125784   4.249   4.145   9.936 -0.1109  0.6988 -0.7305
 4775SOL    HW225785   4.249   4.268  10.026 -0.0779 -0.7503  1.3721
 4776SOL     OW25786   2.045   3.872  13.078 -0.2162  0.2039 -0.0346
 4776SOL    HW125787   2.112   3.815  13.115 -1.3652 -0.1518  1.5123
 4776SOL    HW225788   2.062   3.943  13.139  0.6542 -1.4607  1.6635
 4777SOL     OW25789   0.534   2.537   7.797  0.2836 -0.3604  0.2586
 4777SOL    HW125790   0.485   2.517   7.717  0.7191 -2.1922  0.4560
 4777SOL    HW225791   0.610   2.480   7.791 -0.4890 -1.5812  2.2588
 4778SOL     OW25792   1.768   2.959   2.668  0.0383 -0.2536 -0.0063
 4778SOL    HW125793   1.778   3.001   2.583 -0.5680 -0.3137 -0.1044
 4778SOL    HW225794   1.858   2.950   2.699 -0.4982 -2.5691  0.8926
 4779SOL     OW25795   4.047   0.929  10.843  0.2466  0.6121  0.5950
 4779SOL    HW125796   4.081   0.917  10.932 -0.4798  1.5674  0.9944
 4779SOL    HW225797   4.123   0.980  10.813  0.0019  0.6687  0.0644
 4780SOL     OW25798   3.191   2.741   2.140  0.1909 -0.8118 -0.0675
 4780SOL    HW125799   3.127   2.768   2.074  1.0136  1.5150  0.0583
 4780SOL    HW225800   3.179   2.647   2.143 -0.7200 -0.6780  0.5842
 4781SOL     OW25801   1.036   1.345   8.571 -0.0927 -0.1467  0.4047
 4781SOL    HW125802   1.118   1.315   8.532 -0.0024 -0.2386  0.6663
 4781SOL    HW225803   0.998   1.259   8.591 -1.7042  0.4393 -0.1278
 4782SOL     OW25804   4.021   4.697   0.699 -0.1042 -0.7516 -0.1785
 4782SOL    HW125805   4.024   0.027   0.780  0.1225  0.9211 -1.2450
 4782SOL    HW225806   3.933   4.714   0.665  0.9530  4.2583 -0.3854
 4783SOL     OW25807   2.300   1.713   9.537  0.0285  0.1366  0.1349
 4783SOL    HW125808   2.300   1.803   9.504 -1.1914  0.0184 -0.2135
 4783SOL    HW225809   2.293   1.722   9.632  3.9875  2.3307  0.2120
 4784SOL     OW25810   3.682   2.964  12.015  0.7459  0.2439 -0.2422
 4784SOL    HW125811   3.712   2.904  12.083 -1.6355 -0.9910 -0.2733
 4784SOL    HW225812   3.603   3.006  12.047  1.3792  0.6066  0.8272
 4785SOL     OW25813   4.645   3.601   5.372  0.0753  0.3401  0.1690
 4785SOL    HW125814   4.668   3.677   5.424  1.5481 -0.4516  0.6769
 4785SOL    HW225815   0.003   3.546   5.382 -0.6039 -0.3009  1.9872
 4786SOL     OW25816   4.014   0.761   7.919  0.2244 -0.0837  0.6176
 4786SOL    HW125817   3.939   0.759   7.860  0.4542  1.8793  0.2557
 4786SOL    HW225818   4.013   0.852   7.948 -0.7451  0.0854  0.0346
 4787SOL     OW25819   1.332   0.042   7.693 -0.3672  0.0400  0.5979
 4787SOL    HW125820   1.339   4.694   7.627  2.6375  2.1327 -1.2478
 4787SOL    HW225821   1.363   4.704   7.762 -0.9622 -0.3659  0.5224
 4788SOL     OW25822   0.173   3.322   8.859 -0.2388 -1.1466  0.0822
 4788SOL    HW125823   0.127   3.271   8.925 -1.3439 -0.2556  0.0146
 4788SOL    HW225824   0.120   3.401   8.872 -1.4788 -1.7509 -1.3198
 4789SOL     OW25825   1.201   1.126   1.268  0.5912 -0.2948  0.2539
 4789SOL    HW125826   1.121   1.162   1.229  1.1320  0.8496  0.2005
 4789SOL    HW225827   1.162   1.049   1.309 -1.2364  0.5311  0.0930
 4790SOL     OW25828   2.739   1.520  17.271  0.6359  0.5738 -0.3569
 4790SOL    HW125829   2.742   1.477  17.357  1.1945 -0.2456 -0.7915
 4790SOL    HW225830   2.828   1.515  17.238  0.7519 -1.8628  0.3756
 4791SOL     OW25831   4.406   2.460  13.485 -0.1014  0.0779 -0.1463
 4791SOL    HW125832   4.452   2.443  13.402  1.5900  2.7992  0.2018
 4791SOL    HW225833   4.337   2.522  13.462 -0.2492 -0.1560 -0.3259
 4792SOL     OW25834   4.712   4.279   4.421 -0.6159 -0.9330 -0.4221
 4792SOL    HW125835   4.673   4.350   4.370  0.7307  0.3259  0.3433
 4792SOL    HW225836   4.686   4.297   4.511 -1.7111  2.4952 -1.4408
 4793SOL     OW25837   1.600   2.069  10.101  1.2327  0.0685  0.2837
 4793SOL    HW125838   1.692   2.086  10.078  0.8234  0.6947 -0.8824
 4793SOL    HW225839   1.569   2.160  10.094  1.1117 -0.0685 -0.9859
 4794SOL     OW25840   1.934   0.135   1.531 -0.6843  0.1208  0.1174
 4794SOL    HW125841   1.971   0.048   1.546 -0.4706  0.0709 -0.6963
 4794SOL    HW225842   1.886   0.152   1.612  0.7391 -1.8134  1.3749
 4795SOL     OW25843   2.309   2.035  12.904  0.3756 -0.0645  0.9842
 4795SOL    HW125844   2.246   1.964  12.891 -0.9408  0.9575  1.8267
 4795SOL    HW225845   2.261   2.108  12.943  0.6452  0.6248  0.0070
 4796SOL     OW25846   4.670   4.674   0.223  0.0987 -0.1439 -0.4035
 4796SOL    HW125847   4.719   0.009   0.163  0.4537  1.4159  1.3555
 4796SOL    HW225848   4.599   0.012   0.249  0.5757  1.1984 -2.1543
 4797SOL     OW25849   3.195   4.672   7.360 -0.4700  0.0644 -0.1191
 4797SOL    HW125850   3.159   4.715   7.437 -0.6311 -0.8561  0.3225
 4797SOL    HW225851   3.263   4.620   7.403 -0.0368 -0.0052 -0.8882
 4798SOL     OW25852   2.648   1.015   7.164 -0.5774  0.0134  0.5408
 4798SOL    HW125853   2.700   1.084   7.123 -1.0197 -0.5826 -1.0257
 4798SOL    HW225854   2.700   0.997   7.242 -0.5233 -1.1065  0.2438
 4799SOL     OW25855   2.702   3.787   3.917 -0.4687 -0.4327 -0.1390
 4799SOL    HW125856   2.789   3.759   3.944  0.1009  1.3302 -0.1399
 4799SOL    HW225857   2.681   3.824   4.003  0.5752 -1.1880  0.4357
 4800SOL     OW25858   2.310   4.258   0.803  0.4967  0.1958 -0.2725
 4800SOL    HW125859   2.315   4.343   0.846 -4.4023  1.5509 -2.3351
 4800SOL    HW225860   2.342   4.196   0.868 -4.0057 -0.3634  1.4280
 4801SOL     OW25861   2.461   2.914   5.607  0.2411  0.0873 -0.1574
 4801SOL    HW125862   2.517   2.845   5.643 -0.6293 -1.1858 -1.2543
 4801SOL    HW225863   2.446   2.886   5.517  0.6286  1.2942 -0.6045
 4802SOL     OW25864   2.410   1.313  10.177  0.2511 -0.0370 -0.0170
 4802SOL    HW125865   2.366   1.237  10.215  2.6402 -0.9317  0.9129
 4802SOL    HW225866   2.336   1.357  10.134  0.2027  0.9061  1.0188
 4803SOL     OW25867   3.609   3.866   8.519 -0.3921 -0.6644  0.4430
 4803SOL    HW125868   3.675   3.927   8.485 -1.6741  0.5904  0.1781
 4803SOL    HW225869   3.650   3.780   8.513 -0.6754 -0.8398  1.0595
 4804SOL     OW25870   0.121   1.788  14.933 -0.3501  0.0509 -0.0195
 4804SOL    HW125871   0.051   1.770  14.996  0.8474  1.1250  1.6195
 4804SOL    HW225872   0.190   1.828  14.985 -0.3495  1.6490 -1.2623
 4805SOL     OW25873   4.212   1.732   6.125  0.4447 -0.1088  0.4536
 4805SOL    HW125874   4.263   1.767   6.051  0.4224 -0.1816  0.4033
 4805SOL    HW225875   4.225   1.792   6.198 -1.3521  1.3313 -0.4157
 4806SOL     OW25876   3.520   3.326   6.781 -0.0131  0.2392  0.1265
 4806SOL    HW125877   3.507   3.332   6.876 -0.5601 -0.3124  0.0926
 4806SOL    HW225878   3.429   3.315   6.750 -0.9967  0.8168  2.8094
 4807SOL     OW25879   0.334   0.942   3.266 -0.4238 -0.1786 -0.0875
 4807SOL    HW125880   0.366   0.976   3.350  1.6139  2.2146 -1.8422
 4807SOL    HW225881   0.300   0.856   3.291 -1.3418  0.1677 -0.1508
 4808SOL     OW25882   1.158   1.603   6.237  0.6190 -0.6142  0.1150
 4808SOL    HW125883   1.188   1.512   6.240 -0.6057 -1.1029 -2.4982
 4808SOL    HW225884   1.085   1.594   6.176 -0.1664 -4.1595  1.5412
 4809SOL     OW25885   2.756   4.576   5.639  0.2086  0.0691 -0.8193
 4809SOL    HW125886   2.763   4.600   5.547 -1.7766  0.1352 -0.9507
 4809SOL    HW225887   2.809   4.647   5.675 -1.8076  1.0711  0.1505
 4810SOL     OW25888   3.977   0.884   4.468  0.1996  0.1046 -0.2737
 4810SOL    HW125889   4.047   0.925   4.417  0.5411  0.4126  0.4333
 4810SOL    HW225890   3.902   0.931   4.430  1.7631  2.7832 -0.0543
 4811SOL     OW25891   1.041   1.307  10.608 -0.0999  0.6409  0.2618
 4811SOL    HW125892   1.071   1.376  10.548 -1.1244 -0.0187 -1.0059
 4811SOL    HW225893   0.971   1.359  10.647 -0.6346  0.5521 -0.5805
 4812SOL     OW25894   1.020   0.020   7.859  0.4870 -0.3056 -0.4190
 4812SOL    HW125895   1.004   0.113   7.869  0.8161 -0.3011  0.0405
 4812SOL    HW225896   1.058   0.009   7.946  0.5268 -0.1285 -0.4161
 4813SOL     OW25897   0.306   3.529  13.936  0.1860 -0.8257  0.7098
 4813SOL    HW125898   0.259   3.611  13.948  1.2303 -0.5047  2.6344
 4813SOL    HW225899   0.345   3.562  13.855 -1.9249  0.4351  0.1802
 4814SOL     OW25900   0.611   2.702  12.032  0.1470  0.1991 -0.4076
 4814SOL    HW125901   0.678   2.677  12.096  0.4225 -0.1928 -0.8569
 4814SOL    HW225902   0.620   2.642  11.958  0.1153 -1.3364  0.8452
 4815SOL     OW25903   1.482   2.577   5.844  0.7027  0.3661 -0.0204
 4815SOL    HW125904   1.503   2.535   5.761  1.2589  0.4684  0.0665
 4815SOL    HW225905   1.475   2.511   5.912 -0.3367 -0.4141 -0.8953
 4816SOL     OW25906   0.315   1.448   2.799 -0.0207 -0.3020  0.6423
 4816SOL    HW125907   0.239   1.395   2.823 -0.2237  0.4964  1.7556
 4816SOL    HW225908   0.352   1.400   2.725  0.1343  2.2457 -0.9549
 4817SOL     OW25909   3.495   4.326   7.389  0.2220 -0.1851  0.0606
 4817SOL    HW125910   3.517   4.244   7.434  1.1570  0.0723  0.0775
 4817SOL    HW225911   3.458   4.382   7.457 -0.6038  0.4441 -0.9125
 4818SOL     OW25912   0.979   4.095   8.274 -0.1012 -0.8177 -0.1342
 4818SOL    HW125913   0.985   4.021   8.334 -0.0373 -0.8796 -0.2160
 4818SOL    HW225914   0.921   4.065   8.203  0.8926  0.3899 -1.4599
 4819SOL     OW25915   3.720   3.226  13.671 -0.1709 -0.0295 -0.7054
 4819SOL    HW125916   3.806   3.264  13.654  0.6426 -2.0869 -1.1500
 4819SOL    HW225917   3.664   3.304  13.667 -0.9007 -0.5235 -0.0496
 4820SOL     OW25918   1.914   1.837   9.927 -0.3137 -0.1689 -0.0886
 4820SOL    HW125919   1.898   1.801  10.015  4.6775 -2.5979 -0.1837
 4820SOL    HW225920   1.942   1.760   9.879  1.2881 -1.1970  2.4527
 4821SOL     OW25921   2.398   4.448   1.944 -0.0207  0.0007 -0.4090
 4821SOL    HW125922   2.427   4.392   1.871  1.5639 -1.3249  1.2489
 4821SOL    HW225923   2.314   4.408   1.966  0.6525 -1.6840 -0.8522
 4822SOL     OW25924   3.969   2.417   2.105  0.4227  0.0427  0.0571
 4822SOL    HW125925   3.998   2.461   2.025  0.2355  1.4772  0.7809
 4822SOL    HW225926   3.919   2.491   2.139 -2.3216 -1.4322 -0.8058
 4823SOL     OW25927   1.649   1.266  12.185  0.3828 -0.0752  0.3891
 4823SOL    HW125928   1.729   1.271  12.133  0.3614 -0.6198  0.3033
 4823SOL    HW225929   1.661   1.338  12.247 -0.2734 -0.2417  0.7131
 4824SOL     OW25930   1.012   3.419   4.924  0.2461  0.3136 -0.6509
 4824SOL    HW125931   0.993   3.329   4.899  2.7448  0.1234 -1.8023
 4824SOL    HW225932   1.006   3.401   5.018 -1.4930  0.4749 -0.7236
 4825SOL     OW25933   0.136   2.815   6.353  0.3539 -0.2475  0.0087
 4825SOL    HW125934   0.198   2.841   6.422  1.2291  1.8476 -1.5659
 4825SOL    HW225935   0.187   2.851   6.281  0.4473 -1.4550 -0.5183
 4826SOL     OW25936   3.366   4.381  13.530  0.0215  0.0332 -0.5722
 4826SOL    HW125937   3.430   4.439  13.491  1.1818 -0.8514  0.0298
 4826SOL    HW225938   3.426   4.345  13.595 -1.6708  0.4856  1.2419
 4827SOL     OW25939   0.868   1.110   5.910  0.1182  0.6641 -0.1844
 4827SOL    HW125940   0.832   1.027   5.940  0.9049  0.3517 -0.0926
 4827SOL    HW225941   0.960   1.086   5.899  0.2946  1.7926 -1.1758
 4828SOL     OW25942   3.184   0.898   8.545  0.0380 -0.2166  0.2990
 4828SOL    HW125943   3.156   0.975   8.594  2.2925  0.2281  0.8912
 4828SOL    HW225944   3.207   0.944   8.464  0.0378 -3.5070 -1.5620
 4829SOL     OW25945   4.174   2.417  12.036 -0.1545  0.4681 -0.3818
 4829SOL    HW125946   4.183   2.323  12.015 -2.5910  0.3660 -0.9491
 4829SOL    HW225947   4.262   2.424  12.074 -0.1592  1.6831 -0.6274
 4830SOL     OW25948   3.065   2.413  11.768 -0.1382 -0.1443  0.4358
 4830SOL    HW125949   3.082   2.506  11.778  0.1471 -0.2101  0.5523
 4830SOL    HW225950   3.073   2.369  11.853  1.1535  1.8299  1.3323
 4831SOL     OW25951   1.062   0.922  11.163 -0.6217  0.5384 -0.2520
 4831SOL    HW125952   1.110   0.887  11.239 -2.0972 -0.6469  0.1257
 4831SOL    HW225953   0.985   0.866  11.159  0.3697 -0.8039 -0.5688
 4832SOL     OW25954   4.022   0.043   6.508  0.2652  0.2147 -0.9653
 4832SOL    HW125955   4.015   4.673   6.477  2.0284 -0.7441  1.3544
 4832SOL    HW225956   3.997   0.042   6.600 -0.9304  0.6900 -1.2936
 4833SOL     OW25957   3.713   4.685   8.332  0.2786  0.0617  0.4967
 4833SOL    HW125958   3.807   4.671   8.345  0.2064  0.4856  1.5432
 4833SOL    HW225959   3.708   4.714   8.241  1.7091  0.6670  0.6117
 4834SOL     OW25960   1.123   2.831  15.274  0.0248 -0.0030  0.1065
 4834SOL    HW125961   1.044   2.802  15.228  0.1075  2.2098 -1.4353
 4834SOL    HW225962   1.106   2.805  15.364 -0.0130  1.8696  0.6280
 4835SOL     OW25963   2.951   3.059   8.248 -0.1492  0.8527 -0.1672
 4835SOL    HW125964   2.895   3.124   8.205  1.5880  0.5000 -2.9590
 4835SOL    HW225965   2.909   3.049   8.334  0.3948  2.9649  0.3512
 4836SOL     OW25966   4.523   4.277   2.095 -0.0228 -0.6587 -0.1112
 4836SOL    HW125967   4.551   4.367   2.082  2.4633 -1.4746 -0.4015
 4836SOL    HW225968   4.464   4.294   2.168 -2.4924  2.2301 -2.8068
 4837SOL     OW25969   3.433   0.338   9.427 -0.5778 -0.1926 -0.1642
 4837SOL    HW125970   3.448   0.347   9.521 -1.9039  1.9798 -0.1639
 4837SOL    HW225971   3.459   0.247   9.413 -0.6004 -0.1613 -0.3948
 4838SOL     OW25972   4.438   0.525   6.460  0.4191 -0.1696 -0.4216
 4838SOL    HW125973   4.451   0.430   6.463  1.7354  0.1087  2.4711
 4838SOL    HW225974   4.515   0.561   6.416  0.5590  0.0361 -0.0060
 4839SOL     OW25975   3.034   0.640  16.121 -0.2687  0.0127  0.2142
 4839SOL    HW125976   2.946   0.638  16.159 -0.5890 -0.0865 -0.5416
 4839SOL    HW225977   3.027   0.714  16.061 -0.1384  0.1105  0.3195
 4840SOL     OW25978   1.479   1.034   6.080 -0.2764  0.2962 -0.0896
 4840SOL    HW125979   1.502   0.945   6.053 -0.7245  0.0555  0.3493
 4840SOL    HW225980   1.468   1.086   6.000 -2.2534 -0.6363 -0.3983
 4841SOL     OW25981   2.999   1.317   3.788  0.0619  0.2338  0.4544
 4841SOL    HW125982   2.955   1.324   3.873  2.6278  3.3464  1.5242
 4841SOL    HW225983   3.087   1.294   3.817 -0.0422  0.8729  1.2784
 4842SOL     OW25984   3.468   1.392   0.178 -0.1735  0.6010 -0.6469
 4842SOL    HW125985   3.394   1.336   0.154  0.7310 -1.2376  0.8348
 4842SOL    HW225986   3.450   1.400   0.271 -1.1539  0.2544 -0.8018
 4843SOL     OW25987   4.628   3.547   3.709 -0.8733  0.1815 -0.3067
 4843SOL    HW125988   4.661   3.465   3.671 -0.4051 -0.6385  1.8808
 4843SOL    HW225989   4.684   3.611   3.666  0.0614 -2.1323 -2.5264
 4844SOL     OW25990   0.406   1.312   5.108  0.0388 -0.0692 -0.3691
 4844SOL    HW125991   0.336   1.264   5.063  1.5217 -1.7607 -0.9054
 4844SOL    HW225992   0.358   1.390   5.136 -0.0572 -0.2216 -0.1067
 4845SOL     OW25993   0.950   0.339   5.366  0.4045 -0.4058 -0.3907
 4845SOL    HW125994   0.993   0.275   5.309  2.0566  0.2680  0.0994
 4845SOL    HW225995   0.876   0.373   5.315  1.5163 -1.9124 -2.9852
 4846SOL     OW25996   1.102   2.626   4.294 -0.4535  0.4398 -0.3867
 4846SOL    HW125997   1.165   2.609   4.363 -0.3766 -0.8378 -0.7759
 4846SOL    HW225998   1.069   2.539   4.271 -0.3056  0.3101 -0.0971
 4847SOL     OW25999   0.827   0.461  12.533  0.2899  0.3641 -0.1631
 4847SOL    HW126000   0.830   0.554  12.510  2.6707  0.7666  1.7183
 4847SOL    HW226001   0.875   0.421  12.460  2.5347 -0.6727  1.8905
 4848SOL     OW26002   1.351   1.792   5.410 -0.2438 -0.0490 -0.3743
 4848SOL    HW126003   1.435   1.814   5.450  0.1657  0.1464 -1.3618
 4848SOL    HW226004   1.296   1.780   5.488  0.3639 -0.1758  0.0311
 4849SOL     OW26005   1.923   3.639   4.512  0.5494  0.4074  0.2017
 4849SOL    HW126006   1.946   3.551   4.482  0.2891  0.2557  0.4450
 4849SOL    HW226007   1.828   3.644   4.517  0.6257 -0.7170  2.9945
 4850SOL     OW26008   0.569   2.741  10.175  0.0294  0.3679 -0.5452
 4850SOL    HW126009   0.595   2.678  10.108 -0.9557 -0.1639 -0.4297
 4850SOL    HW226010   0.550   2.817  10.120 -0.2425 -0.7566 -2.0139
 4851SOL     OW26011   1.244   0.446  15.040 -0.2454  0.0289  0.1625
 4851SOL    HW126012   1.207   0.366  15.077  1.2287 -1.5587 -1.7830
 4851SOL    HW226013   1.336   0.420  15.045 -0.1792  0.5999  1.8868
 4852SOL     OW26014   4.193   1.886   3.774 -0.1021  0.1954  0.2495
 4852SOL    HW126015   4.142   1.962   3.799 -0.2431  0.6964 -1.5835
 4852SOL    HW226016   4.128   1.826   3.737 -1.1855  0.8040  1.1851
 4853SOL     OW26017   2.132   3.557   3.444  0.3846  0.2637 -0.1514
 4853SOL    HW126018   2.041   3.528   3.438  0.4077 -0.3580  2.7564
 4853SOL    HW226019   2.111   3.650   3.436 -0.0176  0.0822 -1.2690
 4854SOL     OW26020   3.076   3.751   2.192  0.4462  0.3285 -0.1557
 4854SOL    HW126021   3.157   3.719   2.152  0.7938 -1.2320  1.8255
 4854SOL    HW226022   3.007   3.707   2.143 -1.2617  0.6283  2.0227
 4855SOL     OW26023   1.106   1.228   9.040  0.4421 -0.3466  0.2667
 4855SOL    HW126024   1.112   1.203   9.133 -1.0889 -1.3151  0.1130
 4855SOL    HW226025   1.019   1.192   9.022 -1.2793  2.9312  1.9653
 4856SOL     OW26026   1.429   3.499   8.741 -0.2010 -0.0231  0.0151
 4856SOL    HW126027   1.353   3.488   8.684 -0.2241  1.2179 -0.2013
 4856SOL    HW226028   1.440   3.418   8.790  0.3245 -0.3963 -0.7248
 4857SOL     OW26029   0.492   0.933   3.039 -0.1930  0.0544  0.5318
 4857SOL    HW126030   0.424   0.962   2.979  1.3222  2.1069 -0.1561
 4857SOL    HW226031   0.444   0.914   3.120 -0.8315 -3.3798 -0.6411
 4858SOL     OW26032   0.490   4.694   4.600  0.0915 -0.0399  0.3977
 4858SOL    HW126033   0.504   4.692   4.694 -0.0280  1.2085  0.4427
 4858SOL    HW226034   0.399   4.666   4.591  0.1258 -0.2416  0.6878
 4859SOL     OW26035   3.182   4.597   6.361 -0.2040 -0.3699  0.1942
 4859SOL    HW126036   3.186   4.624   6.269 -0.6456 -0.2036  0.2248
 4859SOL    HW226037   3.095   4.559   6.373  0.9411 -2.8191  0.7915
 4860SOL     OW26038   3.054   1.817  10.888  0.0060  0.0614  0.3280
 4860SOL    HW126039   3.027   1.737  10.843  0.0499 -0.3972  1.1056
 4860SOL    HW226040   3.133   1.787  10.933  0.2427 -0.7368 -0.6179
 4861SOL     OW26041   0.227   0.645   2.636  0.1033  0.1545 -0.0759
 4861SOL    HW126042   0.132   0.646   2.623 -0.3386  2.9014  3.1273
 4861SOL    HW226043   0.235   0.665   2.730  2.4691 -0.9416 -0.0475
 4862SOL     OW26044   0.743   2.820  15.821  0.0492 -0.0982 -0.0798
 4862SOL    HW126045   0.715   2.742  15.869 -0.8565  0.2264 -0.0780
 4862SOL    HW226046   0.827   2.791  15.785 -1.4778 -1.9859 -2.1278
 4863SOL     OW26047   2.641   4.556  11.012  0.3358 -0.2240 -0.0607
 4863SOL    HW126048   2.569   4.497  10.989 -0.8720  0.7458  1.2720
 4863SOL    HW226049   2.640   4.532  11.104 -0.8931  0.2756  0.0590
 4864SOL     OW26050   0.303   4.034  12.266 -0.3715  0.1202 -0.6785
 4864SOL    HW126051   0.249   3.981  12.207  1.0157  1.1486 -2.8656
 4864SOL    HW226052   0.240   4.037  12.338  0.4693 -1.1463  0.1059
 4865SOL     OW26053   4.535   0.418  17.311 -0.1940  0.4492  0.8627
 4865SOL    HW126054   4.605   0.414  17.246 -1.0218  1.1810 -0.0638
 4865SOL    HW226055   4.581   0.461  17.383  0.5645 -0.7221  1.0720
 4866SOL     OW26056   4.506   4.036   9.265  0.3044 -0.3909  0.1994
 4866SOL    HW126057   4.483   4.106   9.204 -1.9998 -0.5413  0.8718
 4866SOL    HW226058   4.540   3.963   9.213 -2.7669 -0.9412 -1.0716
 4867SOL     OW26059   1.076   2.217   4.469  0.4335  0.1189 -0.4056
 4867SOL    HW126060   0.986   2.193   4.488  0.2396  0.4353 -0.9326
 4867SOL    HW226061   1.069   2.270   4.390 -0.8272  0.4974 -0.0329
 4868SOL     OW26062   2.456   0.001   0.267 -0.4091 -0.0078  0.3634
 4868SOL    HW126063   2.493   0.041   0.188  0.3191 -1.3987  0.0102
 4868SOL    HW226064   2.503   4.639   0.273 -0.4622 -0.0158  0.7140
 4869SOL     OW26065   3.768   0.930   2.904  0.5553  0.1913 -0.1729
 4869SOL    HW126066   3.858   0.925   2.872 -0.1732 -1.4709 -1.9773
 4869SOL    HW226067   3.722   0.913   2.822  2.9580 -1.6202 -1.1671
 4870SOL     OW26068   3.608   4.403   6.164  0.1970  0.2577 -0.2200
 4870SOL    HW126069   3.610   4.394   6.259 -2.1350  2.6498  0.0621
 4870SOL    HW226070   3.674   4.345   6.125 -0.3906  0.2649 -1.2174
 4871SOL     OW26071   1.662   1.795   1.056 -0.2753 -0.4343 -0.0851
 4871SOL    HW126072   1.623   1.797   0.969 -1.3437 -0.6073  0.3916
 4871SOL    HW226073   1.599   1.839   1.113  2.4936 -1.3045  3.6179
 4872SOL     OW26074   4.543   0.615   5.172 -0.3133 -0.0012 -0.1085
 4872SOL    HW126075   4.535   0.525   5.142  2.0953 -0.0849 -0.4849
 4872SOL    HW226076   4.512   0.608   5.262 -0.2673 -1.9694 -0.2454
 4873SOL     OW26077   3.794   1.861   4.966  0.1123  0.3313 -0.1110
 4873SOL    HW126078   3.868   1.904   5.008  0.5582 -0.9278  0.4011
 4873SOL    HW226079   3.723   1.924   4.976 -1.7285 -1.8132  0.0762
 4874SOL     OW26080   2.016   0.130   5.878 -0.0191  0.2824 -0.1236
 4874SOL    HW126081   2.017   0.114   5.784 -1.8575  2.2976 -0.4736
 4874SOL    HW226082   2.035   0.223   5.882 -0.7793  0.3121  2.8068
 4875SOL     OW26083   3.658   2.675   2.991 -0.2407  0.1345  0.1399
 4875SOL    HW126084   3.743   2.639   3.016 -0.3990  0.7215  1.4923
 4875SOL    HW226085   3.660   2.643   2.901  0.4172 -1.2290  0.6469
 4876SOL     OW26086   2.130   0.936  15.703 -1.1198 -0.0481 -0.0073
 4876SOL    HW126087   2.190   0.984  15.646 -0.3734 -0.4334  0.4459
 4876SOL    HW226088   2.149   0.977  15.788  0.7030  1.0991 -0.9660
 4877SOL     OW26089   0.461   2.926   0.669 -0.4766 -0.0252 -0.5987
 4877SOL    HW126090   0.428   2.985   0.602  2.5196  0.9960 -1.1832
 4877SOL    HW226091   0.490   2.852   0.616  0.1729 -0.0285 -0.2435
 4878SOL     OW26092   2.052   1.705   8.827 -0.7338 -0.5227  0.6456
 4878SOL    HW126093   2.030   1.673   8.740 -2.4305 -1.1197  1.2815
 4878SOL    HW226094   2.091   1.790   8.811 -1.5379 -0.2660  0.0749
 4879SOL     OW26095   4.673   1.040  10.615  0.3033 -0.1110 -0.3544
 4879SOL    HW126096   4.583   1.048  10.646 -0.3205 -2.5345 -1.6007
 4879SOL    HW226097   4.665   0.987  10.536  1.9197 -0.4992 -0.2638
 4880SOL     OW26098   2.677   0.475   8.608 -0.5951 -0.1479 -0.0491
 4880SOL    HW126099   2.766   0.472   8.573 -0.3432  0.0973  0.5854
 4880SOL    HW226100   2.694   0.479   8.702 -2.4807  0.1984  0.2756
 4881SOL     OW26101   2.920   1.685   5.175  0.0774 -0.0165  0.0309
 4881SOL    HW126102   2.893   1.683   5.267 -0.3957  0.6873 -0.0969
 4881SOL    HW226103   2.845   1.732   5.139  0.3578  0.3302 -0.0973
 4882SOL     OW26104   0.531   2.076   8.098 -0.2867 -0.3083  0.2557
 4882SOL    HW126105   0.483   2.133   8.158  1.3889  1.7481 -0.3682
 4882SOL    HW226106   0.473   2.001   8.083 -0.9643  0.2067  0.2931
 4883SOL     OW26107   2.729   1.869   0.562 -0.0935 -0.0533 -0.4219
 4883SOL    HW126108   2.741   1.907   0.649 -0.7173  0.3089 -0.4936
 4883SOL    HW226109   2.643   1.905   0.538  1.1576  2.3203 -1.3285
 4884SOL     OW26110   3.536   1.590   3.427  0.3572 -0.0645 -0.6541
 4884SOL    HW126111   3.625   1.585   3.392  0.9310  2.5347  0.4577
 4884SOL    HW226112   3.506   1.664   3.373 -2.8003 -0.3107  0.7811
 4885SOL     OW26113   1.246   1.465   4.141  0.2865  0.3232  0.4607
 4885SOL    HW126114   1.164   1.483   4.186  0.5515 -0.8827  1.4161
 4885SOL    HW226115   1.215   1.491   4.055  0.8687  0.1269  0.1917
 4886SOL     OW26116   2.575   2.964   0.897 -1.3651  0.0023 -0.2408
 4886SOL    HW126117   2.521   3.022   0.844  0.5040  0.1438 -1.9929
 4886SOL    HW226118   2.579   3.023   0.972 -0.8703  0.9644 -1.0338
 4887SOL     OW26119   2.617   4.239  16.399 -0.2723 -0.1898  0.5443
 4887SOL    HW126120   2.603   4.310  16.462  0.9911  0.5312  0.0035
 4887SOL    HW226121   2.694   4.277  16.358 -1.7626  0.7694 -1.3582
 4888SOL     OW26122   2.483   3.350   2.262  0.4687 -0.0642  0.3827
 4888SOL    HW126123   2.396   3.312   2.272  1.0017 -0.7614  2.4824
 4888SOL    HW226124   2.513   3.284   2.200 -2.0707 -0.8715 -0.0013
 4889SOL     OW26125   4.370   0.099   3.727  0.3261  0.5991  0.1245
 4889SOL    HW126126   4.427   0.099   3.650  1.0203  0.8827  0.6374
 4889SOL    HW226127   4.379   0.191   3.752 -0.2883  0.5009  0.7082
 4890SOL     OW26128   4.503   4.332   7.436 -0.2203  0.1081 -0.0915
 4890SOL    HW126129   4.507   4.244   7.400  0.2633  0.7735 -1.6855
 4890SOL    HW226130   4.446   4.319   7.512  0.4884 -0.4095  0.3504
 4891SOL     OW26131   1.231   3.249   3.065  0.2587  0.1691 -0.7836
 4891SOL    HW126132   1.197   3.337   3.080  0.9324  0.5291 -1.3425
 4891SOL    HW226133   1.319   3.258   3.027  1.0948  0.1695  1.1797
 4892SOL     OW26134   0.343   3.095   7.757  0.0412  0.2385 -0.2825
 4892SOL    HW126135   0.298   3.124   7.837  0.2345 -1.7687  0.5572
 4892SOL    HW226136   0.272   3.043   7.718 -2.5995  2.2093  1.8575
 4893SOL     OW26137   1.928   2.575   3.712 -0.1787 -0.1005  0.6140
 4893SOL    HW126138   1.858   2.511   3.728 -1.0825  1.0631  1.3405
 4893SOL    HW226139   1.897   2.655   3.753 -0.2550  0.3069 -0.2275
 4894SOL     OW26140   4.076   1.497   7.849  0.3387 -0.4941 -0.2273
 4894SOL    HW126141   4.071   1.592   7.857  0.9755 -0.4268 -0.6411
 4894SOL    HW226142   4.000   1.465   7.898  1.3821 -0.0981  1.6333
 4895SOL     OW26143   4.639   1.577   6.849  0.3113  0.5660 -0.7457
 4895SOL    HW126144   4.702   1.633   6.805 -0.8467  2.1999 -0.3078
 4895SOL    HW226145   4.658   1.493   6.807 -0.4088 -0.0069  0.0848
 4896SOL     OW26146   1.497   0.414  11.889  0.2706  0.5221 -0.1617
 4896SOL    HW126147   1.421   0.470  11.909 -2.5382 -2.2061 -3.3190
 4896SOL    HW226148   1.560   0.483  11.911  0.0427 -0.1454  2.5845
 4897SOL     OW26149   0.266   4.712   0.657 -0.1160 -0.0771 -0.0335
 4897SOL    HW126150   0.208   0.063   0.631 -0.2856  0.1110  0.8629
 4897SOL    HW226151   0.217   4.631   0.642  1.9852 -1.4333  0.4934
 4898SOL     OW26152   0.510   1.237   7.740 -0.7278  0.6055 -0.1872
 4898SOL    HW126153   0.543   1.173   7.677  0.1736  0.2678  0.6355
 4898SOL    HW226154   0.449   1.278   7.678  1.0915  1.9898 -1.0361
 4899SOL     OW26155   0.487   2.250  13.267 -0.2630 -0.0971  0.1819
 4899SOL    HW126156   0.404   2.250  13.220 -0.5488 -2.7763  0.7195
 4899SOL    HW226157   0.533   2.184  13.216 -0.0163 -1.2346  1.8575
 4900SOL     OW26158   3.978   1.372   4.267  0.4096  0.2935  0.1324
 4900SOL    HW126159   3.887   1.369   4.296  0.8605 -0.4070  1.5023
 4900SOL    HW226160   3.973   1.437   4.198 -0.0352 -1.2236 -1.2481
 4901SOL     OW26161   2.103   0.136   4.789 -0.3040 -0.2158  0.1957
 4901SOL    HW126162   2.040   0.206   4.806  0.4769  0.2326  1.2585
 4901SOL    HW226163   2.120   0.139   4.695  1.6884  1.5546  0.6091
 4902SOL     OW26164   3.594   0.642  11.724  0.4623 -0.3729  0.1857
 4902SOL    HW126165   3.569   0.587  11.798 -0.9203 -0.2978 -0.2212
 4902SOL    HW226166   3.603   0.577  11.654  2.5810  0.5370 -0.3848
 4903SOL     OW26167   2.144   4.381   7.829  0.3074  0.3736  0.1273
 4903SOL    HW126168   2.181   4.333   7.756 -2.8855  0.5066 -1.5640
 4903SOL    HW226169   2.219   4.393   7.887 -0.2857  3.1992  0.3379
 4904SOL     OW26170   1.929   4.232   8.600 -0.3236 -0.1158 -0.1522
 4904SOL    HW126171   1.892   4.262   8.683 -1.6200 -0.5708 -0.5611
 4904SOL    HW226172   1.933   4.137   8.610  0.4514 -0.3301 -2.3786
 4905SOL     OW26173   3.400   4.636   3.575 -0.2992  0.3589 -0.4032
 4905SOL    HW126174   3.465   4.629   3.646 -0.5720 -0.1540 -0.2065
 4905SOL    HW226175   3.330   4.682   3.621 -0.7815  0.3766 -1.1712
 4906SOL     OW26176   0.499   1.032   0.171  0.5111 -1.0277  0.1747
 4906SOL    HW126177   0.574   1.052   0.227 -0.1214 -0.4573  0.8320
 4906SOL    HW226178   0.421   1.028   0.227 -0.1570 -1.0529 -0.7541
 4907SOL     OW26179   4.248   3.347   5.526  0.7281 -0.1548  0.6156
 4907SOL    HW126180   4.320   3.399   5.490  1.5780 -1.6914  0.1385
 4907SOL    HW226181   4.246   3.363   5.620  0.5195  2.0587  0.2385
 4908SOL     OW26182   4.085   0.781  10.208  1.1239 -0.2429 -0.4403
 4908SOL    HW126183   4.114   0.690  10.210 -0.0571 -0.6349 -1.0536
 4908SOL    HW226184   4.092   0.811  10.299  2.0853  0.6787 -0.8236
 4909SOL     OW26185   0.145   0.362   5.023  0.0401 -0.5604 -0.1698
 4909SOL    HW126186   0.224   0.393   4.979  0.9638 -0.6699  1.3996
 4909SOL    HW226187   0.102   0.445   5.042  0.9150 -0.0513 -0.3965
 4910SOL     OW26188   3.427   4.183   7.972 -0.2347  0.1850 -0.9734
 4910SOL    HW126189   3.395   4.178   7.882 -2.2055  1.1816 -0.3161
 4910SOL    HW226190   3.461   4.272   7.977  0.5270 -0.1955  0.7461
 4911SOL     OW26191   1.322   2.225   6.328 -0.1663  0.0932  0.2295
 4911SOL    HW126192   1.334   2.319   6.312 -1.1422  0.1894  0.0567
 4911SOL    HW226193   1.416   2.208   6.334 -0.3545 -1.3303 -0.9586
 4912SOL     OW26194   1.739   4.648   8.329  0.0287  0.2881  0.2666
 4912SOL    HW126195   1.834   4.642   8.343  0.4001  2.4412 -1.2944
 4912SOL    HW226196   1.702   4.582   8.387 -1.2320  0.1004 -0.7508
 4913SOL     OW26197   2.556   1.697  13.326  0.0406  0.2488 -0.1037
 4913SOL    HW126198   2.482   1.640  13.348  1.3985 -1.7647 -0.6568
 4913SOL    HW226199   2.534   1.773  13.378 -0.0627  0.8584 -1.0384
 4914SOL     OW26200   0.287   0.532  15.125 -0.3234 -0.0622  0.5542
 4914SOL    HW126201   0.366   0.541  15.179  0.0757  2.4939 -0.4489
 4914SOL    HW226202   0.232   0.470  15.172  0.9993 -2.0075 -0.4918
 4915SOL     OW26203   0.162   2.307  15.355  0.7444  0.1287 -0.5771
 4915SOL    HW126204   0.219   2.328  15.429 -0.2635 -0.7365  0.4465
 4915SOL    HW226205   0.227   2.266  15.298 -1.4758 -0.5176 -2.6320
 4916SOL     OW26206   3.884   3.483   5.401 -0.1323 -0.5805  0.4343
 4916SOL    HW126207   3.841   3.548   5.457 -1.3397  1.4633 -2.9030
 4916SOL    HW226208   3.824   3.408   5.400 -2.0413  0.9365  1.3566
 4917SOL     OW26209   2.714   4.150   6.806 -0.5620 -0.5430 -0.0835
 4917SOL    HW126210   2.671   4.190   6.730 -1.1154 -1.1481 -0.0916
 4917SOL    HW226211   2.658   4.075   6.826  0.8319 -1.6697 -0.4644
 4918SOL     OW26212   2.457   3.149   4.560  0.2821 -0.1739  0.5942
 4918SOL    HW126213   2.514   3.201   4.503 -2.0541  4.3054  2.3625
 4918SOL    HW226214   2.376   3.138   4.511  1.0622  2.0880 -1.1781
 4919SOL     OW26215   3.751   4.294   8.986 -0.0548  0.6716 -0.6071
 4919SOL    HW126216   3.710   4.376   8.960 -0.6134  0.5306 -0.1755
 4919SOL    HW226217   3.829   4.313   9.038  0.0253 -2.5834  0.5097
 4920SOL     OW26218   2.368   0.930   3.889 -0.5122  0.1475 -0.0831
 4920SOL    HW126219   2.359   0.998   3.822 -0.3401  0.3834  0.1307
 4920SOL    HW226220   2.366   0.986   3.967  0.8617  1.1180 -0.7364
 4921SOL     OW26221   2.133   3.123   4.550  0.1888  0.2089 -0.0745
 4921SOL    HW126222   2.169   3.099   4.636 -0.1863 -1.5334 -0.4132
 4921SOL    HW226223   2.118   3.033   4.522 -1.2714  0.5349 -0.3407
 4922SOL     OW26224   1.432   1.730   1.635 -0.1126  0.5309 -1.3386
 4922SOL    HW126225   1.463   1.819   1.651  0.8232  0.0228 -0.2716
 4922SOL    HW226226   1.343   1.737   1.668  0.9105  0.0401  1.5097
 4923SOL     OW26227   3.474   3.727   7.675 -0.7787  0.2891 -0.3790
 4923SOL    HW126228   3.566   3.716   7.652 -1.4903 -2.4247 -1.9801
 4923SOL    HW226229   3.457   3.810   7.630  0.0990  1.5302  1.6005
 4924SOL     OW26230   3.085   3.233   2.525  0.1579  0.0618 -0.0692
 4924SOL    HW126231   3.036   3.161   2.565  0.5967 -0.9225 -1.3023
 4924SOL    HW226232   3.161   3.234   2.583 -0.2682  0.1451  0.4891
 4925SOL     OW26233   4.283   3.859   6.274 -0.1155 -0.5074 -0.6306
 4925SOL    HW126234   4.281   3.916   6.196  0.1924  0.0077 -0.2612
 4925SOL    HW226235   4.201   3.811   6.268  0.2197 -1.0411 -0.9723
 4926SOL     OW26236   0.377   2.973   1.779 -0.4333 -0.8611  0.1761
 4926SOL    HW126237   0.431   3.051   1.773 -0.8949 -0.4712  0.9802
 4926SOL    HW226238   0.309   2.998   1.717 -1.4839  0.3136  1.7849
 4927SOL     OW26239   0.842   1.068   2.162 -0.2297 -0.8578  0.1716
 4927SOL    HW126240   0.925   1.046   2.119 -0.5987 -1.8051 -0.0705
 4927SOL    HW226241   0.859   1.149   2.209 -0.1216 -1.0268  0.4275
 4928SOL     OW26242   1.150   4.205   0.226 -0.0906  0.2560 -0.4943
 4928SOL    HW126243   1.181   4.282   0.178 -3.4688  2.2942  0.5887
 4928SOL    HW226244   1.126   4.251   0.306 -2.3246  0.5560 -1.3078
 4929SOL     OW26245   1.413   3.046   7.717  0.2069 -0.1824 -0.2756
 4929SOL    HW126246   1.484   3.077   7.661  0.4663 -1.4887 -0.6715
 4929SOL    HW226247   1.450   3.058   7.804 -2.0978 -0.2130  0.7014
 4930SOL     OW26248   1.256   2.616  16.933  0.4873  0.5870  0.3837
 4930SOL    HW126249   1.172   2.661  16.928 -0.1311 -0.6399 -0.0824
 4930SOL    HW226250   1.259   2.596  17.027  0.1286  0.3340  0.3408
 4931SOL     OW26251   0.109   0.084   3.680  0.0159 -0.8181 -0.2164
 4931SOL    HW126252   0.048   0.158   3.679  0.1732 -0.6444  3.1877
 4931SOL    HW226253   0.179   0.122   3.627  1.1761 -0.9657  1.2139
 4932SOL     OW26254   2.717   1.416  12.943 -0.3268  0.6114  0.1766
 4932SOL    HW126255   2.683   1.483  12.883 -2.9087 -0.2483  0.6954
 4932SOL    HW226256   2.634   1.373  12.964  0.5951 -1.8505 -1.1578
 4933SOL     OW26257   3.743   2.937   3.033  0.1575 -0.9811  0.4539
 4933SOL    HW126258   3.699   2.857   3.008  0.5112 -1.3829  1.1072
 4933SOL    HW226259   3.694   2.998   2.978 -0.7873 -0.9089  1.3785
 4934SOL     OW26260   2.204   4.660   3.405 -0.2024 -0.3014  0.5014
 4934SOL    HW126261   2.158   4.599   3.462 -0.4922 -0.0993  0.4830
 4934SOL    HW226262   2.283   4.608   3.390  1.5567  1.3424  4.0108
 4935SOL     OW26263   1.923   0.914   6.732  0.6668 -0.0492  0.2602
 4935SOL    HW126264   1.903   0.851   6.663  0.6056 -0.3925  0.5930
 4935SOL    HW226265   1.966   0.859   6.797  0.4211  0.1082  0.5568
 4936SOL     OW26266   4.586   3.479   8.615  0.2189  0.4292  0.2839
 4936SOL    HW126267   4.555   3.392   8.639 -0.2596  0.9691  1.6548
 4936SOL    HW226268   4.543   3.489   8.531 -0.9192 -2.3951  0.5223
 4937SOL     OW26269   4.468   2.190   6.258  0.2241  0.2612  0.0662
 4937SOL    HW126270   4.545   2.224   6.213 -0.4840 -1.0272 -2.1695
 4937SOL    HW226271   4.513   2.147   6.331 -1.2618 -2.1597 -0.4350
 4938SOL     OW26272   0.492   3.057   2.199  0.6426 -0.1255 -0.3570
 4938SOL    HW126273   0.550   3.001   2.149  0.8568 -0.4567  0.2677
 4938SOL    HW226274   0.543   3.138   2.194  0.0972 -0.0395 -4.3856
 4939SOL     OW26275   4.418   1.530   2.163  0.4455  0.6394  0.2854
 4939SOL    HW126276   4.362   1.462   2.126 -1.5162  1.0967  2.3479
 4939SOL    HW226277   4.350   1.586   2.201 -0.7684 -0.7648  0.1801
 4940SOL     OW26278   4.440   2.053   5.281  0.2690  0.1117  0.2112
 4940SOL    HW126279   4.486   1.975   5.251  1.0772  0.0207  1.6420
 4940SOL    HW226280   4.361   2.036   5.230  0.4052 -3.0955  1.0512
 4941SOL     OW26281   0.142   1.493   6.129  0.8611 -0.0918  0.3164
 4941SOL    HW126282   0.215   1.436   6.107  2.3271  2.6361 -1.9293
 4941SOL    HW226283   0.119   1.457   6.215 -0.7770  1.4389  0.5241
 4942SOL     OW26284   0.203   1.524   0.332 -0.2553  0.5895  0.0767
 4942SOL    HW126285   0.249   1.538   0.415  0.8781 -0.0041 -0.4428
 4942SOL    HW226286   0.266   1.558   0.269  1.4033 -0.6176  1.0781
 4943SOL     OW26287   1.829   4.707   6.892 -0.2485 -0.5199  0.5429
 4943SOL    HW126288   1.883   4.629   6.904 -0.5089 -0.5727  1.3863
 4943SOL    HW226289   1.849   0.008   6.801  0.2202  0.7801  0.9449
 4944SOL     OW26290   0.490   3.156   5.532  0.3476  0.4758 -0.2325
 4944SOL    HW126291   0.544   3.209   5.592 -1.0599  0.1500  1.3260
 4944SOL    HW226292   0.554   3.104   5.484 -0.5455 -0.4645 -0.3876
 4945SOL     OW26293   3.065   0.165  16.403  0.1944 -0.1730 -0.6546
 4945SOL    HW126294   3.150   0.122  16.417 -0.4458 -0.7763  1.4983
 4945SOL    HW226295   3.006   0.091  16.416  2.0795 -1.1990  2.2570
 4946SOL     OW26296   0.333   2.751   2.628 -0.7215  0.0040 -0.0967
 4946SOL    HW126297   0.330   2.776   2.721 -0.2668 -1.8565  0.4261
 4946SOL    HW226298   0.300   2.662   2.638  1.2648 -0.7241  0.0271
 4947SOL     OW26299   4.045   1.219   3.518  0.4669  0.1587  0.4517
 4947SOL    HW126300   4.067   1.164   3.593  0.0807  1.4045  1.4801
 4947SOL    HW226301   4.101   1.175   3.453 -1.8842 -1.5662 -0.4293
 4948SOL     OW26302   0.513   3.841   4.886  0.2837 -0.0443 -0.3493
 4948SOL    HW126303   0.441   3.785   4.857 -1.4997  3.0948 -2.0972
 4948SOL    HW226304   0.470   3.875   4.964 -0.1461  1.1861 -1.1221
 4949SOL     OW26305   3.172   3.905   2.385  0.3696  0.0904  0.4567
 4949SOL    HW126306   3.133   3.836   2.330  2.6209 -1.1303  0.3984
 4949SOL    HW226307   3.116   3.902   2.462  1.4865  1.3704  1.3085
 4950SOL     OW26308   1.554   2.163  16.809 -0.4551 -0.1249  0.4950
 4950SOL    HW126309   1.470   2.207  16.827 -1.2503 -0.3209 -2.6387
 4950SOL    HW226310   1.575   2.231  16.745 -0.8817 -1.0684 -0.6582
 4951SOL     OW26311   0.783   3.379   3.173  1.0057  0.3688 -0.2870
 4951SOL    HW126312   0.757   3.469   3.189  1.0609  0.4594 -0.7277
 4951SOL    HW226313   0.712   3.349   3.116  1.5485 -0.7176 -0.3910
 4952SOL     OW26314   2.358   3.788   7.036 -0.3473  0.2139 -0.2998
 4952SOL    HW126315   2.325   3.703   7.066 -3.4959  1.1070 -1.2069
 4952SOL    HW226316   2.448   3.768   7.009 -0.4283 -0.7594  0.1566
 4953SOL     OW26317   0.575   0.233   8.152 -0.3504  0.0932  0.4832
 4953SOL    HW126318   0.535   0.146   8.147  0.2338 -0.2066  1.0795
 4953SOL    HW226319   0.668   0.210   8.146 -0.1188  0.4721  2.4731
 4954SOL     OW26320   0.078   1.173   6.150 -0.5279 -0.0509  0.1041
 4954SOL    HW126321   4.717   1.176   6.200 -0.9769  0.9542 -0.6888
 4954SOL    HW226322   0.139   1.123   6.204 -0.2924  0.3491  0.2158
 4955SOL     OW26323   0.764   0.633  15.672  0.2713 -0.1735  0.3936
 4955SOL    HW126324   0.850   0.608  15.706  0.2530  0.1621  0.6768
 4955SOL    HW226325   0.796   0.649  15.583  2.0982 -2.9938  0.5336
 4956SOL     OW26326   3.767   0.390   2.985 -0.0694  0.1738 -0.3271
 4956SOL    HW126327   3.709   0.350   3.049  1.0298 -0.5856  0.1737
 4956SOL    HW226328   3.723   0.475   2.979 -0.1956  0.2034  1.2115
 4957SOL     OW26329   4.480   1.602   8.963  0.4919  0.0886 -0.0420
 4957SOL    HW126330   4.401   1.644   8.929  0.3016 -0.7603 -0.6512
 4957SOL    HW226331   4.533   1.676   8.994  1.7782 -1.0426  0.4673
 4958SOL     OW26332   3.026   2.117   2.490  0.0311 -0.4842 -0.1458
 4958SOL    HW126333   3.063   2.044   2.439 -1.1751 -0.9480 -0.3660
 4958SOL    HW226334   3.079   2.191   2.462  0.2734 -1.0924 -1.2982
 4959SOL     OW26335   3.916   4.086   7.113  0.4049 -0.0394  0.1641
 4959SOL    HW126336   3.897   4.068   7.021 -1.3416  0.6885  0.3655
 4959SOL    HW226337   3.890   4.008   7.162 -0.6755  1.2287  1.6483
 4960SOL     OW26338   2.025   4.478   2.469 -0.2638  0.4475  0.4027
 4960SOL    HW126339   1.968   4.512   2.400 -2.1099 -0.9371  1.2281
 4960SOL    HW226340   1.964   4.484   2.543 -0.8336  1.1502 -0.1242
 4961SOL     OW26341   0.981   4.420   3.413 -0.1507 -0.2035  0.0999
 4961SOL    HW126342   0.914   4.352   3.413  0.5940 -0.9413  0.4417
 4961SOL    HW226343   1.027   4.403   3.331 -1.9631 -2.3924 -0.4428
 4962SOL     OW26344   2.156   0.475   6.980  0.7667 -0.3315 -0.2605
 4962SOL    HW126345   2.137   0.481   7.074  0.8400 -0.9868 -0.2071
 4962SOL    HW226346   2.192   0.387   6.975  0.3589 -0.5594  0.7261
 4963SOL     OW26347   2.926   3.056   6.177 -0.5082 -0.3326 -0.4897
 4963SOL    HW126348   2.953   3.133   6.127 -1.2265 -1.3187 -2.4099
 4963SOL    HW226349   2.850   3.029   6.125 -0.0336  0.0432 -1.3753
 4964SOL     OW26350   0.748   4.432   4.925 -0.3122 -0.4348  0.1137
 4964SOL    HW126351   0.655   4.413   4.935 -0.4519  0.5238  0.6356
 4964SOL    HW226352   0.785   4.350   4.894 -1.7707 -1.3919  0.9205
 4965SOL     OW26353   2.405   1.626  14.594  0.0744  0.2050 -0.0189
 4965SOL    HW126354   2.341   1.693  14.568 -0.6050  0.0501  1.2483
 4965SOL    HW226355   2.453   1.608  14.513 -1.1019  2.9264 -1.3425
 4966SOL     OW26356   4.545   0.171   8.653 -0.5989 -0.2330 -0.1983
 4966SOL    HW126357   4.490   0.142   8.726  0.6313 -1.2332  0.3264
 4966SOL    HW226358   4.511   0.260   8.643 -0.6608 -0.2834 -0.4450
 4967SOL     OW26359   1.686   4.568   8.898 -0.4527  0.0569 -0.1701
 4967SOL    HW126360   1.748   4.638   8.917  0.9419 -1.3842  0.6027
 4967SOL    HW226361   1.618   4.592   8.960 -2.2434 -1.2717 -1.6364
 4968SOL     OW26362   2.923   2.920  10.637 -0.4972  0.8232  0.1581
 4968SOL    HW126363   2.877   3.004  10.629 -1.3407  0.3595  0.0866
 4968SOL    HW226364   2.895   2.869  10.561 -2.4550  2.6367 -0.3509
 4969SOL     OW26365   3.212   0.216   6.198  0.2590 -0.6620 -0.4647
 4969SOL    HW126366   3.257   0.142   6.158 -1.3942 -2.7365  1.5109
 4969SOL    HW226367   3.202   0.261   6.115  1.6284 -1.1559 -0.8920
 4970SOL     OW26368   3.085   3.447   1.609 -0.0412  0.2716  0.2101
 4970SOL    HW126369   3.023   3.507   1.651 -0.7540  1.7291 -2.9321
 4970SOL    HW226370   3.145   3.442   1.683  1.1413 -1.8172 -0.9002
 4971SOL     OW26371   3.597   1.231   4.088 -0.4085 -0.3065 -0.2864
 4971SOL    HW126372   3.643   1.163   4.040  0.1043 -0.8046  0.9131
 4971SOL    HW226373   3.554   1.183   4.160 -0.0881 -1.1803 -0.6881
 4972SOL     OW26374   0.841   1.586  14.923 -0.2106  0.1331  0.2502
 4972SOL    HW126375   0.843   1.639  14.844 -1.6220  0.7953  0.6537
 4972SOL    HW226376   0.921   1.537  14.904 -0.3683  0.1165 -0.3862
 4973SOL     OW26377   2.531   1.230  11.925 -0.0489  0.0011  0.6130
 4973SOL    HW126378   2.548   1.297  11.992  0.8225  0.6708 -0.2817
 4973SOL    HW226379   2.479   1.262  11.851  2.0620  0.4550 -0.6705
 4974SOL     OW26380   4.008   2.055   7.979 -0.1127  0.0067 -0.2204
 4974SOL    HW126381   3.991   2.072   8.072  0.2836 -0.6097 -0.0329
 4974SOL    HW226382   3.949   2.111   7.928  0.2055  0.6966  0.1699
 4975SOL     OW26383   0.684   1.019   6.961  0.3130  0.5938  0.5480
 4975SOL    HW126384   0.615   0.954   6.952  0.4477  0.4714  0.4034
 4975SOL    HW226385   0.750   0.975   7.015 -0.5734  0.4501  1.5136
 4976SOL     OW26386   3.529   1.128   8.531 -0.7233  0.0475 -0.5430
 4976SOL    HW126387   3.563   1.145   8.619 -1.9795  2.2133 -0.4643
 4976SOL    HW226388   3.611   1.149   8.487  0.2251 -0.3080  1.0449
 4977SOL     OW26389   4.052   4.217  14.168 -0.1265 -0.1242  0.2931
 4977SOL    HW126390   4.031   4.299  14.124 -1.3657 -1.4920 -1.6388
 4977SOL    HW226391   4.092   4.169  14.096 -0.6212 -1.3213  0.8108
 4978SOL     OW26392   0.907   0.583  17.441 -0.1548 -0.0872 -0.1575
 4978SOL    HW126393   0.927   0.628  17.523  0.6584 -0.1022 -0.3427
 4978SOL    HW226394   0.973   0.624  17.386 -0.0652 -1.3174 -0.9706
 4979SOL     OW26395   0.527   2.907  15.520  0.2409  0.0814  0.4317
 4979SOL    HW126396   0.532   3.002  15.534  0.5364  0.5056 -2.5232
 4979SOL    HW226397   0.516   2.906  15.425  0.2044 -0.2105  0.4397
 4980SOL     OW26398   2.798   0.736   7.160 -0.5066  0.2737 -0.4730
 4980SOL    HW126399   2.729   0.730   7.093 -0.3435 -0.0722 -0.6101
 4980SOL    HW226400   2.815   0.642   7.166  0.8864  0.4626 -1.3892
 4981SOL     OW26401   2.674   1.223  17.368 -0.2175 -0.1357 -0.6040
 4981SOL    HW126402   2.585   1.189  17.378  0.7322 -1.8419  1.9555
 4981SOL    HW226403   2.685   1.286  17.438  1.6041 -1.3136  0.1716
 4982SOL     OW26404   2.114   4.670   8.341 -0.8710  0.0488 -0.2549
 4982SOL    HW126405   2.101   4.585   8.384  1.1761 -0.1302  0.0422
 4982SOL    HW226406   2.128   0.004   8.418 -2.3857 -0.9310  0.7124
 4983SOL     OW26407   2.096   2.360  13.575 -0.0634 -0.1657 -0.1806
 4983SOL    HW126408   2.055   2.386  13.657  0.7721  1.4795 -0.2891
 4983SOL    HW226409   2.179   2.407  13.582 -0.4776  0.6564 -0.8257
 4984SOL     OW26410   4.159   1.602   6.518  0.1607  0.4046 -0.1307
 4984SOL    HW126411   4.145   1.693   6.544  0.1178  0.0445  1.1198
 4984SOL    HW226412   4.228   1.577   6.580  0.5852 -1.4656 -1.3527
 4985SOL     OW26413   3.719   3.131  12.883  0.5829  0.2392 -0.0379
 4985SOL    HW126414   3.735   3.069  12.954  0.4553 -0.0539 -0.2623
 4985SOL    HW226415   3.729   3.074  12.807 -1.9337 -2.7662  1.8739
 4986SOL     OW26416   1.494   0.109   1.819 -0.0598 -0.4007  0.1807
 4986SOL    HW126417   1.546   0.189   1.820 -3.8348  2.0998 -1.6301
 4986SOL    HW226418   1.487   0.095   1.725  0.1497  1.7422 -0.1532
 4987SOL     OW26419   2.990   0.643   5.706  0.1162 -0.2611 -0.4782
 4987SOL    HW126420   2.955   0.562   5.745  0.5747  2.2298  5.0446
 4987SOL    HW226421   3.070   0.646   5.758  0.2502  0.8754 -0.7583
 4988SOL     OW26422   4.485   2.767  11.875  0.1579  0.2536  0.4094
 4988SOL    HW126423   4.398   2.729  11.867 -0.5903  2.7533 -3.1988
 4988SOL    HW226424   4.534   2.690  11.846  0.5480  1.1778 -1.3589
 4989SOL     OW26425   0.794   4.581   6.632  0.3108  0.4418  0.6408
 4989SOL    HW126426   0.778   4.580   6.538  0.3791  0.0314  0.6341
 4989SOL    HW226427   0.886   4.605   6.645  0.6283 -1.0045  1.0000
 4990SOL     OW26428   1.204   2.282  17.136  0.0859  0.0981  0.2218
 4990SOL    HW126429   1.247   2.361  17.170  0.5017  0.2875 -0.7368
 4990SOL    HW226430   1.245   2.285  17.049  0.8834  1.1670  0.6395
 4991SOL     OW26431   2.486   2.590   8.869 -0.0419  0.0946  0.4635
 4991SOL    HW126432   2.538   2.581   8.949  0.3868  1.6247  0.3548
 4991SOL    HW226433   2.540   2.543   8.804 -1.2433 -0.7272  0.0567
 4992SOL     OW26434   3.252   1.062   7.718  0.3615 -0.2373 -0.0861
 4992SOL    HW126435   3.197   1.010   7.777 -0.7663  1.4107  0.3050
 4992SOL    HW226436   3.339   1.026   7.733 -0.4581 -1.4128  1.8256
 4993SOL     OW26437   1.036   3.408   5.375  0.1962 -0.3252 -0.7412
 4993SOL    HW126438   0.986   3.466   5.318 -1.0329 -1.3223 -0.6796
 4993SOL    HW226439   0.966   3.380   5.435  0.8379 -0.7469 -0.1869
 4994SOL     OW26440   2.272   2.594   1.667  0.5995 -0.0627 -0.0448
 4994SOL    HW126441   2.334   2.588   1.741 -2.0475  3.0004  2.4143
 4994SOL    HW226442   2.230   2.508   1.673 -4.4670  2.5213  0.8195
 4995SOL     OW26443   0.284   4.711  16.928 -0.0252 -0.0928 -0.1078
 4995SOL    HW126444   0.213   0.009  16.990 -0.0853 -0.9443  0.0733
 4995SOL    HW226445   0.265   4.622  16.900  2.2839 -0.1565 -1.4679
 4996SOL     OW26446   0.325   2.768   1.490 -0.2347  0.7141 -0.3111
 4996SOL    HW126447   0.420   2.773   1.491 -0.2378  0.6823  0.1117
 4996SOL    HW226448   0.316   2.684   1.444  2.2222 -0.7879  1.9613
 4997SOL     OW26449   2.283   0.248  15.339  0.0655 -0.5029  0.7925
 4997SOL    HW126450   2.332   0.179  15.295 -0.3038 -2.0314  2.7374
 4997SOL    HW226451   2.207   0.245  15.280 -1.0738 -3.8242  2.4219
 4998SOL     OW26452   3.084   4.584  13.406  0.6078  0.4467 -0.1080
 4998SOL    HW126453   3.160   4.583  13.347  0.4854  2.1101 -0.3012
 4998SOL    HW226454   3.041   4.660  13.366  0.1261  0.2231 -0.0196
 4999SOL     OW26455   2.368   3.524   3.209 -0.3551 -0.2849  0.2083
 4999SOL    HW126456   2.318   3.603   3.228  0.9527  0.0128  2.3479
 4999SOL    HW226457   2.316   3.486   3.138  2.0962 -1.5281 -0.9145
 5000SOL     OW26458   2.544   4.189   6.023  0.3389 -0.4880  0.2985
 5000SOL    HW126459   2.619   4.223   5.974 -1.3672  1.4839 -0.9659
 5000SOL    HW226460   2.508   4.264   6.071  0.3817 -0.7775  0.7795
 5001SOL     OW26461   3.024   0.269   3.004  0.3571 -0.5934 -0.2314
 5001SOL    HW126462   3.072   0.315   2.935  0.8331 -0.4167  0.2200
 5001SOL    HW226463   2.938   0.249   2.965 -0.0869  0.7190  0.0819
 5002SOL     OW26464   3.759   1.735   5.680  0.0423 -0.0509  0.3136
 5002SOL    HW126465   3.824   1.685   5.729 -0.0441 -0.5520 -0.0812
 5002SOL    HW226466   3.697   1.663   5.666  0.8623 -1.1708  2.4538
 5003SOL     OW26467   1.255   3.267   2.154  0.4157  0.0165 -0.4213
 5003SOL    HW126468   1.310   3.319   2.213  1.2588 -0.0320 -1.1494
 5003SOL    HW226469   1.313   3.256   2.079 -0.3538  1.6540 -1.2583
 5004SOL     OW26470   4.272   1.040  10.729  0.1521 -1.0243 -0.0586
 5004SOL    HW126471   4.311   0.966  10.682  0.3887 -1.0731  0.2178
 5004SOL    HW226472   4.329   1.112  10.704  0.8140 -0.6113  2.6876
 5005SOL     OW26473   3.053   4.668   4.783  0.0467  0.9376 -0.0090
 5005SOL    HW126474   3.136   4.640   4.824 -0.6180 -0.2094  0.5593
 5005SOL    HW226475   3.042   0.035   4.819  1.5553  1.5254 -0.9800
 5006SOL     OW26476   3.361   3.849   7.892 -0.4345  0.8700  0.6879
 5006SOL    HW126477   3.414   3.923   7.864  0.6755  0.6921  2.3205
 5006SOL    HW226478   3.380   3.779   7.830  1.0527  0.6081  1.4441
 5007SOL     OW26479   1.689   2.447   3.769  0.7198 -0.2145  0.8005
 5007SOL    HW126480   1.696   2.409   3.857 -0.6444  0.3435  1.1577
 5007SOL    HW226481   1.595   2.466   3.766  0.8671  0.5116  0.7997
 5008SOL     OW26482   3.437   2.096   3.257  0.2476  0.0462  0.1954
 5008SOL    HW126483   3.356   2.045   3.249  0.9648 -1.1836  0.6750
 5008SOL    HW226484   3.410   2.172   3.308 -0.7813  0.1862 -0.5516
 5009SOL     OW26485   0.313   4.702   2.165  0.1730 -1.0432 -0.1826
 5009SOL    HW126486   0.394   0.004   2.212  0.5803  0.9481 -1.8084
 5009SOL    HW226487   0.268   4.639   2.220 -0.3439 -1.9110 -1.6190
 5010SOL     OW26488   0.430   2.605  17.073  0.3748  0.1547 -0.2293
 5010SOL    HW126489   0.424   2.672  17.142 -0.5998  0.5459 -0.6940
 5010SOL    HW226490   0.464   2.532  17.125 -0.8514 -1.0859 -1.1875
 5011SOL     OW26491   4.464   2.758  15.819 -0.2435 -0.6946  0.6296
 5011SOL    HW126492   4.545   2.747  15.869  0.3077 -2.2178 -0.6014
 5011SOL    HW226493   4.489   2.822  15.752 -0.8485  0.5584  1.5806
 5012SOL     OW26494   0.235   3.297   1.430 -0.1660 -0.0740 -0.0196
 5012SOL    HW126495   0.225   3.208   1.464  0.1442 -0.2911 -0.5053
 5012SOL    HW226496   0.149   3.333   1.451 -0.1478  0.1907 -0.4042
 5013SOL     OW26497   0.520   2.738   8.078 -0.0223 -0.0945  0.5410
 5013SOL    HW126498   0.541   2.644   8.077 -2.3586 -0.6025  0.7116
 5013SOL    HW226499   0.427   2.733   8.095  0.0765 -1.0767  0.8201
 5014SOL     OW26500   0.637   4.546   7.263 -0.1919 -0.2755 -0.3511
 5014SOL    HW126501   0.665   4.503   7.182  1.4292  0.9605 -0.4517
 5014SOL    HW226502   0.718   4.554   7.313 -0.0167 -0.4765 -0.6021
 5015SOL     OW26503   4.497   0.193   8.185  0.4173  0.6770  0.1816
 5015SOL    HW126504   4.553   0.268   8.165  1.0199  0.3969  0.8158
 5015SOL    HW226505   4.516   0.126   8.119  1.6235  1.8853 -0.6900
 5016SOL     OW26506   2.642   0.026   7.464  0.1595 -0.4558 -0.5374
 5016SOL    HW126507   2.697   4.687   7.515 -1.6845 -2.3197 -0.6987
 5016SOL    HW226508   2.714   0.079   7.431  0.3199 -1.2201 -1.4180
 5017SOL     OW26509   2.155   2.115   2.706  0.5174  0.1345 -0.4125
 5017SOL    HW126510   2.152   2.209   2.728  0.3033  0.4752 -1.8801
 5017SOL    HW226511   2.086   2.111   2.639 -0.1910  3.2735  0.0963
 5018SOL     OW26512   3.008   3.583   6.270 -0.6718 -0.0735 -0.4969
 5018SOL    HW126513   3.075   3.647   6.249  0.6005 -1.1693  0.2564
 5018SOL    HW226514   3.055   3.501   6.256  0.7418  0.7653 -0.5584
 5019SOL     OW26515   1.734   2.465   6.311 -0.1542 -0.0950 -0.4744
 5019SOL    HW126516   1.719   2.371   6.317  3.4140 -0.5843  1.0850
 5019SOL    HW226517   1.802   2.470   6.244 -0.8950 -0.1128 -1.2180
 5020SOL     OW26518   1.488   0.269   0.089  0.6174 -0.2888 -0.5172
 5020SOL    HW126519   1.413   0.211   0.102  1.3886 -1.3136 -0.6555
 5020SOL    HW226520   1.539   0.244   0.167  0.5774 -0.0276 -0.4059
 5021SOL     OW26521   0.393   4.264   5.491  0.2294  0.2258  0.0990
 5021SOL    HW126522   0.310   4.251   5.537  0.3152 -1.8001 -0.3134
 5021SOL    HW226523   0.413   4.356   5.506  1.5058  0.1375 -1.0466
 5022SOL     OW26524   2.179   4.396   4.764  0.0897  0.1164 -0.2458
 5022SOL    HW126525   2.205   4.323   4.707  1.5942  0.5828 -0.1449
 5022SOL    HW226526   2.251   4.408   4.825 -0.0737  0.0661 -0.0451
 5023SOL     OW26527   1.138   2.386   2.559 -0.3128 -0.2454  0.3263
 5023SOL    HW126528   1.089   2.404   2.479  1.9837 -0.2679 -1.0801
 5023SOL    HW226529   1.065   2.390   2.621 -0.5773 -3.0008  0.1699
 5024SOL     OW26530   3.205   3.409   7.726 -0.2905 -0.4783 -0.1606
 5024SOL    HW126531   3.144   3.481   7.707  0.2839  0.2007  0.5305
 5024SOL    HW226532   3.277   3.429   7.667 -2.3161  2.6199 -1.6007
 5025SOL     OW26533   2.959   3.680   3.967  0.0938 -0.0835 -0.1939
 5025SOL    HW126534   3.022   3.674   4.039  1.8424 -1.1338 -1.8247
 5025SOL    HW226535   2.987   3.761   3.924  1.9267 -1.4560 -1.6133
 5026SOL     OW26536   1.609   3.366   3.430  0.1081  0.2685  0.2917
 5026SOL    HW126537   1.624   3.449   3.474 -2.2813  2.0803 -2.2843
 5026SOL    HW226538   1.516   3.347   3.433  0.5331 -2.1657 -1.7122
 5027SOL     OW26539   4.437   4.337   8.683 -0.3332 -0.3622 -0.2113
 5027SOL    HW126540   4.380   4.278   8.731 -3.9744  0.6095 -3.3785
 5027SOL    HW226541   4.488   4.269   8.639 -0.1611  0.1722 -0.8352
 5028SOL     OW26542   0.757   3.898  11.835 -0.8313 -0.1363 -0.6122
 5028SOL    HW126543   0.784   3.883  11.926 -1.4046 -0.0963 -0.4369
 5028SOL    HW226544   0.834   3.948  11.809 -0.2283 -0.4530  0.5796
 5029SOL     OW26545   3.395   2.810   8.574  0.1811 -0.2283  0.0105
 5029SOL    HW126546   3.310   2.769   8.591  0.1662  0.4179  1.5288
 5029SOL    HW226547   3.421   2.848   8.658 -2.1945 -0.8678  1.0406
 5030SOL     OW26548   3.053   0.078   6.873 -0.1565 -0.0834  0.3246
 5030SOL    HW126549   3.132   0.131   6.868 -0.8976  1.0460  0.5805
 5030SOL    HW226550   3.061   0.057   6.966 -0.7303  2.5768  0.9886
 5031SOL     OW26551   1.004   3.177  14.803 -0.2231 -0.0112 -0.1059
 5031SOL    HW126552   1.038   3.128  14.728  0.0550  1.3775 -0.8776
 5031SOL    HW226553   0.949   3.250  14.776 -0.7594  0.0400  1.1331
 5032SOL     OW26554   3.290   4.564   6.931 -0.2059 -0.3535  0.3045
 5032SOL    HW126555   3.341   4.591   7.007 -0.8276  1.4502  0.0801
 5032SOL    HW226556   3.222   4.517   6.980 -0.6631  0.2507  0.2569
 5033SOL     OW26557   0.788   4.337   5.489 -0.1413 -0.3071 -0.2431
 5033SOL    HW126558   0.799   4.388   5.409  1.9663 -0.8887 -0.3208
 5033SOL    HW226559   0.731   4.387   5.547  0.5204  1.4178 -1.0769
 5034SOL     OW26560   4.197   4.497   2.630  0.8226 -0.0658 -0.1637
 5034SOL    HW126561   4.139   4.448   2.572  0.4895  0.4949 -0.3102
 5034SOL    HW226562   4.138   4.509   2.704 -0.4759  2.5541 -1.6127
 5035SOL     OW26563   1.976   4.249   9.558  0.0238 -0.6416 -0.7645
 5035SOL    HW126564   1.984   4.225   9.650  0.5821 -2.1450 -1.2005
 5035SOL    HW226565   2.061   4.278   9.525 -0.9661 -1.1713 -3.7867
 5036SOL     OW26566   1.802   1.009   3.528 -0.5371 -0.2514  0.1613
 5036SOL    HW126567   1.888   1.050   3.523 -2.1877  2.9882 -1.3052
 5036SOL    HW226568   1.769   1.015   3.439  0.8674 -0.1928 -0.3487
 5037SOL     OW26569   1.409   0.649   7.265  0.8461  0.7131  0.7127
 5037SOL    HW126570   1.397   0.588   7.338 -1.0787 -0.6250 -0.7231
 5037SOL    HW226571   1.406   0.732   7.312  1.1211  2.2448 -1.9995
 5038SOL     OW26572   0.094   3.639   4.388  0.0532  0.1173  0.2873
 5038SOL    HW126573   0.050   3.713   4.347 -1.7110 -1.5593 -0.8123
 5038SOL    HW226574   0.109   3.586   4.310  1.4873  2.5680 -1.1302
 5039SOL     OW26575   2.833   3.137   1.023  1.0040  0.2339 -0.5582
 5039SOL    HW126576   2.831   3.099   1.112 -3.0971 -2.0674 -1.6330
 5039SOL    HW226577   2.748   3.180   1.023  0.7627 -0.2419 -0.1671
 5040SOL     OW26578   4.361   0.776  15.998 -0.2393  0.0230 -0.4153
 5040SOL    HW126579   4.282   0.823  15.971 -0.7880 -0.8787 -0.3722
 5040SOL    HW226580   4.411   0.856  16.016 -1.0787  0.8026 -1.5481
 5041SOL     OW26581   3.416   1.367   3.510 -0.2490  0.2176 -0.6961
 5041SOL    HW126582   3.491   1.308   3.505 -0.7874 -0.4464 -0.9676
 5041SOL    HW226583   3.461   1.449   3.492 -0.7187  0.9963  1.7808
 5042SOL     OW26584   3.177   0.240  15.394 -0.3239  0.3501  0.0771
 5042SOL    HW126585   3.082   0.255  15.394 -0.0104  2.3790  1.3853
 5042SOL    HW226586   3.192   0.146  15.392  1.4189  0.6149  0.9169
 5043SOL     OW26587   1.638   0.186   6.066 -0.1793  0.6261  0.1640
 5043SOL    HW126588   1.589   0.125   6.010  1.1657  0.6370 -0.9995
 5043SOL    HW226589   1.717   0.137   6.086 -1.5628 -1.6085  0.0967
 5044SOL     OW26590   2.000   4.498  14.305  0.3116 -0.2418  0.1814
 5044SOL    HW126591   2.078   4.537  14.343  0.3567  0.2569 -0.4200
 5044SOL    HW226592   1.963   4.451  14.380 -0.8142 -1.1205 -0.9235
 5045SOL     OW26593   2.634   1.524   7.350  0.0721  0.5608  0.3167
 5045SOL    HW126594   2.702   1.471   7.390 -0.7588  0.2641  1.3257
 5045SOL    HW226595   2.644   1.608   7.395  0.2894 -0.3132  1.8739
 5046SOL     OW26596   1.629   3.322  14.398  0.0104 -0.1219 -0.1397
 5046SOL    HW126597   1.666   3.280  14.476 -0.5125  0.1740  0.2666
 5046SOL    HW226598   1.567   3.385  14.435  0.2288  0.6093 -1.0244
 5047SOL     OW26599   3.888   4.565   1.797  0.4783  0.3706  0.2443
 5047SOL    HW126600   3.843   4.499   1.850  0.7823  0.5153  0.6866
 5047SOL    HW226601   3.930   4.501   1.739  0.5889  0.4906  0.1918
 5048SOL     OW26602   3.082   3.811   5.602 -0.2911  0.3049  0.4153
 5048SOL    HW126603   3.098   3.827   5.695  1.5265 -1.7068  0.4622
 5048SOL    HW226604   3.129   3.882   5.558 -0.7487  0.1530 -0.3188
 5049SOL     OW26605   4.710   2.526  15.536  0.0254  0.3097  0.6158
 5049SOL    HW126606   0.003   2.616  15.564  1.1226  0.3806 -0.1330
 5049SOL    HW226607   4.704   2.541  15.442 -2.4754  0.5262  0.8224
 5050SOL     OW26608   2.092   0.022   3.153  0.1581 -0.0047  0.2318
 5050SOL    HW126609   2.146   4.696   3.216 -0.6301  1.1873  1.7901
 5050SOL    HW226610   2.029   4.674   3.132 -1.3694  1.9226 -1.5237
 5051SOL     OW26611   2.654   1.963   4.179  0.5435  0.3655 -0.7969
 5051SOL    HW126612   2.738   2.008   4.184 -0.1928  1.6917 -0.0663
 5051SOL    HW226613   2.665   1.876   4.142 -1.5342 -0.0626 -0.3915
 5052SOL     OW26614   2.992   0.275   8.141 -0.3329  1.3154 -0.2838
 5052SOL    HW126615   2.898   0.270   8.124 -0.0557  2.0996 -1.9983
 5052SOL    HW226616   3.000   0.291   8.236 -0.1618  1.0589 -0.2546
 5053SOL     OW26617   3.839   0.304  11.976  0.3910  0.1505 -0.5428
 5053SOL    HW126618   3.933   0.300  11.990  0.1263 -0.6550  1.1398
 5053SOL    HW226619   3.829   0.276  11.886  0.4875 -2.4291  0.2421
 5054SOL     OW26620   3.148   2.333   7.980  0.1628  0.0088  0.3623
 5054SOL    HW126621   3.136   2.265   7.915  2.4172  0.6654 -0.7569
 5054SOL    HW226622   3.162   2.407   7.920  1.4420  0.6266  1.4211
 5055SOL     OW26623   4.634   1.011   5.454  0.2019  0.4352 -0.0650
 5055SOL    HW126624   4.657   0.967   5.372  2.5380  1.7773 -0.1333
 5055SOL    HW226625   4.713   1.064   5.466 -1.2038  2.0977  1.7661
 5056SOL     OW26626   1.911   2.329   5.665 -0.2048  0.2533 -0.0792
 5056SOL    HW126627   1.886   2.355   5.576  1.0665  1.0462 -0.2150
 5056SOL    HW226628   2.005   2.315   5.654 -0.2760 -1.5556  1.6007
 5057SOL     OW26629   4.068   1.077   7.069 -0.4947 -0.0446 -0.2559
 5057SOL    HW126630   4.058   1.165   7.106  0.6454  0.2894 -0.7395
 5057SOL    HW226631   3.978   1.049   7.086  0.0459 -1.4116  0.4107
 5058SOL     OW26632   3.842   3.666  12.689  0.0976 -0.2676 -0.1305
 5058SOL    HW126633   3.842   3.702  12.778  0.8637 -1.1058  0.2063
 5058SOL    HW226634   3.804   3.737  12.637 -2.0560  0.7571  2.8507
 5059SOL     OW26635   3.614   3.742   1.188  0.0890  0.0395  0.6731
 5059SOL    HW126636   3.574   3.737   1.275  1.0074  2.7317  1.2517
 5059SOL    HW226637   3.639   3.656   1.154  0.9400  0.1759  0.9393
 5060SOL     OW26638   0.148   1.741   6.004  0.4301  0.3366 -0.1235
 5060SOL    HW126639   0.231   1.751   5.957  0.3917 -1.6181 -0.6136
 5060SOL    HW226640   0.163   1.657   6.047 -0.0723  0.0798 -0.4388
 5061SOL     OW26641   4.028   2.800   2.531  0.1175 -0.6709  0.3810
 5061SOL    HW126642   4.029   2.860   2.456  1.9813  0.3215  1.2009
 5061SOL    HW226643   4.039   2.713   2.493  0.1802 -0.7866  0.6651
 5062SOL     OW26644   3.284   1.724   3.925 -0.2574 -0.2260  0.2953
 5062SOL    HW126645   3.253   1.687   3.843  0.2891  0.2544 -0.1217
 5062SOL    HW226646   3.379   1.719   3.917 -0.2591  0.0538  0.0865
 5063SOL     OW26647   0.890   1.695   1.478  0.0002  0.7180  0.2261
 5063SOL    HW126648   0.824   1.629   1.496  1.4700 -0.1912  2.2845
 5063SOL    HW226649   0.968   1.647   1.506 -0.7962 -0.4061  0.5270
 5064SOL     OW26650   0.723   2.787   4.609 -0.2003  0.1390 -0.1300
 5064SOL    HW126651   0.652   2.722   4.609 -1.2800  1.3152 -0.3827
 5064SOL    HW226652   0.786   2.724   4.644 -0.1116 -0.2799 -1.0593
 5065SOL     OW26653   0.351   1.991   2.753  0.0447 -0.1574 -0.3349
 5065SOL    HW126654   0.317   1.902   2.765  1.9906 -0.7984  0.4972
 5065SOL    HW226655   0.445   1.979   2.735 -0.1586  0.1796 -1.6023
 5066SOL     OW26656   4.595   3.309   6.029 -0.1268  0.4167  0.4283
 5066SOL    HW126657   4.642   3.380   6.074 -2.4114  1.7470  0.7101
 5066SOL    HW226658   4.543   3.362   5.969  0.8890  1.2170  0.2412
 5067SOL     OW26659   1.372   1.532   2.854  0.0141  0.2395 -0.0408
 5067SOL    HW126660   1.435   1.460   2.853 -0.5723 -0.2386 -1.3589
 5067SOL    HW226661   1.386   1.545   2.948  0.4959 -0.9303  0.0510
 5068SOL     OW26662   4.553   0.775  11.563 -0.5505 -0.1010 -0.3397
 5068SOL    HW126663   4.605   0.740  11.636 -1.5670  0.2969  0.5852
 5068SOL    HW226664   4.557   0.867  11.588 -0.3705 -0.0320 -0.6305
 5069SOL     OW26665   0.314   4.497   6.782  0.2347 -0.3260  0.6080
 5069SOL    HW126666   0.383   4.433   6.761  0.0858 -0.2838 -0.0215
 5069SOL    HW226667   0.269   4.462   6.859 -1.2487  0.9087  0.3085
 5070SOL     OW26668   3.226   2.982  15.075  0.3414 -0.0387  0.0279
 5070SOL    HW126669   3.151   2.982  15.134 -0.5289 -1.6924 -1.0699
 5070SOL    HW226670   3.187   3.013  14.993  0.4329 -0.1628 -0.0609
 5071SOL     OW26671   0.197   1.384   7.908  0.0373  0.0556 -0.0510
 5071SOL    HW126672   0.204   1.338   7.992  0.9197 -0.1495 -0.2319
 5071SOL    HW226673   0.108   1.418   7.900  0.0522  0.8079  3.1994
 5072SOL     OW26674   4.409   1.917   6.815  0.3585  0.6484 -0.0518
 5072SOL    HW126675   4.417   1.916   6.719 -0.9680 -1.1913 -0.1493
 5072SOL    HW226676   4.391   2.010   6.824 -0.0087  0.5902 -0.1683
 5073SOL     OW26677   1.184   0.951   6.663 -0.9814 -0.0387  0.5181
 5073SOL    HW126678   1.187   1.046   6.670  0.2182 -0.0660  0.3496
 5073SOL    HW226679   1.252   0.933   6.598 -0.4478  1.1894  0.7376
 5074SOL     OW26680   0.319   2.031   4.366  0.3478  0.0530 -0.0309
 5074SOL    HW126681   0.393   2.046   4.306  1.1754 -1.0485  0.7173
 5074SOL    HW226682   0.279   2.118   4.369  1.6425  0.6232  0.5544
 5075SOL     OW26683   2.409   3.505  15.139 -0.4062 -0.6252 -0.1478
 5075SOL    HW126684   2.467   3.554  15.081 -0.1058 -1.9144 -0.9346
 5075SOL    HW226685   2.471   3.478  15.208  0.0886  0.8792 -0.0064
 5076SOL     OW26686   3.520   3.799   4.071  0.0631 -0.6138  0.4650
 5076SOL    HW126687   3.459   3.776   4.002 -0.0289  1.8351 -0.2960
 5076SOL    HW226688   3.558   3.872   4.021  1.2983  0.3867  2.8406
 5077SOL     OW26689   1.625   4.509   5.604 -0.4387 -0.2378 -0.2533
 5077SOL    HW126690   1.653   4.599   5.620 -0.7184 -0.2008  0.0264
 5077SOL    HW226691   1.710   4.471   5.585 -0.1369 -1.0261  2.6555
 5078SOL     OW26692   3.366   2.012   2.616 -0.3851 -0.2883 -0.0187
 5078SOL    HW126693   3.419   1.943   2.656 -2.6066 -1.9807 -0.0158
 5078SOL    HW226694   3.410   2.014   2.531 -1.0067 -2.3501 -0.3974
 5079SOL     OW26695   0.230   1.172  12.009 -0.1750 -0.5835  0.0222
 5079SOL    HW126696   0.215   1.257  11.966 -0.6623  0.5707  2.4802
 5079SOL    HW226697   0.269   1.201  12.091 -0.9291  2.8470 -0.7978
 5080SOL     OW26698   2.920   0.366  15.334  0.3232 -0.4749 -0.0494
 5080SOL    HW126699   2.826   0.365  15.318  0.8154 -2.6406 -2.7955
 5080SOL    HW226700   2.951   0.409  15.254  0.3739 -1.8761 -0.7690
 5081SOL     OW26701   4.647   1.694   4.275  0.0592  0.1639  0.5250
 5081SOL    HW126702   4.713   1.763   4.279 -0.7595  0.9870 -0.3982
 5081SOL    HW226703   4.612   1.694   4.364  0.0010  0.5754  0.5028
 5082SOL     OW26704   0.897   4.549   2.361  0.0951 -0.3186 -0.4689
 5082SOL    HW126705   0.869   4.619   2.302 -3.2316  0.8303  2.4808
 5082SOL    HW226706   0.901   4.478   2.297 -0.4834 -0.7631 -0.0094
 5083SOL     OW26707   2.360   4.654  13.463 -0.0398  0.5809 -0.9585
 5083SOL    HW126708   2.433   4.698  13.505 -0.4732  0.1071  0.2818
 5083SOL    HW226709   2.401   4.573  13.431  1.4601  1.2201 -0.6437
 5084SOL     OW26710   0.439   3.822  11.793  0.1539 -0.4545 -0.6670
 5084SOL    HW126711   0.441   3.909  11.831  0.2211 -1.0516  0.6969
 5084SOL    HW226712   0.396   3.771  11.862 -0.4578  0.0293 -0.6824
 5085SOL     OW26713   4.088   0.500   5.225 -0.0580 -0.0077  0.5586
 5085SOL    HW126714   4.111   0.407   5.236  1.9354  0.4467  0.3502
 5085SOL    HW226715   4.005   0.510   5.178  0.9365  0.4099 -1.1206
 5086SOL     OW26716   3.722   2.883   2.646 -0.3342 -0.4875  0.4203
 5086SOL    HW126717   3.674   2.892   2.564 -1.2617 -0.7201  0.9421
 5086SOL    HW226718   3.747   2.790   2.640 -1.4861 -0.7383 -0.4930
 5087SOL     OW26719   2.185   2.977   7.816 -0.1787  0.0348 -0.2911
 5087SOL    HW126720   2.195   2.883   7.833  0.0349  0.4403  1.8055
 5087SOL    HW226721   2.164   2.973   7.723  2.5928 -1.5088 -0.8561
 5088SOL     OW26722   4.166   3.056   3.780  0.0824 -0.7029 -0.5269
 5088SOL    HW126723   4.223   3.000   3.833 -0.1146  1.3916  1.9313
 5088SOL    HW226724   4.200   3.142   3.806 -2.3299 -0.0177  0.4537
 5089SOL     OW26725   0.123   0.499   2.210 -0.8657  0.0147 -0.2664
 5089SOL    HW126726   0.077   0.475   2.290 -2.1733  0.3450 -0.9130
 5089SOL    HW226727   0.067   0.464   2.140 -1.9148  0.3203  0.4176
 5090SOL     OW26728   3.636   1.474   2.672 -0.5358  0.0441 -0.5467
 5090SOL    HW126729   3.709   1.533   2.690 -1.1693  0.4688  0.6001
 5090SOL    HW226730   3.573   1.537   2.706  1.4224  0.9935  1.3227
 5091SOL     OW26731   1.716   4.378   9.567 -0.5074 -0.5354 -0.3143
 5091SOL    HW126732   1.738   4.400   9.477  2.0634  0.8532  0.6534
 5091SOL    HW226733   1.791   4.325   9.591  1.0681  1.8203 -0.0335
 5092SOL     OW26734   2.028   1.241   3.940 -0.3765  0.1713  0.6853
 5092SOL    HW126735   1.962   1.174   3.957  0.3888 -1.0963 -1.4066
 5092SOL    HW226736   2.058   1.246   4.031 -1.2345  1.9958  0.8681
 5093SOL     OW26737   0.704   0.802  17.197 -0.0990  0.3438 -0.6360
 5093SOL    HW126738   0.658   0.836  17.119 -1.1134 -1.8231 -0.9868
 5093SOL    HW226739   0.785   0.853  17.200 -0.4308  0.9043 -1.2560
 5094SOL     OW26740   2.345   3.856  12.152  0.5380 -1.0029 -0.4488
 5094SOL    HW126741   2.273   3.825  12.097 -0.1258 -1.1692  0.5264
 5094SOL    HW226742   2.358   3.778  12.206  0.7620 -0.0867  0.8026
 5095SOL     OW26743   1.422   1.486  16.363  0.0119  0.3137  0.2821
 5095SOL    HW126744   1.340   1.525  16.333 -0.4973 -1.6241 -0.8300
 5095SOL    HW226745   1.428   1.402  16.317 -2.5434  0.4244 -0.2450
 5096SOL     OW26746   4.487   0.908  17.265  0.5399  0.3380  0.0222
 5096SOL    HW126747   4.515   0.829  17.220  3.2848  1.1607  0.3149
 5096SOL    HW226748   4.396   0.911  17.234  0.5666 -1.3338 -0.2002
 5097SOL     OW26749   0.539   2.311   2.121  0.1942  0.5689  0.4392
 5097SOL    HW126750   0.464   2.253   2.135  0.6028  0.2550  1.3836
 5097SOL    HW226751   0.499   2.394   2.095  0.4940  0.4907 -0.2611
 5098SOL     OW26752   1.568   4.026   4.692 -0.0882 -0.1054  0.6515
 5098SOL    HW126753   1.653   4.067   4.676  0.4229 -2.0227 -1.5353
 5098SOL    HW226754   1.537   4.072   4.770 -0.7002  2.6231 -1.2064
 5099SOL     OW26755   1.977   0.689   3.495 -0.6031 -0.3676 -0.0078
 5099SOL    HW126756   2.009   0.775   3.468  0.3259 -0.4202  0.9559
 5099SOL    HW226757   2.054   0.641   3.465  0.3328 -0.5603  2.7009
 5100SOL     OW26758   1.526   3.911   9.035 -0.5601  0.6600 -0.1325
 5100SOL    HW126759   1.568   3.952   9.110  1.0974 -0.9120 -0.2028
 5100SOL    HW226760   1.433   3.932   9.044 -0.8308 -0.6939  0.2909
 5101SOL     OW26761   1.528   3.651  14.946  0.0140 -0.1522 -0.6384
 5101SOL    HW126762   1.453   3.613  14.900 -0.2516  0.8231 -1.0060
 5101SOL    HW226763   1.580   3.571  14.957  0.4791  0.4472  1.4591
 5102SOL     OW26764   1.892   2.783   6.228 -0.4068 -0.3859 -0.3639
 5102SOL    HW126765   1.828   2.760   6.161  0.1032 -4.0203  0.3835
 5102SOL    HW226766   1.946   2.704   6.221 -0.5987 -0.6162  0.8104
 5103SOL     OW26767   0.171   0.284  12.171  0.4974 -0.2891  0.6795
 5103SOL    HW126768   0.195   0.202  12.214  1.1013  0.2897  1.4549
 5103SOL    HW226769   0.217   0.278  12.087 -1.6347 -1.1824 -0.4183
 5104SOL     OW26770   3.857   0.985   3.318  0.0816  0.2970 -0.3985
 5104SOL    HW126771   3.873   0.971   3.411  2.6096 -1.1008 -1.0456
 5104SOL    HW226772   3.762   0.989   3.318 -0.0023 -1.3450  0.3124
 5105SOL     OW26773   2.988   0.899   6.265 -0.2091 -0.1013 -0.3796
 5105SOL    HW126774   3.076   0.903   6.229 -0.1964 -0.5082 -0.3835
 5105SOL    HW226775   3.007   0.879   6.357  2.3978  1.6135 -0.5496
 5106SOL     OW26776   3.132   3.996   4.123  0.3648 -0.5445 -1.0177
 5106SOL    HW126777   3.219   4.015   4.159 -0.0947  0.7725 -0.6163
 5106SOL    HW226778   3.138   3.900   4.125  2.1894 -0.3667  2.7115
 5107SOL     OW26779   2.154   0.088  13.465  0.0819 -0.3591  0.2482
 5107SOL    HW126780   2.193   0.127  13.387 -0.0453 -0.5373  0.0950
 5107SOL    HW226781   2.223   0.023  13.473 -1.2089 -1.5934  1.3167
 5108SOL     OW26782   1.359   4.332  15.868  0.4067 -0.3603  0.2633
 5108SOL    HW126783   1.315   4.249  15.848 -1.5435  0.8802 -0.6244
 5108SOL    HW226784   1.449   4.301  15.872  0.4981  0.1099  1.8286
 5109SOL     OW26785   4.241   1.306   2.088  0.8409 -0.4592  0.3523
 5109SOL    HW126786   4.187   1.351   2.154 -1.0697 -0.5411 -1.1530
 5109SOL    HW226787   4.214   1.219   2.115  0.7193 -0.7834 -0.8497
 5110SOL     OW26788   2.701   1.351   2.193 -0.4600  0.1569 -0.3926
 5110SOL    HW126789   2.657   1.286   2.248  0.0644 -0.4185 -0.6430
 5110SOL    HW226790   2.758   1.392   2.258 -0.9184 -1.5288  1.0492
 5111SOL     OW26791   0.589   0.463   3.313  0.1207 -0.5040  0.2812
 5111SOL    HW126792   0.579   0.381   3.361 -2.7129  0.9051  2.1226
 5111SOL    HW226793   0.567   0.438   3.223 -0.4518  0.8854  0.0348
 5112SOL     OW26794   0.175   4.555   1.080 -0.4511  0.2676  0.1732
 5112SOL    HW126795   0.236   4.606   1.027 -0.6091  0.4904  0.2032
 5112SOL    HW226796   0.212   4.467   1.078 -2.8753 -0.7072 -1.8090
 5113SOL     OW26797   3.138   3.118  10.843 -0.0273  0.5428  0.0615
 5113SOL    HW126798   3.223   3.131  10.885  0.1939 -0.5934 -0.0495
 5113SOL    HW226799   3.128   3.024  10.830 -0.0257  0.6514 -0.6919
 5114SOL     OW26800   2.552   3.288   7.948  0.1328 -0.1891 -0.2264
 5114SOL    HW126801   2.459   3.280   7.969  0.0596 -1.1541 -0.8954
 5114SOL    HW226802   2.587   3.306   8.035  1.0159 -0.1796 -0.5791
 5115SOL     OW26803   0.705   2.752  17.348  0.3535 -0.8148 -0.3097
 5115SOL    HW126804   0.621   2.766  17.304 -1.0426 -1.1062  2.2817
 5115SOL    HW226805   0.683   2.692  17.419  1.0160  0.3179  0.8394
 5116SOL     OW26806   1.940   4.061   3.492  0.8198 -0.1407  0.6195
 5116SOL    HW126807   1.911   4.095   3.577 -1.4079 -0.2388 -0.0911
 5116SOL    HW226808   1.985   4.133   3.450 -0.1414  0.5485  0.7712
 5117SOL     OW26809   4.092   2.841   2.182  0.4696 -0.2065  0.1153
 5117SOL    HW126810   4.002   2.855   2.213 -0.1502 -0.7010 -1.4709
 5117SOL    HW226811   4.117   2.925   2.144 -1.3141  0.5259  0.5688
 5118SOL     OW26812   1.680   3.482   6.671 -0.6772  0.6375  0.5994
 5118SOL    HW126813   1.608   3.541   6.692 -1.6650 -0.6184  0.7829
 5118SOL    HW226814   1.696   3.515   6.583 -0.4227  1.4356  0.9421
 5119SOL     OW26815   2.965   0.322   0.272 -0.1870 -0.2093 -0.1723
 5119SOL    HW126816   2.954   0.408   0.315 -1.8131 -1.5864  2.1734
 5119SOL    HW226817   2.898   0.329   0.204  0.4537  0.6547 -0.7199
 5120SOL     OW26818   4.695   3.348   8.069  0.6644 -0.0798 -0.4585
 5120SOL    HW126819   0.030   3.364   8.146  0.2212  1.1908 -0.4018
 5120SOL    HW226820   4.638   3.278   8.101 -2.7825  1.6706 -2.7249
 5121SOL     OW26821   1.694   1.466   5.055 -0.4106 -0.1295 -0.1557
 5121SOL    HW126822   1.726   1.493   4.969 -1.5220  1.3256 -0.1053
 5121SOL    HW226823   1.719   1.373   5.059 -0.2419 -0.0873 -0.2608
 5122SOL     OW26824   3.966   3.765   6.970 -0.1979  0.1675  0.0385
 5122SOL    HW126825   3.871   3.779   6.965 -0.1585  0.8175  1.2129
 5122SOL    HW226826   3.965   3.674   6.940  0.9238  0.9742 -2.4764
 5123SOL     OW26827   2.395   4.390   4.308 -0.0628  0.3727 -0.0532
 5123SOL    HW126828   2.377   4.438   4.389  0.0065 -0.5334  0.5072
 5123SOL    HW226829   2.307   4.368   4.278 -0.4471  0.5575  0.9405
 5124SOL     OW26830   1.119   0.498   5.516 -0.0544  0.1469 -0.3632
 5124SOL    HW126831   1.057   0.458   5.577  2.3667 -0.0795  1.9747
 5124SOL    HW226832   1.091   0.450   5.438  1.0581 -1.7492  0.3810
 5125SOL     OW26833   1.151   3.270  10.421  0.5156  0.2975 -0.1368
 5125SOL    HW126834   1.116   3.349  10.380  0.0761  0.2705  0.1780
 5125SOL    HW226835   1.234   3.272  10.375  0.3516 -0.2086 -0.4493
 5126SOL     OW26836   2.164   4.445  13.312  0.2452  0.3318  0.0585
 5126SOL    HW126837   2.257   4.441  13.289 -0.1843  0.0030 -1.6144
 5126SOL    HW226838   2.159   4.408  13.400  0.3019 -2.1180 -0.9598
 5127SOL     OW26839   1.735   4.707   1.712 -0.1865  0.5799  0.5716
 5127SOL    HW126840   1.683   4.635   1.749 -1.0610 -0.4012 -2.5441
 5127SOL    HW226841   1.667   0.012   1.650 -1.0737  0.6126  1.5515
 5128SOL     OW26842   0.188   2.491   7.601  0.0700  0.7463 -0.0444
 5128SOL    HW126843   0.158   2.518   7.514 -3.3412  3.1019  1.8542
 5128SOL    HW226844   0.138   2.541   7.665 -1.6660 -2.9129  1.5104
 5129SOL     OW26845   2.009   3.541  10.930 -0.5502 -0.4545  0.0179
 5129SOL    HW126846   2.090   3.527  10.979 -1.0485  2.6590  1.7787
 5129SOL    HW226847   1.943   3.506  10.990 -2.2890  0.4167 -1.3884
 5130SOL     OW26848   2.770   2.712  11.786  0.3108  0.4162  0.2830
 5130SOL    HW126849   2.820   2.780  11.832  0.1532  1.1786 -0.6813
 5130SOL    HW226850   2.681   2.735  11.813 -0.3975 -1.6741 -0.3170
 5131SOL     OW26851   2.416   2.215   4.278  0.6852 -0.1479  0.0280
 5131SOL    HW126852   2.408   2.137   4.224 -0.7364 -0.3430  0.5224
 5131SOL    HW226853   2.427   2.292   4.222 -0.7814 -0.0526 -0.1294
 5132SOL     OW26854   1.884   4.487  13.065 -0.3523 -0.1404 -0.0492
 5132SOL    HW126855   1.790   4.478  13.051 -0.3875  0.6550 -0.2842
 5132SOL    HW226856   1.910   4.568  13.021 -0.2533 -0.5669 -0.7695
 5133SOL     OW26857   2.202   0.608   8.239  0.8126  0.1565  0.2321
 5133SOL    HW126858   2.286   0.564   8.228 -0.2693 -1.3057 -2.0871
 5133SOL    HW226859   2.205   0.685   8.182 -1.1510  0.0066 -0.0846
 5134SOL     OW26860   2.433   0.251   3.896 -0.2792 -0.8731 -0.4688
 5134SOL    HW126861   2.450   0.163   3.864 -0.8709 -0.0430 -3.1207
 5134SOL    HW226862   2.427   0.300   3.814 -0.5884 -1.0097 -0.5284
 5135SOL     OW26863   3.099   1.977  10.651 -0.0096  0.1362  0.0606
 5135SOL    HW126864   3.021   1.979  10.595 -1.7110  0.7037  2.4752
 5135SOL    HW226865   3.065   1.949  10.736  1.3423 -2.1762 -0.1452
 5136SOL     OW26866   0.542   0.221   4.223  0.0389  0.4945 -0.4688
 5136SOL    HW126867   0.473   0.180   4.275  1.1897 -0.1830  0.5465
 5136SOL    HW226868   0.568   0.140   4.177  0.7574  0.0169  0.7812
 5137SOL     OW26869   0.412   0.080  13.676 -0.2002 -0.1853  0.4087
 5137SOL    HW126870   0.344   0.063  13.741 -1.0468 -0.4049 -0.5372
 5137SOL    HW226871   0.373   0.024  13.609  0.5579  0.1912 -0.3400
 5138SOL     OW26872   2.151   1.922   6.775 -0.4390  0.0299  0.0597
 5138SOL    HW126873   2.158   2.014   6.749  1.2053  0.5082  2.2871
 5138SOL    HW226874   2.241   1.907   6.803 -0.7960 -0.9459  0.6679
 5139SOL     OW26875   4.186   3.762   9.764 -0.4595 -0.0453  0.2214
 5139SOL    HW126876   4.136   3.700   9.818  2.3423 -0.2633  2.5548
 5139SOL    HW226877   4.171   3.725   9.677 -0.6591 -1.3045  0.7896
 5140SOL     OW26878   4.148   0.283   1.111  0.3935  0.4376 -0.1818
 5140SOL    HW126879   4.210   0.234   1.165 -0.6996 -1.4492 -0.6122
 5140SOL    HW226880   4.116   0.345   1.176 -2.7894 -3.2581  1.8178
 5141SOL     OW26881   0.728   2.873   3.576 -0.9795  0.1581  0.4335
 5141SOL    HW126882   0.644   2.855   3.532 -1.0563  3.6401 -0.8671
 5141SOL    HW226883   0.705   2.933   3.647 -2.1117 -0.0215  0.2206
 5142SOL     OW26884   0.760   3.144   5.964 -0.3211  0.2395 -0.1153
 5142SOL    HW126885   0.682   3.093   5.987  0.3636 -0.2205  1.1495
 5142SOL    HW226886   0.737   3.171   5.875 -1.5328 -3.0822 -0.8314
 5143SOL     OW26887   3.296   1.503  12.991  0.3557 -0.5163  0.1938
 5143SOL    HW126888   3.219   1.446  12.990  0.3187 -0.5228  1.9525
 5143SOL    HW226889   3.308   1.531  12.900 -0.2428 -1.0802 -0.0566
 5144SOL     OW26890   0.598   0.324   6.930  0.2368 -0.1339  0.0659
 5144SOL    HW126891   0.673   0.288   6.977 -2.1418 -1.5563  2.8563
 5144SOL    HW226892   0.534   0.252   6.922 -0.4003  0.3663  0.6405
 5145SOL     OW26893   3.578   3.690   4.473  0.1272 -0.1258 -0.1577
 5145SOL    HW126894   3.648   3.695   4.408  0.9448 -0.2634  0.7129
 5145SOL    HW226895   3.530   3.620   4.429 -0.8284  0.2963  0.2140
 5146SOL     OW26896   4.241   2.707  13.285  0.3102  0.1102  0.3749
 5146SOL    HW126897   4.235   2.680  13.376  0.8890 -0.5565  0.2161
 5146SOL    HW226898   4.209   2.797  13.289 -0.1145 -0.0439  0.4442
 5147SOL     OW26899   1.093   2.010  16.964  0.1384  0.2470 -0.3404
 5147SOL    HW126900   1.099   1.990  16.871 -2.8244 -0.1812 -0.4204
 5147SOL    HW226901   1.000   1.999  16.983  0.2152 -1.5363 -1.0924
 5148SOL     OW26902   2.857   3.043   1.302 -0.5601  0.6606 -0.5891
 5148SOL    HW126903   2.802   3.076   1.373  0.3448 -0.0341  0.4138
 5148SOL    HW226904   2.940   3.084   1.328  0.4467 -1.9998  0.3493
 5149SOL     OW26905   1.694   4.373   9.939  0.0476 -0.3082  0.5867
 5149SOL    HW126906   1.667   4.341  10.025 -0.4727 -2.7569 -0.4855
 5149SOL    HW226907   1.632   4.329   9.881 -0.9698  0.5932  1.0046
 5150SOL     OW26908   3.738   0.105   1.769 -0.1310  0.1695 -0.3328
 5150SOL    HW126909   3.682   0.028   1.783  1.4244 -1.0488 -0.7920
 5150SOL    HW226910   3.778   0.114   1.856  1.2014  1.7674 -1.1125
 5151SOL     OW26911   1.390   3.096   6.001  0.2430 -0.2617 -0.0501
 5151SOL    HW126912   1.468   3.059   6.042  0.8744  1.3255  0.1950
 5151SOL    HW226913   1.327   3.026   6.018  2.2246 -1.5210  2.0194
 5152SOL     OW26914   0.084   2.950  16.029  0.2275 -0.0312  0.5748
 5152SOL    HW126915   0.005   3.004  16.034  0.1318 -0.3375  2.3736
 5152SOL    HW226916   0.144   3.014  15.990 -1.9127  2.6600  1.7061
 5153SOL     OW26917   1.817   4.468   5.030 -0.3084 -0.4790  0.0874
 5153SOL    HW126918   1.893   4.517   4.999 -1.3545  2.0413  1.4826
 5153SOL    HW226919   1.835   4.478   5.123  0.7175  0.4098 -0.2053
 5154SOL     OW26920   2.795   2.797   8.691 -0.1465  0.3889  0.1589
 5154SOL    HW126921   2.713   2.809   8.740  0.2611 -0.0617  0.9409
 5154SOL    HW226922   2.803   2.702   8.695  0.1414  0.3785 -0.6599
 5155SOL     OW26923   1.819   1.090   3.974 -0.4032 -0.5317 -0.6307
 5155SOL    HW126924   1.768   1.059   4.050  1.9000 -0.2555  1.0287
 5155SOL    HW226925   1.772   1.053   3.900 -0.8521 -0.2916 -0.4688
 5156SOL     OW26926   2.429   4.432   1.364 -0.3690 -0.2210  0.4861
 5156SOL    HW126927   2.492   4.388   1.420 -0.4424 -1.2456 -0.2391
 5156SOL    HW226928   2.358   4.452   1.426  1.1287  0.5530  1.9608
 5157SOL     OW26929   0.597   2.319   5.274 -0.2202 -0.3344 -0.1262
 5157SOL    HW126930   0.692   2.313   5.263 -0.3608 -0.8818 -1.0799
 5157SOL    HW226931   0.602   2.325   5.369 -2.1687  1.2885 -0.1221
 5158SOL     OW26932   0.605   4.540  10.530  0.2156  0.6621  0.1009
 5158SOL    HW126933   0.561   4.488  10.598 -0.3045  0.3215 -0.5010
 5158SOL    HW226934   0.614   4.620  10.582 -2.7059  1.6180 -0.8480
 5159SOL     OW26935   1.899   2.482   7.244  0.5940 -0.1679 -0.2153
 5159SOL    HW126936   1.915   2.565   7.200  0.8476 -0.2557 -0.2889
 5159SOL    HW226937   1.817   2.504   7.288 -0.3681 -0.1294 -2.0056
 5160SOL     OW26938   4.474   0.403   0.950  0.4820 -0.0659  0.1197
 5160SOL    HW126939   4.559   0.444   0.965  0.8115 -0.9464  0.6583
 5160SOL    HW226940   4.493   0.329   1.008 -1.3680  0.7864  1.7673
 5161SOL     OW26941   4.381   2.962   5.670  0.3389  0.3335 -0.7971
 5161SOL    HW126942   4.379   2.897   5.740 -0.4325  0.6112 -0.5544
 5161SOL    HW226943   4.472   2.986   5.687  0.0349  0.1045  1.0847
 5162SOL     OW26944   3.802   3.403   4.438  0.2033 -0.5908 -0.9346
 5162SOL    HW126945   3.864   3.332   4.451 -0.5137 -1.1810 -0.7232
 5162SOL    HW226946   3.719   3.357   4.425  0.0953 -0.8974  0.7517
 5163SOL     OW26947   2.914   1.051  16.783 -0.3113  0.9139 -0.1148
 5163SOL    HW126948   2.901   1.016  16.694  0.7190 -0.4366  0.2612
 5163SOL    HW226949   2.946   1.138  16.758  2.8579 -1.0372 -3.0010
 5164SOL     OW26950   0.239   4.430   3.826  0.4430 -0.2014 -0.2868
 5164SOL    HW126951   0.262   4.345   3.865  0.0190  0.4652  1.4115
 5164SOL    HW226952   0.301   4.484   3.874 -1.2864  0.9654  0.6439
 5165SOL     OW26953   3.048   3.756  12.010  0.2478  0.0378  0.4370
 5165SOL    HW126954   3.139   3.757  11.980  0.2584 -0.3481  0.4615
 5165SOL    HW226955   3.042   3.662  12.026  0.9803  0.0991  1.0716
 5166SOL     OW26956   3.503   2.207   3.898  0.0662 -0.3977  0.0953
 5166SOL    HW126957   3.434   2.202   3.831 -1.0391 -1.4445  1.3117
 5166SOL    HW226958   3.571   2.154   3.855  0.4241  0.8792 -0.9034
 5167SOL     OW26959   0.149   0.031  11.993  0.6208  0.3081 -0.3377
 5167SOL    HW126960   0.141   4.656  11.985  0.7351  0.0867  2.1346
 5167SOL    HW226961   0.213   0.036  12.064  0.5923 -1.0783 -0.1996
 5168SOL     OW26962   0.834   3.754  14.084  0.0383 -0.3364 -0.2714
 5168SOL    HW126963   0.906   3.713  14.035  1.2663  1.5137 -0.0339
 5168SOL    HW226964   0.796   3.678  14.127  1.0374 -0.7446 -0.1025
 5169SOL     OW26965   0.151   4.263   5.687  0.1936  0.3995 -0.0745
 5169SOL    HW126966   0.198   4.332   5.733 -0.0019  0.4479  0.0522
 5169SOL    HW226967   0.064   4.301   5.671  1.3094  2.6111 -0.9561
 5170SOL     OW26968   2.836   2.827   8.151 -0.0557  0.2486 -0.6896
 5170SOL    HW126969   2.878   2.793   8.229  0.2107 -2.5499 -2.0640
 5170SOL    HW226970   2.870   2.917   8.149 -1.7037  0.9023  0.5738
 5171SOL     OW26971   2.321   3.608   3.668  0.3257 -0.0328  0.1725
 5171SOL    HW126972   2.248   3.591   3.608 -0.5394  0.5782  1.0472
 5171SOL    HW226973   2.371   3.529   3.649 -1.4145 -1.6373  2.2352
 5172SOL     OW26974   4.073   2.099   6.901 -0.4255 -0.3592  0.0693
 5172SOL    HW126975   4.098   2.085   6.810 -1.9286  1.0004 -0.5488
 5172SOL    HW226976   4.153   2.073   6.946  0.4674  0.2597 -1.1622
 5173SOL     OW26977   1.474   2.186   5.869 -0.0202 -0.4963 -0.1788
 5173SOL    HW126978   1.485   2.103   5.822  1.6393 -0.9796  1.0407
 5173SOL    HW226979   1.546   2.172   5.931 -0.1572  0.6025  0.2220
 5174SOL     OW26980   4.450   4.606   8.829 -0.6682 -0.0034 -0.2936
 5174SOL    HW126981   4.355   4.596   8.833 -0.6191  0.2284  1.3848
 5174SOL    HW226982   4.470   4.517   8.803 -0.3808  0.5922 -2.1083
 5175SOL     OW26983   3.126   2.834   9.353 -0.7607 -0.3456  0.0972
 5175SOL    HW126984   3.033   2.844   9.332 -0.5073 -2.6176 -2.0905
 5175SOL    HW226985   3.117   2.739   9.357  2.4499 -0.6972 -0.8031
 5176SOL     OW26986   3.842   0.469  11.271 -0.4787 -0.3337  0.0070
 5176SOL    HW126987   3.874   0.554  11.242  2.3336 -1.3012  0.3000
 5176SOL    HW226988   3.749   0.481  11.249  0.2182  1.3096 -1.9682
 5177SOL     OW26989   0.735   0.130   0.981  0.0988 -0.3446  0.1130
 5177SOL    HW126990   0.676   0.204   0.994  1.1598  0.4598  0.3561
 5177SOL    HW226991   0.713   0.103   0.892 -0.6314  1.8501 -0.3793
 5178SOL     OW26992   2.288   3.328   5.525  0.2132  0.3655  0.5740
 5178SOL    HW126993   2.357   3.366   5.471  0.3712 -0.8289 -0.0728
 5178SOL    HW226994   2.245   3.284   5.451 -0.4447  2.0841 -0.0525
 5179SOL     OW26995   1.506   0.085  15.247 -0.0545 -0.1393  0.2349
 5179SOL    HW126996   1.455   0.006  15.268  0.5892 -1.3345 -2.6811
 5179SOL    HW226997   1.576   0.084  15.312 -1.3906 -1.5519  1.6582
 5180SOL     OW26998   0.944   4.605  17.305  0.1981 -0.5760 -0.2256
 5180SOL    HW126999   0.904   4.681  17.262  1.1704  1.0513  1.7408
 5180SOL    HW227000   1.035   4.622  17.281 -0.1319  1.5628 -0.0034
 5181SOL     OW27001   4.410   0.027   2.783  0.3015  0.0001 -0.1266
 5181SOL    HW127002   4.336   0.034   2.722  0.8480 -0.4924 -0.8470
 5181SOL    HW227003   4.436   4.655   2.776  1.2959  0.4264 -1.8926
 5182SOL     OW27004   2.171   2.647  12.580 -0.1648 -0.4741  0.4161
 5182SOL    HW127005   2.108   2.575  12.568  0.8300 -0.8647 -2.4757
 5182SOL    HW227006   2.241   2.609  12.526 -1.1112 -2.0228  0.2854
 5183SOL     OW27007   2.260   2.085  13.402 -0.1828  0.1444 -0.3123
 5183SOL    HW127008   2.164   2.086  13.412 -0.1589 -1.3837  0.0229
 5183SOL    HW227009   2.287   2.043  13.484  0.8302  1.2097 -0.1162
 5184SOL     OW27010   4.412   4.146   6.623 -0.0234 -0.1282  0.8362
 5184SOL    HW127011   4.368   4.147   6.538  0.0385 -0.1783  0.8038
 5184SOL    HW227012   4.502   4.155   6.592 -0.4921  2.7236  0.3410
 5185SOL     OW27013   1.197   0.724   6.793 -0.2707 -0.0725 -0.4566
 5185SOL    HW127014   1.277   0.680   6.765 -0.0905 -1.1936  1.7750
 5185SOL    HW227015   1.205   0.815   6.763 -1.2506  0.4745  0.9463
 5186SOL     OW27016   1.235   3.861   6.138  0.1818  0.4850 -0.1266
 5186SOL    HW127017   1.182   3.880   6.215 -0.9932  0.3535 -0.9170
 5186SOL    HW227018   1.200   3.778   6.107  0.4107  0.7670 -1.1313
 5187SOL     OW27019   4.435   3.070   7.369 -0.0222 -0.1008 -0.2094
 5187SOL    HW127020   4.402   2.983   7.390 -0.2198 -0.1001 -0.5171
 5187SOL    HW227021   4.397   3.066   7.281  0.0033 -0.3174 -0.2106
 5188SOL     OW27022   0.197   3.870   2.832  0.5161  0.0910 -0.7423
 5188SOL    HW127023   0.146   3.808   2.885  0.0881  0.0843 -1.1593
 5188SOL    HW227024   0.274   3.818   2.811  2.0321  2.2559 -0.5814
 5189SOL     OW27025   1.776   0.646  10.200 -0.7240  0.2143  0.0103
 5189SOL    HW127026   1.723   0.606  10.131 -2.1020 -1.1183  1.8341
 5189SOL    HW227027   1.846   0.674  10.141 -1.2432 -1.3556 -1.3406
 5190SOL     OW27028   3.811   4.053   8.485  0.3381 -0.5563  0.0165
 5190SOL    HW127029   3.881   4.076   8.425  0.4887 -0.5899  0.1783
 5190SOL    HW227030   3.837   4.096   8.567  1.4002  0.4264 -0.8361
 5191SOL     OW27031   1.952   1.800   0.858  0.6830 -0.0182  0.2617
 5191SOL    HW127032   1.915   1.752   0.783 -1.0587  2.0613 -0.1901
 5191SOL    HW227033   2.017   1.736   0.886  1.2488 -0.2602 -1.5841
 5192SOL     OW27034   3.828   4.362  11.933  0.0941 -0.6492 -0.5514
 5192SOL    HW127035   3.903   4.414  11.905  0.0265  0.0166  0.4885
 5192SOL    HW227036   3.836   4.279  11.887 -2.3873 -1.9159  1.3027
 5193SOL     OW27037   1.836   2.283  16.717  0.3594  0.2808 -0.4195
 5193SOL    HW127038   1.757   2.292  16.665  0.8656 -0.3372 -1.2960
 5193SOL    HW227039   1.891   2.239  16.653  0.2118  0.7787 -0.8897
 5194SOL     OW27040   3.801   3.492   7.148  0.1087  0.4076 -0.3005
 5194SOL    HW127041   3.742   3.489   7.073 -0.3104 -2.3712  0.1148
 5194SOL    HW227042   3.883   3.480   7.101  0.5332  1.3139  0.2141
 5195SOL     OW27043   0.265   0.758  11.901 -0.4875 -0.0552  0.0238
 5195SOL    HW127044   0.188   0.766  11.958  1.1916  0.4492  2.1968
 5195SOL    HW227045   0.328   0.814  11.947  0.0103 -0.5223 -0.0912
 5196SOL     OW27046   1.250   0.000   3.070  0.2939  0.0620  0.0310
 5196SOL    HW127047   1.329   4.682   3.107 -0.2925 -1.0413  0.1447
 5196SOL    HW227048   1.195   4.643   3.085  1.1752 -0.8691 -1.5928
 5197SOL     OW27049   3.642   0.472   5.263 -0.8799  0.2300  0.1088
 5197SOL    HW127050   3.553   0.499   5.240 -0.5735  0.3520 -0.9592
 5197SOL    HW227051   3.685   0.553   5.287 -1.3847  1.4070 -2.9397
 5198SOL     OW27052   3.762   0.768   5.108 -0.6648  0.2067 -0.1865
 5198SOL    HW127053   3.770   0.770   5.204  1.1583 -1.2127 -0.3075
 5198SOL    HW227054   3.715   0.851   5.099 -0.3980  0.2396 -1.2185
 5199SOL     OW27055   3.880   1.208  13.377 -0.2072  0.0956 -0.2210
 5199SOL    HW127056   3.831   1.286  13.353 -0.1774  0.6149  1.3923
 5199SOL    HW227057   3.828   1.145  13.327 -0.0504 -0.6232  0.5170
 5200SOL     OW27058   2.460   4.611   7.976 -0.1649 -0.3088 -0.7143
 5200SOL    HW127059   2.452   4.694   7.930  0.1949  0.1656  0.0839
 5200SOL    HW227060   2.469   4.545   7.907  2.3324 -0.2874 -0.4037
 5201SOL     OW27061   2.671   0.105  16.315  0.7258  0.1971  0.0328
 5201SOL    HW127062   2.629   0.144  16.392  1.0409 -1.1283  0.8940
 5201SOL    HW227063   2.595   0.090  16.260  1.1071  3.4878 -1.3794
 5202SOL     OW27064   4.498   0.599   1.567  0.5083 -0.4677 -0.6282
 5202SOL    HW127065   4.453   0.545   1.632 -1.7288  1.4260 -0.5854
 5202SOL    HW227066   4.436   0.604   1.494 -1.4328 -0.5770  1.0324
 5203SOL     OW27067   3.223   0.582   5.959 -0.5141  0.3839 -0.0857
 5203SOL    HW127068   3.256   0.654   6.013 -0.6608  1.6059 -1.6414
 5203SOL    HW227069   3.139   0.576   6.005 -0.5002 -0.3763 -0.1580
 5204SOL     OW27070   4.289   2.697  17.200  0.3025  0.4291  0.8160
 5204SOL    HW127071   4.256   2.627  17.144  2.3801 -1.6051  2.1105
 5204SOL    HW227072   4.333   2.752  17.135 -1.6392 -0.4859 -1.2432
 5205SOL     OW27073   0.732   1.861  15.454  0.1473  0.6793  0.1061
 5205SOL    HW127074   0.816   1.886  15.492 -0.0984 -0.9600  1.7857
 5205SOL    HW227075   0.719   1.941  15.403 -0.0745 -0.3126 -1.3833
 5206SOL     OW27076   3.604   4.079  15.814 -0.1632  0.4569  0.0593
 5206SOL    HW127077   3.694   4.108  15.802  0.8191 -1.0007  4.1292
 5206SOL    HW227078   3.560   4.160  15.787 -0.5851  1.1389  2.8484
 5207SOL     OW27079   4.466   0.320   9.264  0.3803  0.0021  0.3121
 5207SOL    HW127080   4.427   0.241   9.227  0.9515  0.3041 -0.9299
 5207SOL    HW227081   4.510   0.364   9.192 -0.5298 -0.7874 -0.7148
 5208SOL     OW27082   3.855   2.616   5.983 -0.3469 -0.1509 -0.1864
 5208SOL    HW127083   3.801   2.566   5.921 -0.1357  0.0595 -0.5429
 5208SOL    HW227084   3.849   2.559   6.060  1.8424 -0.8396 -0.5153
 5209SOL     OW27085   2.900   1.677   8.516  0.0723 -0.2219 -0.0833
 5209SOL    HW127086   2.809   1.703   8.506 -0.5305 -2.1511  0.4890
 5209SOL    HW227087   2.896   1.585   8.491  0.8447 -0.2400 -0.1588
 5210SOL     OW27088   0.255   1.586  14.655  0.5457  0.2306  0.6583
 5210SOL    HW127089   0.310   1.533  14.597  1.7670  2.3528 -0.1293
 5210SOL    HW227090   0.189   1.524  14.684  0.1029  0.5016  0.2288
 5211SOL     OW27091   1.006   3.782  13.577 -0.4453 -0.1203  0.2626
 5211SOL    HW127092   1.004   3.689  13.557  1.3174 -0.1592  0.3058
 5211SOL    HW227093   0.917   3.812  13.558 -0.8335  0.1019  2.5174
 5212SOL     OW27094   2.175   3.649   5.424  0.3827  0.0307  0.6692
 5212SOL    HW127095   2.135   3.736   5.433 -0.8007 -0.3601 -0.7983
 5212SOL    HW227096   2.116   3.597   5.478  0.2136 -1.1764 -0.6957
 5213SOL     OW27097   3.319   3.723   9.967  0.0360 -0.1337  0.0228
 5213SOL    HW127098   3.277   3.808   9.961 -0.2545 -0.6077 -4.7807
 5213SOL    HW227099   3.407   3.754   9.986 -0.7338  1.6564  0.6654
 5214SOL     OW27100   2.006   3.099   7.153  0.5160 -0.3226 -0.2015
 5214SOL    HW127101   1.929   3.062   7.109 -0.4348  1.8426 -0.3602
 5214SOL    HW227102   1.990   3.074   7.244  2.1782 -0.5415  0.0227
 5215SOL     OW27103   2.671   4.678   4.818 -0.3886 -0.1866 -0.2414
 5215SOL    HW127104   2.594   4.714   4.774 -2.0053 -0.3720  2.4036
 5215SOL    HW227105   2.691   4.599   4.769  1.1264 -0.0834  0.2160
 5216SOL     OW27106   0.944   2.201   5.706  0.0621 -0.5145 -0.5332
 5216SOL    HW127107   1.039   2.197   5.717  0.1114  1.2500 -0.3080
 5216SOL    HW227108   0.929   2.295   5.707  2.3970 -0.1481  1.0967
 5217SOL     OW27109   2.331   1.629   2.228 -0.4838 -0.0426 -0.2163
 5217SOL    HW127110   2.285   1.551   2.258  0.8741 -1.5595 -2.0806
 5217SOL    HW227111   2.387   1.585   2.164 -1.0757  1.1655 -1.5802
 5218SOL     OW27112   3.887   2.901   3.524 -1.0609 -0.4882 -0.7495
 5218SOL    HW127113   3.866   2.947   3.605 -3.2176  0.5883 -1.9220
 5218SOL    HW227114   3.806   2.912   3.475 -1.1882  1.4278 -0.0927
 5219SOL     OW27115   2.689   1.959   1.163 -0.7155  0.4373  0.1336
 5219SOL    HW127116   2.662   1.942   1.073 -0.2422 -0.2936  0.1305
 5219SOL    HW227117   2.748   1.886   1.183 -0.4655  1.0541  1.6288
 5220SOL     OW27118   1.343   3.470   4.453  0.0393  0.5106 -0.1632
 5220SOL    HW127119   1.346   3.565   4.463  0.2861  0.6257 -1.3339
 5220SOL    HW227120   1.298   3.443   4.533 -1.5929 -1.2601 -1.6759
 5221SOL     OW27121   4.080   2.628   8.974 -0.1783 -0.2591  0.3241
 5221SOL    HW127122   4.067   2.693   9.044 -0.5125  0.4981 -0.4429
 5221SOL    HW227123   4.175   2.624   8.974 -0.1561  0.4312 -2.3664
 5222SOL     OW27124   4.583   4.612  13.476 -0.6232  0.2303  0.3965
 5222SOL    HW127125   4.519   4.543  13.488  0.2446 -0.3289  1.7397
 5222SOL    HW227126   4.647   4.598  13.545 -1.0926 -1.1628  0.5429
 5223SOL     OW27127   1.733   4.711   4.859  0.2423 -0.1649  0.4294
 5223SOL    HW127128   1.734   4.622   4.894 -2.0447 -0.7910 -1.0883
 5223SOL    HW227129   1.685   4.700   4.777  0.8841  0.0955  0.0180
 5224SOL     OW27130   0.634   1.432   5.665  0.3673  0.1501 -0.7418
 5224SOL    HW127131   0.662   1.521   5.644  0.8306  0.5646  1.6477
 5224SOL    HW227132   0.719   1.390   5.679  0.8192  1.1483 -0.4514
 5225SOL     OW27133   3.738   0.795  15.249 -0.4888  0.4430  0.6358
 5225SOL    HW127134   3.735   0.748  15.166  2.5792  0.8517  0.2825
 5225SOL    HW227135   3.769   0.878  15.213 -2.7456  1.0380  0.0800
 5226SOL     OW27136   0.388   2.901   5.538  0.3497  0.4615  0.0120
 5226SOL    HW127137   0.426   2.867   5.619 -0.6293 -0.2266  0.1843
 5226SOL    HW227138   0.401   2.996   5.546 -0.1718  0.4665  0.7603
 5227SOL     OW27139   1.405   2.292  16.379 -0.5780 -0.1676 -0.5318
 5227SOL    HW127140   1.447   2.332  16.303 -2.4701  0.1572 -1.3978
 5227SOL    HW227141   1.334   2.355  16.389 -0.3909  0.1644 -1.2738
 5228SOL     OW27142   0.321   2.911   2.020  0.1625 -0.7549 -0.5780
 5228SOL    HW127143   0.398   2.954   2.058 -0.1265 -0.5322 -0.2494
 5228SOL    HW227144   0.333   2.936   1.928  0.0560  2.1429  0.1957
 5229SOL     OW27145   1.155   2.046   0.751  0.2799 -0.0242 -0.0551
 5229SOL    HW127146   1.114   1.967   0.715 -0.4155  0.0514  0.5858
 5229SOL    HW227147   1.173   2.094   0.670  0.8172 -0.8963 -0.4559
 5230SOL     OW27148   0.984   4.309   7.564  0.5236  0.1010  0.4237
 5230SOL    HW127149   1.058   4.324   7.622  1.7314 -0.5112 -0.9733
 5230SOL    HW227150   0.974   4.394   7.519  2.8195  0.6989  1.0681
 5231SOL     OW27151   4.067   2.440   5.292  0.0111  0.0783 -0.0009
 5231SOL    HW127152   4.090   2.440   5.199  1.8772  1.0548  0.4787
 5231SOL    HW227153   3.971   2.441   5.284 -0.0642 -1.7340  0.5068
 5232SOL     OW27154   2.419   3.796   5.124 -0.3019  0.3941 -0.2501
 5232SOL    HW127155   2.373   3.849   5.059  0.9396 -0.5761 -1.9206
 5232SOL    HW227156   2.349   3.735   5.149  0.2077 -0.5818 -1.2371
 5233SOL     OW27157   3.881   0.067   9.631 -0.3602 -0.1097  0.1104
 5233SOL    HW127158   3.938   0.027   9.566  1.6103  0.4614  1.4783
 5233SOL    HW227159   3.948   0.100   9.692 -1.5698  1.1196  0.7796
 5234SOL     OW27160   0.465   3.638   6.313  0.2076 -0.0663 -0.1018
 5234SOL    HW127161   0.372   3.652   6.294  0.0890  0.1350  0.6008
 5234SOL    HW227162   0.452   3.617   6.406  2.6934 -0.9597  0.0508
 5235SOL     OW27163   4.003   0.097   8.156  0.1555  0.4483  0.8647
 5235SOL    HW127164   4.042   0.184   8.165  1.1804  0.1630 -0.7097
 5235SOL    HW227165   3.948   0.112   8.079  1.9176  3.2375  0.1515
 5236SOL     OW27166   2.633   1.678   4.113 -0.1741 -0.3496 -0.5627
 5236SOL    HW127167   2.559   1.618   4.112 -0.4080 -0.0781  0.3729
 5236SOL    HW227168   2.674   1.682   4.027  1.8301 -0.2323  0.3931
 5237SOL     OW27169   1.176   2.044   5.118 -0.0339  0.2364  0.0276
 5237SOL    HW127170   1.093   2.059   5.073  0.2897 -1.6035 -1.2026
 5237SOL    HW227171   1.162   2.111   5.185  0.5062  0.5217 -0.1482
 5238SOL     OW27172   3.838   1.525   9.618  0.5000 -0.5828  0.6731
 5238SOL    HW127173   3.830   1.590   9.688  2.1979  1.5234 -1.0694
 5238SOL    HW227174   3.791   1.451   9.655 -0.0988 -0.7781 -0.4745
 5239SOL     OW27175   2.006   0.059   1.941  0.0717  0.0787  0.3738
 5239SOL    HW127176   1.997   4.695   1.985  1.1479  0.2418  0.9018
 5239SOL    HW227177   2.089   0.041   1.896  0.3413  0.0836  0.8621
 5240SOL     OW27178   2.178   0.302  11.016  0.6729 -0.7428 -0.3676
 5240SOL    HW127179   2.239   0.241  11.057 -0.4929 -1.8102 -0.2151
 5240SOL    HW227180   2.215   0.304  10.927 -0.1616  2.4060 -0.6505
 5241SOL     OW27181   2.916   1.107  17.320  0.0417 -0.2064 -0.1425
 5241SOL    HW127182   2.908   1.067  17.234 -1.8717 -1.6331  0.7128
 5241SOL    HW227183   2.827   1.140  17.333  0.6591  0.8701  1.4369
 5242SOL     OW27184   0.793   0.192  12.023 -0.2732  0.5141  0.2237
 5242SOL    HW127185   0.795   0.240  11.940  2.2704  2.1024  1.1984
 5242SOL    HW227186   0.782   0.104  11.987 -1.4478  0.8017 -0.1181
 5243SOL     OW27187   1.471   0.366  13.835  0.4725 -0.1129 -0.5867
 5243SOL    HW127188   1.386   0.364  13.878  0.0397 -1.0489 -1.4658
 5243SOL    HW227189   1.535   0.369  13.906 -0.6500  2.3877  0.3395
 5244SOL     OW27190   0.122   0.963   2.646  0.3921 -0.0947  0.3580
 5244SOL    HW127191   0.194   0.929   2.593  1.2604 -1.0932  2.1573
 5244SOL    HW227192   0.065   0.887   2.641  2.5455 -1.7932  1.4412
 5245SOL     OW27193   0.564   0.694   2.493  0.2456 -0.1512 -0.1722
 5245SOL    HW127194   0.602   0.762   2.436 -1.6719  1.4142  0.4093
 5245SOL    HW227195   0.494   0.654   2.442  1.5441  0.4523 -2.4236
 5246SOL     OW27196   4.105   2.901   2.760 -0.5042  0.2761 -0.5385
 5246SOL    HW127197   4.084   2.858   2.677 -1.8512  3.6710 -1.9392
 5246SOL    HW227198   4.177   2.957   2.729 -1.1061  0.7426 -1.0885
 5247SOL     OW27199   2.374   1.190  13.626 -0.0594  0.1523  0.5576
 5247SOL    HW127200   2.406   1.246  13.555  0.5650 -2.9728 -1.6192
 5247SOL    HW227201   2.448   1.137  13.654  0.5548  0.5445 -0.3014
 5248SOL     OW27202   1.275   1.216  17.006 -0.1768 -0.2963  0.0250
 5248SOL    HW127203   1.253   1.225  16.913 -0.6438  0.9685  0.2477
 5248SOL    HW227204   1.236   1.300  17.033  0.5025  1.1793 -3.6305
 5249SOL     OW27205   0.711   1.506   8.194  0.1424 -0.6656 -0.0502
 5249SOL    HW127206   0.743   1.556   8.119  0.5471  0.4521  0.8629
 5249SOL    HW227207   0.620   1.515   8.166  0.3351 -1.0578 -0.7835
 5250SOL     OW27208   1.126   1.032   5.911 -0.1337 -0.1099 -0.1686
 5250SOL    HW127209   1.177   1.113   5.917  1.0600 -0.7765 -1.3534
 5250SOL    HW227210   1.135   0.996   6.000  0.3058 -0.1181 -0.2139
 5251SOL     OW27211   3.122   1.163   8.691 -1.0369 -0.0081  0.0818
 5251SOL    HW127212   3.156   1.239   8.643 -1.0219 -0.8969 -1.3212
 5251SOL    HW227213   3.155   1.172   8.780 -0.1315  1.3079 -0.3801
 5252SOL     OW27214   4.150   4.366   3.377  0.3088  0.0920 -0.4645
 5252SOL    HW127215   4.054   4.368   3.373  0.1404 -2.3327  1.9620
 5252SOL    HW227216   4.174   4.326   3.294 -0.2595 -0.5665 -0.3127
 5253SOL     OW27217   1.218   1.493   4.592  0.5784  0.1820  0.0639
 5253SOL    HW127218   1.208   1.408   4.635 -0.9564 -0.4298 -1.5067
 5253SOL    HW227219   1.141   1.535   4.632 -0.7113 -0.5696 -1.6209
 5254SOL     OW27220   0.096   0.191   0.562  0.7531 -0.4739 -0.1586
 5254SOL    HW127221   0.060   0.241   0.489  0.9306  0.8968  0.6891
 5254SOL    HW227222   0.023   0.188   0.625  0.7616  1.4379 -0.0606
 5255SOL     OW27223   2.633   1.118   7.824 -0.4052  0.7794 -0.1150
 5255SOL    HW127224   2.723   1.119   7.792  0.0761 -1.8930  1.1905
 5255SOL    HW227225   2.607   1.202   7.785 -2.4311  0.3129  0.2744
 5256SOL     OW27226   1.023   0.902   7.552 -0.3030  0.4070 -0.8785
 5256SOL    HW127227   1.089   0.969   7.533  1.1694 -0.8043 -0.0303
 5256SOL    HW227228   0.959   0.915   7.482 -0.1744  1.0306 -0.8736
 5257SOL     OW27229   3.662   4.398   6.865 -0.0333 -0.2740 -0.2088
 5257SOL    HW127230   3.573   4.397   6.899  1.1937 -2.8202  2.9455
 5257SOL    HW227231   3.683   4.305   6.870  2.0949  0.2742  1.3435
 5258SOL     OW27232   0.543   4.546   4.346 -0.3528 -0.2250  0.1175
 5258SOL    HW127233   0.531   4.585   4.432 -0.6401 -0.3178  0.1197
 5258SOL    HW227234   0.598   4.472   4.373 -0.3073 -0.7479 -1.4345
 5259SOL     OW27235   1.591   0.015   7.049  0.2576 -0.6502 -0.0326
 5259SOL    HW127236   1.666   4.706   6.998  1.5266  1.0091  0.8797
 5259SOL    HW227237   1.543   4.653   7.059 -0.3496  0.0007  2.4631
 5260SOL     OW27238   2.003   1.160   8.063 -0.3661 -0.1121  0.9129
 5260SOL    HW127239   1.976   1.246   8.031 -0.8667 -0.2274  1.0345
 5260SOL    HW227240   2.046   1.128   7.983 -0.6164  0.6727  0.4651
 5261SOL     OW27241   0.617   1.126   5.644 -0.0786  0.3275 -0.1344
 5261SOL    HW127242   0.694   1.125   5.587  0.1568 -1.9691  0.1938
 5261SOL    HW227243   0.648   1.180   5.717 -0.7144 -1.4133  1.4429
 5262SOL     OW27244   1.679   3.964   8.830  0.2841  0.3155 -0.0521
 5262SOL    HW127245   1.596   3.936   8.870  1.6039 -2.2521  0.8722
 5262SOL    HW227246   1.735   3.944   8.905  1.8389  6.6722  0.4811
 5263SOL     OW27247   2.124   4.702   7.344  0.4709  0.4627  0.1021
 5263SOL    HW127248   2.201   0.035   7.362  0.2712  1.0639 -0.8086
 5263SOL    HW227249   2.161   4.618   7.318  0.1610  0.3016  0.1757
 5264SOL     OW27250   0.553   0.751  17.480 -0.0656  0.0643 -0.3467
 5264SOL    HW127251   0.605   0.777  17.405 -1.3396  3.7217  0.0350
 5264SOL    HW227252   0.576   0.804  17.557 -0.3508 -0.5767  0.1806
 5265SOL     OW27253   4.178   0.149  14.823 -0.4799 -0.5642  0.4911
 5265SOL    HW127254   4.257   0.099  14.803  1.3211  1.0894  3.5954
 5265SOL    HW227255   4.207   0.198  14.900  1.3780 -1.6655  0.4866
 5266SOL     OW27256   0.903   4.653   8.953  0.6084  0.0920  0.1962
 5266SOL    HW127257   0.925   4.617   8.867  0.9529  0.0585  0.2981
 5266SOL    HW227258   0.982   4.630   9.002  3.4236  1.1967 -3.8225
 5267SOL     OW27259   3.609   2.746   4.564  0.6368  0.3557  0.0615
 5267SOL    HW127260   3.540   2.749   4.631 -0.0555  0.8905 -0.6643
 5267SOL    HW227261   3.555   2.770   4.488  1.5935  2.9838  0.2056
 5268SOL     OW27262   2.579   4.605   5.076  0.2493 -0.1698  0.1865
 5268SOL    HW127263   2.591   4.662   5.000  1.8212 -0.1853  0.4306
 5268SOL    HW227264   2.663   4.563   5.097  0.5378  0.8738  1.1708
 5269SOL     OW27265   4.184   0.091  13.596 -0.2451  0.0528 -0.0444
 5269SOL    HW127266   4.168   0.012  13.545  0.7057  0.4321 -0.9300
 5269SOL    HW227267   4.096   0.128  13.592  0.6887  2.1875 -0.6530
 5270SOL     OW27268   2.404   0.564  11.800  0.1209 -0.1923 -0.0031
 5270SOL    HW127269   2.349   0.510  11.743 -3.5469  1.9135  1.5576
 5270SOL    HW227270   2.434   0.499  11.864  0.7096  1.8041  1.7460
 5271SOL     OW27271   3.548   2.452   4.449  0.0816 -0.4672  0.3348
 5271SOL    HW127272   3.576   2.389   4.515  0.0026 -0.1540  0.6640
 5271SOL    HW227273   3.481   2.504   4.492  1.0754  0.9619  0.1631
 5272SOL     OW27274   0.018   2.304  16.681  0.1939  0.5383 -0.2931
 5272SOL    HW127275   0.101   2.257  16.684  0.7872  1.4599 -2.2789
 5272SOL    HW227276   4.681   2.230  16.698 -0.3541  1.3194  1.2990
 5273SOL     OW27277   0.761   0.618   6.504 -0.5072  0.1387 -0.2590
 5273SOL    HW127278   0.740   0.543   6.560 -0.1544 -0.3712 -0.8132
 5273SOL    HW227279   0.838   0.659   6.544  0.5985 -2.3240  0.1209
 5274SOL     OW27280   2.000   3.765  16.359  0.8693  0.3267  0.6271
 5274SOL    HW127281   1.929   3.830  16.366 -1.1744 -1.9210  0.7940
 5274SOL    HW227282   2.022   3.762  16.266  0.5322 -1.4436  0.6089
 5275SOL     OW27283   4.091   2.956  13.319  0.4282 -0.9728  0.0173
 5275SOL    HW127284   4.141   3.036  13.335 -0.1469 -0.1399 -2.2937
 5275SOL    HW227285   4.027   2.971  13.389 -0.7805  2.5541 -1.8758
 5276SOL     OW27286   1.963   2.483   8.049  0.9034 -0.3445  0.4809
 5276SOL    HW127287   1.932   2.515   8.134 -0.3513  0.5795 -0.3346
 5276SOL    HW227288   2.018   2.559   8.028 -0.2576  0.2267 -0.4440
 5277SOL     OW27289   3.891   3.238   3.490 -0.3285 -0.2905  0.2284
 5277SOL    HW127290   3.891   3.157   3.541 -0.6090 -0.1637  0.4295
 5277SOL    HW227291   3.870   3.190   3.410 -0.5239  0.7329 -0.3420
 5278SOL     OW27292   3.789   0.302   2.455 -0.5267  0.0490 -0.1774
 5278SOL    HW127293   3.860   0.362   2.430  1.1612 -1.9550 -0.1590
 5278SOL    HW227294   3.786   0.330   2.546 -2.7531 -4.1253  1.0220
 5279SOL     OW27295   1.548   0.084   3.744 -0.4745 -0.0096 -0.3775
 5279SOL    HW127296   1.493   0.138   3.687 -3.3491 -3.0672 -0.4850
 5279SOL    HW227297   1.627   0.138   3.744 -0.5591  0.1097 -0.7949
 5280SOL     OW27298   4.475   3.026   4.837  0.3781  0.2796  0.7305
 5280SOL    HW127299   4.533   2.972   4.783  1.4775  3.1386 -0.9893
 5280SOL    HW227300   4.522   3.018   4.919 -2.1181  2.8321  2.3822
 5281SOL     OW27301   0.283   1.778  13.908 -0.3878 -0.2612 -0.1255
 5281SOL    HW127302   0.253   1.774  13.998 -1.6570 -3.2476 -0.6579
 5281SOL    HW227303   0.316   1.867  13.898  0.4180 -0.5344  0.0888
 5282SOL     OW27304   0.551   3.743  10.806 -0.0465  0.2146 -0.0164
 5282SOL    HW127305   0.600   3.684  10.864  1.7676  1.9183  0.1538
 5282SOL    HW227306   0.617   3.754  10.738 -1.0949  0.1142 -1.0519
 5283SOL     OW27307   2.778   1.532  13.213  0.2269 -0.2003 -0.4671
 5283SOL    HW127308   2.699   1.572  13.247  0.1138 -1.5045  0.7739
 5283SOL    HW227309   2.755   1.540  13.120  0.1584  1.5143 -0.2920
 5284SOL     OW27310   0.422   1.674   5.994  0.4272  0.3741  0.0666
 5284SOL    HW127311   0.409   1.581   5.975 -1.8024  0.8152 -0.6112
 5284SOL    HW227312   0.515   1.665   6.016 -0.0069 -1.0931  1.3094
 5285SOL     OW27313   0.559   1.961  14.072 -0.6139  0.1211 -0.4932
 5285SOL    HW127314   0.590   1.871  14.081  0.2393  0.2990 -1.6372
 5285SOL    HW227315   0.614   2.009  14.135 -0.1901  0.8170 -1.3905
 5286SOL     OW27316   4.569   3.333  12.626 -0.0224  0.5451 -1.0901
 5286SOL    HW127317   4.648   3.373  12.663 -0.3332  2.6863 -2.7061
 5286SOL    HW227318   4.601   3.354  12.538  2.7707  1.0906  0.0404
 5287SOL     OW27319   0.607   4.014  13.762 -0.4621 -0.3134 -0.4534
 5287SOL    HW127320   0.612   4.076  13.834 -2.2038  0.0849 -0.6880
 5287SOL    HW227321   0.590   3.926  13.796  1.0493 -0.1527  0.7262
 5288SOL     OW27322   2.312   2.809   8.752  0.8044 -0.4348  0.1790
 5288SOL    HW127323   2.359   2.727   8.769 -1.5477 -1.8498 -0.2688
 5288SOL    HW227324   2.232   2.802   8.804 -0.2764  0.2502 -1.4038
 5289SOL     OW27325   1.177   0.225   6.194 -0.0041 -0.0073  0.2141
 5289SOL    HW127326   1.268   0.256   6.203 -0.4284  1.3104 -0.0233
 5289SOL    HW227327   1.176   0.148   6.251  2.1254 -0.9916 -1.0858
 5290SOL     OW27328   1.924   3.364   5.286 -0.7087 -0.0202  0.3990
 5290SOL    HW127329   1.987   3.370   5.214  0.6337 -1.6893  1.4496
 5290SOL    HW227330   1.943   3.285   5.337 -1.5588 -0.0285  0.7005
 5291SOL     OW27331   1.807   1.212  15.244  0.0189 -0.2773  0.4295
 5291SOL    HW127332   1.763   1.193  15.161 -0.3921 -0.6056  0.7240
 5291SOL    HW227333   1.861   1.133  15.256 -0.8431 -0.9827 -0.3036
 5292SOL     OW27334   3.748   4.527   2.565  0.2015  0.0353  0.0637
 5292SOL    HW127335   3.671   4.507   2.618 -0.0076  0.4605 -0.0763
 5292SOL    HW227336   3.712   4.509   2.478 -0.0606 -0.7134  0.3317
 5293SOL     OW27337   4.544   3.386   5.191 -0.0821 -0.2266 -0.3231
 5293SOL    HW127338   4.461   3.413   5.230 -0.2762 -0.1844 -0.7585
 5293SOL    HW227339   4.608   3.441   5.236 -1.9449  1.5742  0.1922
 5294SOL     OW27340   3.641   0.029   0.016  0.3191  0.3649  0.6275
 5294SOL    HW127341   3.565   0.086   0.000 -1.0815 -1.9048 -0.6820
 5294SOL    HW227342   3.698   0.024  17.625  0.0152 -0.3340  0.4499
 5295SOL     OW27343   1.858   3.544   3.308 -0.1703 -0.2104  0.9049
 5295SOL    HW127344   1.878   3.621   3.254  1.0044 -0.1760  1.3866
 5295SOL    HW227345   1.771   3.567   3.340 -1.3623 -0.4863 -2.1267
 5296SOL     OW27346   1.354   4.076   6.519  0.3529  0.3497  0.2921
 5296SOL    HW127347   1.395   4.079   6.433 -0.3827  2.2657  0.0189
 5296SOL    HW227348   1.277   4.132   6.511 -1.3644 -1.8074  1.5380
 5297SOL     OW27349   4.388   3.879   6.536  0.0675 -0.1897 -0.4288
 5297SOL    HW127350   4.379   3.971   6.561 -0.4075 -0.5453  0.7222
 5297SOL    HW227351   4.334   3.877   6.457  1.9755 -0.8015 -1.7081
 5298SOL     OW27352   2.979   4.366  16.592 -0.2229 -0.2066 -0.0972
 5298SOL    HW127353   3.028   4.327  16.665 -0.3399  0.3187  0.2625
 5298SOL    HW227354   2.923   4.425  16.642 -0.1751  0.6729 -1.0930
 5299SOL     OW27355   3.343   4.688   4.872 -0.2358  1.1552 -0.2588
 5299SOL    HW127356   3.375   4.647   4.792 -2.1909 -1.9444  0.5499
 5299SOL    HW227357   3.380   0.055   4.862  1.3558  0.4904 -0.0989
 5300SOL     OW27358   1.680   4.485   2.519  0.5092  0.0211 -0.2287
 5300SOL    HW127359   1.653   4.577   2.512  0.1735 -0.0971 -0.4537
 5300SOL    HW227360   1.741   4.484   2.445 -1.0230 -3.2268 -1.4275
 5301SOL     OW27361   2.772   0.382  10.418  0.3694 -0.7674  0.1823
 5301SOL    HW127362   2.817   0.298  10.414  1.0054 -0.3416 -1.9984
 5301SOL    HW227363   2.810   0.430  10.491 -0.2939 -0.8372  0.5746
 5302SOL     OW27364   2.787   0.689  16.264  0.4632  0.7753 -0.0025
 5302SOL    HW127365   2.720   0.752  16.292  1.2868  0.4307  2.7182
 5302SOL    HW227366   2.850   0.718  16.330  0.5549 -0.5903  0.4971
 5303SOL     OW27367   0.057   1.217   9.010 -0.5449 -0.3983  0.9519
 5303SOL    HW127368   0.148   1.205   9.038 -0.1441 -0.1166 -0.2252
 5303SOL    HW227369   0.057   1.161   8.932  0.8559  0.2164  0.5074
 5304SOL     OW27370   3.728   3.097  15.890 -0.0508  0.2405 -0.0055
 5304SOL    HW127371   3.647   3.138  15.920  1.0588  2.6845 -0.3255
 5304SOL    HW227372   3.709   3.101  15.796  0.8599  1.7455 -0.1175
 5305SOL     OW27373   2.872   2.601  14.486  0.1177  0.1879 -0.2516
 5305SOL    HW127374   2.816   2.550  14.428 -0.5187  0.2338  0.3183
 5305SOL    HW227375   2.890   2.681  14.437  2.6438  0.4363  1.0549
 5306SOL     OW27376   2.856   2.347   8.737 -0.3323 -0.3933  0.0557
 5306SOL    HW127377   2.820   2.330   8.825  0.7636 -2.6630  0.0676
 5306SOL    HW227378   2.868   2.262   8.693 -0.0090  0.4346 -1.4541
 5307SOL     OW27379   2.336   3.185   0.402  0.2034 -0.1381  0.8470
 5307SOL    HW127380   2.301   3.147   0.322 -1.3864  0.6853  1.1507
 5307SOL    HW227381   2.329   3.279   0.384  1.5419 -0.0228  0.8962
 5308SOL     OW27382   4.471   4.367   9.442  0.3669 -0.2670  0.2078
 5308SOL    HW127383   4.533   4.294   9.437  3.2680  2.1361  0.6691
 5308SOL    HW227384   4.433   4.344   9.527 -1.2320  1.1619 -0.1371
 5309SOL     OW27385   1.993   0.006   0.948  0.2547 -0.1098  0.1879
 5309SOL    HW127386   2.044   4.647   0.960 -0.0044 -0.3367 -0.2062
 5309SOL    HW227387   2.041   0.067   1.003 -1.2657  0.3527  1.0075
 5310SOL     OW27388   1.658   0.439   4.177 -0.0809 -0.0246  0.2687
 5310SOL    HW127389   1.627   0.350   4.160  0.5410 -1.0463  4.5398
 5310SOL    HW227390   1.749   0.413   4.188  0.0306  0.7798  1.2172
 5311SOL     OW27391   1.004   0.667   0.863  0.1468  0.0440  0.1863
 5311SOL    HW127392   0.936   0.642   0.799 -0.3426  1.4813  0.1548
 5311SOL    HW227393   0.944   0.670   0.938  0.3032  0.3643  0.2931
 5312SOL     OW27394   2.352   1.975   7.525  0.2908  0.0355 -0.4285
 5312SOL    HW127395   2.350   1.884   7.495 -0.6038 -0.3157  0.7089
 5312SOL    HW227396   2.264   2.000   7.495  0.4398  2.8663  1.4869
 5313SOL     OW27397   0.420   0.453   6.547 -0.5453  0.1257 -0.6317
 5313SOL    HW127398   0.410   0.484   6.637  2.6300  1.4982 -0.7289
 5313SOL    HW227399   0.462   0.369   6.562 -0.2363  0.0939 -1.6837
 5314SOL     OW27400   0.995   4.251   5.839  0.0527  0.6679  0.0033
 5314SOL    HW127401   1.082   4.286   5.825  0.4636 -0.2904  0.1762
 5314SOL    HW227402   0.982   4.274   5.931 -2.5208 -0.4941 -0.0669
 5315SOL     OW27403   3.080   2.196   1.005 -0.1877  0.0670 -0.1099
 5315SOL    HW127404   3.133   2.276   1.011 -1.7646  1.0164  1.0343
 5315SOL    HW227405   3.062   2.178   1.097 -2.3494 -1.6145 -0.8750
 5316SOL     OW27406   4.294   4.122   4.841 -0.5062  0.0732  0.2306
 5316SOL    HW127407   4.365   4.093   4.899  0.0498  1.4604  0.2282
 5316SOL    HW227408   4.234   4.055   4.874 -2.4388  2.3746  1.3455
 5317SOL     OW27409   4.140   4.262  17.105 -0.2416  0.2004  0.9670
 5317SOL    HW127410   4.109   4.302  17.023  0.7103 -0.2062  0.4132
 5317SOL    HW227411   4.079   4.190  17.119  0.5228 -0.8135 -0.9796
 5318SOL     OW27412   3.358   3.542  13.185 -0.2667  0.3563 -0.4352
 5318SOL    HW127413   3.382   3.609  13.121  0.9540  0.5295  0.1991
 5318SOL    HW227414   3.438   3.548  13.237  0.3407  0.3048 -1.3459
 5319SOL     OW27415   0.831   0.201   3.534 -0.3366  0.1477  0.5232
 5319SOL    HW127416   0.855   0.294   3.527 -2.0195  0.6598  1.4875
 5319SOL    HW227417   0.909   0.160   3.498 -0.6651  1.0296 -1.2224
 5320SOL     OW27418   2.929   4.215   5.364  0.9356 -0.8292 -0.1760
 5320SOL    HW127419   2.847   4.185   5.405  1.9158 -0.6311  1.9572
 5320SOL    HW227420   2.986   4.189   5.437  1.3456  0.3614 -0.0713
 5321SOL     OW27421   2.183   2.401   6.284 -0.3906  0.1909  0.6350
 5321SOL    HW127422   2.255   2.366   6.337  1.3093  0.5010 -1.5098
 5321SOL    HW227423   2.174   2.493   6.309  1.0070  0.9837 -1.8560
 5322SOL     OW27424   2.584   0.775   6.997  0.2787 -0.1219 -0.0857
 5322SOL    HW127425   2.598   0.790   6.904  1.6921 -2.1075 -0.1718
 5322SOL    HW227426   2.592   0.863   7.034 -0.0726 -0.5006  0.8939
 5323SOL     OW27427   1.908   3.127   7.414  0.4219 -0.0108  0.1545
 5323SOL    HW127428   1.864   3.169   7.488 -0.0421  0.3611 -0.3282
 5323SOL    HW227429   1.842   3.159   7.352  0.7889  0.0646 -0.1918
 5324SOL     OW27430   0.287   3.950   7.370 -0.3619  0.6055  0.0847
 5324SOL    HW127431   0.339   3.898   7.308 -2.2823 -1.6701  0.3809
 5324SOL    HW227432   0.330   4.034   7.354  1.9258 -0.5530  0.2583
 5325SOL     OW27433   4.410   4.054   5.121  0.5699  0.0993 -0.3644
 5325SOL    HW127434   4.327   4.018   5.150  0.6518 -0.3434 -0.6861
 5325SOL    HW227435   4.443   3.972   5.085  1.7074  0.3730  0.0644
 5326SOL     OW27436   1.223   2.818   2.251 -0.4994 -0.2617  0.2755
 5326SOL    HW127437   1.208   2.840   2.159 -1.4949  2.2342  1.0596
 5326SOL    HW227438   1.132   2.795   2.269 -1.1489  3.0595  1.1900
 5327SOL     OW27439   2.254   1.118   2.427  0.3419 -0.3084  0.5758
 5327SOL    HW127440   2.279   1.031   2.458  2.5142  0.1559  0.1689
 5327SOL    HW227441   2.182   1.147   2.483  0.6335  0.0025  0.7899
 5328SOL     OW27442   2.210   2.438  14.454 -0.0232  0.9396  0.3551
 5328SOL    HW127443   2.213   2.362  14.512 -1.6305  0.2024 -0.5342
 5328SOL    HW227444   2.201   2.509  14.518 -1.0008  1.5838 -0.5006
 5329SOL     OW27445   2.883   4.720   7.960 -0.1661  0.3719 -0.1332
 5329SOL    HW127446   2.878   4.633   8.000  3.0742 -0.4017 -1.3761
 5329SOL    HW227447   2.975   0.018   7.937  0.0410 -0.4450  0.0445
 5330SOL     OW27448   3.010   1.031   5.451 -0.2613 -0.9422 -0.0673
 5330SOL    HW127449   3.103   1.023   5.470  0.0274 -1.0479 -1.5309
 5330SOL    HW227450   2.970   0.986   5.526  1.5866  1.2438  2.1940
 5331SOL     OW27451   1.103   2.194   4.761 -0.4836  0.2459 -0.6202
 5331SOL    HW127452   1.105   2.238   4.676 -0.7656 -2.5748 -2.0785
 5331SOL    HW227453   1.020   2.227   4.797  0.0730  1.1429 -0.1377
 5332SOL     OW27454   4.012   0.861   4.738 -0.5557 -0.5249 -0.0444
 5332SOL    HW127455   4.057   0.943   4.758  0.8499 -1.0292 -1.0907
 5332SOL    HW227456   4.004   0.861   4.643 -4.4143  0.1154  0.3071
 5333SOL     OW27457   3.980   3.190   8.366 -0.0472 -0.2953 -0.1293
 5333SOL    HW127458   3.890   3.191   8.335  0.2661  0.4556 -1.0310
 5333SOL    HW227459   3.963   3.154   8.453  1.3167  0.1933  0.3401
 5334SOL     OW27460   0.482   2.636   3.470  0.3654 -0.5000 -0.0262
 5334SOL    HW127461   0.443   2.570   3.527 -1.1620 -1.2067 -1.9189
 5334SOL    HW227462   0.541   2.580   3.421 -0.5880 -1.1145 -0.4573
 5335SOL     OW27463   0.429   1.653   3.637  0.2415 -0.4204  0.1581
 5335SOL    HW127464   0.404   1.677   3.547 -0.4658 -0.5297  0.3270
 5335SOL    HW227465   0.406   1.732   3.686 -0.8828  0.0528 -1.1336
 5336SOL     OW27466   1.159   3.003   1.868 -0.4051 -0.1751  0.7028
 5336SOL    HW127467   1.200   3.006   1.781  0.6278 -0.0571  1.1899
 5336SOL    HW227468   1.223   2.959   1.923 -0.5743  0.6935  1.5954
 5337SOL     OW27469   1.832   1.570   4.815 -0.1892 -0.0814  0.1959
 5337SOL    HW127470   1.892   1.638   4.846  0.5086 -1.1821  1.2333
 5337SOL    HW227471   1.799   1.612   4.735 -0.4024  0.6797  0.6795
 5338SOL     OW27472   0.878   0.856   7.093 -0.2216 -0.7379  0.0876
 5338SOL    HW127473   0.962   0.815   7.112 -1.7328 -3.9764 -0.3570
 5338SOL    HW227474   0.834   0.790   7.040  1.8176 -2.7570  0.9057
 5339SOL     OW27475   2.086   3.395   4.511  0.2222  0.0273  0.2420
 5339SOL    HW127476   2.177   3.423   4.501 -0.2238  0.5884 -2.2930
 5339SOL    HW227477   2.103   3.302   4.524 -1.7658 -0.1792  1.3368
 5340SOL     OW27478   4.507   3.567  12.329  0.0052  0.6148  0.1161
 5340SOL    HW127479   4.546   3.600  12.410 -0.1273  0.7761  0.1138
 5340SOL    HW227480   4.553   3.483  12.319  0.4710  0.8502  0.3066
 5341SOL     OW27481   4.311   0.590  11.619 -0.3108 -0.3080 -0.4359
 5341SOL    HW127482   4.308   0.628  11.531  0.6815 -2.7667 -1.5555
 5341SOL    HW227483   4.230   0.631  11.649 -1.5372  0.2994 -4.5595
 5342SOL     OW27484   2.768   1.214   5.461 -0.0008 -0.2515  0.6199
 5342SOL    HW127485   2.787   1.143   5.522  3.5956 -0.1433 -0.3298
 5342SOL    HW227486   2.843   1.217   5.401 -0.0264  0.5512  0.6231
 5343SOL     OW27487   3.373   1.314   7.168 -0.2572  0.3337  0.0795
 5343SOL    HW127488   3.308   1.244   7.163  0.0606  0.1040 -0.7613
 5343SOL    HW227489   3.451   1.263   7.190 -1.4303 -1.4092  0.2209
 5344SOL     OW27490   2.042   2.358  12.707  0.0929 -0.0987 -0.1071
 5344SOL    HW127491   2.030   2.265  12.689 -3.8166  0.6318 -1.4428
 5344SOL    HW227492   1.954   2.393  12.722 -0.7844 -2.0391 -0.7000
 5345SOL     OW27493   0.229   4.239  11.030  0.1146 -0.5381 -0.4014
 5345SOL    HW127494   0.206   4.312  11.088 -0.2244 -1.6310  0.8476
 5345SOL    HW227495   0.144   4.200  11.051 -0.1315  0.1510 -0.1070
 5346SOL     OW27496   2.015   0.494  17.457  0.7562 -0.6507  0.1598
 5346SOL    HW127497   2.046   0.501  17.548  0.5243 -0.2117  0.2072
 5346SOL    HW227498   2.065   0.570  17.426  0.0898 -0.6090 -0.8195
 5347SOL     OW27499   3.132   2.996  17.575 -0.2823 -0.2476 -0.0632
 5347SOL    HW127500   3.044   3.027  17.594  0.3599  2.0374 -0.7463
 5347SOL    HW227501   3.159   3.005  17.666 -1.8437 -1.9671  0.5503
 5348SOL     OW27502   3.099   3.047   2.743  0.5654 -0.0524  0.0536
 5348SOL    HW127503   3.146   2.964   2.752 -0.4733 -0.9438 -2.7717
 5348SOL    HW227504   3.144   3.102   2.808  2.0078  1.5811 -2.3373
 5349SOL     OW27505   1.502   4.313   7.273  0.2739  0.0663 -0.5647
 5349SOL    HW127506   1.556   4.260   7.331 -1.6801  0.2869  1.4409
 5349SOL    HW227507   1.413   4.285   7.293  0.9995 -2.9182 -1.4477
 5350SOL     OW27508   0.054   4.091   3.095 -0.1898 -0.0775 -0.0751
 5350SOL    HW127509   0.028   4.055   3.180  1.5767  1.3181  1.0391
 5350SOL    HW227510   0.136   4.046   3.079  1.0375  2.1933 -0.1330
 5351SOL     OW27511   1.568   1.147  11.776  0.0761 -0.1639  0.2863
 5351SOL    HW127512   1.496   1.085  11.762 -0.8103  0.8519  0.4084
 5351SOL    HW227513   1.529   1.216  11.830  0.4775 -0.2296  0.6664
 5352SOL     OW27514   2.827   4.182   1.735 -0.1106 -0.2891 -0.6027
 5352SOL    HW127515   2.841   4.176   1.641  1.0803 -0.2193 -0.4306
 5352SOL    HW227516   2.755   4.120   1.747 -0.6603  0.2584 -1.0512
 5353SOL     OW27517   3.333   3.193   9.049 -0.5653 -0.1750 -0.5272
 5353SOL    HW127518   3.315   3.174   9.141  1.0634  0.9236  0.0067
 5353SOL    HW227519   3.281   3.122   9.012 -0.6273 -0.9949  1.1015
 5354SOL     OW27520   2.605   2.583   9.125  0.0472 -0.6450  0.4180
 5354SOL    HW127521   2.691   2.554   9.154 -0.6219 -0.3238  2.7283
 5354SOL    HW227522   2.562   2.568   9.209  1.1571  0.8039  1.2588
 5355SOL     OW27523   1.296   4.193  13.676 -0.4931 -0.0759  0.5670
 5355SOL    HW127524   1.254   4.135  13.613  0.7583  0.8545 -1.1242
 5355SOL    HW227525   1.358   4.239  13.620 -0.6530 -0.2982  0.2078
 5356SOL     OW27526   4.232   4.593  10.340  0.7943  0.0665  0.1493
 5356SOL    HW127527   4.271   4.512  10.306  2.7862  1.5748 -1.1151
 5356SOL    HW227528   4.161   4.558  10.395  2.1889 -2.1644  0.5487
 5357SOL     OW27529   3.766   1.559  13.751  0.1343  0.2905 -0.2668
 5357SOL    HW127530   3.741   1.468  13.764  1.1460  0.0412 -0.0462
 5357SOL    HW227531   3.810   1.568  13.836 -1.1683  1.4387  0.3010
 5358SOL     OW27532   2.338   3.957   7.993  0.8437  0.4347 -0.5454
 5358SOL    HW127533   2.280   3.964   7.918 -0.3825  2.3153  0.5736
 5358SOL    HW227534   2.290   4.007   8.059 -2.7491 -0.6168 -2.4127
 5359SOL     OW27535   1.256   2.582   4.854  0.1559 -0.3312  0.3683
 5359SOL    HW127536   1.225   2.574   4.944  0.9870  0.9558  0.7817
 5359SOL    HW227537   1.321   2.511   4.850  0.1705 -0.4043  1.9002
 5360SOL     OW27538   1.180   3.832  10.472 -0.0220 -0.1748  0.2290
 5360SOL    HW127539   1.159   3.867  10.385 -2.7811  0.4330  1.1608
 5360SOL    HW227540   1.167   3.909  10.527 -2.2446 -1.8434  2.0603
 5361SOL     OW27541   1.408   3.034  16.360  0.2896 -0.5308 -0.4365
 5361SOL    HW127542   1.476   2.982  16.401 -0.6001 -0.2262  1.4059
 5361SOL    HW227543   1.335   3.027  16.421  1.1203 -1.3776  0.4341
 5362SOL     OW27544   3.738   0.073  14.394  0.7244 -0.7580  0.3107
 5362SOL    HW127545   3.754   0.026  14.476  0.2163  0.1166  0.9106
 5362SOL    HW227546   3.677   0.141  14.422  2.6491  1.1020  0.0234
 5363SOL     OW27547   3.038   3.621   3.443  0.1549  0.0102  0.5334
 5363SOL    HW127548   2.969   3.567   3.482 -0.8375  0.6624 -0.2866
 5363SOL    HW227549   2.996   3.660   3.366 -0.2304 -0.1951  0.6335
 5364SOL     OW27550   0.044   0.165  14.218 -0.2602  0.0777 -0.6309
 5364SOL    HW127551   0.130   0.177  14.259 -1.6842  0.0022  2.3424
 5364SOL    HW227552   0.034   0.251  14.179  2.4584  1.5108  1.7751
 5365SOL     OW27553   1.140   3.135   6.548 -0.1122  0.2006 -0.4226
 5365SOL    HW127554   1.228   3.103   6.528  1.2096  2.8591  1.1838
 5365SOL    HW227555   1.150   3.230   6.545 -2.0897  0.3966 -0.8712
 5366SOL     OW27556   0.053   1.769   6.698 -0.1426  0.2271 -0.2427
 5366SOL    HW127557   4.695   1.752   6.645 -0.7255  0.8382  0.4332
 5366SOL    HW227558   0.123   1.785   6.635 -0.1221 -1.9712 -0.7923
 5367SOL     OW27559   0.899   3.163   9.397 -0.3787 -0.9249  0.0314
 5367SOL    HW127560   0.856   3.084   9.363  0.0954 -0.2519 -2.1006
 5367SOL    HW227561   0.822   3.189   9.448 -1.0232  0.1466 -1.4785
 5368SOL     OW27562   1.384   4.261  10.780  0.1529  0.0945  0.1072
 5368SOL    HW127563   1.341   4.340  10.745 -1.0350 -0.5383  0.1250
 5368SOL    HW227564   1.474   4.292  10.771  0.5566 -0.5370  2.0054
 5369SOL     OW27565   1.091   2.228   6.486 -0.1353 -0.2513 -0.0076
 5369SOL    HW127566   1.036   2.235   6.408  3.6784  0.0357 -2.7031
 5369SOL    HW227567   1.175   2.202   6.446  1.0025 -0.0774  2.2750
 5370SOL     OW27568   0.775   1.248   2.652 -0.4372  0.2259 -0.0394
 5370SOL    HW127569   0.724   1.209   2.581  0.3292  0.3486 -0.6606
 5370SOL    HW227570   0.810   1.172   2.699  0.0499  1.6638  1.9251
 5371SOL     OW27571   3.621   3.086  13.969 -0.6178 -0.3422  0.0644
 5371SOL    HW127572   3.560   3.142  14.016 -2.0070 -2.2203  0.4945
 5371SOL    HW227573   3.591   3.001  14.002 -0.2627 -0.5493 -0.1461
 5372SOL     OW27574   3.708   1.834   2.021 -0.1297 -0.3055  0.1673
 5372SOL    HW127575   3.794   1.829   2.062  0.0641 -1.6760 -0.3998
 5372SOL    HW227576   3.705   1.755   1.967 -2.4330 -0.9715  1.2521
 5373SOL     OW27577   4.349   2.514   1.944  0.1974 -0.0842 -0.6385
 5373SOL    HW127578   4.327   2.539   2.033 -0.7248 -1.0470 -0.5990
 5373SOL    HW227579   4.263   2.492   1.907 -0.5467  0.0200  1.0560
 5374SOL     OW27580   0.466   3.667   8.475  0.0671  0.3317 -0.2262
 5374SOL    HW127581   0.464   3.682   8.569  0.5038  0.6275 -0.2609
 5374SOL    HW227582   0.422   3.583   8.466  0.3092  0.1828 -0.0331
 5375SOL     OW27583   4.393   2.668   2.537  0.1352  0.2959  0.7206
 5375SOL    HW127584   4.380   2.711   2.621  1.8887 -0.3833  1.3461
 5375SOL    HW227585   4.370   2.733   2.471  1.4485 -0.5783 -0.6030
 5376SOL     OW27586   0.990   2.672   7.704  0.5890 -0.1267  0.0471
 5376SOL    HW127587   0.990   2.734   7.631 -1.2260 -0.9525 -0.6548
 5376SOL    HW227588   0.913   2.701   7.753  0.6129  0.2876 -0.1586
 5377SOL     OW27589   3.635   1.899   8.701  0.1071  0.0599 -0.2538
 5377SOL    HW127590   3.555   1.950   8.689  0.0884  0.0239 -0.2807
 5377SOL    HW227591   3.599   1.828   8.754 -0.0377 -1.6602 -2.7013
 5378SOL     OW27592   4.424   3.056   5.416 -0.3832 -0.4034  0.3904
 5378SOL    HW127593   4.359   3.117   5.450 -1.5483  0.1724 -2.9109
 5378SOL    HW227594   4.414   2.986   5.480  0.9770 -0.2385  0.7805
 5379SOL     OW27595   4.325   4.633  10.815 -0.5352  0.0047  0.1839
 5379SOL    HW127596   4.349   4.548  10.852  1.3565 -0.2942 -1.7368
 5379SOL    HW227597   4.230   4.628  10.826 -0.5084  0.5685  0.6469
 5380SOL     OW27598   2.036   0.577   7.871  0.7491 -0.0691  0.3793
 5380SOL    HW127599   2.021   0.485   7.851  0.4485  0.2326 -0.8250
 5380SOL    HW227600   1.948   0.613   7.866  1.7091  2.0699 -1.3805
 5381SOL     OW27601   2.187   0.622   5.806  0.4952  0.1496  0.6045
 5381SOL    HW127602   2.190   0.658   5.717 -0.8852  0.4413  0.6730
 5381SOL    HW227603   2.215   0.703   5.849  0.8940  1.7622 -2.6961
 5382SOL     OW27604   1.855   0.298  16.948 -0.0815  0.1949  0.2234
 5382SOL    HW127605   1.794   0.224  16.951  1.4530 -1.1827 -3.4826
 5382SOL    HW227606   1.860   0.332  17.038 -1.0782 -2.0646  1.1385
 5383SOL     OW27607   1.194   0.942  15.417  0.5646 -0.2625 -0.3945
 5383SOL    HW127608   1.244   0.919  15.495  1.6899 -0.9750 -1.3275
 5383SOL    HW227609   1.106   0.957  15.451  1.4547  0.4339  1.5767
 5384SOL     OW27610   1.082   2.642  13.887  0.4438 -0.6506  0.6317
 5384SOL    HW127611   1.118   2.729  13.903 -1.5397  0.3972 -0.5663
 5384SOL    HW227612   1.154   2.604  13.936 -0.9767 -1.4269  2.1212
 5385SOL     OW27613   3.518   0.596   8.522 -0.1396  0.0367 -0.2719
 5385SOL    HW127614   3.514   0.675   8.576 -1.6253 -1.0036  1.1466
 5385SOL    HW227615   3.606   0.561   8.540 -0.0432 -0.2295 -1.2329
 5386SOL     OW27616   2.964   4.528   5.976 -0.2156 -0.3497 -0.3065
 5386SOL    HW127617   3.020   4.450   5.975 -0.8689 -0.8193  0.0370
 5386SOL    HW227618   3.032   4.582   5.936  0.7175 -1.1580  0.1887
 5387SOL     OW27619   1.316   1.418  10.901 -0.0360  0.3325 -0.0146
 5387SOL    HW127620   1.229   1.406  10.864  0.1250  1.3252 -0.6995
 5387SOL    HW227621   1.289   1.402  10.992  1.3133  0.7633  0.4707
 5388SOL     OW27622   2.020   3.125   5.425 -0.5195  0.3326 -0.4743
 5388SOL    HW127623   1.995   3.074   5.502  2.3260 -0.7443 -0.2509
 5388SOL    HW227624   2.095   3.079   5.387 -1.5966 -1.6847 -0.1427
 5389SOL     OW27625   0.886   1.104   8.896 -0.0735  0.0053  0.0198
 5389SOL    HW127626   0.803   1.060   8.913 -0.1020  1.0364  2.6430
 5389SOL    HW227627   0.886   1.093   8.801 -2.2624  0.9811 -0.0900
 5390SOL     OW27628   3.771   0.787  17.403 -0.0372  0.1709 -0.5914
 5390SOL    HW127629   3.812   0.702  17.386 -0.4691 -0.3166  0.7685
 5390SOL    HW227630   3.846   0.839  17.374 -0.9258  2.8769  1.9525
 5391SOL     OW27631   0.729   4.271   1.988 -0.1017  0.2343  0.7470
 5391SOL    HW127632   0.785   4.323   1.931 -0.5017  0.4088  0.5144
 5391SOL    HW227633   0.652   4.328   1.992  0.7494  1.3391  1.2727
 5392SOL     OW27634   0.274   0.824   6.084  0.5406 -0.3466  0.0274
 5392SOL    HW127635   0.363   0.858   6.077  0.6463 -0.5897  0.1865
 5392SOL    HW227636   0.294   0.747   6.136  2.2290 -1.2747 -1.9854
 5393SOL     OW27637   1.690   1.780   8.505  0.3588 -0.1449 -0.3532
 5393SOL    HW127638   1.739   1.781   8.423  1.9890  1.2473  0.6595
 5393SOL    HW227639   1.601   1.799   8.476  1.2338  1.7634 -1.7966
 5394SOL     OW27640   3.789   1.621   4.839 -0.2606  0.0844  0.3019
 5394SOL    HW127641   3.781   1.701   4.891 -0.7548 -1.5166  2.6880
 5394SOL    HW227642   3.704   1.617   4.795  0.2292 -2.6479 -0.4236
 5395SOL     OW27643   0.475   1.642  14.827  0.0097  0.2196 -0.2253
 5395SOL    HW127644   0.400   1.601  14.783  0.6031 -0.8880 -0.2142
 5395SOL    HW227645   0.427   1.674  14.903 -1.2516 -1.3075 -0.3752
 5396SOL     OW27646   0.980   1.154   1.865  0.1367  0.2874  0.1856
 5396SOL    HW127647   1.003   1.101   1.941 -0.3855  1.5414  1.2168
 5396SOL    HW227648   0.893   1.120   1.843 -0.4784  1.8580  0.1643
 5397SOL     OW27649   2.514   1.460   6.283 -0.6352  0.2644  0.4479
 5397SOL    HW127650   2.562   1.488   6.205  0.9261  1.2334  1.7687
 5397SOL    HW227651   2.444   1.525   6.277 -1.7701 -1.2886 -3.3718
 5398SOL     OW27652   3.590   4.685   3.763 -0.2618  0.2116 -0.5789
 5398SOL    HW127653   3.669   4.642   3.732 -0.7326  0.5412 -2.2318
 5398SOL    HW227654   3.605   0.052   3.726  0.0231  0.2100 -0.4667
 5399SOL     OW27655   2.416   1.514   4.102  0.0633 -0.6972 -0.2316
 5399SOL    HW127656   2.333   1.561   4.102  0.4619  0.0151  0.1996
 5399SOL    HW227657   2.400   1.443   4.163  0.3483  0.7969  1.5896
 5400SOL     OW27658   3.851   0.331  16.181  0.4214 -0.4372 -0.0630
 5400SOL    HW127659   3.819   0.243  16.164  2.5293 -1.4914  1.4574
 5400SOL    HW227660   3.874   0.359  16.092 -1.3014 -0.4522 -0.5212
 5401SOL     OW27661   0.705   0.599   1.597 -0.4591 -0.4920 -0.2911
 5401SOL    HW127662   0.741   0.552   1.671  1.9654  0.9811 -0.5483
 5401SOL    HW227663   0.659   0.525   1.556 -1.8966 -0.1316  0.6653
 5402SOL     OW27664   3.601   0.853   4.307  0.0594 -0.6089 -0.2315
 5402SOL    HW127665   3.553   0.819   4.382  2.4412  2.3293  2.6100
 5402SOL    HW227666   3.670   0.907   4.345 -1.1276 -0.9094  2.3491
 5403SOL     OW27667   0.930   1.525  17.275  0.6709 -0.2999  0.2873
 5403SOL    HW127668   0.871   1.558  17.343 -0.7377  1.8528 -2.0094
 5403SOL    HW227669   0.872   1.505  17.202  1.3166 -2.1511  0.2767
 5404SOL     OW27670   1.130   1.851   2.471  0.2925 -0.0048 -0.7048
 5404SOL    HW127671   1.141   1.886   2.559  1.0166 -0.6384 -0.5481
 5404SOL    HW227672   1.035   1.862   2.462  0.4546  2.2847  0.3698
 5405SOL     OW27673   1.581   3.358   6.189  0.5510 -0.1731 -0.9922
 5405SOL    HW127674   1.633   3.302   6.130  0.3897  0.2437 -1.5329
 5405SOL    HW227675   1.514   3.396   6.133  0.3857  2.0646  0.7658
 5406SOL     OW27676   3.230   4.208   8.374  0.1447 -0.1624  0.5084
 5406SOL    HW127677   3.300   4.176   8.317 -1.2142  2.1585 -2.4889
 5406SOL    HW227678   3.152   4.163   8.341  1.1266 -1.6721  0.2155
 5407SOL     OW27679   4.641   0.965  14.664  0.0864  0.5302 -0.5539
 5407SOL    HW127680   4.634   1.010  14.580 -1.4483  0.1860 -0.6161
 5407SOL    HW227681   4.562   0.911  14.665 -0.7474  1.7323 -0.3938
 5408SOL     OW27682   2.864   2.202   8.157 -0.2649 -0.0890  0.1555
 5408SOL    HW127683   2.820   2.196   8.242  0.5663  0.3949  0.6358
 5408SOL    HW227684   2.898   2.292   8.160 -1.2852  0.3366 -1.1605
 5409SOL     OW27685   4.623   0.887   0.418 -0.3344 -0.2322 -0.2255
 5409SOL    HW127686   4.673   0.806   0.425 -0.4838 -0.2498  0.5971
 5409SOL    HW227687   4.693   0.948   0.444  0.0601 -1.1827  0.9458
 5410SOL     OW27688   4.381   3.725   4.524 -0.3413 -0.4802  0.6929
 5410SOL    HW127689   4.305   3.682   4.564  1.0122  0.1705  3.9517
 5410SOL    HW227690   4.445   3.657   4.545  1.6004  0.9684 -0.5231
 5411SOL     OW27691   3.747   4.553   4.184 -0.1894 -0.1199  0.1248
 5411SOL    HW127692   3.658   4.538   4.152 -0.9409 -0.6796  2.5199
 5411SOL    HW227693   3.793   4.576   4.103 -0.1783  1.5569  0.6126
 5412SOL     OW27694   0.177   0.278   6.516 -0.1733 -0.5557  0.9693
 5412SOL    HW127695   0.157   0.312   6.429 -1.6378 -1.6715  0.8730
 5412SOL    HW227696   0.251   0.331   6.546 -0.7209  0.1299  1.1014
 5413SOL     OW27697   3.786   4.331   7.198 -0.0268 -0.0245 -0.5454
 5413SOL    HW127698   3.866   4.321   7.146 -1.2392 -1.9570 -2.0333
 5413SOL    HW227699   3.737   4.260   7.156  0.8920 -1.9923  1.6642
 5414SOL     OW27700   1.290   3.640  11.890  0.2389 -0.3832 -0.5666
 5414SOL    HW127701   1.310   3.732  11.907 -0.2350 -0.5823  1.0249
 5414SOL    HW227702   1.216   3.636  11.950  0.9956  1.0611  0.4611
 5415SOL     OW27703   0.641   0.468   4.301 -0.3914 -0.6407 -0.0454
 5415SOL    HW127704   0.601   0.385   4.273 -0.3488 -1.1169  1.3097
 5415SOL    HW227705   0.587   0.485   4.378  0.5796 -2.2729  0.9848
 5416SOL     OW27706   0.589   4.436   0.427 -0.0178 -0.0742  0.1125
 5416SOL    HW127707   0.613   4.509   0.369 -0.0044  0.8271  1.2538
 5416SOL    HW227708   0.516   4.401   0.375 -0.0526 -2.9999  2.1728
 5417SOL     OW27709   4.140   1.720  14.660 -0.5644  0.0159 -0.3338
 5417SOL    HW127710   4.212   1.784  14.661 -0.0239 -0.5799 -1.4775
 5417SOL    HW227711   4.088   1.740  14.582 -0.7175 -2.0911 -0.7582
 5418SOL     OW27712   4.564   3.643   7.774 -0.0590 -0.3858  0.2396
 5418SOL    HW127713   4.509   3.718   7.794  1.1115  0.9832 -1.7013
 5418SOL    HW227714   4.563   3.645   7.679  0.2454  0.8730  0.2598
 5419SOL     OW27715   1.203   3.725  11.256  0.4461 -0.3826 -0.0821
 5419SOL    HW127716   1.193   3.804  11.202  2.8530  0.4407  0.7017
 5419SOL    HW227717   1.194   3.650  11.197 -5.2728  0.3032 -0.1467
 5420SOL     OW27718   0.756   1.665   4.113 -0.0452 -0.1804 -0.4985
 5420SOL    HW127719   0.747   1.740   4.055  1.5023 -0.0072 -0.4956
 5420SOL    HW227720   0.668   1.658   4.151  0.4105 -1.0286  0.4066
 5421SOL     OW27721   2.741   0.446   4.582 -0.1096 -0.1189  0.0225
 5421SOL    HW127722   2.686   0.429   4.658  0.3098 -1.9863 -0.1009
 5421SOL    HW227723   2.830   0.431   4.614 -0.2242  2.9832  1.7581
 5422SOL     OW27724   1.393   2.421  14.366  0.2025  0.1322 -0.2766
 5422SOL    HW127725   1.349   2.372  14.436 -3.1637  0.7461 -1.9691
 5422SOL    HW227726   1.380   2.368  14.287  0.1559 -1.5380  0.8434
 5423SOL     OW27727   2.596   2.893  14.937  0.2894 -0.4836 -0.0713
 5423SOL    HW127728   2.576   2.916  15.028  1.9602  1.1433 -0.1115
 5423SOL    HW227729   2.515   2.919  14.893  1.4424  3.2123  0.0292
 5424SOL     OW27730   4.302   4.208  16.065  0.2852  0.5497  0.1262
 5424SOL    HW127731   4.374   4.248  16.017  0.6453  0.3686  0.5235
 5424SOL    HW227732   4.298   4.259  16.145 -0.3479 -0.4205  0.7170
 5425SOL     OW27733   2.963   2.988   3.316 -0.5289  0.2157  0.2016
 5425SOL    HW127734   3.037   3.011   3.372  0.9491 -0.9035 -1.3038
 5425SOL    HW227735   2.952   2.893   3.324 -0.5805  0.3237  1.3461
 5426SOL     OW27736   1.478   0.963  16.033  0.2196  0.1492 -0.0415
 5426SOL    HW127737   1.418   1.036  16.018 -0.6319 -0.2247  1.4684
 5426SOL    HW227738   1.515   0.996  16.115 -0.4555 -0.2580  0.4297
 5427SOL     OW27739   3.134   3.027   5.121 -0.1137 -0.3407  0.3658
 5427SOL    HW127740   3.061   3.080   5.087 -0.4441 -2.2640 -1.8586
 5427SOL    HW227741   3.085   2.951   5.152 -2.7777  0.9978 -0.4999
 5428SOL     OW27742   1.876   4.569   3.037 -0.1128  0.0804 -0.7296
 5428SOL    HW127743   1.888   4.476   3.019  0.4159  0.2037 -1.0377
 5428SOL    HW227744   1.792   4.566   3.083  1.2798 -0.7785  1.7290
 5429SOL     OW27745   3.208   0.462   7.311 -0.0070  0.3532 -0.2812
 5429SOL    HW127746   3.114   0.443   7.309 -0.2481  1.7041 -1.7417
 5429SOL    HW227747   3.222   0.497   7.400  0.9488 -1.4444  0.2633
 5430SOL     OW27748   1.615   3.281  11.481  0.3504 -0.4297  0.7145
 5430SOL    HW127749   1.687   3.269  11.543  1.6151  0.6780 -0.5066
 5430SOL    HW227750   1.547   3.304  11.543 -1.5601  0.8531 -1.8658
 5431SOL     OW27751   4.701   0.688  11.778 -0.5649  0.4900  0.0342
 5431SOL    HW127752   0.060   0.637  11.796  0.2121  1.0097 -1.9738
 5431SOL    HW227753   4.635   0.626  11.810 -1.2133 -0.2636 -2.8194
 5432SOL     OW27754   2.135   1.548   4.047 -0.1276  0.2620  0.0390
 5432SOL    HW127755   2.064   1.556   4.110  0.0750  1.9209  0.0690
 5432SOL    HW227756   2.082   1.517   3.973  0.8390  0.4862 -0.7464
 5433SOL     OW27757   2.735   2.464  10.652  0.0793  0.1144 -0.3076
 5433SOL    HW127758   2.679   2.538  10.627  0.3073  1.0765  2.0815
 5433SOL    HW227759   2.786   2.494  10.727 -1.1900 -1.6434  1.2266
 5434SOL     OW27760   1.273   1.553   3.224  0.1647  0.4105 -0.1112
 5434SOL    HW127761   1.347   1.492   3.229 -0.4705 -0.2904  0.6891
 5434SOL    HW227762   1.287   1.606   3.303 -1.4381 -0.3631  0.6933
 5435SOL     OW27763   0.461   2.554   5.466 -0.2181  0.4320  0.1874
 5435SOL    HW127764   0.486   2.506   5.544 -2.4998 -1.4979 -0.2731
 5435SOL    HW227765   0.543   2.604   5.466  0.5506 -0.8576 -1.6535
 5436SOL     OW27766   4.419   0.355   3.748  0.7638  0.1141  0.3770
 5436SOL    HW127767   4.400   0.389   3.836  1.8244  0.2087  0.5669
 5436SOL    HW227768   4.429   0.433   3.694 -0.5587 -0.6304 -0.9239
 5437SOL     OW27769   3.741   4.159   3.651 -0.5234 -0.3698 -0.1195
 5437SOL    HW127770   3.822   4.206   3.670 -0.5335 -0.9792  1.4794
 5437SOL    HW227771   3.751   4.077   3.700 -0.7572  2.6797  5.0800
 5438SOL     OW27772   4.409   1.366  17.170 -0.4391  0.1656 -0.9955
 5438SOL    HW127773   4.426   1.455  17.202 -1.6042  0.5671 -1.4946
 5438SOL    HW227774   4.413   1.320  17.254  2.1363  1.3410 -0.4486
 5439SOL     OW27775   1.414   1.039   0.716 -0.1266  0.5812  1.1691
 5439SOL    HW127776   1.416   1.117   0.773  0.5923  2.5901 -1.6046
 5439SOL    HW227777   1.411   0.970   0.782  0.8010 -2.4494 -1.9771
 5440SOL     OW27778   0.731   1.349   0.109  0.5703 -0.4215 -0.7708
 5440SOL    HW127779   0.789   1.280   0.141  0.3549  1.1090  3.0050
 5440SOL    HW227780   0.710   1.323   0.019 -1.5204  1.7448 -0.9069
 5441SOL     OW27781   0.366   3.482   3.675  0.2993 -0.3713  0.0471
 5441SOL    HW127782   0.360   3.507   3.582  0.1244 -0.3255  0.0713
 5441SOL    HW227783   0.319   3.399   3.683  0.6116 -0.7314 -1.6783
 5442SOL     OW27784   3.171   2.936   9.031  0.2014 -0.3742  0.5781
 5442SOL    HW127785   3.101   2.930   8.966 -0.8718  0.8554  1.6204
 5442SOL    HW227786   3.125   2.971   9.108 -0.5575  1.0234 -0.5066
 5443SOL     OW27787   2.266   4.389   1.040  0.7265  0.3857  0.1651
 5443SOL    HW127788   2.299   4.343   1.118 -1.0432  0.0938  0.7251
 5443SOL    HW227789   2.175   4.362   1.045  0.6642  1.0078  2.2784
 5444SOL     OW27790   3.180   4.706   1.815  0.0386  0.1168  0.5453
 5444SOL    HW127791   3.118   4.711   1.887 -0.8005  0.9649 -0.2360
 5444SOL    HW227792   3.168   4.611   1.812  0.2920  0.0899  0.3657
 5445SOL     OW27793   0.103   2.729   3.747 -0.2077  0.4137  0.5128
 5445SOL    HW127794   0.022   2.728   3.696 -0.6710 -1.6880  1.2646
 5445SOL    HW227795   0.167   2.704   3.680 -2.3700  0.6100 -1.6213
 5446SOL     OW27796   3.797   1.010  11.972  0.5860  0.2935  0.1865
 5446SOL    HW127797   3.717   1.026  12.023  0.2333  1.1334 -0.6265
 5446SOL    HW227798   3.834   1.094  11.946  0.5893  0.7476  1.6720
 5447SOL     OW27799   3.273   1.740   7.971  0.0160 -0.0278  0.3823
 5447SOL    HW127800   3.203   1.794   8.008  1.0318  2.5434 -1.5056
 5447SOL    HW227801   3.332   1.766   8.042 -1.6653  0.4957  1.5870
 5448SOL     OW27802   2.691   2.819   6.417  0.4583 -0.2532 -0.4246
 5448SOL    HW127803   2.699   2.912   6.399  0.9275 -0.4317 -1.1433
 5448SOL    HW227804   2.699   2.781   6.329 -0.4136  1.3836 -1.2097
 5449SOL     OW27805   2.348   2.873   8.494  0.3031  0.0592  0.1863
 5449SOL    HW127806   2.320   2.840   8.580 -0.3060  0.9512  0.3325
 5449SOL    HW227807   2.425   2.818   8.484  0.4977  0.5396 -0.9273
 5450SOL     OW27808   1.262   2.721  16.645  0.3896 -0.2503  0.7074
 5450SOL    HW127809   1.255   2.662  16.570 -1.4259  0.4599  0.3342
 5450SOL    HW227810   1.281   2.661  16.717 -0.3909  0.2417  1.3205
 5451SOL     OW27811   3.927   3.362   5.049 -0.4059 -0.0645 -0.6027
 5451SOL    HW127812   3.837   3.372   5.080 -0.9621 -0.9765 -1.9363
 5451SOL    HW227813   3.970   3.398   5.126 -1.5852 -0.6576  0.3131
 5452SOL     OW27814   2.165   4.409  10.762 -0.5943 -0.0461  0.5073
 5452SOL    HW127815   2.203   4.369  10.683 -0.9731 -0.7041  0.6564
 5452SOL    HW227816   2.174   4.327  10.812 -0.0243  0.5899  1.4380
 5453SOL     OW27817   1.994   3.100   9.591 -0.0628  0.2621 -0.5731
 5453SOL    HW127818   1.972   3.190   9.616  0.3814 -0.1482  1.2609
 5453SOL    HW227819   2.023   3.057   9.672  0.5168  0.3344 -0.7400
 5454SOL     OW27820   4.632   1.038  14.409  0.0754  0.4268 -0.4130
 5454SOL    HW127821   4.709   0.983  14.393  1.0273  1.6730 -0.1364
 5454SOL    HW227822   4.626   1.103  14.339  0.3370  0.6139 -0.2655
 5455SOL     OW27823   4.087   4.000   9.859 -0.8274 -0.1076  0.7334
 5455SOL    HW127824   4.095   3.952   9.941  3.1956 -0.0845  0.3401
 5455SOL    HW227825   4.118   3.938   9.793 -2.9699 -0.4688  0.0551
 5456SOL     OW27826   1.031   1.721   3.911  0.5056  0.5062 -0.3090
 5456SOL    HW127827   1.072   1.768   3.984  0.9511 -2.1695  1.1680
 5456SOL    HW227828   0.939   1.746   3.921  0.6065 -0.0407  2.2396
 5457SOL     OW27829   3.120   1.487  10.416 -0.2228  0.3314 -0.0926
 5457SOL    HW127830   3.132   1.564  10.471  1.8383 -0.8844  1.1348
 5457SOL    HW227831   3.201   1.484  10.365 -0.0251 -1.4537  0.3147
 5458SOL     OW27832   1.835   0.026   8.043 -0.1160 -0.1670 -0.0583
 5458SOL    HW127833   1.894   4.681   8.006  0.4131 -0.0524  0.5925
 5458SOL    HW227834   1.808   4.696   8.120 -0.9451  1.1805  0.5369
 5459SOL     OW27835   0.370   4.153   7.204  0.5825  0.2975  0.3937
 5459SOL    HW127836   0.433   4.186   7.140 -0.2931  0.8758 -0.1665
 5459SOL    HW227837   0.386   4.229   7.260 -3.1821  0.3278  1.4365
 5460SOL     OW27838   3.121   3.583   8.723  0.1288 -0.1713 -0.1977
 5460SOL    HW127839   3.199   3.605   8.672 -0.3112  0.9083 -0.4143
 5460SOL    HW227840   3.151   3.612   8.809 -2.1456 -1.0933  0.9281
 5461SOL     OW27841   1.937   0.100   3.640  0.4549 -0.4479  0.2669
 5461SOL    HW127842   2.020   0.081   3.685 -0.9255  0.0448  3.0368
 5461SOL    HW227843   1.875   0.037   3.677  0.8738 -1.3203 -0.5402
 5462SOL     OW27844   4.027   2.867  13.022 -0.0612  0.1271  0.3509
 5462SOL    HW127845   4.014   2.865  12.927  0.5896  2.7251  0.2131
 5462SOL    HW227846   4.116   2.901  13.030  0.4618 -1.2941  0.5739
 5463SOL     OW27847   2.187   1.038   2.931  0.5387 -0.4824 -0.0150
 5463SOL    HW127848   2.193   1.104   2.862 -2.1489  0.0405  0.2706
 5463SOL    HW227849   2.150   0.961   2.886  0.4685 -1.6042  1.9647
 5464SOL     OW27850   1.918   0.604   3.008  0.2448  0.4113 -0.4050
 5464SOL    HW127851   1.906   0.515   2.975 -1.5931  0.7104 -0.5056
 5464SOL    HW227852   2.013   0.615   2.995 -0.0777  1.5565 -1.7854
 5465SOL     OW27853   2.585   0.579  12.602 -0.3887  0.5321  0.3993
 5465SOL    HW127854   2.492   0.565  12.585 -0.2612  0.6244 -0.4044
 5465SOL    HW227855   2.578   0.660  12.651 -0.6542  0.1210  1.0342
 5466SOL     OW27856   1.805   1.955  15.749 -0.1370  0.0743 -0.0123
 5466SOL    HW127857   1.833   2.040  15.784 -1.3762  0.7600 -0.6722
 5466SOL    HW227858   1.877   1.899  15.778 -1.8996 -0.7513  2.8051
 5467SOL     OW27859   4.422   0.467   3.278 -0.3070 -0.0801 -1.0376
 5467SOL    HW127860   4.331   0.448   3.299  0.1236  0.4046  1.3163
 5467SOL    HW227861   4.464   0.472   3.364 -0.1708  0.8094 -1.1553
 5468SOL     OW27862   3.205   4.383  12.302 -0.1483 -0.0906  0.0652
 5468SOL    HW127863   3.116   4.351  12.296 -2.3204  6.4041 -2.5093
 5468SOL    HW227864   3.193   4.450  12.370  0.5779  1.2732 -1.1408
 5469SOL     OW27865   4.647   0.583  17.516  0.3418  0.5525  0.5248
 5469SOL    HW127866   0.006   0.575  17.463  1.3798  1.8901  1.8718
 5469SOL    HW227867   4.635   0.676  17.498  0.9591  0.2699 -1.3537
 5470SOL     OW27868   1.700   1.800   4.660  0.4973 -0.7361 -0.7020
 5470SOL    HW127869   1.606   1.784   4.653  0.0307  1.5792  0.4998
 5470SOL    HW227870   1.709   1.895   4.662 -1.6403 -0.5607  0.7608
 5471SOL     OW27871   0.035   1.115   1.879 -0.0434 -0.0098  0.8631
 5471SOL    HW127872   4.686   1.161   1.926 -0.7366  0.3189 -0.4751
 5471SOL    HW227873   0.046   1.030   1.921  1.5999  0.3031  1.0658
 5472SOL     OW27874   1.764   0.445   1.050 -0.4646 -0.8373  0.0958
 5472SOL    HW127875   1.770   0.349   1.043 -2.0723 -0.9703  0.4764
 5472SOL    HW227876   1.689   0.461   1.108 -0.1279 -0.2819  0.3729
 5473SOL     OW27877   1.659   0.704   5.157  0.0572 -0.0038 -0.2550
 5473SOL    HW127878   1.601   0.778   5.141 -0.0749  0.2281  1.2380
 5473SOL    HW227879   1.633   0.637   5.094 -1.6948  2.3080 -1.9645
 5474SOL     OW27880   2.872   1.362   2.928  0.0842 -0.4954 -0.3743
 5474SOL    HW127881   2.909   1.303   2.995  1.5359  1.1409  0.2687
 5474SOL    HW227882   2.786   1.371   2.969  0.6917 -1.6915  1.1752
 5475SOL     OW27883   3.510   0.181   4.745  0.0301  0.1610  0.3493
 5475SOL    HW127884   3.568   0.212   4.814 -2.2983  0.4677  2.1620
 5475SOL    HW227885   3.439   0.245   4.738  0.1398  0.0920 -1.4336
 5476SOL     OW27886   3.389   3.146   0.001 -0.5106 -0.0410 -0.5095
 5476SOL    HW127887   3.387   3.204   0.077 -1.4642 -0.8327  0.0704
 5476SOL    HW227888   3.385   3.060   0.043 -1.5811 -0.9195 -2.3945
 5477SOL     OW27889   3.438   2.896   8.855  0.3161 -0.6593 -0.1786
 5477SOL    HW127890   3.354   2.857   8.882 -0.2725  0.1638 -0.8330
 5477SOL    HW227891   3.463   2.939   8.936  0.5199 -3.3053  1.1634
 5478SOL     OW27892   3.291   1.743   2.459 -0.0299 -0.1590 -0.7161
 5478SOL    HW127893   3.279   1.657   2.418  0.3593  0.1944 -1.5770
 5478SOL    HW227894   3.384   1.756   2.440  0.1785  1.5442  1.4623
 5479SOL     OW27895   1.378   2.267  14.141 -0.7347  0.3976 -0.0276
 5479SOL    HW127896   1.398   2.174  14.138  1.3464  0.8429  0.3613
 5479SOL    HW227897   1.351   2.290  14.053  1.5167  0.1711 -0.7741
 5480SOL     OW27898   0.988   3.521   7.183 -0.6454 -0.0180  0.5555
 5480SOL    HW127899   0.948   3.497   7.266 -2.2390  2.7955  0.6016
 5480SOL    HW227900   0.958   3.450   7.127  0.4120  0.1678 -0.2543
 5481SOL     OW27901   3.374   1.317   8.031  0.3983 -0.2115  0.7302
 5481SOL    HW127902   3.440   1.247   8.037  1.8589  1.0121 -1.1203
 5481SOL    HW227903   3.421   1.378   8.087 -0.8000  0.7636  0.6900
 5482SOL     OW27904   0.590   0.332   5.025 -0.4964  0.4363  0.2234
 5482SOL    HW127905   0.530   0.391   4.979 -1.7850  0.7014  2.2294
 5482SOL    HW227906   0.579   0.351   5.118  2.6628 -1.3357  0.9378
 5483SOL     OW27907   2.363   4.100   9.987 -0.4254  0.2803 -0.1045
 5483SOL    HW127908   2.323   4.020   9.952  0.0819 -0.0290  0.0237
 5483SOL    HW227909   2.401   4.131   9.905  1.3564 -1.3327  0.1246
 5484SOL     OW27910   3.285   1.152   3.439  0.8456 -0.1368 -0.0718
 5484SOL    HW127911   3.314   1.236   3.474 -2.2117  1.0299 -0.3634
 5484SOL    HW227912   3.259   1.103   3.517 -0.2165  0.0020 -0.3324
 5485SOL     OW27913   3.241   2.265   0.143  0.9847  0.0417  0.5668
 5485SOL    HW127914   3.162   2.223   0.176  0.8840 -1.4080 -1.5193
 5485SOL    HW227915   3.232   2.342   0.198  0.6667  0.1864  0.3129
 5486SOL     OW27916   0.468   4.196  15.765  0.4319 -0.4225 -0.4018
 5486SOL    HW127917   0.542   4.254  15.777  1.5926 -1.5374 -2.2423
 5486SOL    HW227918   0.409   4.253  15.715  0.7318  3.3704  3.5725
 5487SOL     OW27919   0.580   3.283   8.072 -0.4709  0.3918 -0.0804
 5487SOL    HW127920   0.615   3.371   8.088  1.1531 -0.7085  2.5822
 5487SOL    HW227921   0.635   3.219   8.117 -1.2139 -1.1429 -1.3514
 5488SOL     OW27922   2.342   3.216  15.881  0.7396  0.7576 -0.2287
 5488SOL    HW127923   2.330   3.299  15.928  1.6536  1.4727 -1.2736
 5488SOL    HW227924   2.416   3.184  15.932  1.2236 -0.0016 -1.4273
 5489SOL     OW27925   0.192   2.266   3.048 -0.0267  0.2358  0.3216
 5489SOL    HW127926   0.110   2.310   3.025  0.5568  0.4781 -1.2788
 5489SOL    HW227927   0.232   2.242   2.964 -0.0972  2.1300 -0.2483
 5490SOL     OW27928   1.343   3.451  16.880  0.0790 -0.3087 -0.2698
 5490SOL    HW127929   1.266   3.471  16.827  1.2216  1.3127 -1.2911
 5490SOL    HW227930   1.373   3.370  16.838 -0.3726 -1.2863  1.2856
 5491SOL     OW27931   0.289   3.892   9.178 -0.5643 -0.2177 -0.4215
 5491SOL    HW127932   0.232   3.828   9.136 -2.1960  0.8031  0.2019
 5491SOL    HW227933   0.312   3.848   9.260 -0.1604  0.9064  0.0689
 5492SOL     OW27934   1.840   4.090   0.432 -0.0022  0.6759  0.0339
 5492SOL    HW127935   1.791   4.138   0.498  0.2746  2.0784 -0.7826
 5492SOL    HW227936   1.885   4.019   0.478 -0.1272 -0.4362 -1.5447
 5493SOL     OW27937   0.606   0.320   2.349  0.1727 -0.4349 -0.6681
 5493SOL    HW127938   0.637   0.243   2.396 -0.0278  2.0035  3.4981
 5493SOL    HW227939   0.511   0.312   2.351  0.0892  0.9415  1.0932
 5494SOL     OW27940   1.444   2.739   7.316  0.1201 -0.2029  0.1036
 5494SOL    HW127941   1.361   2.782   7.337  1.3671  1.4318  1.7102
 5494SOL    HW227942   1.477   2.784   7.238 -2.3868  1.1836 -0.1469
 5495SOL     OW27943   1.836   3.232  16.115  0.6750  0.0125  0.0171
 5495SOL    HW127944   1.810   3.233  16.207  1.0631 -0.3722  0.1353
 5495SOL    HW227945   1.881   3.148  16.102  0.4220  0.4044 -3.2984
 5496SOL     OW27946   1.832   4.113  14.461  0.2037  0.1677  0.1941
 5496SOL    HW127947   1.823   4.207  14.474  1.9723  0.1964  1.2266
 5496SOL    HW227948   1.907   4.090  14.516 -0.3602  1.3475  1.4333
 5497SOL     OW27949   2.435   0.018   4.175  0.1009  0.1616  0.3464
 5497SOL    HW127950   2.404   0.108   4.166  1.0967  0.4398 -0.2566
 5497SOL    HW227951   2.386   0.006   4.257 -0.5775  1.2934  0.1120
 5498SOL     OW27952   1.183   0.673  17.238 -0.1602 -0.6445 -0.2907
 5498SOL    HW127953   1.177   0.603  17.174  1.7316 -0.8587 -0.2330
 5498SOL    HW227954   1.266   0.651  17.281 -0.4546  1.2447  1.2480
 5499SOL     OW27955   3.144   2.839  12.578  0.5205 -0.3265 -0.2109
 5499SOL    HW127956   3.145   2.935  12.583 -0.6677 -0.4006  1.4724
 5499SOL    HW227957   3.106   2.819  12.664 -1.1099 -1.3333 -1.1652
 5500SOL     OW27958   3.684   2.912   9.077 -0.1053  0.1832 -0.4692
 5500SOL    HW127959   3.731   2.872   9.151  0.4355  0.0059 -0.9061
 5500SOL    HW227960   3.680   2.996   9.123 -1.8641  0.0151 -0.3440
 5501SOL     OW27961   3.844   1.189  15.405  0.1467  0.2514 -0.7738
 5501SOL    HW127962   3.786   1.249  15.453  1.7992  1.0139  0.2822
 5501SOL    HW227963   3.820   1.111  15.455  1.2446  0.1864 -0.3438
 5502SOL     OW27964   0.284   1.440   6.635 -0.0981  0.5096  0.2041
 5502SOL    HW127965   0.204   1.420   6.684 -1.1123 -0.4046 -1.7966
 5502SOL    HW227966   0.336   1.504   6.682  1.1029 -0.5299  0.3018
 5503SOL     OW27967   3.669   4.126   9.680  0.4636 -0.2191 -0.1618
 5503SOL    HW127968   3.587   4.166   9.709  0.3359 -1.7276  1.5830
 5503SOL    HW227969   3.712   4.106   9.763 -0.1168 -3.2521 -0.5959
 5504SOL     OW27970   2.635   2.950   3.293 -0.0283  0.8071 -0.0175
 5504SOL    HW127971   2.568   2.987   3.350 -0.5975  0.2579 -0.3290
 5504SOL    HW227972   2.634   3.016   3.224 -0.6215 -1.0910 -1.8264
 5505SOL     OW27973   0.955   1.401  15.708 -0.2457 -0.6043  0.0279
 5505SOL    HW127974   0.924   1.398  15.799  1.0125  1.2911  0.5241
 5505SOL    HW227975   0.937   1.494  15.697 -0.1332 -0.2667  2.5437
 5506SOL     OW27976   3.036   3.901  17.211 -0.1612  0.0006 -0.2673
 5506SOL    HW127977   3.001   3.823  17.254  0.3925 -1.0331 -1.7045
 5506SOL    HW227978   3.129   3.895  17.191  0.2373  1.0169  1.2499
 5507SOL     OW27979   3.735   2.001   4.445 -0.4014  0.6401 -0.1138
 5507SOL    HW127980   3.675   1.929   4.428  0.5021  0.0719 -0.9198
 5507SOL    HW227981   3.746   2.038   4.357 -0.8142 -2.2436 -1.3769
 5508SOL     OW27982   2.474   3.006   7.733 -0.2939  0.2245  0.0794
 5508SOL    HW127983   2.570   3.000   7.741 -0.1718  1.3047 -0.4637
 5508SOL    HW227984   2.437   2.990   7.820 -0.8488 -0.2840 -0.2562
 5509SOL     OW27985   0.995   4.168   7.334  0.1324 -0.7707  0.4420
 5509SOL    HW127986   0.981   4.203   7.422  1.4131  0.0868  0.2987
 5509SOL    HW227987   0.994   4.074   7.353  0.6163 -1.2798 -2.1313
 5510SOL     OW27988   4.394   1.212   8.734  0.0005  0.4671 -0.5891
 5510SOL    HW127989   4.442   1.238   8.813  0.5179 -2.6280  0.1262
 5510SOL    HW227990   4.456   1.249   8.671  0.0563 -0.7480 -1.2384
 5511SOL     OW27991   0.097   3.297   9.947  0.6102 -0.7958 -0.2624
 5511SOL    HW127992   0.019   3.270   9.995  0.3633  2.9296  1.4124
 5511SOL    HW227993   0.160   3.258  10.008  1.9459  1.6531 -0.0645
 5512SOL     OW27994   2.234   2.310   4.714  0.7110  0.3479  0.7630
 5512SOL    HW127995   2.202   2.232   4.760 -1.6027  1.2623  0.7358
 5512SOL    HW227996   2.303   2.272   4.660 -1.8167 -0.5790 -1.8223
 5513SOL     OW27997   4.510   1.218   6.801  0.0916  0.5796 -0.1276
 5513SOL    HW127998   4.415   1.233   6.801 -0.1309 -0.8251  0.8629
 5513SOL    HW227999   4.509   1.151   6.869  1.6204 -0.3557 -1.0276
 5514SOL     OW28000   1.154   2.860   5.546 -0.0240  0.3097 -0.2557
 5514SOL    HW128001   1.062   2.833   5.539  0.1034  0.1247 -1.1980
 5514SOL    HW228002   1.143   2.952   5.523 -1.2198  0.6763  1.7981
 5515SOL     OW28003   4.594   0.776   3.707  0.0206 -0.6635  0.4977
 5515SOL    HW128004   4.636   0.768   3.792 -0.2603  1.5116  0.8216
 5515SOL    HW228005   4.670   0.814   3.663 -2.1228  2.2365 -0.7161
 5516SOL     OW28006   2.143   0.774   5.024 -0.2765  0.1997  0.7445
 5516SOL    HW128007   2.072   0.817   5.073 -1.1404 -1.4111  0.8833
 5516SOL    HW228008   2.118   0.796   4.934 -1.5304  4.4112  2.0789
 5517SOL     OW28009   3.522   4.074   8.811  0.4920  0.1052  0.3236
 5517SOL    HW128010   3.484   4.142   8.866 -0.7787  0.4836 -1.0409
 5517SOL    HW228011   3.457   4.054   8.744  0.3702 -1.6386  0.9416
 5518SOL     OW28012   4.292   3.359   4.015  0.0070 -0.1698 -0.6340
 5518SOL    HW128013   4.266   3.441   3.973 -0.2921  0.2002  0.2852
 5518SOL    HW228014   4.254   3.354   4.103 -0.6348  2.1646 -0.7765
 5519SOL     OW28015   2.689   0.577   3.748 -0.5148  0.1379 -0.5961
 5519SOL    HW128016   2.680   0.636   3.672 -0.4407  2.4132  1.1667
 5519SOL    HW228017   2.747   0.634   3.799  0.2153  0.1025 -1.3732
 5520SOL     OW28018   1.083   1.463  14.917  1.0610  0.0822 -0.3899
 5520SOL    HW128019   1.072   1.407  14.994  0.2320  0.0559 -0.5241
 5520SOL    HW228020   1.170   1.437  14.887  1.2540  0.3843 -0.0892
 5521SOL     OW28021   0.131   0.534   8.898 -0.5380  0.0954 -0.5075
 5521SOL    HW128022   0.157   0.524   8.806  3.7496  0.8008  0.6327
 5521SOL    HW228023   0.187   0.466   8.934  2.1133  0.9736 -2.9677
 5522SOL     OW28024   1.391   0.316  12.686 -0.1846  0.0219  0.0536
 5522SOL    HW128025   1.328   0.364  12.741  0.4037 -1.0380  1.6460
 5522SOL    HW228026   1.456   0.384  12.669 -0.7314  0.5044 -0.1364
 5523SOL     OW28027   0.838   2.282   8.336  0.2966 -0.1947 -0.0536
 5523SOL    HW128028   0.768   2.339   8.367 -0.9394 -1.1491 -1.0855
 5523SOL    HW228029   0.872   2.335   8.264  1.1401 -0.8832 -0.1519
 5524SOL     OW28030   4.690   0.891   5.207  0.3065 -0.0616  0.1970
 5524SOL    HW128031   0.016   0.901   5.124 -0.9732 -0.7332 -0.6022
 5524SOL    HW228032   4.658   0.802   5.193  0.3777 -0.1130  0.3620
 5525SOL     OW28033   4.569   4.053  13.048  0.3310  0.1068  0.1714
 5525SOL    HW128034   4.501   4.116  13.024  0.3374  0.1084  0.1565
 5525SOL    HW228035   4.555   4.030  13.139  2.0044  1.5153  0.8026
 5526SOL     OW28036   2.345   0.679  16.651  0.4388  0.0992  0.0584
 5526SOL    HW128037   2.334   0.593  16.692  0.0301 -0.1644 -0.5986
 5526SOL    HW228038   2.264   0.723  16.679  0.1569 -0.4859  0.1687
 5527SOL     OW28039   2.634   3.139   5.728 -0.0028  0.2333 -0.3989
 5527SOL    HW128040   2.566   3.087   5.686 -1.4288  1.1158  0.8143
 5527SOL    HW228041   2.601   3.226   5.752  0.8232  0.9719 -1.9522
 5528SOL     OW28042   4.200   3.635   3.123 -0.1846  0.7445  0.3879
 5528SOL    HW128043   4.253   3.593   3.055  0.5375  0.2028  1.2837
 5528SOL    HW228044   4.245   3.719   3.137  1.6502 -0.5201  2.2139
 5529SOL     OW28045   4.088   4.072   3.589  0.5849 -0.2174  0.3081
 5529SOL    HW128046   4.098   4.160   3.626  1.5208 -0.4465  0.5883
 5529SOL    HW228047   4.141   4.017   3.647 -1.1582 -1.1610  1.0076
 5530SOL     OW28048   2.359   4.269   3.821 -0.3843  0.2408 -0.3349
 5530SOL    HW128049   2.385   4.327   3.893  0.5842 -0.5770 -0.0313
 5530SOL    HW228050   2.435   4.279   3.763 -0.1416 -3.6391 -0.6278
 5531SOL     OW28051   3.933   2.156   8.229 -0.1345 -0.0703  0.0677
 5531SOL    HW128052   3.981   2.162   8.311  1.5887  2.2265 -1.1020
 5531SOL    HW228053   3.937   2.250   8.210  0.0418 -0.1296 -0.1942
 5532SOL     OW28054   4.615   0.782   6.843  0.0640  0.0331 -0.1533
 5532SOL    HW128055   4.657   0.699   6.819 -1.9923 -0.4235 -2.2021
 5532SOL    HW228056   4.687   0.846   6.842  1.7579 -1.8278  1.1327
 5533SOL     OW28057   3.457   3.314   5.851 -0.3380  0.0858  0.6943
 5533SOL    HW128058   3.406   3.377   5.799  2.3697  1.9111  0.2455
 5533SOL    HW228059   3.427   3.232   5.812  1.5669 -1.1709  1.8631
 5534SOL     OW28060   2.428   0.008  10.814  0.6212  0.0277  0.6885
 5534SOL    HW128061   2.425   4.677  10.734 -2.4607  1.3453 -0.0346
 5534SOL    HW228062   2.415   0.093  10.773 -0.9764 -0.7406 -0.3679
 5535SOL     OW28063   4.578   2.813   1.897 -0.0519 -0.2954  0.3675
 5535SOL    HW128064   4.651   2.761   1.931 -0.0174 -0.6970 -0.3217
 5535SOL    HW228065   4.625   2.871   1.837  1.1339 -4.1144 -2.4337
 5536SOL     OW28066   4.320   2.026   1.179 -0.2656  0.6512  0.0172
 5536SOL    HW128067   4.237   1.983   1.161 -0.0045 -0.2318  0.9186
 5536SOL    HW228068   4.322   2.027   1.275  0.2296  1.4734 -0.0059
 5537SOL     OW28069   0.249   3.732   6.066  0.2732 -0.0567 -0.0850
 5537SOL    HW128070   0.219   3.793   6.134  0.6873  3.0575 -2.6893
 5537SOL    HW228071   0.341   3.758   6.057  0.7343 -2.0943 -1.2929
 5538SOL     OW28072   1.756   0.032   4.555  0.2172  0.2622  0.3454
 5538SOL    HW128073   1.768   0.084   4.475 -3.0071 -0.2654 -0.4914
 5538SOL    HW228074   1.727   0.102   4.613  2.4758  0.6937  0.9557
 5539SOL     OW28075   1.000   1.723   7.866  0.1957 -0.4161 -0.4113
 5539SOL    HW128076   1.038   1.777   7.934 -0.6074 -0.9563  0.4682
 5539SOL    HW228077   1.065   1.733   7.796  0.6546 -1.4990 -0.1317
 5540SOL     OW28078   0.720   4.633   5.488 -0.1602 -0.0583 -0.1279
 5540SOL    HW128079   0.792   4.619   5.426  1.1623 -3.7018  2.2096
 5540SOL    HW228080   0.695   4.719   5.456  1.1403  0.7707  1.1015
 5541SOL     OW28081   1.973   2.483   8.998 -0.0213 -0.1631  0.0846
 5541SOL    HW128082   2.069   2.485   8.993 -0.0963  1.1945 -0.7586
 5541SOL    HW228083   1.949   2.565   8.955 -1.1009 -1.6171 -2.1100
 5542SOL     OW28084   4.715   4.264   5.054 -0.2818  0.3569  0.2344
 5542SOL    HW128085   0.015   4.185   5.004  0.6372 -0.5037  1.9744
 5542SOL    HW228086   0.081   4.280   5.092  0.3382  0.8196 -1.3764
 5543SOL     OW28087   2.449   4.474   5.287  0.4232  0.3678  0.5145
 5543SOL    HW128088   2.485   4.388   5.265 -3.0604 -1.0533  0.3313
 5543SOL    HW228089   2.481   4.539   5.225 -1.1345  0.7057  0.0687
 5544SOL     OW28090   4.525   1.110  10.951 -0.3348 -0.2276  0.1433
 5544SOL    HW128091   4.491   1.149  11.031 -1.5682 -1.3303  0.1619
 5544SOL    HW228092   4.482   1.158  10.880  0.6418  0.5106  0.0474
 5545SOL     OW28093   1.081   3.155  11.106  0.5401 -0.4219  0.9625
 5545SOL    HW128094   1.042   3.242  11.094  0.3610 -0.7002 -0.5084
 5545SOL    HW228095   1.009   3.101  11.074  1.5826 -1.1601 -0.1522
 5546SOL     OW28096   1.395   1.157   8.147 -0.5888  0.3245 -0.5645
 5546SOL    HW128097   1.403   1.151   8.242  1.0047  0.1662 -0.7022
 5546SOL    HW228098   1.305   1.187   8.137 -0.8130 -0.0616  0.2897
 5547SOL     OW28099   2.677   3.092   3.049  0.1128 -0.2551  0.0638
 5547SOL    HW128100   2.771   3.106   3.054  0.2202 -0.7031 -0.5770
 5547SOL    HW228101   2.676   3.010   2.999 -2.6200  0.0162 -0.3413
 5548SOL     OW28102   0.520   0.847   1.245  0.4410 -0.1355  0.5037
 5548SOL    HW128103   0.555   0.854   1.334 -0.3870  0.7150  0.7660
 5548SOL    HW228104   0.554   0.760   1.226  0.5122 -0.2884  1.3219
 5549SOL     OW28105   2.710   4.026   9.379 -0.2106 -0.0529 -0.2362
 5549SOL    HW128106   2.637   4.085   9.363  1.2822  1.5154 -1.2860
 5549SOL    HW228107   2.740   4.051   9.467  1.2358  0.6416 -0.9264
 5550SOL     OW28108   1.263   3.535   2.434 -0.5346 -0.5832 -0.4017
 5550SOL    HW128109   1.200   3.600   2.467  1.1713  1.5983 -1.4394
 5550SOL    HW228110   1.341   3.587   2.453 -0.2257 -1.8525  1.7964
 5551SOL     OW28111   3.957   4.697  10.836  0.2779 -0.1254  0.2288
 5551SOL    HW128112   3.863   4.711  10.839  0.2420 -0.6759  2.0196
 5551SOL    HW228113   3.991   4.714  10.924 -1.6313  0.6828  0.8038
 5552SOL     OW28114   4.152   0.501  11.152 -0.6612  0.6459 -0.0485
 5552SOL    HW128115   4.089   0.430  11.137  0.3200 -0.6812  2.0508
 5552SOL    HW228116   4.237   0.459  11.144 -0.8521  0.2389  0.0508
 5553SOL     OW28117   0.162   2.099   8.958  0.1829  0.1335  0.6201
 5553SOL    HW128118   0.210   2.079   8.878  0.9505  0.5678  0.9778
 5553SOL    HW228119   0.121   2.184   8.940 -0.9040 -0.4107  0.5103
 5554SOL     OW28120   1.047   2.410   1.417  0.3438 -0.1497 -0.6657
 5554SOL    HW128121   0.976   2.407   1.481  0.7224 -1.8422 -0.3185
 5554SOL    HW228122   1.084   2.494   1.444 -0.2463  0.6030 -2.2232
 5555SOL     OW28123   3.218   3.160   5.379  0.0357  0.3189  0.3234
 5555SOL    HW128124   3.187   3.115   5.300  2.4129 -0.5573 -0.1169
 5555SOL    HW228125   3.308   3.184   5.357  0.1801 -0.3089  0.2102
 5556SOL     OW28126   4.146   2.847  15.298  0.3362  0.0998 -0.4858
 5556SOL    HW128127   4.117   2.804  15.379  1.1395 -1.6740 -1.1346
 5556SOL    HW228128   4.220   2.795  15.266  0.3576 -0.0067 -0.2657
 5557SOL     OW28129   0.797   2.680   5.061 -0.4160  0.0645 -0.4542
 5557SOL    HW128130   0.702   2.681   5.048 -0.4676 -2.4712 -0.0970
 5557SOL    HW228131   0.821   2.747   4.997 -3.4291  2.6043  1.0831
 5558SOL     OW28132   1.491   3.773   6.278 -0.1570 -0.0877  0.1153
 5558SOL    HW128133   1.545   3.779   6.199 -0.4588 -0.7868 -0.1431
 5558SOL    HW228134   1.415   3.827   6.257 -0.0200  0.2325  0.4361
 5559SOL     OW28135   3.713   1.957  15.613 -0.3562  0.2171 -0.3409
 5559SOL    HW128136   3.716   1.921  15.524  2.0887 -3.7217  1.3275
 5559SOL    HW228137   3.767   1.888  15.651 -1.6828 -0.0096  1.1164
 5560SOL     OW28138   0.152   0.995   2.228  0.1938  0.0638 -0.1028
 5560SOL    HW128139   0.166   0.968   2.319 -3.5581  1.8612  1.0249
 5560SOL    HW228140   0.103   1.078   2.227 -3.5187 -2.1503 -2.4915
 5561SOL     OW28141   1.771   1.456  10.032  0.1905 -0.1897  0.2461
 5561SOL    HW128142   1.725   1.393  10.086  1.0929 -1.3489 -0.3497
 5561SOL    HW228143   1.859   1.453  10.071  0.2385  1.8212  0.3132
 5562SOL     OW28144   2.372   0.558  14.513  0.4965 -0.6391 -0.0145
 5562SOL    HW128145   2.439   0.592  14.571  1.3309  0.1569 -1.4470
 5562SOL    HW228146   2.415   0.480  14.478  1.4836 -0.5571  1.0323
 5563SOL     OW28147   0.263   2.335   6.374  0.3456 -0.3044 -0.4266
 5563SOL    HW128148   0.214   2.268   6.327 -0.0880  1.0842 -1.9937
 5563SOL    HW228149   0.201   2.408   6.379  1.8469  0.9961 -0.6597
 5564SOL     OW28150   2.167   2.622   5.438 -0.0163 -0.2268 -0.0617
 5564SOL    HW128151   2.102   2.692   5.427 -1.0456 -1.5240 -2.3554
 5564SOL    HW228152   2.114   2.549   5.469 -1.1101  0.6852  0.2513
 5565SOL     OW28153   0.132   0.938   6.417 -0.5263  0.7681  0.5424
 5565SOL    HW128154   0.191   0.990   6.362 -1.2414  0.8620 -0.1377
 5565SOL    HW228155   0.168   0.990   6.488 -0.6843 -0.0647  1.2363
 5566SOL     OW28156   3.463   3.875  15.659 -0.1365 -0.0034 -0.0575
 5566SOL    HW128157   3.506   3.936  15.719 -0.9980  0.8613 -0.3186
 5566SOL    HW228158   3.515   3.886  15.579 -0.2031  0.7658  0.0047
 5567SOL     OW28159   4.568   3.570   7.165  0.2528 -0.8233  0.2191
 5567SOL    HW128160   4.626   3.639   7.197 -3.3426  2.0665  0.4689
 5567SOL    HW228161   4.565   3.513   7.241 -1.9755 -1.8400 -0.6192
 5568SOL     OW28162   4.468   0.041   0.684  0.0633 -0.0676  0.1872
 5568SOL    HW128163   4.455   0.068   0.593 -2.7928 -0.2666  0.5264
 5568SOL    HW228164   4.501   0.125   0.715  1.4748 -0.2202 -0.9478
 5569SOL     OW28165   1.051   0.025   5.599  0.2415 -0.7586  0.1667
 5569SOL    HW128166   1.047   0.070   5.514 -0.5581 -0.5390  0.3169
 5569SOL    HW228167   1.136   4.703   5.592 -0.3262 -1.9110  0.2056
 5570SOL     OW28168   3.366   4.518  14.943  0.0668  0.0846  0.2672
 5570SOL    HW128169   3.459   4.507  14.927 -0.0112 -1.1159  0.6253
 5570SOL    HW228170   3.358   4.544  15.035 -0.9000 -1.0741  0.5123
 5571SOL     OW28171   1.119   2.863   5.100 -0.2216  0.6337  0.1726
 5571SOL    HW128172   1.168   2.903   5.172  2.4851 -2.3723  0.0359
 5571SOL    HW228173   1.144   2.772   5.116  1.6132  1.0884 -0.0692
 5572SOL     OW28174   1.380   2.563  12.533  0.1641  0.5408  0.2002
 5572SOL    HW128175   1.380   2.609  12.617 -2.1408 -0.6187  0.8217
 5572SOL    HW228176   1.467   2.523  12.539 -0.4096 -0.8728 -0.9482
 5573SOL     OW28177   0.964   3.072   5.669 -0.1995 -0.1675 -0.2314
 5573SOL    HW128178   1.031   3.123   5.715  0.5199 -0.5549 -0.8450
 5573SOL    HW228179   0.956   3.109   5.582 -0.9376 -2.2576 -1.0596
 5574SOL     OW28180   2.072   0.153  15.184 -0.5360 -0.0578 -0.0143
 5574SOL    HW128181   2.056   0.115  15.270  1.2172  1.1860  0.8637
 5574SOL    HW228182   2.066   0.075  15.129 -0.2117  0.0117 -0.1517
 5575SOL     OW28183   1.748   1.430   3.913 -0.2368 -0.1426 -0.7628
 5575SOL    HW128184   1.674   1.369   3.922 -1.6514  1.6368 -0.2171
 5575SOL    HW228185   1.768   1.413   3.821  0.0359 -1.3370 -0.4821
 5576SOL     OW28186   0.231   0.252  14.714  0.0181  0.1110  0.4854
 5576SOL    HW128187   0.326   0.245  14.707 -0.0701 -0.2995 -0.2988
 5576SOL    HW228188   0.224   0.326  14.774 -0.4633 -0.3596  1.0048
 5577SOL     OW28189   4.344   4.209   6.122 -0.1710 -0.1024 -0.2873
 5577SOL    HW128190   4.304   4.129   6.090  0.9763 -0.4707 -0.8258
 5577SOL    HW228191   4.438   4.190   6.111  0.3230  2.2768 -0.2239
 5578SOL     OW28192   1.923   2.864   6.766  0.9693  0.2243 -0.6452
 5578SOL    HW128193   1.835   2.847   6.733  0.4108 -0.2840  1.1546
 5578SOL    HW228194   1.979   2.805   6.716  2.0297 -0.7688  1.7257
 5579SOL     OW28195   2.875   0.575   7.593 -0.4526  0.0954 -0.3086
 5579SOL    HW128196   2.860   0.630   7.670  0.2524 -0.5835  0.2988
 5579SOL    HW228197   2.785   0.580   7.560 -0.5286 -1.3177 -0.3209
 5580SOL     OW28198   0.405   0.152   5.458  0.9780  0.1561  0.5279
 5580SOL    HW128199   0.385   0.190   5.543 -1.6157  1.1197 -0.5378
 5580SOL    HW228200   0.321   0.143   5.414  1.5244  1.7837 -0.8527
 5581SOL     OW28201   1.810   0.460   0.065 -0.7955  0.6039  0.8068
 5581SOL    HW128202   1.755   0.410   0.125 -1.2760  0.1354 -0.0254
 5581SOL    HW228203   1.874   0.395   0.036 -1.1462 -0.4974  2.5176
 5582SOL     OW28204   0.973   2.690  17.283  0.1084 -0.3755  0.5159
 5582SOL    HW128205   0.881   2.713  17.293  0.4395  0.8769  0.6930
 5582SOL    HW228206   0.976   2.601  17.319  1.8612 -0.5925 -0.1181
 5583SOL     OW28207   3.421   3.575   5.417 -0.2133  0.7469 -0.3523
 5583SOL    HW128208   3.356   3.547   5.353 -0.3707  0.3219 -0.0028
 5583SOL    HW228209   3.400   3.668   5.426  1.2561  1.1168 -0.6562
 5584SOL     OW28210   0.207   3.284   3.374  0.1066  0.3784 -0.6260
 5584SOL    HW128211   0.209   3.207   3.318 -2.5925 -0.2993  0.2349
 5584SOL    HW228212   0.191   3.343   3.300  0.3359 -0.1120 -1.0627
 5585SOL     OW28213   4.054   1.824  12.499 -0.4672 -0.0578 -0.0631
 5585SOL    HW128214   4.088   1.907  12.464 -0.9425 -0.2235 -0.9330
 5585SOL    HW228215   3.965   1.823  12.461 -0.6246  0.5568  0.2871
 5586SOL     OW28216   3.813   2.819  15.915  0.1778  0.2879  0.5375
 5586SOL    HW128217   3.770   2.904  15.921 -0.6787 -0.2208  1.5237
 5586SOL    HW228218   3.879   2.825  15.985  0.5974  1.3380  0.0463
 5587SOL     OW28219   2.863   3.242   4.693  0.2780  0.1975 -0.2965
 5587SOL    HW128220   2.922   3.213   4.622  2.5299  1.4339  1.0533
 5587SOL    HW228221   2.879   3.336   4.677 -0.5547  0.5064  0.7204
 5588SOL     OW28222   0.425   3.707   9.325 -0.7897  0.3368  0.4426
 5588SOL    HW128223   0.406   3.727   9.417  1.3508  1.5297  0.6320
 5588SOL    HW228224   0.471   3.624   9.329 -2.7997 -0.8215 -0.6288
 5589SOL     OW28225   0.651   0.359   5.548  0.3888  0.0685 -0.1823
 5589SOL    HW128226   0.725   0.411   5.581  0.9085 -0.4091 -0.5893
 5589SOL    HW228227   0.593   0.351   5.623 -0.9965  0.9991 -1.1491
 5590SOL     OW28228   3.743   0.413   2.706  0.0623  0.3150  0.5983
 5590SOL    HW128229   3.695   0.495   2.713  0.4133  0.4993  0.8098
 5590SOL    HW228230   3.777   0.391   2.792 -0.2969  0.1934  0.7099
 5591SOL     OW28231   4.604   1.366  14.012  0.2638  0.4725  0.0035
 5591SOL    HW128232   4.663   1.441  14.020  0.0320  0.6899 -0.3568
 5591SOL    HW228233   4.654   1.300  13.966 -0.6802  0.6461 -1.2510
 5592SOL     OW28234   4.618   4.104   2.848 -0.4037  0.7059  0.0849
 5592SOL    HW128235   4.710   4.100   2.821 -0.3287 -0.6838  0.5755
 5592SOL    HW228236   4.620   4.119   2.943  0.6377  3.4326 -0.3525
 5593SOL     OW28237   4.546   2.019  15.555  0.5159  0.2174 -0.0451
 5593SOL    HW128238   4.472   2.027  15.616  0.0174  0.9183 -0.7321
 5593SOL    HW228239   4.583   2.107  15.560 -2.6403  1.4026  2.4084
 5594SOL     OW28240   0.665   2.856  12.825 -0.2586 -0.5431 -0.0838
 5594SOL    HW128241   0.571   2.862  12.845 -0.2457 -0.5426 -0.0234
 5594SOL    HW228242   0.687   2.948  12.808 -1.0351 -0.5277 -1.0406
 5595SOL     OW28243   2.067   1.908   8.025  0.1599 -0.5955 -0.7578
 5595SOL    HW128244   1.993   1.865   8.067 -0.4205 -0.1648 -1.3437
 5595SOL    HW228245   2.067   1.990   8.074 -1.4804 -1.2712  0.3568
 5596SOL     OW28246   1.174   3.985  13.525 -0.2112  0.0666 -0.2350
 5596SOL    HW128247   1.125   3.906  13.547  0.2161 -0.4583 -1.1496
 5596SOL    HW228248   1.218   3.957  13.445 -0.4621  2.2100 -1.1341
 5597SOL     OW28249   3.697   1.273   0.026 -0.1852  0.0066  0.5808
 5597SOL    HW128250   3.758   1.346   0.019  0.4918 -0.4089  2.1374
 5597SOL    HW228251   3.649   1.312   0.099 -2.6500  1.5296 -1.8767
 5598SOL     OW28252   2.525   0.965   5.410 -0.5667 -0.8793 -0.0682
 5598SOL    HW128253   2.528   0.946   5.316 -0.3010 -1.9332  0.1625
 5598SOL    HW228254   2.562   0.883   5.440 -3.3844 -1.8298  0.8541
 5599SOL     OW28255   3.877   1.976   4.690  0.5724 -0.3006 -0.3413
 5599SOL    HW128256   3.810   1.988   4.623  2.3837  2.7003 -1.5618
 5599SOL    HW228257   3.838   1.923   4.760  1.0672  0.1559  0.2707
 5600SOL     OW28258   1.460   4.565   6.817  0.0806 -0.2591  0.5176
 5600SOL    HW128259   1.405   4.491   6.793  1.7989 -1.4161  0.1119
 5600SOL    HW228260   1.500   4.516   6.889  0.8309 -2.6530 -1.5227
 5601SOL     OW28261   3.295   1.520  10.203  0.2922 -0.6975  0.4174
 5601SOL    HW128262   3.284   1.594  10.144 -1.6808 -2.0865 -0.9784
 5601SOL    HW228263   3.255   1.450  10.151 -1.1154 -0.0587  0.6489
 5602SOL     OW28264   3.478   0.786   5.818  0.1440 -0.2273  0.6087
 5602SOL    HW128265   3.572   0.771   5.809  0.0150 -1.1690  0.8086
 5602SOL    HW228266   3.471   0.789   5.914 -0.1096 -1.5671  0.6323
 5603SOL     OW28267   3.489   3.684   3.513  0.2486 -0.1368  0.1554
 5603SOL    HW128268   3.514   3.595   3.487 -0.8393 -0.5844  0.6314
 5603SOL    HW228269   3.403   3.700   3.475  0.8142  0.4326 -0.9017
 5604SOL     OW28270   3.964   4.290   2.662  0.1157 -0.6347  0.0887
 5604SOL    HW128271   3.924   4.281   2.575 -0.7541  1.7575  0.2480
 5604SOL    HW228272   3.900   4.347   2.704 -0.5927 -0.4010 -1.2979
 5605SOL     OW28273   0.748   2.554  17.543  0.5699 -0.3168 -0.3037
 5605SOL    HW128274   0.686   2.599  17.601  0.6643 -0.0665 -0.3928
 5605SOL    HW228275   0.704   2.475  17.515 -0.8689  0.1428  0.6880
 5606SOL     OW28276   2.455   3.431   6.998  0.1360  0.5050 -0.4503
 5606SOL    HW128277   2.451   3.336   6.989  0.9840  0.4801 -0.5831
 5606SOL    HW228278   2.436   3.458   6.908 -1.9473 -1.4906 -0.5852
 5607SOL     OW28279   3.183   4.501   4.059 -0.4332 -0.1234  0.4823
 5607SOL    HW128280   3.090   4.477   4.060 -0.0863 -1.3940  3.7878
 5607SOL    HW228281   3.181   4.596   4.074 -0.5411  0.3882 -2.7685
 5608SOL     OW28282   0.661   0.511   7.475 -0.2091  0.0103  0.0068
 5608SOL    HW128283   0.676   0.572   7.547 -1.3380  0.4238 -0.0959
 5608SOL    HW228284   0.642   0.432   7.527  0.1130  1.1352  1.8560
 5609SOL     OW28285   4.633   1.077   2.513 -0.1547  0.0895 -0.5245
 5609SOL    HW128286   0.007   1.060   2.509 -0.9311 -4.3812  0.3864
 5609SOL    HW228287   4.610   1.059   2.604 -0.4199  3.1334  0.0296
 5610SOL     OW28288   4.606   3.028   3.543 -0.0780 -0.4246 -0.5053
 5610SOL    HW128289   4.570   3.036   3.455  2.1057 -0.7177 -1.4217
 5610SOL    HW228290   4.690   2.991   3.516  0.4940  0.3850  0.1529
 5611SOL     OW28291   0.617   1.243   3.719  0.5179  0.7146  0.1071
 5611SOL    HW128292   0.674   1.178   3.676  1.2141 -0.0535  2.2013
 5611SOL    HW228293   0.670   1.321   3.734  0.5969  0.8055 -0.6598
 5612SOL     OW28294   0.509   4.178  11.061  0.0544  0.4742 -0.4813
 5612SOL    HW128295   0.495   4.102  11.117  0.0479  0.9352  0.1426
 5612SOL    HW228296   0.416   4.193  11.047 -0.1940 -0.6294  0.0624
 5613SOL     OW28297   1.864   0.813  12.743  0.1217 -0.4511 -0.2651
 5613SOL    HW128298   1.850   0.903  12.716  0.1600 -0.0625  1.0041
 5613SOL    HW228299   1.780   0.784  12.707 -1.2310  4.0082 -0.6729
 5614SOL     OW28300   2.512   3.637  16.203 -0.2994 -0.4305  0.3752
 5614SOL    HW128301   2.589   3.610  16.155  2.9047  3.9208  3.0060
 5614SOL    HW228302   2.542   3.670  16.288 -1.3130  0.4519  0.3969
 5615SOL     OW28303   2.046   1.720   0.033  0.2737  0.1593  0.2686
 5615SOL    HW128304   2.108   1.709  17.646  0.5722 -0.7765  0.6704
 5615SOL    HW228305   2.041   1.811   0.062 -0.4725 -0.2114  1.3220
 5616SOL     OW28306   4.592   4.000   5.534  0.1113 -0.3932  0.0935
 5616SOL    HW128307   4.652   3.925   5.525  0.6377  0.1417 -0.8791
 5616SOL    HW228308   4.599   4.050   5.452  1.7404 -0.2216  0.3263
 5617SOL     OW28309   3.954   2.071  15.460  0.1541  0.4571 -0.5844
 5617SOL    HW128310   3.961   2.087  15.554  1.0601 -0.1868 -0.5413
 5617SOL    HW228311   4.043   2.037  15.449  0.4032  1.0940 -0.5417
 5618SOL     OW28312   1.490   3.221   4.674  0.4494  0.1415 -0.2352
 5618SOL    HW128313   1.477   3.313   4.651 -0.6189 -0.2436 -1.1839
 5618SOL    HW228314   1.541   3.246   4.751  1.6138  0.2125 -1.0330
 5619SOL     OW28315   2.863   4.332   7.118 -0.8318  0.3170  0.1250
 5619SOL    HW128316   2.902   4.384   7.048  0.2954 -1.5685 -0.6674
 5619SOL    HW228317   2.806   4.398   7.156 -0.6208  0.7176 -0.2625
 5620SOL     OW28318   0.216   4.551   9.003 -0.1894  0.2184  0.5150
 5620SOL    HW128319   0.127   4.586   9.004 -0.5152 -0.6683  1.9444
 5620SOL    HW228320   0.230   4.511   9.089 -0.8413  0.6375  0.8102
 5621SOL     OW28321   0.587   4.013  15.952  0.0454  0.4963  0.1008
 5621SOL    HW128322   0.531   4.046  15.882  1.2272  1.8124 -0.2270
 5621SOL    HW228323   0.616   4.100  15.979 -2.5598  1.1605  0.8107
 5622SOL     OW28324   3.479   4.348   0.910  0.1734  0.5278  0.1764
 5622SOL    HW128325   3.469   4.366   1.003  0.3371 -1.5159  0.5840
 5622SOL    HW228326   3.424   4.270   0.913  0.2498  0.6356  4.2280
 5623SOL     OW28327   2.862   3.181  15.424  0.6235  0.1949  0.1372
 5623SOL    HW128328   2.865   3.144  15.512 -1.7464 -0.6313 -0.1146
 5623SOL    HW228329   2.800   3.255  15.426 -1.1114 -1.2982  2.8126
 5624SOL     OW28330   0.393   3.595   3.430 -0.3706 -0.2810 -0.0145
 5624SOL    HW128331   0.370   3.685   3.452 -1.6772 -0.8092  0.7509
 5624SOL    HW228332   0.466   3.608   3.369 -1.9813 -1.0825 -2.1065
 5625SOL     OW28333   0.742   0.989  11.365 -0.6166  0.1650  0.0534
 5625SOL    HW128334   0.823   0.966  11.320  0.3387  0.3186  1.6836
 5625SOL    HW228335   0.763   0.937  11.443  2.5214  1.6206  0.2001
 5626SOL     OW28336   2.262   0.108  16.913  0.2231 -0.0542 -0.5617
 5626SOL    HW128337   2.231   0.186  16.960  0.7696  0.4757 -1.0949
 5626SOL    HW228338   2.179   0.075  16.877 -0.0689 -0.0008  0.0585
 5627SOL     OW28339   4.353   1.980   1.999 -0.3609 -0.1383  0.4701
 5627SOL    HW128340   4.357   2.065   2.043  2.5727 -0.1811  0.3129
 5627SOL    HW228341   4.264   1.950   2.016 -0.2204 -1.5365 -1.2003
 5628SOL     OW28342   2.474   3.808   3.458  0.1359  0.0532 -0.0122
 5628SOL    HW128343   2.410   3.771   3.519 -1.2329  0.0345 -1.4665
 5628SOL    HW228344   2.511   3.883   3.503 -2.0059  0.2605  1.4244
 5629SOL     OW28345   3.807   3.302   3.932  0.5484  0.3750  0.1108
 5629SOL    HW128346   3.828   3.370   3.995  0.2410  0.8693 -0.3175
 5629SOL    HW228347   3.761   3.244   3.993  2.7219 -0.9735  0.4856
 5630SOL     OW28348   4.449   2.454  16.223  0.0869  0.0575  0.1803
 5630SOL    HW128349   4.543   2.445  16.239  0.5253  1.6383 -1.5654
 5630SOL    HW228350   4.414   2.542  16.230  0.2497  0.2148 -1.0439
 5631SOL     OW28351   2.839   0.447   6.294 -0.2928  0.5547  0.8343
 5631SOL    HW128352   2.912   0.493   6.252 -1.1285  1.8683  0.8312
 5631SOL    HW228353   2.890   0.369   6.319 -0.7638 -0.1058 -0.2666
 5632SOL     OW28354   2.706   2.865   5.173  0.1418 -0.0545  0.5736
 5632SOL    HW128355   2.664   2.782   5.152  0.0297  0.8952 -2.9389
 5632SOL    HW228356   2.794   2.839   5.144  0.4427  1.5390  0.0797
 5633SOL     OW28357   1.753   4.044   6.072  0.0822 -0.1369 -0.6660
 5633SOL    HW128358   1.698   3.970   6.045  0.3747 -1.1396  1.4639
 5633SOL    HW228359   1.745   4.110   6.003 -0.5339 -0.5823 -1.0168
 5634SOL     OW28360   4.498   4.079   9.721  0.4327 -0.1323  0.6858
 5634SOL    HW128361   4.474   3.988   9.741 -0.6778  0.3530  1.5512
 5634SOL    HW228362   4.575   4.053   9.670 -0.8522 -3.7388  0.5199
 5635SOL     OW28363   1.627   1.541   3.407  0.2958 -0.0768 -0.2169
 5635SOL    HW128364   1.612   1.632   3.435  1.6643 -0.2860  1.2303
 5635SOL    HW228365   1.722   1.531   3.421  0.0843  0.2433  1.4644
 5636SOL     OW28366   1.678   1.470   2.590  0.2132  0.3847  0.1131
 5636SOL    HW128367   1.604   1.531   2.589  0.0546  0.1911  0.5501
 5636SOL    HW228368   1.737   1.512   2.526 -0.2590 -0.7960 -1.0957
 5637SOL     OW28369   3.583   0.124   2.502  0.5594 -0.5126 -0.1429
 5637SOL    HW128370   3.584   0.080   2.416 -0.6157 -0.4083 -0.2126
 5637SOL    HW228371   3.628   0.204   2.476 -0.3878 -0.1041 -0.5246
 5638SOL     OW28372   1.338   4.698   0.782  0.5690  0.1621  1.1330
 5638SOL    HW128373   1.352   0.062   0.739  0.3983 -1.0894 -1.3692
 5638SOL    HW228374   1.430   4.671   0.788 -0.2194 -3.0691 -1.3665
 5639SOL     OW28375   4.479   2.125   8.276 -0.1180  0.5405 -0.2674
 5639SOL    HW128376   4.532   2.047   8.258  0.9006  1.3498 -0.7861
 5639SOL    HW228377   4.481   2.138   8.371  0.1588  3.2218 -0.6365
 5640SOL     OW28378   3.688   2.447   5.794  0.3107  0.1477  0.7175
 5640SOL    HW128379   3.718   2.358   5.812  0.4375 -0.0251 -0.3555
 5640SOL    HW228380   3.700   2.470   5.702  3.6639  0.6218  1.2755
 5641SOL     OW28381   3.612   3.905   4.935  0.0082 -0.1787 -0.3411
 5641SOL    HW128382   3.549   3.865   4.874  0.6180 -1.0878 -0.3714
 5641SOL    HW228383   3.675   3.935   4.869 -1.7366  0.0394 -1.9224
 5642SOL     OW28384   2.769   1.090   4.335 -0.1035 -0.6563 -0.2643
 5642SOL    HW128385   2.833   1.124   4.272 -0.1962 -0.1011 -0.0572
 5642SOL    HW228386   2.792   0.997   4.334  0.2164 -0.5559 -1.5383
 5643SOL     OW28387   1.022   3.481   3.938 -0.3022  0.2989 -0.1072
 5643SOL    HW128388   1.016   3.440   4.025 -1.8160 -3.1969 -1.8697
 5643SOL    HW228389   1.106   3.445   3.910 -0.7109  0.1047 -1.0562
 5644SOL     OW28390   0.309   0.760  17.390  0.5544 -0.4816 -0.2091
 5644SOL    HW128391   0.396   0.750  17.427  0.2952 -2.7495 -0.2434
 5644SOL    HW228392   0.258   0.759  17.471  0.7700  0.7881 -0.0560
 5645SOL     OW28393   1.007   0.942   3.872 -0.1910  0.0021  0.0108
 5645SOL    HW128394   0.951   1.003   3.823  0.3812 -0.9614 -1.8134
 5645SOL    HW228395   1.043   0.890   3.801  1.2367  0.7350  0.2064
 5646SOL     OW28396   4.415   0.225   6.516  0.7360 -0.6365  0.2762
 5646SOL    HW128397   4.416   0.158   6.583 -1.4269 -2.4694 -1.5397
 5646SOL    HW228398   4.479   0.198   6.449 -1.8922 -0.6052 -2.2534
 5647SOL     OW28399   4.165   1.645   4.302 -0.2516  0.9928 -0.0657
 5647SOL    HW128400   4.077   1.606   4.306 -1.0157  2.9609  2.3587
 5647SOL    HW228401   4.198   1.596   4.227 -0.0972 -0.4879  0.9565
 5648SOL     OW28402   1.107   2.807   4.823 -0.2962 -0.1917 -0.6908
 5648SOL    HW128403   1.179   2.744   4.821  0.5182  0.8005 -2.8364
 5648SOL    HW228404   1.092   2.826   4.915 -2.9389 -0.5536 -1.0491
 5649SOL     OW28405   2.742   0.698   7.860 -0.0218  0.0436 -0.5634
 5649SOL    HW128406   2.667   0.718   7.804 -0.6126 -0.5950 -0.0057
 5649SOL    HW228407   2.720   0.615   7.902 -3.0627  1.2640  0.2967
 5650SOL     OW28408   3.946   0.315  11.051 -0.0172  0.0763  0.5491
 5650SOL    HW128409   3.914   0.361  11.128 -0.0021  0.6576  0.2106
 5650SOL    HW228410   3.974   0.230  11.085  0.3907 -0.5074 -1.2120
 5651SOL     OW28411   1.707   1.197   4.794 -0.2070 -0.3620  0.5339
 5651SOL    HW128412   1.630   1.146   4.771  0.9238 -2.1647  0.7309
 5651SOL    HW228413   1.748   1.154   4.869  0.7214  1.9706  1.3915
 5652SOL     OW28414   1.515   2.816  10.934 -0.0382 -0.5015 -0.0585
 5652SOL    HW128415   1.434   2.833  10.982 -0.3256 -0.7120 -0.4758
 5652SOL    HW228416   1.549   2.904  10.920 -0.5224 -0.5193 -1.3080
 5653SOL     OW28417   2.187   4.473   5.780  0.7356 -0.4614  0.4389
 5653SOL    HW128418   2.269   4.433   5.807  0.3489 -0.7571  1.1858
 5653SOL    HW228419   2.195   4.560   5.819 -0.0872  0.9481 -2.5315
 5654SOL     OW28420   2.980   1.611   7.347 -0.2024  0.7984  0.3592
 5654SOL    HW128421   3.008   1.639   7.434  1.5076 -1.1819  0.4448
 5654SOL    HW228422   3.011   1.520   7.350  0.3726  0.9331 -1.6025
 5655SOL     OW28423   0.576   4.541  11.556  0.2078  0.3841  0.0328
 5655SOL    HW128424   0.593   4.471  11.492  0.9340  1.0329 -0.4841
 5655SOL    HW228425   0.520   4.597  11.502  2.5042  2.1664 -0.5050
 5656SOL     OW28426   2.577   1.345   7.695 -0.1937 -0.3661  0.0184
 5656SOL    HW128427   2.655   1.387   7.734  0.5607 -0.9445 -0.8699
 5656SOL    HW228428   2.517   1.419   7.693 -0.2575 -0.3948  0.8928
 5657SOL     OW28429   2.402   0.807   3.102 -0.6299 -0.3720  0.3720
 5657SOL    HW128430   2.489   0.776   3.124 -0.5980 -0.7933 -0.3530
 5657SOL    HW228431   2.405   0.901   3.121  0.6302 -0.9655  3.0877
 5658SOL     OW28432   2.448   2.799   1.237 -0.2523  0.3243  0.2739
 5658SOL    HW128433   2.352   2.795   1.241 -0.1548 -1.6136  0.9162
 5658SOL    HW228434   2.454   2.851   1.157 -3.4549 -1.2892 -1.0142
 5659SOL     OW28435   0.119   1.805   9.707 -0.7809 -0.1545  0.2060
 5659SOL    HW128436   0.120   1.730   9.766 -0.2993 -1.0527 -0.9258
 5659SOL    HW228437   0.123   1.873   9.774 -2.5818  1.0223 -0.9043
 5660SOL     OW28438   3.755   0.044   0.551  0.1949 -0.2663  0.5195
 5660SOL    HW128439   3.782   0.124   0.597  0.8245 -0.2727  0.1602
 5660SOL    HW228440   3.671   0.030   0.594  0.0049  1.0866  0.6092
 5661SOL     OW28441   3.736   2.390  16.765  0.3986 -0.0567 -0.4554
 5661SOL    HW128442   3.752   2.370  16.857 -0.2751 -0.8380 -0.5026
 5661SOL    HW228443   3.645   2.420  16.763  0.6754  0.7422 -1.1049
 5662SOL     OW28444   1.034   1.657   3.107  0.3594 -0.0001 -0.1058
 5662SOL    HW128445   1.060   1.617   3.024 -1.5704 -0.4250 -0.4851
 5662SOL    HW228446   1.098   1.612   3.163 -0.7411  0.8429  1.8451
 5663SOL     OW28447   2.866   2.556   9.140 -0.5978 -0.5775  0.1260
 5663SOL    HW128448   2.921   2.580   9.214 -1.2623 -0.1036  0.4672
 5663SOL    HW228449   2.896   2.465   9.135 -0.9815 -0.5488 -2.7468
 5664SOL     OW28450   2.323   1.698   7.459 -0.5168 -0.1670 -0.1049
 5664SOL    HW128451   2.376   1.710   7.380  0.7478  0.3686  0.8142
 5664SOL    HW228452   2.248   1.654   7.420  1.1723 -1.5227 -1.8543
 5665SOL     OW28453   1.545   4.150   4.958 -0.0995  0.2321  0.1445
 5665SOL    HW128454   1.549   4.235   5.000  3.8015  0.3654 -0.4822
 5665SOL    HW228455   1.567   4.086   5.026 -2.3738 -1.1128 -0.3798
 5666SOL     OW28456   2.799   2.596   3.136  0.0977 -0.4106  0.0799
 5666SOL    HW128457   2.809   2.501   3.127  0.4263 -0.2919 -0.8355
 5666SOL    HW228458   2.852   2.622   3.060  0.3841 -1.4852 -0.0854
 5667SOL     OW28459   4.686   3.705   2.945 -0.3732  0.2983  0.0241
 5667SOL    HW128460   0.047   3.692   2.993 -1.8089 -0.2930  2.3182
 5667SOL    HW228461   4.621   3.680   3.011 -0.8909  1.0668 -0.1850
 5668SOL     OW28462   4.399   3.346   6.577 -0.3315  0.6933  0.5985
 5668SOL    HW128463   4.329   3.412   6.583 -0.0097  1.1586 -0.7651
 5668SOL    HW228464   4.440   3.367   6.493 -0.5149  1.9007  0.8198
 5669SOL     OW28465   4.289   3.300  17.484  0.3430  0.4498 -0.4807
 5669SOL    HW128466   4.269   3.231  17.420  0.4678 -0.0794  0.0447
 5669SOL    HW228467   4.215   3.361  17.486 -0.0950 -0.1124  0.5110
 5670SOL     OW28468   0.453   4.068   8.436 -0.5257 -0.0781 -0.1804
 5670SOL    HW128469   0.415   4.016   8.507 -0.8080 -0.9132 -0.9545
 5670SOL    HW228470   0.381   4.125   8.407  0.8918  1.4802 -0.6214
 5671SOL     OW28471   0.665   4.143  10.813 -0.0820  0.6141 -0.0080
 5671SOL    HW128472   0.707   4.228  10.827  0.5314 -0.0707  2.2653
 5671SOL    HW228473   0.613   4.129  10.892  2.4697 -0.1108  1.5260
 5672SOL     OW28474   1.759   1.407   7.650 -0.3377 -0.3905  0.1943
 5672SOL    HW128475   1.773   1.367   7.564 -0.0423 -0.9073  0.4875
 5672SOL    HW228476   1.847   1.439   7.670  0.4874 -3.3138  1.2598
 5673SOL     OW28477   0.159   0.754  17.616  0.7046 -0.0777 -0.7560
 5673SOL    HW128478   0.145   0.828  17.674 -2.7848  0.8272 -2.8061
 5673SOL    HW228479   0.079   0.746  17.565 -1.6295  0.8110  2.8172
 5674SOL     OW28480   0.825   2.037   5.507  0.2086  0.5523 -0.4504
 5674SOL    HW128481   0.906   1.998   5.472  0.4350 -0.5227  1.2955
 5674SOL    HW228482   0.864   2.098   5.570  0.8653 -0.4680  0.1299
 5675SOL     OW28483   1.795   3.203  16.375  0.1331 -0.3791 -0.0353
 5675SOL    HW128484   1.726   3.205  16.442  0.1009  0.0183 -0.0746
 5675SOL    HW228485   1.867   3.168  16.426 -0.9865  0.9665  2.4733
 5676SOL     OW28486   3.845   3.060   3.727  0.0738  0.4205 -0.6807
 5676SOL    HW128487   3.809   3.060   3.816  2.0733  0.6834  0.1134
 5676SOL    HW228488   3.937   3.062   3.750 -0.0125 -1.6243 -0.0968
 5677SOL     OW28489   0.673   3.551  17.499 -0.4096  0.3463  0.4692
 5677SOL    HW128490   0.687   3.466  17.540  1.1499 -0.8604 -2.6008
 5677SOL    HW228491   0.579   3.554  17.483 -0.7225 -0.9700  2.0857
 5678SOL     OW28492   3.231   0.514  12.881 -0.1624 -0.2439  0.3257
 5678SOL    HW128493   3.218   0.593  12.830  0.9162 -0.8964 -0.9473
 5678SOL    HW228494   3.164   0.453  12.851 -0.8937 -0.0692  1.6206
 5679SOL     OW28495   4.198   2.353  16.097 -0.6566  0.4641 -0.2362
 5679SOL    HW128496   4.271   2.301  16.132 -0.5438 -0.1071 -1.3339
 5679SOL    HW228497   4.219   2.432  16.148  0.4384  1.3851 -2.1164
 5680SOL     OW28498   2.572   2.521   3.776  0.3688 -0.1048  0.2582
 5680SOL    HW128499   2.589   2.598   3.829  2.1952 -0.4879  0.2355
 5680SOL    HW228500   2.621   2.545   3.697 -0.0532  1.8840  0.6119
 5681SOL     OW28501   2.082   1.667  12.380 -0.5168  0.0383  0.2269
 5681SOL    HW128502   2.177   1.662  12.388 -0.3762  1.4084 -0.5051
 5681SOL    HW228503   2.056   1.578  12.405  0.1368  0.1029  1.1295
 5682SOL     OW28504   1.062   3.736   2.474 -0.0345  0.1388  0.7260
 5682SOL    HW128505   1.064   3.831   2.488  0.2690  0.2374  0.0337
 5682SOL    HW228506   0.969   3.729   2.452 -0.2479  1.7424  1.1050
 5683SOL     OW28507   2.782   3.727   3.612 -0.4954  0.4239  0.0177
 5683SOL    HW128508   2.813   3.654   3.667 -3.2423 -0.5456  0.2733
 5683SOL    HW228509   2.688   3.720   3.627 -0.0771  2.4092  3.7762
 5684SOL     OW28510   0.664   0.705   5.686 -0.0137  0.2132 -0.8802
 5684SOL    HW128511   0.722   0.710   5.611  4.1499  0.6620  2.3635
 5684SOL    HW228512   0.733   0.718   5.752 -2.3961  0.6726  1.5230
 5685SOL     OW28513   4.440   4.074   2.666  0.0617  0.0064 -0.0607
 5685SOL    HW128514   4.391   4.015   2.722 -1.3473  0.7935 -0.4734
 5685SOL    HW228515   4.512   4.090   2.727 -1.1876  1.3840  1.0334
 5686SOL     OW28516   2.676   3.145  11.536  0.2121  0.7268  0.3367
 5686SOL    HW128517   2.631   3.118  11.616 -1.4042  0.6277 -0.6044
 5686SOL    HW228518   2.764   3.113  11.555 -0.4171 -1.0493  0.2941
 5687SOL     OW28519   3.161   0.776  13.781 -0.3108 -0.3164  0.7406
 5687SOL    HW128520   3.084   0.748  13.830  1.8234 -0.4667  3.9928
 5687SOL    HW228521   3.116   0.843  13.730  0.5015  0.3239  0.8555
 5688SOL     OW28522   3.337   0.111   2.060  0.1839 -0.7580  0.1805
 5688SOL    HW128523   3.337   0.171   1.986  0.2921 -1.7622 -0.6390
 5688SOL    HW228524   3.244   0.090   2.063 -0.2102  0.8732 -0.9163
 5689SOL     OW28525   3.237   2.111   7.830 -0.0622 -0.0569 -0.1128
 5689SOL    HW128526   3.196   2.071   7.906 -0.2139  1.1760  0.4544
 5689SOL    HW228527   3.279   2.041   7.779  1.1283 -0.3306  1.2377
 5690SOL     OW28528   3.404   3.331   5.242  0.1852  0.3979  0.4105
 5690SOL    HW128529   3.326   3.374   5.206 -0.3078  1.3710  2.6496
 5690SOL    HW228530   3.467   3.401   5.261  0.8973 -0.4681  1.2343
 5691SOL     OW28531   1.067   1.057  14.174  0.5275 -0.1696  0.3799
 5691SOL    HW128532   1.016   0.987  14.134  0.8006  0.0248 -0.3089
 5691SOL    HW228533   1.000   1.080  14.238  0.5736  1.7213 -0.2318
 5692SOL     OW28534   2.114   3.371  13.091  0.0207  0.3557  0.0999
 5692SOL    HW128535   2.201   3.395  13.124 -0.1545  1.8985 -0.5447
 5692SOL    HW228536   2.066   3.453  13.105  0.9343  0.8314  0.4018
 5693SOL     OW28537   1.019   3.938  10.687 -0.0514 -0.1267  0.3103
 5693SOL    HW128538   1.079   4.012  10.691  1.2359 -1.2768  2.3932
 5693SOL    HW228539   0.983   3.952  10.599  0.2238 -1.0835  0.0366
 5694SOL     OW28540   4.188   1.773   5.388  0.0782  0.4185  0.0752
 5694SOL    HW128541   4.184   1.813   5.475  0.9055  3.3117 -1.2034
 5694SOL    HW228542   4.104   1.788   5.343 -0.1080 -0.8778 -0.0143
 5695SOL     OW28543   4.445   3.351   7.635  0.5089  0.0097 -0.8864
 5695SOL    HW128544   4.465   3.389   7.721  0.3996  1.4858 -1.5181
 5695SOL    HW228545   4.358   3.314   7.649  0.9624  0.3934  2.9558
 5696SOL     OW28546   1.857   2.389   6.550  0.1317 -0.1006 -1.2520
 5696SOL    HW128547   1.836   2.419   6.462  0.5866 -0.9189 -1.6357
 5696SOL    HW228548   1.867   2.294   6.538  2.1563 -0.1355  0.6915
 5697SOL     OW28549   2.897   3.887   8.310 -0.0133  0.1890  0.1858
 5697SOL    HW128550   2.808   3.875   8.344 -0.2426 -1.1634 -0.8685
 5697SOL    HW228551   2.923   3.796   8.297  0.1274  0.1680  0.6315
 5698SOL     OW28552   2.015   2.634  11.766  0.4603 -0.3935  0.1569
 5698SOL    HW128553   2.061   2.664  11.844  1.1128  0.7445 -0.6568
 5698SOL    HW228554   1.923   2.656  11.782  0.8235  0.2681  1.3505
 5699SOL     OW28555   0.853   3.903  12.853 -0.0364  0.0828 -0.0936
 5699SOL    HW128556   0.937   3.950  12.857 -0.3286  0.4343  1.6654
 5699SOL    HW228557   0.801   3.983  12.849 -1.7812 -1.1247 -1.5485
 5700SOL     OW28558   3.032   1.612   7.856  0.0303  0.4184 -0.4100
 5700SOL    HW128559   3.047   1.604   7.950 -0.2682  1.3766 -0.2887
 5700SOL    HW228560   3.115   1.650   7.828 -0.5920  1.0727 -1.3557
 5701SOL     OW28561   3.370   4.458  11.437 -0.0073  0.2134  0.1570
 5701SOL    HW128562   3.275   4.459  11.451  0.0056  0.3096  0.2362
 5701SOL    HW228563   3.408   4.476  11.523 -2.6190  0.8537  1.2050
 5702SOL     OW28564   2.676   2.163   4.472 -0.0459  0.1841  0.3432
 5702SOL    HW128565   2.735   2.088   4.484  3.6488  3.0445  0.0241
 5702SOL    HW228566   2.608   2.127   4.415  0.0733  0.8223 -0.1991
 5703SOL     OW28567   0.139   4.144  17.604 -0.2414 -0.1919  0.2478
 5703SOL    HW128568   0.203   4.093  17.654 -0.5989 -1.3689 -0.5142
 5703SOL    HW228569   0.076   4.171  17.670 -0.4049 -0.3920  0.1727
 5704SOL     OW28570   4.657   2.815   6.155 -0.5279  0.1929  0.4746
 5704SOL    HW128571   4.706   2.893   6.128 -0.4791  1.4092  4.1324
 5704SOL    HW228572   4.697   2.803   6.241  0.6307  1.4054  0.0998
 5705SOL     OW28573   4.130   3.888   7.136  0.2771 -0.0893 -0.1193
 5705SOL    HW128574   4.108   3.970   7.091 -0.4225  0.5466  1.3792
 5705SOL    HW228575   4.084   3.824   7.082  0.6321 -0.9258  0.5638
 5706SOL     OW28576   2.286   2.968   5.817  0.0124  0.0333  0.4375
 5706SOL    HW128577   2.354   2.962   5.751 -0.2957  0.0364  0.1227
 5706SOL    HW228578   2.264   3.060   5.807 -0.5310  0.0412  1.6877
 5707SOL     OW28579   3.033   0.298   7.861  0.0045 -0.1093 -1.7464
 5707SOL    HW128580   3.127   0.312   7.876 -0.8325  0.4092  3.0198
 5707SOL    HW228581   3.005   0.275   7.949  0.8859  0.3887 -1.3338
 5708SOL     OW28582   0.003   0.639   4.899  0.3600 -0.5618 -0.6228
 5708SOL    HW128583   4.651   0.655   4.959  0.8748 -1.3192  0.2107
 5708SOL    HW228584   4.692   0.682   4.819 -0.9613  0.2960  0.3594
 5709SOL     OW28585   1.474   2.712   2.269  0.0760 -0.3918 -0.1872
 5709SOL    HW128586   1.450   2.620   2.258 -2.6662  0.2182  0.8174
 5709SOL    HW228587   1.389   2.748   2.294  0.3777 -2.6386  3.9305
 5710SOL     OW28588   1.656   3.549  11.807 -0.4800  0.0358  0.1888
 5710SOL    HW128589   1.723   3.494  11.847 -0.1130  0.0689 -0.3766
 5710SOL    HW228590   1.597   3.487  11.766  1.8556 -2.6237  0.8714
 5711SOL     OW28591   0.848   4.175   0.337  0.9211  0.4680  0.4328
 5711SOL    HW128592   0.806   4.261   0.332  0.8390  0.5662  2.6850
 5711SOL    HW228593   0.807   4.132   0.413 -0.5858  0.3581 -0.4313
 5712SOL     OW28594   1.002   3.515  14.956  0.3417  0.4269  0.5528
 5712SOL    HW128595   1.062   3.454  14.998  1.8931  0.7595 -1.1851
 5712SOL    HW228596   0.922   3.463  14.964 -0.0491  0.5199 -2.6072
 5713SOL     OW28597   0.226   2.258  10.660  0.1590  0.1362 -0.6913
 5713SOL    HW128598   0.261   2.243  10.573 -0.5909  0.1040 -0.9818
 5713SOL    HW228599   0.182   2.342  10.647 -0.3404 -0.3902 -2.3230
 5714SOL     OW28600   3.041   3.266   7.029  0.9390  0.2573  0.8452
 5714SOL    HW128601   3.013   3.356   7.012 -1.5132 -0.9358 -1.3612
 5714SOL    HW228602   3.088   3.281   7.111  0.0314 -1.9515  1.7608
 5715SOL     OW28603   1.083   4.511   3.040  0.0764  0.1072 -0.2127
 5715SOL    HW128604   1.099   4.456   3.117  0.4467  1.2098  0.5048
 5715SOL    HW228605   0.988   4.515   3.036 -0.0739 -2.4815  0.8584
 5716SOL     OW28606   2.280   4.361   8.171 -0.3700  0.0374 -0.3839
 5716SOL    HW128607   2.282   4.382   8.264 -1.5638  2.0078 -0.7953
 5716SOL    HW228608   2.210   4.414   8.132  0.1844  1.3117  0.3549
 5717SOL     OW28609   4.085   1.063   1.664  0.4489 -0.8067 -0.0891
 5717SOL    HW128610   4.137   1.065   1.584  3.5557 -0.9332  1.9457
 5717SOL    HW228611   4.101   1.151   1.699 -0.2533 -0.4321 -0.6767
 5718SOL     OW28612   0.195   4.165   6.087  1.1278  0.0312  0.0689
 5718SOL    HW128613   0.245   4.121   6.018  2.0244  0.0411  0.7078
 5718SOL    HW228614   0.256   4.160   6.160  0.9211  1.2165  0.3281
 5719SOL     OW28615   1.424   0.562  11.613  0.9055  0.3606 -0.4086
 5719SOL    HW128616   1.390   0.646  11.582  1.7812  1.5344  1.8136
 5719SOL    HW228617   1.343   0.532  11.655  1.5639  0.5807  1.0141
 5720SOL     OW28618   0.616   4.702   4.121  0.2677 -0.1167  0.5188
 5720SOL    HW128619   0.597   4.653   4.201  2.8031 -2.2264 -0.1569
 5720SOL    HW228620   0.702   4.665   4.100 -0.6603 -1.0096 -1.7566
 5721SOL     OW28621   0.166   0.973   0.823  0.4178  0.1331  0.3078
 5721SOL    HW128622   0.120   1.053   0.848  0.5389  0.1253  0.5612
 5721SOL    HW228623   0.257   1.003   0.832  1.0162 -1.6622  0.3596
 5722SOL     OW28624   1.477   2.542   7.698  0.6019  0.1910  0.5433
 5722SOL    HW128625   1.523   2.598   7.761  0.8863 -1.7841  2.0735
 5722SOL    HW228626   1.424   2.609   7.654  0.2187 -0.4089  0.0903
 5723SOL     OW28627   3.846   2.871   2.321 -0.3024 -0.1301 -0.4779
 5723SOL    HW128628   3.849   2.781   2.354 -1.1337  0.5802  1.5543
 5723SOL    HW228629   3.757   2.895   2.345 -0.6753 -1.2193 -0.7652
 5724SOL     OW28630   4.053   1.725   9.387  0.1506 -0.2919 -0.3799
 5724SOL    HW128631   4.087   1.658   9.328  2.4533  0.4813  0.0536
 5724SOL    HW228632   4.022   1.785   9.319  1.1206  2.3195  1.4542
 5725SOL     OW28633   1.443   2.480  13.706  0.0937  0.2681  0.0176
 5725SOL    HW128634   1.364   2.469  13.653  0.4764 -1.9873 -0.0737
 5725SOL    HW228635   1.503   2.495  13.634 -0.4961 -0.2243 -0.5779
 5726SOL     OW28636   2.216   2.815   3.372 -0.4103  0.4071  0.1377
 5726SOL    HW128637   2.185   2.890   3.423  0.4502  0.2679  0.8644
 5726SOL    HW228638   2.164   2.746   3.413 -1.9125 -0.9235 -4.0034
 5727SOL     OW28639   2.846   3.413  14.864  0.1156 -0.9989 -0.1051
 5727SOL    HW128640   2.885   3.434  14.780  2.9158 -0.6278  1.2991
 5727SOL    HW228641   2.887   3.327  14.873  0.7599 -0.5521  1.2591
 5728SOL     OW28642   4.271   1.208   8.497 -0.3183  0.3775 -0.4831
 5728SOL    HW128643   4.301   1.203   8.588 -3.2126  0.5832  0.4861
 5728SOL    HW228644   4.195   1.262   8.518  0.6948  2.4890 -2.2525
 5729SOL     OW28645   1.876   3.505   7.986 -0.3792 -0.7868 -0.0788
 5729SOL    HW128646   1.829   3.585   8.009  1.7876  0.6432 -0.5801
 5729SOL    HW228647   1.959   3.539   7.952 -0.4816 -1.8352 -1.3329
 5730SOL     OW28648   0.085   2.087   2.840  0.3988 -0.4496  0.7089
 5730SOL    HW128649   0.171   2.063   2.806  0.5538  1.1420 -0.0147
 5730SOL    HW228650   0.075   2.177   2.809 -0.5795 -0.1476  1.8771
 5731SOL     OW28651   1.492   4.409   7.712 -0.1634  0.1894 -0.1961
 5731SOL    HW128652   1.585   4.430   7.720  0.0403 -1.1061  0.7323
 5731SOL    HW228653   1.488   4.314   7.705  0.0685  0.2682 -1.2827
 5732SOL     OW28654   0.117   2.026   5.944  0.1861 -0.3496 -0.0319
 5732SOL    HW128655   0.099   1.935   5.966 -1.0752 -0.2148 -0.4708
 5732SOL    HW228656   0.196   2.020   5.890  0.7128  2.1857  0.4421
 5733SOL     OW28657   0.740   1.739   8.747 -0.0451 -0.5676 -0.1236
 5733SOL    HW128658   0.695   1.715   8.829  0.0496 -2.1736 -0.5323
 5733SOL    HW228659   0.811   1.676   8.755  2.0562  1.8233 -0.1591
 5734SOL     OW28660   2.345   0.769   4.743 -0.5102 -0.0449 -0.0368
 5734SOL    HW128661   2.332   0.753   4.649 -0.3720  0.2065 -0.1007
 5734SOL    HW228662   2.258   0.790   4.774 -0.0529 -1.5515  2.2203
 5735SOL     OW28663   3.289   4.219   1.293 -0.8751  0.2903  1.0104
 5735SOL    HW128664   3.281   4.162   1.369  0.3245 -2.3849 -0.8788
 5735SOL    HW228665   3.214   4.274   1.314 -1.5589  0.1225 -1.0772
 5736SOL     OW28666   0.956   4.055  11.767 -0.1002  0.2989 -0.2946
 5736SOL    HW128667   1.041   4.039  11.807 -0.6526 -2.2690 -0.1655
 5736SOL    HW228668   0.967   4.134  11.714 -1.1824 -0.0460 -1.0468
 5737SOL     OW28669   1.581   0.106   3.138  0.1648  0.3451 -0.1744
 5737SOL    HW128670   1.544   0.176   3.083 -0.1424 -0.5274 -1.0860
 5737SOL    HW228671   1.569   0.026   3.087  0.4136 -0.1454  0.5403
 5738SOL     OW28672   1.676   3.310   5.777  0.1593 -0.7604 -0.3302
 5738SOL    HW128673   1.739   3.350   5.717 -1.3658  2.4858  0.2398
 5738SOL    HW228674   1.589   3.322   5.738  0.0315  0.7341  0.4250
 5739SOL     OW28675   4.146   2.342   3.729  0.3583 -0.1128 -0.2216
 5739SOL    HW128676   4.116   2.433   3.726  3.1209  0.8557  1.4003
 5739SOL    HW228677   4.084   2.290   3.678  0.0083 -0.8528  0.9402
 5740SOL     OW28678   0.171   3.311   1.956 -0.3835  0.5980 -0.1957
 5740SOL    HW128679   0.127   3.345   1.878  0.4444  0.5512 -0.6811
 5740SOL    HW228680   0.093   3.268   1.991  0.4077 -0.0069  0.8292
 5741SOL     OW28681   2.715   3.309   1.978  0.1716 -0.3828  0.2451
 5741SOL    HW128682   2.726   3.354   2.062 -0.9325 -2.1012  1.2938
 5741SOL    HW228683   2.637   3.259   1.999 -1.1250  1.5211 -0.0836
 5742SOL     OW28684   1.014   4.341   7.130 -0.0516 -0.0300  0.2366
 5742SOL    HW128685   1.076   4.294   7.073 -1.2145  0.5281 -1.4967
 5742SOL    HW228686   0.988   4.268   7.186  0.9045 -0.2240  0.4312
 5743SOL     OW28687   4.338   4.002   0.711 -0.1450 -0.3756  0.6416
 5743SOL    HW128688   4.252   4.013   0.751 -0.7987 -0.4820 -0.7101
 5743SOL    HW228689   4.367   4.092   0.696 -2.2415  0.1352 -0.3191
 5744SOL     OW28690   3.028   2.813   5.620 -0.4682  0.2132  0.3788
 5744SOL    HW128691   3.103   2.760   5.645  0.4327  0.8336 -0.9979
 5744SOL    HW228692   2.980   2.747   5.569 -0.1919  1.8381 -1.9998
 5745SOL     OW28693   4.659   4.561   9.006 -0.0543  0.4059  0.6954
 5745SOL    HW128694   4.592   4.600   8.950 -0.5066 -1.2973  0.0678
 5745SOL    HW228695   4.671   4.469   8.984 -0.6502  0.4749  0.1064
 5746SOL     OW28696   4.531   0.348   5.114  0.5459 -0.2454  0.4336
 5746SOL    HW128697   4.477   0.314   5.042 -0.7030  0.5696  0.9939
 5746SOL    HW228698   4.510   0.281   5.178  2.5279 -0.6178  0.6920
 5747SOL     OW28699   0.969   4.113   6.765  0.2008  0.2664 -0.6036
 5747SOL    HW128700   0.976   4.031   6.814 -0.6645  0.8229  0.4553
 5747SOL    HW228701   1.027   4.166   6.820  0.5182  0.2027 -0.8797
 5748SOL     OW28702   0.439   3.311   8.967 -0.7873  0.9407 -0.3703
 5748SOL    HW128703   0.496   3.386   8.949 -1.2247  1.3807  0.0999
 5748SOL    HW228704   0.349   3.338   8.948 -0.3012  1.9895 -1.1825
 5749SOL     OW28705   1.020   0.187   8.345 -0.6202 -0.0204 -0.3938
 5749SOL    HW128706   0.985   0.276   8.350  0.2729  0.2625  0.8745
 5749SOL    HW228707   1.050   0.182   8.254  1.2990 -0.0597  0.2489
 5750SOL     OW28708   3.789   3.963   5.399 -0.3029  0.2885  0.5752
 5750SOL    HW128709   3.808   4.047   5.357  1.1497 -0.1302  0.4081
 5750SOL    HW228710   3.749   3.989   5.482 -2.8904  2.2297 -1.2593
 5751SOL     OW28711   0.330   1.901  13.269  0.7694 -0.1996  0.0522
 5751SOL    HW128712   0.371   1.935  13.348  0.7673  0.8844 -0.4001
 5751SOL    HW228713   0.399   1.868  13.211  1.4709 -0.3298  0.9719
 5752SOL     OW28714   4.389   4.336   3.009 -0.2206  0.2872 -0.1634
 5752SOL    HW128715   4.436   4.259   3.041 -0.2803 -0.3108 -1.5236
 5752SOL    HW228716   4.300   4.321   3.041 -0.4896  1.2464 -0.4593
 5753SOL     OW28717   0.968   2.714   2.360 -0.2007 -0.1948 -0.3531
 5753SOL    HW128718   0.994   2.623   2.372 -2.4030 -0.8644 -0.8004
 5753SOL    HW228719   0.908   2.709   2.286 -1.4249 -0.3717  0.6651
 5754SOL     OW28720   0.768   1.440   3.463  0.1879  0.0654 -0.6177
 5754SOL    HW128721   0.734   1.456   3.550  0.0195 -0.4562 -0.5880
 5754SOL    HW228722   0.819   1.521   3.458  0.2143  0.1015  0.2780
 5755SOL     OW28723   2.196   4.555   1.492  0.6060 -0.5142 -0.4279
 5755SOL    HW128724   2.122   4.578   1.547 -0.3224 -3.2258 -0.5333
 5755SOL    HW228725   2.159   4.488   1.434 -0.4498  1.6351 -2.2549
 5756SOL     OW28726   4.555   2.766   7.159  0.4058  0.0226 -0.1694
 5756SOL    HW128727   4.505   2.772   7.241  2.0658 -0.1473  0.8673
 5756SOL    HW228728   4.588   2.856   7.162 -2.1298  1.0133 -1.3585
 5757SOL     OW28729   2.188   2.780  13.019  0.1557  0.4904  0.0729
 5757SOL    HW128730   2.279   2.802  13.039  0.0702 -0.1489  1.1602
 5757SOL    HW228731   2.180   2.694  12.978  0.3628  1.0994 -1.2441
 5758SOL     OW28732   0.350   3.133   7.073  0.0543 -0.3817  0.1882
 5758SOL    HW128733   0.337   3.224   7.044 -0.2589 -0.0209  1.4314
 5758SOL    HW228734   0.296   3.087   7.010 -1.0745  0.6738  0.3724
 5759SOL     OW28735   3.985   1.275   7.240  0.5465  0.2201  0.4635
 5759SOL    HW128736   3.933   1.341   7.286 -3.1063 -1.2447 -1.5430
 5759SOL    HW228737   4.066   1.268   7.291 -0.3166 -0.4168  1.7743
 5760SOL     OW28738   2.056   0.203   8.815 -0.2687 -0.3198  0.0392
 5760SOL    HW128739   2.002   0.280   8.833 -0.2946  0.1997 -2.2192
 5760SOL    HW228740   2.091   0.182   8.901  0.4749 -0.4519 -0.2961
 5761SOL     OW28741   2.017   0.732   6.932  0.0225 -0.0839  0.4305
 5761SOL    HW128742   2.046   0.644   6.956  0.4657  0.1852  0.8774
 5761SOL    HW228743   2.099   0.780   6.947 -0.6869  2.0792 -2.5772
 5762SOL     OW28744   1.888   2.129   6.482 -0.3028 -0.4382  0.4671
 5762SOL    HW128745   1.911   2.143   6.390  1.4657 -1.9728  0.6616
 5762SOL    HW228746   1.865   2.037   6.488  1.8785 -1.0252 -0.1572
 5763SOL     OW28747   2.616   3.861   2.506 -0.5987 -0.6824 -0.3746
 5763SOL    HW128748   2.530   3.859   2.548 -0.5478  0.1796 -0.2234
 5763SOL    HW228749   2.672   3.865   2.584 -0.9165  3.0157 -0.3177
 5764SOL     OW28750   1.123   0.167  11.336  0.5834 -0.0294  0.1468
 5764SOL    HW128751   1.152   0.098  11.396 -0.8975 -2.8159 -2.3359
 5764SOL    HW228752   1.212   0.191  11.309  0.1778  1.9490  0.6478
 5765SOL     OW28753   0.450   2.676  16.719  0.3357  0.3118 -0.0960
 5765SOL    HW128754   0.373   2.640  16.762  0.4678  0.0149 -0.1009
 5765SOL    HW228755   0.444   2.769  16.737  1.1592  0.6603 -1.6579
 5766SOL     OW28756   3.357   0.042   9.558  0.2730 -0.1171  0.6680
 5766SOL    HW128757   3.431   0.099   9.580 -1.4646  1.4590  2.4299
 5766SOL    HW228758   3.374   0.027   9.465 -0.6923  1.0088  0.3170
 5767SOL     OW28759   4.109   2.816   9.412 -0.0724  0.5891 -0.2012
 5767SOL    HW128760   4.109   2.738   9.468  1.1362 -0.4127 -1.6130
 5767SOL    HW228761   4.018   2.843   9.426  0.1453  0.4604  1.5591
 5768SOL     OW28762   3.733   2.222   6.060  0.5223  0.2112 -0.1357
 5768SOL    HW128763   3.642   2.250   6.046  0.8808  1.2656 -0.3415
 5768SOL    HW228764   3.782   2.295   6.097 -0.1633 -0.0040  1.2013
 5769SOL     OW28765   1.636   4.274   5.834 -0.4337 -0.4097 -0.1255
 5769SOL    HW128766   1.571   4.313   5.776  2.6186  3.9770 -0.6864
 5769SOL    HW228767   1.684   4.220   5.771 -0.2710 -0.9532  0.4650
 5770SOL     OW28768   0.436   2.529  10.398  0.5999  0.6793  0.3028
 5770SOL    HW128769   0.352   2.483  10.389  0.9865 -0.1844  1.2049
 5770SOL    HW228770   0.452   2.502  10.488 -1.6712 -0.6349  0.3260
 5771SOL     OW28771   1.314   0.053   5.902 -0.0513 -0.2051  0.1175
 5771SOL    HW128772   1.301   0.019   5.813  0.9931 -1.3006  0.3881
 5771SOL    HW228773   1.241   0.114   5.914  1.2585  1.1910  1.0018
 5772SOL     OW28774   1.422   3.784   4.604  0.1505  0.0953  0.3956
 5772SOL    HW128775   1.470   3.866   4.620 -2.3713  1.7013 -0.1957
 5772SOL    HW228776   1.334   3.819   4.592 -0.1131 -1.6170 -2.6461
 5773SOL     OW28777   4.281   2.444   4.792 -0.1694  0.4053 -0.3041
 5773SOL    HW128778   4.300   2.527   4.749  0.4214  0.1124 -0.6092
 5773SOL    HW228779   4.227   2.407   4.722 -1.8101 -0.4220  1.3856
 5774SOL     OW28780   1.817   1.744   7.327  0.0492  0.8983 -0.0921
 5774SOL    HW128781   1.794   1.820   7.273  2.9902 -0.0829 -2.7398
 5774SOL    HW228782   1.867   1.783   7.399 -1.2823 -0.0827  1.3648
 5775SOL     OW28783   0.846   2.375   1.566 -0.4623 -0.2441 -0.0440
 5775SOL    HW128784   0.774   2.401   1.624 -0.0623  1.2866 -0.2212
 5775SOL    HW228785   0.814   2.296   1.523 -0.7206 -1.4600  2.3877
 5776SOL     OW28786   0.215   4.429   5.176  0.0157  0.3258  0.7887
 5776SOL    HW128787   0.197   4.474   5.258 -1.7821 -0.3510  0.7519
 5776SOL    HW228788   0.244   4.502   5.121 -0.5187 -0.3614 -0.4019
 5777SOL     OW28789   3.936   3.530   1.561  0.0066 -0.0334  0.2349
 5777SOL    HW128790   4.017   3.582   1.554 -0.5140  0.6003 -1.2489
 5777SOL    HW228791   3.883   3.588   1.506 -0.4541  0.3991  1.1315
 5778SOL     OW28792   3.829   0.632   4.433  0.0977 -0.0058  0.0751
 5778SOL    HW128793   3.816   0.711   4.485  2.2516  0.0667  0.5279
 5778SOL    HW228794   3.737   0.604   4.430 -0.1342  0.8473 -0.6741
 5779SOL     OW28795   3.279   4.110  17.048  0.2889  0.6426  0.3164
 5779SOL    HW128796   3.348   4.153  16.998  1.3560 -0.4150  0.8796
 5779SOL    HW228797   3.301   4.017  17.054  1.8188  1.1146  2.0060
 5780SOL     OW28798   4.195   0.690   5.615 -0.2534 -0.4975  0.3162
 5780SOL    HW128799   4.237   0.740   5.684  0.1214 -3.2411  2.0847
 5780SOL    HW228800   4.240   0.713   5.534 -1.5663 -2.8593 -1.1028
 5781SOL     OW28801   3.744   3.232  16.391 -0.0340 -0.4462 -0.3920
 5781SOL    HW128802   3.656   3.237  16.427 -0.1969 -1.7229 -0.5932
 5781SOL    HW228803   3.791   3.256  16.471  0.7891  0.6465 -1.2052
 5782SOL     OW28804   0.321   1.437   7.662  0.3008 -0.2036  0.6200
 5782SOL    HW128805   0.274   1.511   7.623  1.0533 -0.6874 -1.2164
 5782SOL    HW228806   0.259   1.414   7.731 -0.4496 -0.3201 -0.0940
 5783SOL     OW28807   0.461   2.763   3.971  0.3894  0.4066  0.2244
 5783SOL    HW128808   0.436   2.817   3.896  1.6859 -1.4313 -1.5350
 5783SOL    HW228809   0.555   2.778   3.967  0.3818  1.1846  2.9506
 5784SOL     OW28810   4.618   3.979   1.761 -0.1901 -0.6182  0.2980
 5784SOL    HW128811   4.693   3.925   1.737 -0.4022 -0.3187 -1.0028
 5784SOL    HW228812   4.658   4.061   1.789  0.4856 -1.0559  0.6108
 5785SOL     OW28813   0.391   2.640   7.379 -0.1352  0.6374 -0.5979
 5785SOL    HW128814   0.390   2.734   7.395 -2.0931  0.5122  0.0255
 5785SOL    HW228815   0.405   2.604   7.467 -1.8316  2.2235  0.3328
 5786SOL     OW28816   4.538   3.823   6.045 -0.0759  0.0605 -0.1259
 5786SOL    HW128817   4.530   3.908   6.088 -0.9311  0.3161 -0.7744
 5786SOL    HW228818   4.566   3.846   5.956  1.9626 -1.9442  0.0080
 5787SOL     OW28819   1.005   1.452   7.619  0.1505  0.3039  0.1884
 5787SOL    HW128820   1.029   1.514   7.551 -1.8565 -0.7328 -1.4779
 5787SOL    HW228821   0.914   1.432   7.598  0.1936 -0.8444  1.0872
 5788SOL     OW28822   3.862   4.201   6.321  0.4031 -0.4312  0.1234
 5788SOL    HW128823   3.909   4.161   6.394  1.2168 -0.0423 -0.1945
 5788SOL    HW228824   3.865   4.293   6.347 -0.7419 -0.1781 -0.6399
 5789SOL     OW28825   3.992   2.825   0.970 -0.8083  0.5890  0.0297
 5789SOL    HW128826   3.924   2.778   0.921 -0.5090  0.9316 -0.7051
 5789SOL    HW228827   4.037   2.867   0.897 -1.0024  1.9714  0.7102
 5790SOL     OW28828   1.659   4.586   7.338 -0.0002 -0.2253 -0.0187
 5790SOL    HW128829   1.717   4.575   7.263 -1.5173 -4.0437 -0.6719
 5790SOL    HW228830   1.629   4.495   7.349  1.1647 -0.4889  0.9057
 5791SOL     OW28831   1.899   3.548  13.227 -0.7832  0.2133 -0.1222
 5791SOL    HW128832   1.952   3.521  13.301  0.0686  1.8865 -0.1354
 5791SOL    HW228833   1.814   3.514  13.255  0.5733 -2.3811  0.8124
 5792SOL     OW28834   3.060   1.073   2.948 -0.2809  0.2372 -0.1780
 5792SOL    HW128835   3.146   1.037   2.925 -0.4433  0.9690 -1.9743
 5792SOL    HW228836   3.078   1.105   3.036 -1.4159 -2.7214  1.1194
 5793SOL     OW28837   3.883   0.718  13.304  0.1552 -0.1725  0.6441
 5793SOL    HW128838   3.924   0.792  13.348  2.9232 -0.2761 -1.7898
 5793SOL    HW228839   3.792   0.723  13.333  0.3566 -0.7208  1.3662
 5794SOL     OW28840   1.773   0.413   6.912 -0.3152  0.8498  0.0181
 5794SOL    HW128841   1.780   0.327   6.953 -3.4258  0.6704  0.2032
 5794SOL    HW228842   1.820   0.463   6.978  0.9311 -0.0558 -0.1911
 5795SOL     OW28843   1.640   0.644  11.888 -0.7037  0.1611  0.2421
 5795SOL    HW128844   1.664   0.728  11.927 -0.6360  0.1754  0.1667
 5795SOL    HW228845   1.721   0.595  11.900 -0.8544 -0.0638  0.3309
 5796SOL     OW28846   3.153   2.586   5.106 -0.5937 -0.3554 -0.1420
 5796SOL    HW128847   3.162   2.562   5.014 -0.6874 -0.9946  0.0183
 5796SOL    HW228848   3.195   2.511   5.147 -4.4621 -1.1168  2.4177
 5797SOL     OW28849   3.324   2.560   3.328 -0.0750 -0.4235  0.4640
 5797SOL    HW128850   3.361   2.635   3.375  0.3992 -0.5228  0.2473
 5797SOL    HW228851   3.319   2.600   3.242  0.3716  1.0603  1.1215
 5798SOL     OW28852   4.600   1.188  15.759 -0.0825  0.2066  0.0676
 5798SOL    HW128853   4.657   1.198  15.835  0.1773 -2.0022  0.1621
 5798SOL    HW228854   4.665   1.133  15.713  0.0268  0.1651  0.2699
 5799SOL     OW28855   1.385   1.451  15.362 -0.5054  0.4778 -0.1591
 5799SOL    HW128856   1.325   1.487  15.427 -0.1494  0.1763  0.3388
 5799SOL    HW228857   1.368   1.356  15.364  0.1636  0.3897  0.9228
 5800SOL     OW28858   0.525   0.997   7.637 -0.5550  0.2347  0.2223
 5800SOL    HW128859   0.584   0.968   7.567 -2.0344 -1.9180 -0.1696
 5800SOL    HW228860   0.449   0.941   7.620  0.2639 -1.0725  0.9240
 5801SOL     OW28861   1.323   3.105   1.083  0.0447  0.4537 -0.6072
 5801SOL    HW128862   1.302   3.029   1.028 -0.1178 -0.2831  0.4665
 5801SOL    HW228863   1.386   3.069   1.144  2.5836  1.9219 -2.3821
 5802SOL     OW28864   0.785   3.997   4.268 -0.1604  0.1108  0.0480
 5802SOL    HW128865   0.856   4.044   4.224 -0.0362  0.3425  0.4965
 5802SOL    HW228866   0.834   3.916   4.284 -0.9253 -0.1020  1.2401
 5803SOL     OW28867   1.333   2.887  15.105 -0.5031  0.1925 -0.1191
 5803SOL    HW128868   1.262   2.858  15.162 -0.3268 -0.7579 -0.3767
 5803SOL    HW228869   1.293   2.968  15.072  0.8146  0.0421 -2.0627
 5804SOL     OW28870   4.592   0.209   0.115 -0.2466  0.4432 -0.0578
 5804SOL    HW128871   4.585   0.304   0.108 -0.7910  0.4011 -0.1424
 5804SOL    HW228872   4.556   0.183   0.030 -1.9257 -1.4722  1.2253
 5805SOL     OW28873   2.636   4.129   8.557 -0.0021 -0.1557  0.2351
 5805SOL    HW128874   2.595   4.110   8.642 -0.3540  2.1813  0.5826
 5805SOL    HW228875   2.726   4.155   8.577 -0.2409 -0.1014  1.2531
 5806SOL     OW28876   3.321   1.415   3.226 -0.5376 -0.3592 -0.2522
 5806SOL    HW128877   3.356   1.421   3.315  0.9711 -0.5517 -0.8339
 5806SOL    HW228878   3.231   1.445   3.241 -0.4242 -0.5064  0.7272
 5807SOL     OW28879   2.327   1.971  15.315  0.3670 -0.4916  0.6449
 5807SOL    HW128880   2.397   2.033  15.297  1.2811 -1.5257  0.6519
 5807SOL    HW228881   2.294   1.960  15.226 -0.5301  0.7954  0.8184
 5808SOL     OW28882   0.851   3.673   6.592  0.1193  0.7344 -0.5310
 5808SOL    HW128883   0.780   3.693   6.652  2.4397  0.6370  2.2512
 5808SOL    HW228884   0.929   3.693   6.644 -0.7848 -0.3231  1.2060
 5809SOL     OW28885   4.578   0.189  14.586  0.0399 -0.3921 -0.3737
 5809SOL    HW128886   4.504   0.131  14.565  0.5071 -1.2806  0.4269
 5809SOL    HW228887   4.653   0.132  14.600  1.1061  0.0615 -4.2991
 5810SOL     OW28888   4.235   2.194   3.094  0.5523  0.1892 -0.5962
 5810SOL    HW128889   4.323   2.158   3.084  0.7333  0.2305  0.8015
 5810SOL    HW228890   4.219   2.201   3.189 -1.7709 -2.6062 -0.7745
 5811SOL     OW28891   4.037   0.465   6.071  0.3608  0.1241 -0.9377
 5811SOL    HW128892   4.125   0.496   6.049  0.7154  0.4580  0.9300
 5811SOL    HW228893   4.042   0.420   6.156 -0.1428  1.4763 -0.1828
 5812SOL     OW28894   4.615   3.393   3.081  0.1144  0.4114 -0.5170
 5812SOL    HW128895   4.588   3.394   2.989  0.6675  2.0698 -0.6668
 5812SOL    HW228896   4.536   3.362   3.124 -0.3672  2.0492 -0.2272
 5813SOL     OW28897   0.371   0.624   6.317  0.1116 -0.1127 -0.6845
 5813SOL    HW128898   0.363   0.576   6.234  2.0556  0.1034 -1.0035
 5813SOL    HW228899   0.428   0.565   6.367 -1.1577 -0.3280  0.5124
 5814SOL     OW28900   2.504   0.024   7.124  0.5932 -0.7822  0.2221
 5814SOL    HW128901   2.430   0.037   7.066 -0.7241 -0.2548  2.0304
 5814SOL    HW228902   2.544   0.111   7.117  0.2963 -0.6530  0.1500
 5815SOL     OW28903   1.927   0.839   4.496 -0.3466  0.1758  0.2795
 5815SOL    HW128904   1.915   0.883   4.412  0.8115  0.1448  0.0972
 5815SOL    HW228905   2.019   0.857   4.513 -0.6486  3.2560 -1.4311
 5816SOL     OW28906   4.547   2.491  11.804  0.1514  0.8741  0.2778
 5816SOL    HW128907   4.597   2.437  11.743  0.5421  0.6836  0.7646
 5816SOL    HW228908   4.461   2.471  11.766 -0.9587  0.3978  2.9969
 5817SOL     OW28909   3.905   0.480   6.623  0.1764  0.5025 -0.2827
 5817SOL    HW128910   3.825   0.499   6.673 -0.7434 -3.1904 -0.3590
 5817SOL    HW228911   3.967   0.466   6.695  0.9246  0.3656 -0.9529
 5818SOL     OW28912   0.550   1.754   6.553 -0.2365  0.1546  0.5538
 5818SOL    HW128913   0.529   1.847   6.564  1.9785  0.5697  1.3663
 5818SOL    HW228914   0.536   1.744   6.459  1.3513  0.6242  0.2639
 5819SOL     OW28915   1.010   3.825   3.666  0.5450  0.1850 -0.4900
 5819SOL    HW128916   0.995   3.791   3.754 -0.8203 -0.1541 -0.8490
 5819SOL    HW228917   1.057   3.907   3.685  1.7185 -0.8932  1.1847
 5820SOL     OW28918   3.596   0.738   7.281 -0.2211 -0.3953 -0.1606
 5820SOL    HW128919   3.572   0.685   7.204 -0.1630 -0.6348 -0.0142
 5820SOL    HW228920   3.691   0.741   7.289 -0.2024 -0.1338 -0.4630
 5821SOL     OW28921   4.701   0.890   2.032 -0.5165  0.0915 -0.1132
 5821SOL    HW128922   0.011   0.914   2.119 -1.5691  0.9955  0.0164
 5821SOL    HW228923   4.614   0.927   2.048 -1.2046 -1.3969 -0.4298
 5822SOL     OW28924   0.906   1.372   9.889  0.3034  0.0669  0.0535
 5822SOL    HW128925   0.931   1.435   9.822 -0.6839 -0.2753 -0.6334
 5822SOL    HW228926   0.968   1.300   9.881 -1.9419 -2.1014  2.1569
 5823SOL     OW28927   1.679   2.817  11.188 -0.0110 -0.0736  0.2183
 5823SOL    HW128928   1.659   2.906  11.218  0.0503 -0.4014  1.2370
 5823SOL    HW228929   1.634   2.809  11.104  0.2327  0.2158  0.0598
 5824SOL     OW28930   4.285   1.602   2.960  0.2287 -0.4094 -0.3513
 5824SOL    HW128931   4.268   1.553   2.880 -0.5191 -0.2206 -0.3129
 5824SOL    HW228932   4.374   1.570   2.971  0.4733  0.5949  0.5641
 5825SOL     OW28933   0.335   2.990  14.833  0.0505 -0.4316  0.4740
 5825SOL    HW128934   0.365   2.908  14.792 -0.3447 -0.4797  0.2811
 5825SOL    HW228935   0.242   2.968  14.833 -0.2665  1.0831  4.4135
 5826SOL     OW28936   2.295   2.757  14.147 -0.3614  0.3527  0.0350
 5826SOL    HW128937   2.204   2.732  14.166 -0.1206 -0.1336  0.5234
 5826SOL    HW228938   2.334   2.678  14.111 -1.2071  0.1756 -0.4854
 5827SOL     OW28939   1.001   3.159  11.781  0.2423  0.0337 -0.0351
 5827SOL    HW128940   0.927   3.169  11.722 -0.6553  0.3074  1.1430
 5827SOL    HW228941   0.995   3.065  11.796  2.5568 -0.1531 -0.2603
 5828SOL     OW28942   4.365   4.301   9.687 -0.3310  0.4062  0.4293
 5828SOL    HW128943   4.273   4.287   9.710 -0.2585  0.5286  0.7913
 5828SOL    HW228944   4.410   4.220   9.711  1.2294  1.9710  2.7099
 5829SOL     OW28945   1.711   1.296  12.844 -0.5666 -0.3940 -0.2204
 5829SOL    HW128946   1.737   1.370  12.900  0.5521 -3.0644  2.7999
 5829SOL    HW228947   1.776   1.229  12.862  0.1195  0.2824 -0.1464
 5830SOL     OW28948   2.403   2.543   5.672  0.3147 -0.5537 -0.2499
 5830SOL    HW128949   2.487   2.586   5.686  0.4190 -1.0190  0.5222
 5830SOL    HW228950   2.411   2.517   5.580 -2.5674 -0.2455 -0.5818
 5831SOL     OW28951   1.540   0.156  11.987 -0.4996  0.3831  0.2091
 5831SOL    HW128952   1.589   0.157  12.069 -0.2945 -0.5104  0.1019
 5831SOL    HW228953   1.536   0.250  11.970  2.8445  0.0098 -2.7284
 5832SOL     OW28954   1.688   2.030  16.016  0.3570  0.6318  0.0391
 5832SOL    HW128955   1.604   1.987  15.997  0.6131  0.8845 -1.7030
 5832SOL    HW228956   1.709   2.081  15.938  1.6840  1.4386  0.9332
 5833SOL     OW28957   0.545   0.611   0.923  0.5839  0.2216  1.0770
 5833SOL    HW128958   0.534   0.522   0.956 -0.7917 -0.4726 -1.2193
 5833SOL    HW228959   0.617   0.641   0.978 -0.1764  0.0716  2.1521
 5834SOL     OW28960   3.873   1.446   5.439 -0.0405  0.3215  0.3966
 5834SOL    HW128961   3.824   1.430   5.358  2.8817  0.6109 -1.4285
 5834SOL    HW228962   3.800   1.461   5.500  0.4075  1.8366  0.5714
 5835SOL     OW28963   4.622   0.494  10.496  0.1407  0.0029 -0.1358
 5835SOL    HW128964   4.709   0.509  10.459 -0.2312 -0.6450 -1.3007
 5835SOL    HW228965   4.568   0.470  10.420 -2.7076 -1.2454  2.2429
 5836SOL     OW28966   2.618   2.454   8.689 -0.1092  0.5167 -0.6194
 5836SOL    HW128967   2.581   2.396   8.622  0.9249 -0.3019 -0.4719
 5836SOL    HW228968   2.712   2.439   8.691 -0.0330  1.0381 -0.3778
 5837SOL     OW28969   2.570   2.801  12.835 -0.5134 -0.3613 -0.2410
 5837SOL    HW128970   2.625   2.819  12.759 -2.4694 -0.1793 -1.6459
 5837SOL    HW228971   2.515   2.878  12.820  2.7788  1.7990 -1.2618
 5838SOL     OW28972   1.981   0.557  12.181  0.3748 -0.2069  0.3930
 5838SOL    HW128973   1.920   0.618  12.221 -1.4241 -1.2858 -0.7466
 5838SOL    HW228974   2.044   0.606  12.127 -1.1738  1.6402  0.2848
 5839SOL     OW28975   1.035   0.681  14.252 -0.1728 -0.1957 -0.0209
 5839SOL    HW128976   1.130   0.678  14.244 -0.3247 -0.0709 -2.0002
 5839SOL    HW228977   1.022   0.597  14.296 -1.9410  0.6814  1.1174
 5840SOL     OW28978   1.795   2.083   7.734  0.1192  0.3399  0.2775
 5840SOL    HW128979   1.812   2.118   7.822 -0.5219 -1.8678  1.2960
 5840SOL    HW228980   1.881   2.107   7.698 -0.2716  0.4834 -0.5474
 5841SOL     OW28981   1.201   3.716   2.858 -0.4160  1.1139 -0.9015
 5841SOL    HW128982   1.107   3.712   2.844 -0.3018  1.0215 -1.6275
 5841SOL    HW228983   1.235   3.644   2.804 -2.4398 -0.0204 -0.6521
 5842SOL     OW28984   4.221   3.677  13.146  0.0136 -0.0339 -0.2966
 5842SOL    HW128985   4.145   3.706  13.097  0.5030 -0.1195 -1.1129
 5842SOL    HW228986   4.224   3.583  13.130 -0.3759 -0.4436  2.0476
 5843SOL     OW28987   4.168   1.461   3.607  0.6969 -0.5238  0.6885
 5843SOL    HW128988   4.222   1.410   3.667 -1.5167 -0.7252  2.4749
 5843SOL    HW228989   4.149   1.397   3.538  0.0721  2.1959 -1.7278
 5844SOL     OW28990   0.218   0.746   8.175  0.4533  0.7237 -0.3927
 5844SOL    HW128991   0.189   0.713   8.260  0.2999  1.3577 -0.1967
 5844SOL    HW228992   0.304   0.785   8.192  0.3197  0.3798  1.0212
 5845SOL     OW28993   4.660   2.197  16.206  0.0462  0.0774 -0.1009
 5845SOL    HW128994   4.672   2.246  16.288  0.6502 -0.9217  0.4033
 5845SOL    HW228995   4.712   2.117  16.215 -2.5561 -1.4385  1.1509
 5846SOL     OW28996   0.253   3.240   2.472  0.0872  0.1277  0.7226
 5846SOL    HW128997   0.268   3.236   2.378  1.4624  1.0054  0.9163
 5846SOL    HW228998   0.261   3.334   2.488  0.4587  0.1804  0.2316
 5847SOL     OW28999   1.319   1.702   3.459 -0.0956  0.0372 -0.0290
 5847SOL    HW129000   1.397   1.661   3.496 -0.1655 -0.4604 -0.4379
 5847SOL    HW229001   1.254   1.660   3.515 -0.1815 -1.5101 -1.2901
 5848SOL     OW29002   1.684   1.494  15.022 -0.6915 -0.0627  0.4020
 5848SOL    HW129003   1.662   1.401  15.024 -0.0214 -0.2131  0.6842
 5848SOL    HW229004   1.599   1.527  15.052  0.2505  2.3104  0.4872
 5849SOL     OW29005   1.414   0.906  10.615 -0.3225 -0.3205 -0.4749
 5849SOL    HW129006   1.428   0.915  10.709  1.0871 -1.3751 -0.5759
 5849SOL    HW229007   1.320   0.891  10.622 -0.3088 -0.9066 -1.4747
 5850SOL     OW29008   4.677   4.189   9.446 -0.0768 -0.1104  0.3393
 5850SOL    HW129009   4.675   4.143   9.362  0.4873  0.5156 -0.0243
 5850SOL    HW229010   4.701   4.122   9.510  1.1406  0.7461  0.7856
 5851SOL     OW29011   1.001   0.359   2.669  0.1208 -0.0495  0.3736
 5851SOL    HW129012   1.085   0.401   2.691 -0.2846  0.0659  1.6661
 5851SOL    HW229013   0.949   0.402   2.737  0.7510  0.3891  0.5813
 5852SOL     OW29014   0.755   1.034  16.449  0.0307  0.2963 -0.3877
 5852SOL    HW129015   0.814   0.970  16.488  1.9022  2.5689  0.5868
 5852SOL    HW229016   0.680   0.983  16.418 -0.2292  0.9270 -0.7994
 5853SOL     OW29017   3.252   3.346   8.063  0.2311  0.4169  0.8163
 5853SOL    HW129018   3.237   3.375   7.973 -0.6030 -0.7065  0.6008
 5853SOL    HW229019   3.206   3.263   8.063 -0.9189  1.0477  0.5818
 5854SOL     OW29020   3.367   2.027  13.360  0.1298  0.2764  0.7172
 5854SOL    HW129021   3.396   1.964  13.294  0.4002  0.4345  0.6843
 5854SOL    HW229022   3.448   2.062  13.399  0.6976  0.9709 -1.0929
 5855SOL     OW29023   0.324   2.180  16.470  0.2453  0.1013 -0.2371
 5855SOL    HW129024   0.280   2.122  16.408 -0.9689 -2.9460  3.5468
 5855SOL    HW229025   0.399   2.210  16.417 -0.2950 -1.2012 -1.7453
 5856SOL     OW29026   0.125   4.100   9.219 -0.4731  0.1598  0.3828
 5856SOL    HW129027   0.203   4.045   9.217  0.0761  1.0750 -2.6622
 5856SOL    HW229028   0.142   4.172   9.159 -0.7404  0.2234  0.3808
 5857SOL     OW29029   1.760   1.618   2.876  0.2432 -0.8267 -0.1766
 5857SOL    HW129030   1.719   1.572   2.949  1.9871 -2.2007 -0.0543
 5857SOL    HW229031   1.684   1.658   2.834  0.5268  0.3852  0.4568
 5858SOL     OW29032   1.137   0.358   9.421  0.0765 -0.0816 -0.5621
 5858SOL    HW129033   1.085   0.305   9.482  1.0511  1.0234  1.2396
 5858SOL    HW229034   1.125   0.305   9.343 -0.5634  1.4946 -1.5474
 5859SOL     OW29035   0.072   2.517   6.698  0.1644  0.1490  0.1426
 5859SOL    HW129036   4.704   2.533   6.668  0.3728  0.3753 -0.3578
 5859SOL    HW229037   0.058   2.496   6.790 -1.8449 -0.5004 -0.3082
 5860SOL     OW29038   3.868   3.180   5.244 -0.3514 -0.2079  0.8632
 5860SOL    HW129039   3.940   3.166   5.183  0.6412 -1.7118  2.3653
 5860SOL    HW229040   3.790   3.141   5.205 -0.8762  0.2082  1.4739
 5861SOL     OW29041   1.211   0.360   7.300  0.4020 -0.0953 -0.1637
 5861SOL    HW129042   1.291   0.366   7.248  0.8383 -1.1756  0.4110
 5861SOL    HW229043   1.251   0.326   7.379 -2.1960  1.7039  1.9114
 5862SOL     OW29044   2.025   0.703  14.861 -0.2198  0.0471 -0.3906
 5862SOL    HW129045   2.027   0.612  14.831 -2.1500  0.1487 -0.8345
 5862SOL    HW229046   1.931   0.719  14.869 -0.0601  0.7874  0.0325
 5863SOL     OW29047   3.427   2.867   0.074  0.1191  0.2243  0.1775
 5863SOL    HW129048   3.399   2.844  17.670 -0.9467  1.4071  0.2001
 5863SOL    HW229049   3.401   2.792   0.127 -1.4088 -0.4134 -1.4795
 5864SOL     OW29050   1.439   0.833   0.324 -0.1522  0.3056 -0.2778
 5864SOL    HW129051   1.362   0.860   0.374  0.1642 -0.6561  0.7304
 5864SOL    HW229052   1.410   0.745   0.303  2.6047 -0.1430 -2.2473
 5865SOL     OW29053   1.689   1.983   3.705  0.2493 -0.3835  0.2193
 5865SOL    HW129054   1.627   2.056   3.703  1.1859  0.3767 -0.6877
 5865SOL    HW229055   1.711   1.990   3.798 -0.9424  1.6323  0.3417
 5866SOL     OW29056   0.507   3.425  14.487 -0.4920 -0.1253 -0.2642
 5866SOL    HW129057   0.599   3.422  14.461 -0.2793 -0.4976  0.5343
 5866SOL    HW229058   0.482   3.332  14.490  1.9860 -0.9040 -3.1164
 5867SOL     OW29059   4.560   4.386  10.803 -0.2607  0.0518 -0.8235
 5867SOL    HW129060   4.513   4.407  10.884  0.7671 -0.4179 -0.1058
 5867SOL    HW229061   4.649   4.395  10.835 -0.0355  0.3601 -1.5316
 5868SOL     OW29062   1.737   3.588   8.716 -0.0352 -0.1387 -0.5608
 5868SOL    HW129063   1.694   3.540   8.645  0.5970  1.5287 -2.0754
 5868SOL    HW229064   1.733   3.519   8.783 -1.3105 -1.0895 -1.6171
 5869SOL     OW29065   4.591   1.372   8.859 -0.1548  0.9037 -0.7394
 5869SOL    HW129066   4.563   1.463   8.875 -1.1803  0.4002  0.3172
 5869SOL    HW229067   4.646   1.348   8.933 -2.0296 -1.2516 -0.0400
 5870SOL     OW29068   3.462   0.687   3.036  0.2384  0.4371  0.2901
 5870SOL    HW129069   3.409   0.625   2.986 -0.9235  1.6596  0.0013
 5870SOL    HW229070   3.551   0.665   3.008  0.1310 -1.5989  1.5709
 5871SOL     OW29071   1.955   3.874  11.342  0.0944 -0.0580 -0.0357
 5871SOL    HW129072   1.883   3.832  11.390 -0.9833  1.6896 -0.1284
 5871SOL    HW229073   1.963   3.952  11.396  1.1291  0.2584 -0.6484
 5872SOL     OW29074   0.867   4.646   7.644  0.7464  0.4329  0.6703
 5872SOL    HW129075   0.893   4.694   7.722  1.6333  0.3904  0.3942
 5872SOL    HW229076   0.905   4.701   7.576 -2.1959  0.3398 -1.0713
 5873SOL     OW29077   2.531   4.311   8.388  0.3594 -0.6646  0.1037
 5873SOL    HW129078   2.562   4.233   8.433 -1.6891 -0.8586  1.1913
 5873SOL    HW229079   2.543   4.279   8.299  1.4452 -0.6510  0.2414
 5874SOL     OW29080   4.057   2.923   7.130 -0.4655  0.2268  0.1334
 5874SOL    HW129081   3.971   2.933   7.169  0.7142  2.1975  2.2919
 5874SOL    HW229082   4.084   2.845   7.179 -0.5541 -0.0667 -0.2900
 5875SOL     OW29083   2.944   2.293  12.638  0.8118  0.0083 -0.5908
 5875SOL    HW129084   2.870   2.349  12.615 -1.2244 -1.8326  1.4958
 5875SOL    HW229085   2.931   2.288  12.733 -2.3734  0.8987 -0.9617
 5876SOL     OW29086   2.582   4.310  10.694  0.0211 -0.1295 -0.0099
 5876SOL    HW129087   2.660   4.265  10.727  0.8456 -1.5493 -3.9619
 5876SOL    HW229088   2.519   4.240  10.680 -1.3440  0.5933  2.4630
 5877SOL     OW29089   4.041   0.393   3.972 -0.1917  0.3318  0.2356
 5877SOL    HW129090   4.010   0.329   3.908  0.9012  0.4728 -0.4400
 5877SOL    HW229091   4.117   0.353   4.013  1.1893  0.2214 -2.4077
 5878SOL     OW29092   0.029   1.952   6.952  1.1274  0.1805  0.1633
 5878SOL    HW129093   0.028   1.876   6.894 -0.7393  0.2029  0.1699
 5878SOL    HW229094   0.121   1.976   6.939  0.7262  2.3446  1.2754
 5879SOL     OW29095   3.924   1.604   5.853 -0.7336  0.2627 -0.0397
 5879SOL    HW129096   3.894   1.544   5.922 -2.2249  0.7733 -0.2287
 5879SOL    HW229097   3.994   1.552   5.813  0.1166 -0.7850  2.7835
 5880SOL     OW29098   1.195   1.471  17.058 -0.0359  0.1656  0.0960
 5880SOL    HW129099   1.203   1.565  17.048  0.9554  0.1478  0.7334
 5880SOL    HW229100   1.158   1.446  16.974 -1.4891 -1.4749  1.1996
 5881SOL     OW29101   2.339   1.865   5.705 -0.0327  0.2910 -1.0840
 5881SOL    HW129102   2.323   1.959   5.711  1.6900  0.3568  2.8681
 5881SOL    HW229103   2.257   1.830   5.740  0.9912 -0.4593  0.5708
 5882SOL     OW29104   0.346   2.886   7.454 -0.2264  0.1991  0.0815
 5882SOL    HW129105   0.251   2.894   7.442 -0.2799 -0.6479 -0.1144
 5882SOL    HW229106   0.368   2.970   7.413 -1.4818  1.4832  2.0421
 5883SOL     OW29107   1.604   4.270   8.999  0.5294 -0.9687  0.6366
 5883SOL    HW129108   1.545   4.315   9.060  0.5597  0.2220 -0.2206
 5883SOL    HW229109   1.632   4.195   9.052  1.1929 -1.0565  0.1731
 5884SOL     OW29110   1.576   2.622   4.690 -0.0297  0.0642 -0.1821
 5884SOL    HW129111   1.586   2.640   4.784  0.4304 -0.1600 -0.1920
 5884SOL    HW229112   1.525   2.541   4.696  0.7036 -0.4465 -0.8587
 5885SOL     OW29113   2.910   3.642  11.203  0.0476 -0.6076  0.7555
 5885SOL    HW129114   2.967   3.586  11.255  1.1744 -0.8435 -0.7183
 5885SOL    HW229115   2.967   3.636  11.126 -1.5402 -0.6074 -0.4184
 5886SOL     OW29116   0.962   4.633   6.950 -0.1774 -0.4567 -0.4417
 5886SOL    HW129117   0.960   4.701   7.017 -0.0606 -0.9124  0.0226
 5886SOL    HW229118   1.044   4.648   6.903 -1.0322  3.7221 -0.6107
 5887SOL     OW29119   0.116   1.236   1.322 -0.1570 -0.2558  0.0266
 5887SOL    HW129120   0.111   1.252   1.417 -0.8558  0.6483 -0.1665
 5887SOL    HW229121   0.028   1.207   1.299 -0.3302 -0.8862  1.4681
 5888SOL     OW29122   3.637   2.888   9.769 -0.2111 -0.3955  0.7035
 5888SOL    HW129123   3.673   2.846   9.847  0.2987  2.8707  2.2448
 5888SOL    HW229124   3.632   2.980   9.796  0.9180 -0.3716  0.8338
 5889SOL     OW29125   1.684   2.343  11.660 -0.2761  0.0195  0.2725
 5889SOL    HW129126   1.603   2.292  11.654  1.0320 -1.7767 -2.0064
 5889SOL    HW229127   1.654   2.431  11.680 -2.9126 -0.7956 -0.0576
 5890SOL     OW29128   3.324   1.003  13.813  0.5920  0.2852  0.4519
 5890SOL    HW129129   3.304   0.910  13.800  1.4254  0.2958 -0.8233
 5890SOL    HW229130   3.240   1.049  13.806  0.0992 -0.6675  0.1845
 5891SOL     OW29131   3.742   0.308   6.988  0.5787 -0.2156  0.5140
 5891SOL    HW129132   3.680   0.241   6.962  0.5181 -0.2868  0.8386
 5891SOL    HW229133   3.818   0.251   7.002  0.4090 -0.7819 -0.8700
 5892SOL     OW29134   0.007   4.636   7.911  0.9769 -0.2939  0.1195
 5892SOL    HW129135   0.027   4.559   7.857 -1.8546 -1.0186  0.1263
 5892SOL    HW229136   0.096   4.650   7.944  1.7760  0.2490 -2.3134
 5893SOL     OW29137   4.311   0.615  12.886 -0.3466 -0.8457  0.9502
 5893SOL    HW129138   4.388   0.672  12.890 -1.1169  0.2851 -0.3663
 5893SOL    HW229139   4.275   0.617  12.975 -0.9729 -0.9717  0.6971
 5894SOL     OW29140   0.969   3.084  14.043 -0.2912  0.1573  0.5635
 5894SOL    HW129141   0.948   3.058  13.954  1.4908  1.2285 -0.1712
 5894SOL    HW229142   1.064   3.076  14.050 -0.1884  0.5927 -0.3825
 5895SOL     OW29143   0.250   2.099  15.603 -0.1225 -0.5610 -0.0517
 5895SOL    HW129144   0.253   2.191  15.577  0.4513 -0.5427  0.0781
 5895SOL    HW229145   0.181   2.064  15.547  0.6070  0.5948 -1.6507
 5896SOL     OW29146   3.122   3.782   6.593 -0.4019 -0.0003  0.0567
 5896SOL    HW129147   3.073   3.707   6.562  0.7868 -1.7847  2.4478
 5896SOL    HW229148   3.054   3.849   6.583 -1.3197 -0.7858  1.0097
 5897SOL     OW29149   2.078   2.372  13.246  0.1831  0.6836 -0.1800
 5897SOL    HW129150   2.171   2.389  13.260  0.9616 -1.9067 -2.2382
 5897SOL    HW229151   2.045   2.386  13.335  0.9593 -0.6962  0.3301
 5898SOL     OW29152   4.042   2.264  12.232 -0.2538  0.2118 -0.2741
 5898SOL    HW129153   4.091   2.327  12.180 -2.0903  0.5145 -1.6395
 5898SOL    HW229154   3.972   2.236  12.172 -0.3378 -1.2012  0.4851
 5899SOL     OW29155   3.281   4.068   4.418  0.0058 -0.2067 -0.3085
 5899SOL    HW129156   3.311   4.137   4.360  0.7879  1.7769  2.4360
 5899SOL    HW229157   3.323   3.990   4.382  1.0316  0.5298 -0.7127
 5900SOL     OW29158   2.858   4.388   3.169 -0.3601  0.7241  0.1587
 5900SOL    HW129159   2.918   4.341   3.111 -0.6226  1.5506 -0.7764
 5900SOL    HW229160   2.805   4.427   3.100 -1.2871 -0.2777  0.3048
 5901SOL     OW29161   3.009   2.106   8.569 -0.1790 -0.2011  0.0973
 5901SOL    HW129162   2.989   2.081   8.659  0.5621  0.6147  0.4956
 5901SOL    HW229163   3.088   2.159   8.581 -1.0463  1.1003  0.0430
 5902SOL     OW29164   2.523   2.207  17.026  0.4063  0.1119 -0.1796
 5902SOL    HW129165   2.562   2.226  16.941 -1.0201  3.1918 -0.1472
 5902SOL    HW229166   2.535   2.112  17.028  1.3518  0.2454  0.0947
 5903SOL     OW29167   1.526   0.016  14.228 -0.0312  0.2552  0.8629
 5903SOL    HW129168   1.486   4.716  14.312 -0.1599  1.9706  1.2321
 5903SOL    HW229169   1.611   4.692  14.226 -0.6383 -0.9043  0.8931
 5904SOL     OW29170   1.106   2.028   8.054 -0.4212 -0.3232  0.0861
 5904SOL    HW129171   1.074   1.999   8.139 -0.5898 -1.8855 -0.4941
 5904SOL    HW229172   1.193   1.991   8.044  1.1348  3.4522 -0.2645
 5905SOL     OW29173   0.070   2.498   8.159 -0.0392 -0.2696  0.0268
 5905SOL    HW129174   0.072   2.469   8.068  1.9106 -0.9377  0.2692
 5905SOL    HW229175   0.014   2.575   8.148  1.3078  0.9487  1.7136
 5906SOL     OW29176   1.696   2.540  14.912 -0.2542  0.5751 -0.1265
 5906SOL    HW129177   1.716   2.449  14.893  0.4051  0.8081 -0.5577
 5906SOL    HW229178   1.711   2.545  15.006 -0.3057 -0.1404 -0.0807
 5907SOL     OW29179   2.743   2.278  13.432 -0.3591 -0.1328 -0.3914
 5907SOL    HW129180   2.804   2.342  13.395  0.4370 -0.2589  0.6982
 5907SOL    HW229181   2.664   2.281  13.378 -0.9792 -2.9969  0.3991
 5908SOL     OW29182   2.208   2.893  12.473  0.2343 -0.4993 -0.1683
 5908SOL    HW129183   2.136   2.846  12.430 -2.4646  2.0764  1.5120
 5908SOL    HW229184   2.241   2.816  12.519  1.0906  1.3908  2.3404
 5909SOL     OW29185   1.588   1.599  15.455 -0.1518  0.0353  0.0696
 5909SOL    HW129186   1.551   1.655  15.523 -0.6791  1.3166 -1.2886
 5909SOL    HW229187   1.518   1.546  15.416 -1.1518 -0.0069  1.9208
 5910SOL     OW29188   4.224   2.448   6.033  0.1326 -0.0384  0.1714
 5910SOL    HW129189   4.317   2.444   6.008 -0.1158 -3.9952 -0.1014
 5910SOL    HW229190   4.183   2.417   5.953 -1.1920  1.4738  0.2632
 5911SOL     OW29191   1.010   1.170  16.153 -0.4027 -0.0225 -0.1038
 5911SOL    HW129192   1.084   1.144  16.209 -0.5830 -0.4796 -0.0725
 5911SOL    HW229193   0.948   1.098  16.170 -0.2571  0.0428  0.7424
 5912SOL     OW29194   0.728   1.469   7.291  0.2945 -0.1343  0.0345
 5912SOL    HW129195   0.803   1.450   7.235 -0.5571 -2.1379 -0.4242
 5912SOL    HW229196   0.668   1.511   7.229  2.4085 -0.2003 -2.0751
 5913SOL     OW29197   4.015   3.957   0.709 -0.0335 -0.7479  0.2266
 5913SOL    HW129198   4.062   3.940   0.791 -0.1023 -0.0046  0.4151
 5913SOL    HW229199   4.022   4.052   0.704 -0.4877 -0.6867  0.7793
 5914SOL     OW29200   0.977   0.072   4.341  0.1660  0.2045  0.4738
 5914SOL    HW129201   0.902   0.044   4.392 -0.0859 -1.9467 -1.0870
 5914SOL    HW229202   0.953   0.031   4.258  3.3054  1.8745 -1.3011
 5915SOL     OW29203   2.631   2.173  13.162 -1.0420 -0.9604  0.5315
 5915SOL    HW129204   2.636   2.240  13.094  0.2140  0.2337  1.7882
 5915SOL    HW229205   2.565   2.211  13.219 -1.4869 -0.5488 -0.2559
 5916SOL     OW29206   1.770   0.855  15.106  0.3830 -0.0106 -0.1050
 5916SOL    HW129207   1.825   0.922  15.064  2.1337 -0.9337  0.6876
 5916SOL    HW229208   1.795   0.776  15.058 -1.1965  0.2290 -1.2910
 5917SOL     OW29209   1.670   2.064   4.746  0.2610 -0.1293  0.5450
 5917SOL    HW129210   1.737   2.111   4.696 -0.6703  0.3867 -0.2279
 5917SOL    HW229211   1.671   2.119   4.824  0.2468  2.5408 -1.3560
 5918SOL     OW29212   4.627   2.790   4.722 -0.1884 -0.1493 -0.1067
 5918SOL    HW129213   4.712   2.748   4.739 -0.4467  0.0445  1.6439
 5918SOL    HW229214   4.641   2.799   4.628  1.3989 -5.7492 -0.4116
 5919SOL     OW29215   3.586   2.478   3.915 -0.3483  0.7259 -0.1030
 5919SOL    HW129216   3.541   2.394   3.907  0.2084  0.5287 -1.1858
 5919SOL    HW229217   3.559   2.503   4.004 -0.7688  0.2179 -0.0862
 5920SOL     OW29218   2.711   1.974  10.908  0.0301 -0.2390 -0.0564
 5920SOL    HW129219   2.689   2.066  10.900 -1.6982 -0.4752  1.9833
 5920SOL    HW229220   2.636   1.937  10.953  1.3648 -1.3633  1.2335
 5921SOL     OW29221   2.000   0.086   5.601  0.1605 -0.0554 -0.2379
 5921SOL    HW129222   1.965   0.152   5.541 -0.7928 -0.7513 -0.4434
 5921SOL    HW229223   2.065   0.045   5.544  0.0817 -1.0963  0.4257
 5922SOL     OW29224   1.697   1.665   7.813 -0.6722 -0.2893  0.5665
 5922SOL    HW129225   1.755   1.624   7.749 -1.0987  0.3340 -0.2216
 5922SOL    HW229226   1.736   1.641   7.897  1.2967  0.7595 -0.0408
 5923SOL     OW29227   2.243   3.232   5.783  0.1342  0.1556 -0.1828
 5923SOL    HW129228   2.269   3.260   5.696  2.0388  0.7024  0.5660
 5923SOL    HW229229   2.148   3.229   5.768  0.0097  0.4592  0.5170
 5924SOL     OW29230   0.457   2.709   6.404 -0.0601  0.3374  0.1104
 5924SOL    HW129231   0.552   2.723   6.395 -0.8317  4.4341 -1.8051
 5924SOL    HW229232   0.455   2.616   6.424  1.4186  0.5695  1.3437
 5925SOL     OW29233   1.223   2.860  11.329  0.2478  0.4362 -0.3234
 5925SOL    HW129234   1.178   2.944  11.334 -2.9803 -1.1901 -1.8280
 5925SOL    HW229235   1.294   2.878  11.267 -1.4922 -1.3371 -2.8466
 5926SOL     OW29236   0.497   3.184   3.404  0.0126 -0.5117  0.0754
 5926SOL    HW129237   0.525   3.233   3.481 -0.5354  0.4691 -0.3403
 5926SOL    HW229238   0.478   3.095   3.433 -2.3919  0.2476  0.7915
 5927SOL     OW29239   2.330   3.953   3.957 -0.2194  0.1942 -0.0499
 5927SOL    HW129240   2.389   4.018   3.994 -0.7577  0.6239  0.0538
 5927SOL    HW229241   2.360   3.871   3.997  1.1896  0.9629  0.4477
 5928SOL     OW29242   2.641   1.708   6.152  0.2082 -0.7075  0.1136
 5928SOL    HW129243   2.724   1.679   6.113  0.7170  0.4431  0.3277
 5928SOL    HW229244   2.604   1.758   6.079 -0.2834 -0.2514  0.6774
 5929SOL     OW29245   2.725   0.061   0.663  0.0098  0.5033  0.1604
 5929SOL    HW129246   2.724   0.098   0.575 -1.4698 -0.0846 -0.0691
 5929SOL    HW229247   2.770   4.699   0.649  0.3157  0.7874 -0.5299
 5930SOL     OW29248   2.766   1.799  13.591 -0.4100 -0.6462 -0.6239
 5930SOL    HW129249   2.686   1.825  13.546  0.5358  0.9271 -1.3738
 5930SOL    HW229250   2.746   1.706  13.601  0.1373 -0.6518  0.4769
 5931SOL     OW29251   1.758   1.624   8.099  0.8231 -0.5922  0.4717
 5931SOL    HW129252   1.675   1.667   8.120 -0.9941 -2.9602 -1.9313
 5931SOL    HW229253   1.814   1.651   8.172  1.6455 -0.6771 -0.1323
 5932SOL     OW29254   4.541   1.539  11.342  0.1113  0.1402 -0.4971
 5932SOL    HW129255   4.532   1.539  11.437  1.5339 -0.4108 -0.3554
 5932SOL    HW229256   4.451   1.519  11.318 -1.1393  2.3355  2.4298
 5933SOL     OW29257   0.856   1.287   0.912 -0.5253 -0.0012  0.5331
 5933SOL    HW129258   0.928   1.280   0.850 -1.3936  1.3499 -0.6296
 5933SOL    HW229259   0.803   1.353   0.867 -1.4962  1.1148  3.2719
 5934SOL     OW29260   0.078   3.344   5.587  0.3760  0.4993  0.0003
 5934SOL    HW129261   0.021   3.294   5.528 -0.4013  0.2532  0.9727
 5934SOL    HW229262   0.046   3.319   5.673 -2.2834 -0.4385 -1.2759
 5935SOL     OW29263   2.781   3.874  11.262  0.4462 -0.1045 -0.6559
 5935SOL    HW129264   2.706   3.821  11.238  0.0191  1.0711 -1.9158
 5935SOL    HW229265   2.844   3.807  11.238  0.5793  0.6583 -2.4615
 5936SOL     OW29266   3.895   3.237  13.941 -0.8209 -0.6572  0.2095
 5936SOL    HW129267   3.843   3.247  14.021  0.1055  1.8086  0.5041
 5936SOL    HW229268   3.968   3.296  13.959 -2.4920  1.3544  0.3212
 5937SOL     OW29269   2.125   0.526   2.484 -0.3539  0.2152 -0.5924
 5937SOL    HW129270   2.086   0.462   2.425 -3.0126  0.3679  1.0009
 5937SOL    HW229271   2.206   0.548   2.436  0.5599 -1.0139  0.3819
 5938SOL     OW29272   2.211   3.921  15.324 -0.6659 -0.1485 -0.7632
 5938SOL    HW129273   2.285   3.974  15.295 -0.5306 -0.6616 -1.3483
 5938SOL    HW229274   2.262   3.842  15.344 -1.2132 -0.1764  0.4709
 5939SOL     OW29275   1.611   3.652   8.993  0.1133 -0.8575  0.5870
 5939SOL    HW129276   1.605   3.747   8.981  0.2557 -0.6776  2.0324
 5939SOL    HW229277   1.554   3.616   8.925  0.6539 -0.4254 -0.0963
 5940SOL     OW29278   4.134   0.784  11.110  0.5522  0.0528 -0.6021
 5940SOL    HW129279   4.201   0.830  11.161  0.2712 -0.2764  0.0551
 5940SOL    HW229280   4.148   0.691  11.128  0.3803  0.2996  0.8054
 5941SOL     OW29281   4.083   3.617   4.047  0.7039  0.2515  0.5646
 5941SOL    HW129282   4.011   3.558   4.068  0.2999  0.6615  0.3281
 5941SOL    HW229283   4.112   3.651   4.132  0.4538  0.6826  0.4805
 5942SOL     OW29284   4.475   1.820   8.282  0.0115 -0.3897  0.1998
 5942SOL    HW129285   4.418   1.814   8.205  1.8643  0.2821 -1.2213
 5942SOL    HW229286   4.559   1.813   8.238 -0.2066 -1.1541 -0.0808
 5943SOL     OW29287   1.825   1.501   1.379  0.0285 -0.3614  0.0705
 5943SOL    HW129288   1.737   1.485   1.413 -0.2379  0.5542 -0.1946
 5943SOL    HW229289   1.797   1.567   1.315 -0.9347 -2.6326 -1.8508
 5944SOL     OW29290   2.693   3.423   7.154  0.2289  0.7445 -0.4220
 5944SOL    HW129291   2.709   3.329   7.162  3.2832  1.2637 -0.5495
 5944SOL    HW229292   2.768   3.459   7.201 -0.7732  2.8583 -0.4325
 5945SOL     OW29293   3.859   1.884   3.317 -0.4731 -0.0957 -1.1009
 5945SOL    HW129294   3.824   1.800   3.288  2.0690 -1.2476 -0.8359
 5945SOL    HW229295   3.808   1.939   3.258 -1.4255 -0.2206 -0.3985
 5946SOL     OW29296   1.657   0.964   0.211  0.1061  0.4949 -0.0670
 5946SOL    HW129297   1.579   0.935   0.258  0.5217 -2.5338 -1.2651
 5946SOL    HW229298   1.706   0.887   0.181  1.0298  0.7785  0.7218
 5947SOL     OW29299   4.456   0.671  14.361 -0.4515  0.2557  0.0115
 5947SOL    HW129300   4.385   0.621  14.320 -0.1439 -0.5922  0.5052
 5947SOL    HW229301   4.508   0.607  14.410 -0.3937  1.3305  1.3428
 5948SOL     OW29302   0.090   4.267  16.730  0.0910  0.0414  0.5834
 5948SOL    HW129303   0.035   4.218  16.669 -0.5425 -0.6657  1.7160
 5948SOL    HW229304   0.175   4.234  16.701  0.3116  0.4658  0.7508
 5949SOL     OW29305   3.024   2.978  15.337  0.0737  0.1730 -0.0095
 5949SOL    HW129306   3.099   3.034  15.353  0.8145 -0.1383 -2.4812
 5949SOL    HW229307   2.951   3.028  15.373 -0.7261 -1.1148  0.1595
 5950SOL     OW29308   0.458   3.185   5.225  0.4701  0.2484 -0.5726
 5950SOL    HW129309   0.455   3.152   5.315 -1.0721  0.7509 -0.4462
 5950SOL    HW229310   0.532   3.244   5.231 -0.8131  1.9699 -1.7285
 5951SOL     OW29311   1.234   1.311   5.142 -0.3472 -0.2380 -0.2477
 5951SOL    HW129312   1.221   1.229   5.094 -0.0027  0.4102 -1.4458
 5951SOL    HW229313   1.295   1.355   5.083 -2.0595 -0.4104 -2.1716
 5952SOL     OW29314   4.583   1.301   3.133 -0.2336 -0.0102  0.1418
 5952SOL    HW129315   4.492   1.290   3.160 -0.4469  0.6898 -0.2933
 5952SOL    HW229316   4.646   1.246   3.181 -0.8904 -1.4291 -0.6346
 5953SOL     OW29317   4.252   4.164   8.822 -0.0136  0.0129 -0.1242
 5953SOL    HW129318   4.175   4.125   8.781  0.8695 -1.5123 -0.3657
 5953SOL    HW229319   4.209   4.204   8.898  2.1635  1.3006  0.4121
 5954SOL     OW29320   0.221   4.067   6.982  0.1034 -0.5481  0.3178
 5954SOL    HW129321   0.128   4.049   6.995  0.4537 -3.1201 -0.7064
 5954SOL    HW229322   0.260   4.072   7.069 -0.5019  0.6436  0.5120
 5955SOL     OW29323   2.352   1.999  12.598  0.5297  0.1118  0.1751
 5955SOL    HW129324   2.287   1.931  12.611  1.5857 -1.1091 -0.9155
 5955SOL    HW229325   2.379   1.996  12.506 -1.5913  2.1292 -0.5157
 5956SOL     OW29326   2.866   2.317   2.178 -0.0675  0.1943 -0.1049
 5956SOL    HW129327   2.804   2.245   2.175 -0.6790  0.7865 -1.9861
 5956SOL    HW229328   2.898   2.305   2.267  0.3778  0.2209 -0.2583
 5957SOL     OW29329   1.988   0.731   8.458 -0.6245 -0.7060  0.0958
 5957SOL    HW129330   1.965   0.819   8.486 -0.1595 -0.7322  0.5739
 5957SOL    HW229331   2.077   0.741   8.493 -0.0690 -0.5441 -1.3518
 5958SOL     OW29332   4.058   4.718  12.747  0.0181  0.1776  0.1327
 5958SOL    HW129333   4.112   4.715  12.668 -0.4145  2.2334 -0.2481
 5958SOL    HW229334   3.987   4.660  12.719 -0.0626 -0.2535  1.2433
 5959SOL     OW29335   3.632   3.799   5.173 -0.1137 -0.6035  0.0290
 5959SOL    HW129336   3.609   3.843   5.091 -0.9741 -1.8696 -0.4269
 5959SOL    HW229337   3.706   3.855   5.193 -0.2277 -0.1869 -0.7074
 5960SOL     OW29338   0.667   1.761   9.507 -0.4817  0.2790 -0.2771
 5960SOL    HW129339   0.712   1.678   9.491  2.0592  1.0834  2.6792
 5960SOL    HW229340   0.666   1.780   9.601 -2.3516 -2.7367  0.3158
 5961SOL     OW29341   1.192   0.426  11.708 -0.2641  0.5442  0.7151
 5961SOL    HW129342   1.182   0.331  11.723 -1.2394  0.7288  1.2354
 5961SOL    HW229343   1.135   0.437  11.632  1.4546  2.5283 -0.2517
 5962SOL     OW29344   2.452   3.417  15.414  0.3466  0.2890  0.0955
 5962SOL    HW129345   2.461   3.408  15.509  1.9243  0.7550 -0.0053
 5962SOL    HW229346   2.364   3.387  15.392  0.9233 -0.4131 -1.2303
 5963SOL     OW29347   3.679   2.632   8.871  0.1763  0.0708 -0.7081
 5963SOL    HW129348   3.665   2.620   8.964 -1.4020  1.5147 -0.7511
 5963SOL    HW229349   3.675   2.728   8.870  0.1530  0.0560 -2.8654
 5964SOL     OW29350   1.155   3.870   7.183  0.0382 -0.0659  1.0014
 5964SOL    HW129351   1.163   3.955   7.138 -0.0485 -0.2938  0.5580
 5964SOL    HW229352   1.125   3.896   7.270  0.8535 -0.7218  1.4806
 5965SOL     OW29353   2.572   2.060   5.888  0.2744  0.1108  0.0592
 5965SOL    HW129354   2.592   1.967   5.877 -1.2326 -0.0967 -0.9536
 5965SOL    HW229355   2.477   2.050   5.890  0.2946 -0.7399 -2.6517
 5966SOL     OW29356   1.854   3.384   7.107  0.4684  0.1505 -0.2529
 5966SOL    HW129357   1.827   3.470   7.074  1.5124  0.0386 -1.3871
 5966SOL    HW229358   1.853   3.329   7.028 -0.2605  0.6790 -0.6116
 5967SOL     OW29359   0.266   2.238  13.120  0.4016 -0.2752  0.4383
 5967SOL    HW129360   0.224   2.152  13.122  1.4230 -0.7987 -1.0453
 5967SOL    HW229361   0.255   2.263  13.028  0.4678 -0.6079  0.3399
 5968SOL     OW29362   0.784   2.991   4.830  0.0440  0.1803  0.0262
 5968SOL    HW129363   0.757   2.912   4.784  0.3306  0.1956 -0.1673
 5968SOL    HW229364   0.706   3.012   4.881 -1.4443  1.0876 -2.6540
 5969SOL     OW29365   0.154   0.544   3.162 -0.2031  0.1989  0.3008
 5969SOL    HW129366   0.221   0.562   3.096  0.9643 -1.7309  0.9462
 5969SOL    HW229367   0.084   0.601   3.130 -0.6624 -0.1807  0.6281
 5970SOL     OW29368   3.134   2.129   4.732 -0.2861 -0.2349 -0.0219
 5970SOL    HW129369   3.074   2.133   4.806 -1.2644  0.8871 -0.8702
 5970SOL    HW229370   3.138   2.037   4.706  0.8620 -0.0932 -0.3320
 5971SOL     OW29371   3.593   2.748   7.557 -0.0166 -0.1013 -0.3815
 5971SOL    HW129372   3.597   2.693   7.635  1.1407 -0.6231 -0.8152
 5971SOL    HW229373   3.533   2.688   7.512 -1.8546  0.7907  0.8587
 5972SOL     OW29374   3.744   2.594   1.167 -0.1577  0.3537 -0.3997
 5972SOL    HW129375   3.696   2.580   1.248 -0.3956 -0.8635 -0.7641
 5972SOL    HW229376   3.828   2.621   1.205  0.0790  2.3354 -2.3372
 5973SOL     OW29377   2.774   3.553  16.105  0.0647  0.0058 -1.0601
 5973SOL    HW129378   2.841   3.585  16.165 -0.8158 -0.7160  0.2943
 5973SOL    HW229379   2.762   3.467  16.145  2.0425  0.6046  0.8179
 5974SOL     OW29380   4.261   1.585   8.636 -0.0879 -0.2781  0.5727
 5974SOL    HW129381   4.221   1.583   8.723  1.6965 -0.9945  1.3951
 5974SOL    HW229382   4.310   1.667   8.637  1.4988 -1.2170  0.8118
 5975SOL     OW29383   3.486   0.962  11.892  0.4785  0.4165  0.2869
 5975SOL    HW129384   3.549   1.022  11.933 -1.7389  0.9982  2.7889
 5975SOL    HW229385   3.525   0.942  11.807 -2.4653 -0.5205 -0.8355
 5976SOL     OW29386   1.046   2.531   5.411 -0.0754  0.5795 -0.0710
 5976SOL    HW129387   1.083   2.442   5.415  0.2892  0.7747  1.1515
 5976SOL    HW229388   1.066   2.553   5.502 -0.4417 -2.8386  0.8478
 5977SOL     OW29389   0.195   0.738   4.490 -0.4197  0.5365  0.5099
 5977SOL    HW129390   0.155   0.736   4.403  0.0225 -2.1491  0.3746
 5977SOL    HW229391   0.272   0.792   4.474  0.1511 -0.3095  0.4125
 5978SOL     OW29392   1.202   3.933   4.639  0.2911  0.1517  0.1698
 5978SOL    HW129393   1.171   4.023   4.627  2.1410  0.8705  0.8227
 5978SOL    HW229394   1.199   3.926   4.734 -0.2813  0.4367  0.1729
 5979SOL     OW29395   4.202   1.007   0.447 -0.0343 -0.1194 -0.2300
 5979SOL    HW129396   4.137   1.031   0.513 -1.6968  0.1868 -1.9742
 5979SOL    HW229397   4.262   1.061   0.499 -0.3226 -1.2040  1.2321
 5980SOL     OW29398   1.232   0.134   5.019 -0.1952  0.1099  0.1817
 5980SOL    HW129399   1.193   0.106   4.935 -2.4386 -0.2760  1.3522
 5980SOL    HW229400   1.309   0.176   4.980 -1.3095  0.7527 -1.3604
 5981SOL     OW29401   3.661   3.592   5.609  0.6376 -0.4332 -0.2459
 5981SOL    HW129402   3.666   3.531   5.682 -2.1004 -0.2615  0.0764
 5981SOL    HW229403   3.601   3.545   5.551 -0.2931  1.5108 -0.8644
 5982SOL     OW29404   1.065   2.686   6.574  0.1603 -0.3396  0.1346
 5982SOL    HW129405   1.022   2.760   6.617 -0.2748 -0.6666  0.2618
 5982SOL    HW229406   1.049   2.721   6.487  0.8935 -1.1779 -0.3434
 5983SOL     OW29407   1.604   2.393   4.405  0.5096  0.3685 -0.2590
 5983SOL    HW129408   1.675   2.335   4.434  1.7201  1.3313 -1.3020
 5983SOL    HW229409   1.525   2.353   4.441 -0.2789  2.6848  0.5700
 5984SOL     OW29410   0.301   3.256  14.785 -0.1110 -0.5121 -0.9064
 5984SOL    HW129411   0.318   3.169  14.821  2.6737  0.0578 -0.8191
 5984SOL    HW229412   0.356   3.253  14.707 -2.4651 -0.4733 -2.5449
 5985SOL     OW29413   0.323   2.273   7.657 -0.1164 -0.0519 -0.4643
 5985SOL    HW129414   0.262   2.346   7.651 -0.5853 -0.3225  1.1326
 5985SOL    HW229415   0.386   2.318   7.600  0.8400 -2.6337 -1.4905
 5986SOL     OW29416   3.154   1.069  15.800  0.2502 -0.1936 -0.7262
 5986SOL    HW129417   3.247   1.089  15.809  0.1669 -0.2216  0.2651
 5986SOL    HW229418   3.132   1.109  15.716 -0.2788  2.2533  0.5807
 5987SOL     OW29419   3.793   2.196   5.694  0.3804  0.0541  0.1438
 5987SOL    HW129420   3.725   2.157   5.640 -1.5967  0.5056  2.3120
 5987SOL    HW229421   3.853   2.224   5.625  0.8729 -0.3218  0.4102
 5988SOL     OW29422   2.782   2.122   8.420  0.1846  0.2783 -0.4126
 5988SOL    HW129423   2.843   2.075   8.477  0.3490  1.2969  0.2465
 5988SOL    HW229424   2.706   2.127   8.478  0.1701 -1.2555 -0.3043
 5989SOL     OW29425   0.239   3.335  16.312 -0.5235 -0.0605 -0.7962
 5989SOL    HW129426   0.253   3.300  16.224  2.8105 -1.6555  0.3599
 5989SOL    HW229427   0.292   3.414  16.304 -0.4864  0.0812  0.8647
 5990SOL     OW29428   1.766   3.812  14.205 -0.0194 -0.3470  0.0983
 5990SOL    HW129429   1.692   3.774  14.156 -2.0025  2.9590  0.5040
 5990SOL    HW229430   1.744   3.903  14.188 -0.1882 -1.2402 -4.6099
 5991SOL     OW29431   0.259   3.296   4.654 -0.6728  0.2307  0.1560
 5991SOL    HW129432   0.238   3.243   4.731 -0.7255  1.9092  1.2799
 5991SOL    HW229433   0.309   3.238   4.597  0.6464  1.1162  0.4300
 5992SOL     OW29434   2.871   0.081   5.749 -0.2423 -0.6042  0.7094
 5992SOL    HW129435   2.932   0.057   5.818  2.0785  2.2061 -0.3751
 5992SOL    HW229436   2.895   0.169   5.719  0.7958 -1.4978 -1.0987
 5993SOL     OW29437   2.696   4.574  15.330 -0.3285  0.1034  0.0422
 5993SOL    HW129438   2.691   4.589  15.236  1.6283  0.2070 -0.0419
 5993SOL    HW229439   2.689   4.658  15.374 -0.4333 -0.4881  1.1519
 5994SOL     OW29440   0.655   3.244   6.704 -0.6904 -0.4217 -0.1160
 5994SOL    HW129441   0.658   3.176   6.636  1.3246 -1.2097  0.7625
 5994SOL    HW229442   0.743   3.280   6.706 -0.0733 -1.8209 -1.6028
 5995SOL     OW29443   1.178   3.073  14.604 -0.0820  0.6230 -0.1308
 5995SOL    HW129444   1.237   3.130  14.653  1.1129  0.1992 -1.0850
 5995SOL    HW229445   1.237   3.025  14.546 -3.2671 -2.2069 -1.0192
 5996SOL     OW29446   0.575   3.257   1.764  0.2791 -0.3374  0.1774
 5996SOL    HW129447   0.664   3.224   1.762  0.4343  0.2291 -2.1879
 5996SOL    HW229448   0.579   3.298   1.678  0.0235 -0.3521  0.1578
 5997SOL     OW29449   4.113   3.661   3.776 -0.1252 -0.0184 -0.0305
 5997SOL    HW129450   4.107   3.634   3.868  1.6439 -1.6164 -0.3894
 5997SOL    HW229451   4.087   3.582   3.729 -1.0443  0.5808 -0.5292
 5998SOL     OW29452   2.172   0.351  13.651 -0.6550  0.1367 -0.1255
 5998SOL    HW129453   2.230   0.304  13.590  0.7323 -0.6450  1.8188
 5998SOL    HW229454   2.234   0.382  13.717 -0.0361 -1.6299  0.1145
 5999SOL     OW29455   4.480   3.743   8.688 -0.0748 -0.0997 -0.3789
 5999SOL    HW129456   4.388   3.733   8.664 -0.7685  0.9724  1.7957
 5999SOL    HW229457   4.511   3.660   8.651  0.7867  0.3728 -0.6989
 6000SOL     OW29458   1.663   1.414   4.591 -0.1070  0.8688  0.1499
 6000SOL    HW129459   1.601   1.484   4.611 -0.4180  0.1312  1.7518
 6000SOL    HW229460   1.664   1.367   4.674  0.5588  0.0651 -0.3020
 6001SOL     OW29461   4.104   0.264  11.487  0.1598 -0.0083 -0.3596
 6001SOL    HW129462   4.116   0.247  11.580  1.4335  0.1039 -0.4907
 6001SOL    HW229463   4.192   0.283  11.453  0.0403  0.8104 -0.2133
 6002SOL     OW29464   3.080   0.834   4.945  0.3112 -0.4660 -0.6910
 6002SOL    HW129465   3.167   0.858   4.976 -0.5614  1.2304  0.4160
 6002SOL    HW229466   3.026   0.837   5.024  2.2564  0.0223  0.6066
 6003SOL     OW29467   3.712   3.672   8.942  0.1638 -0.2014 -0.9045
 6003SOL    HW129468   3.675   3.627   8.866 -1.7606 -3.1728  1.7619
 6003SOL    HW229469   3.720   3.764   8.919 -1.3161  0.5119  1.4783
 6004SOL     OW29470   2.593   1.653  12.421  0.4476  0.1429 -0.2647
 6004SOL    HW129471   2.597   1.607  12.337  1.9920 -0.0013 -0.1132
 6004SOL    HW229472   2.641   1.732  12.398  1.0859 -0.4440 -0.9753
 6005SOL     OW29473   2.716   1.648   4.723 -0.3569 -0.4673 -0.1674
 6005SOL    HW129474   2.657   1.572   4.724 -0.3898 -0.4897 -4.8097
 6005SOL    HW229475   2.799   1.629   4.679 -0.6298  1.4709 -1.5025
 6006SOL     OW29476   0.703   0.871   4.476 -0.3407  0.7461 -0.5840
 6006SOL    HW129477   0.744   0.805   4.533 -0.7236  0.1878 -0.9455
 6006SOL    HW229478   0.701   0.814   4.399  0.5183  0.5512 -0.4654
 6007SOL     OW29479   4.446   0.217   2.093  0.1583 -0.0808  0.2921
 6007SOL    HW129480   4.504   0.144   2.070  2.3753  2.2995 -1.6493
 6007SOL    HW229481   4.450   0.269   2.013  1.7160  1.3228  1.2726
 6008SOL     OW29482   3.225   0.232  11.905 -0.3041  0.0542  0.1250
 6008SOL    HW129483   3.299   0.239  11.967 -1.7092  0.2191  1.7817
 6008SOL    HW229484   3.266   0.173  11.842  0.2016  0.8675 -0.3047
 6009SOL     OW29485   2.477   3.550   7.417  0.3247 -0.3962  0.3897
 6009SOL    HW129486   2.514   3.495   7.349  0.0981 -1.0596  0.8015
 6009SOL    HW229487   2.494   3.637   7.382  1.8495 -0.3662  1.2208
 6010SOL     OW29488   3.274   3.825   3.005  0.2000  0.2186 -0.0230
 6010SOL    HW129489   3.310   3.738   2.989 -2.7879 -0.9811 -0.1235
 6010SOL    HW229490   3.192   3.800   3.046  1.2178 -2.7634  0.1698
 6011SOL     OW29491   3.116   3.675   7.208  0.0620  0.3675 -0.4926
 6011SOL    HW129492   3.058   3.642   7.277  0.5262 -0.7840 -0.6531
 6011SOL    HW229493   3.083   3.629   7.131  1.2608 -2.4983  0.6617
 6012SOL     OW29494   1.622   2.973   5.692 -0.4037 -0.2291  0.3460
 6012SOL    HW129495   1.622   3.037   5.762 -1.9682 -4.4650  4.2235
 6012SOL    HW229496   1.528   2.965   5.673 -0.1053 -1.3406 -0.6368
 6013SOL     OW29497   1.299   1.439   3.589 -0.3320  0.1763  0.6348
 6013SOL    HW129498   1.389   1.435   3.558 -1.1948  2.8059 -2.1427
 6013SOL    HW229499   1.255   1.364   3.547 -0.2693  1.4057 -1.6278
 6014SOL     OW29500   3.188   0.009  17.108  0.3592 -0.3275  0.1801
 6014SOL    HW129501   3.273   0.014  17.152  1.4334 -1.0697 -1.8489
 6014SOL    HW229502   3.134   0.013  17.187  0.4856  0.8248  0.2143
 6015SOL     OW29503   2.629   3.877   8.448  0.4023 -0.8595  0.2159
 6015SOL    HW129504   2.640   3.969   8.473 -1.8043 -0.5203 -0.0972
 6015SOL    HW229505   2.556   3.854   8.505  0.2009 -0.7231  0.0108
 6016SOL     OW29506   3.836   1.513   7.588 -0.0782  0.1954  0.3195
 6016SOL    HW129507   3.831   1.590   7.645 -2.1017  0.7032 -0.5568
 6016SOL    HW229508   3.931   1.522   7.582  0.0470 -1.2314  0.1628
 6017SOL     OW29509   0.225   0.237   7.836  0.2242 -0.0555  0.5860
 6017SOL    HW129510   0.220   0.216   7.742 -1.2028 -1.0390  0.8804
 6017SOL    HW229511   0.317   0.256   7.850  0.2303  0.8408 -0.6792
 6018SOL     OW29512   1.632   3.429   2.506  0.2144  0.3320 -0.3353
 6018SOL    HW129513   1.684   3.436   2.586  4.0500 -1.9182 -2.6860
 6018SOL    HW229514   1.701   3.403   2.446  0.6140  1.7748 -0.5074
 6019SOL     OW29515   2.740   1.958   4.799 -0.0760  0.2248  0.7233
 6019SOL    HW129516   2.760   1.952   4.705  0.6906  1.6276  0.7869
 6019SOL    HW229517   2.714   1.868   4.815  1.4988 -0.4087 -0.2717
 6020SOL     OW29518   3.067   1.770   6.001 -0.2078  0.9507  0.2586
 6020SOL    HW129519   3.124   1.760   5.925  0.2550 -1.0285  0.8836
 6020SOL    HW229520   3.123   1.754   6.077 -0.2904  0.4224  0.2045
 6021SOL     OW29521   2.417   3.145   6.174  0.4632 -0.2929 -0.4184
 6021SOL    HW129522   2.412   3.150   6.269  1.6893  2.6963 -0.5294
 6021SOL    HW229523   2.341   3.199   6.150 -0.2539 -2.4382 -2.9990
 6022SOL     OW29524   1.075   4.647   1.535  0.2056  0.1556  0.0581
 6022SOL    HW129525   1.084   4.553   1.551  3.1905 -0.0881 -3.0119
 6022SOL    HW229526   1.070   4.648   1.439  0.4713 -0.0350  0.0415
 6023SOL     OW29527   3.512   2.785   1.229  0.4163 -0.3550 -0.7527
 6023SOL    HW129528   3.596   2.783   1.275  0.2741 -3.3325 -0.6176
 6023SOL    HW229529   3.456   2.804   1.304 -0.6414  0.0136 -1.6180
 6024SOL     OW29530   2.880   1.948  13.773 -0.2596  0.5807 -0.1790
 6024SOL    HW129531   2.819   1.917  13.840 -2.8976 -1.3527 -3.4720
 6024SOL    HW229532   2.844   1.885  13.710  1.7266  0.2198 -0.9522
 6025SOL     OW29533   2.945   3.979   2.120 -0.1235  0.2473  0.2769
 6025SOL    HW129534   2.912   4.029   2.194 -1.8599 -2.3117  1.2228
 6025SOL    HW229535   2.950   3.891   2.156  1.5713  1.3504  2.7520
 6026SOL     OW29536   0.297   2.048   6.619 -0.0682 -0.6997 -0.3197
 6026SOL    HW129537   0.341   2.118   6.668 -0.6577 -1.8782  1.8967
 6026SOL    HW229538   0.205   2.070   6.629  0.7539  2.3090  0.4508
 6027SOL     OW29539   1.730   2.475  15.725  0.2378  0.0404 -0.6321
 6027SOL    HW129540   1.701   2.566  15.714 -2.9785 -1.0583 -1.3548
 6027SOL    HW229541   1.823   2.490  15.712 -0.1776  2.2794 -1.1097
 6028SOL     OW29542   1.152   0.957   5.628 -0.3776  0.1163 -0.2897
 6028SOL    HW129543   1.158   0.970   5.723 -0.6934 -1.2611 -0.0832
 6028SOL    HW229544   1.165   1.047   5.598  0.5105 -0.7538 -2.5458
 6029SOL     OW29545   2.360   0.690   0.708 -0.2623  0.0508  0.3397
 6029SOL    HW129546   2.298   0.703   0.636 -1.2011 -0.1909  1.1117
 6029SOL    HW229547   2.377   0.784   0.722 -4.2235  0.3875  2.7684
 6030SOL     OW29548   2.499   0.839  11.871  0.2554  0.5545  0.5684
 6030SOL    HW129549   2.562   0.828  11.801  0.7155  3.6964  0.4683
 6030SOL    HW229550   2.443   0.763  11.855 -2.5612  2.5357  0.8310
 6031SOL     OW29551   2.498   0.829   1.238  0.1280 -0.3942  0.2095
 6031SOL    HW129552   2.545   0.760   1.284  0.2274 -0.9504 -0.7261
 6031SOL    HW229553   2.407   0.817   1.268 -0.4421  2.6241 -0.2843
 6032SOL     OW29554   0.546   4.579  12.254  0.2497  0.1061 -0.6194
 6032SOL    HW129555   0.503   4.539  12.178 -0.0138  1.4451 -1.1778
 6032SOL    HW229556   0.639   4.566  12.237  0.9087  2.2491  1.3984
 6033SOL     OW29557   3.320   3.255  10.173 -0.0475  0.6540 -0.6729
 6033SOL    HW129558   3.256   3.255  10.245 -0.3982 -0.0297 -0.9858
 6033SOL    HW229559   3.356   3.342  10.190  0.3168  0.3112  0.3223
 6034SOL     OW29560   1.887   3.965   8.655  0.5544 -0.3016  0.0883
 6034SOL    HW129561   1.831   3.903   8.608  1.5741 -0.5939 -0.7504
 6034SOL    HW229562   1.820   3.980   8.722 -1.3286 -4.8116 -0.7926
 6035SOL     OW29563   2.649   1.918  10.525 -0.3803  0.2841  0.6576
 6035SOL    HW129564   2.613   1.858  10.459  0.4520  1.6008 -0.9933
 6035SOL    HW229565   2.572   1.920  10.581 -0.4976 -0.1269  0.5128
 6036SOL     OW29566   1.334   4.428   2.412 -0.2019  0.2480  0.0444
 6036SOL    HW129567   1.240   4.447   2.413 -0.1139  0.6542  0.2540
 6036SOL    HW229568   1.338   4.401   2.504  0.3271 -0.8301 -0.2887
 6037SOL     OW29569   2.284   3.875   0.048  0.1214  0.3975 -0.2116
 6037SOL    HW129570   2.222   3.847   0.115 -1.7921 -2.0064 -2.9944
 6037SOL    HW229571   2.367   3.867   0.097 -0.3602  1.5395  0.8054
 6038SOL     OW29572   3.875   4.443   5.517 -0.3853  0.0895  0.0114
 6038SOL    HW129573   3.883   4.496   5.437  1.3126 -0.3487 -0.1225
 6038SOL    HW229574   3.827   4.499   5.578  1.3155 -0.5280  1.9039
 6039SOL     OW29575   3.118   4.379  16.356 -0.0915 -0.6653  0.1166
 6039SOL    HW129576   3.186   4.376  16.422 -0.3309 -0.8026  0.3597
 6039SOL    HW229577   3.047   4.370  16.419  0.3135 -1.2530  0.4816
 6040SOL     OW29578   0.345   0.168   1.586  0.1296 -0.4038 -0.5220
 6040SOL    HW129579   0.351   0.220   1.667 -0.1274 -2.2323  0.6829
 6040SOL    HW229580   0.421   0.109   1.586 -1.2255 -2.1155  2.7523
 6041SOL     OW29581   2.880   4.684  12.979  0.3267  0.2484 -0.0575
 6041SOL    HW129582   2.908   4.638  12.900 -1.1446 -3.5617  1.6140
 6041SOL    HW229583   2.913   0.052  12.971 -1.7409  1.2479  2.3717
 6042SOL     OW29584   1.279   0.258   3.289 -0.0428 -0.0682 -0.6813
 6042SOL    HW129585   1.329   0.270   3.209  1.1931 -0.8324 -0.0233
 6042SOL    HW229586   1.327   0.194   3.341  0.4483  1.6445  0.9568
 6043SOL     OW29587   1.395   1.726   7.133  0.4495  0.5364  0.3211
 6043SOL    HW129588   1.486   1.757   7.138  0.6802 -0.1243  0.2264
 6043SOL    HW229589   1.388   1.670   7.056  0.5073 -0.7956  1.2872
 6044SOL     OW29590   4.427   0.953   6.577 -0.3512 -0.7483  0.3364
 6044SOL    HW129591   4.367   0.970   6.649  0.4816  0.2708  0.7871
 6044SOL    HW229592   4.380   0.997   6.506 -1.5591  0.3105  1.8145
 6045SOL     OW29593   2.367   4.615  17.175 -0.2225  0.1297 -0.4618
 6045SOL    HW129594   2.287   4.640  17.222  0.3420  1.8579 -0.4037
 6045SOL    HW229595   2.367   4.521  17.158 -0.4300  0.2745 -1.2597
 6046SOL     OW29596   3.111   1.837   3.696  0.1879 -0.7322 -0.4056
 6046SOL    HW129597   3.159   1.764   3.655  0.5962 -1.4446  1.3678
 6046SOL    HW229598   3.111   1.897   3.621 -0.5980 -2.7078 -2.0098
 6047SOL     OW29599   0.011   3.563   2.294 -0.6735 -0.0645 -0.1207
 6047SOL    HW129600   4.683   3.483   2.314 -0.8492 -0.1670 -0.9772
 6047SOL    HW229601   0.098   3.531   2.317 -1.9818 -2.5353  1.3843
 6048SOL     OW29602   3.336   2.661   6.050 -0.7036 -0.9020  0.8414
 6048SOL    HW129603   3.289   2.744   6.038  0.9526 -0.0280  0.4364
 6048SOL    HW229604   3.323   2.623   5.964  3.6150 -2.2483  0.8340
 6049SOL     OW29605   0.077   4.285   3.517  0.2846 -0.1793  0.2663
 6049SOL    HW129606   0.164   4.321   3.537 -0.1209  0.8816  0.0862
 6049SOL    HW229607   0.078   4.299   3.422 -0.5376 -3.2889 -0.2253
 6050SOL     OW29608   2.657   3.074   4.749 -0.2544 -0.1791  0.5503
 6050SOL    HW129609   2.719   3.142   4.722  0.5312 -2.0227 -2.2687
 6050SOL    HW229610   2.577   3.094   4.701 -1.7305 -2.0785  2.2244
 6051SOL     OW29611   1.211   0.703   5.886 -0.6229  0.2887  0.4934
 6051SOL    HW129612   1.192   0.628   5.829 -0.3461  0.6243 -0.0436
 6051SOL    HW229613   1.129   0.718   5.933 -0.6664  1.0934  0.1492
 6052SOL     OW29614   0.380   1.049   3.521 -0.0795 -0.0458  0.1578
 6052SOL    HW129615   0.298   1.098   3.516  2.1333  3.7378  1.0278
 6052SOL    HW229616   0.364   1.025   3.612  0.8220 -0.2678  0.2503
 6053SOL     OW29617   1.328   0.130  12.502 -0.4536 -0.0237 -0.2756
 6053SOL    HW129618   1.261   0.076  12.544 -0.7599 -0.1784 -0.9714
 6053SOL    HW229619   1.332   0.202  12.566 -0.7369  1.4332 -1.8959
 6054SOL     OW29620   0.561   1.476   2.625 -0.4643 -0.0380  0.8029
 6054SOL    HW129621   0.602   1.499   2.708 -2.2568 -0.0258  1.6850
 6054SOL    HW229622   0.624   1.532   2.580 -0.4315 -1.4103 -0.8736
 6055SOL     OW29623   3.413   4.702  16.300  0.0660 -0.4271  0.1859
 6055SOL    HW129624   3.492   4.703  16.353  0.0572  1.9972  0.1594
 6055SOL    HW229625   3.349   4.706  16.371 -0.6063  3.1873 -0.6016
 6056SOL     OW29626   1.879   3.475   9.099  0.0401 -0.0078 -0.6935
 6056SOL    HW129627   1.958   3.502   9.147 -0.2952 -0.9593  0.3975
 6056SOL    HW229628   1.824   3.553   9.112 -1.0538 -0.4518 -2.7325
 6057SOL     OW29629   0.602   0.675   7.687  0.4737  0.2086 -0.2819
 6057SOL    HW129630   0.620   0.761   7.724 -1.0096  0.2102  0.4047
 6057SOL    HW229631   0.509   0.665   7.670  0.3089  0.0160  0.7594
 6058SOL     OW29632   3.216   3.140  13.318  0.1925 -0.0510 -0.3073
 6058SOL    HW129633   3.175   3.221  13.288  1.1870  0.5949  0.0866
 6058SOL    HW229634   3.140   3.085  13.338 -0.9220  1.3326 -0.8089
 6059SOL     OW29635   1.681   2.236   8.514  0.5510  0.4293  0.2979
 6059SOL    HW129636   1.634   2.261   8.593  1.7964 -4.3692  2.5301
 6059SOL    HW229637   1.637   2.296   8.453  2.4653 -0.4474 -1.9634
 6060SOL     OW29638   2.197   3.277   3.097  0.1742  0.2813 -0.6608
 6060SOL    HW129639   2.216   3.239   3.011  0.9212  0.6876 -0.6699
 6060SOL    HW229640   2.288   3.292   3.123 -0.4330 -0.7393  2.0232
 6061SOL     OW29641   0.681   4.542   1.814 -0.5818  0.1182  0.1851
 6061SOL    HW129642   0.768   4.506   1.830 -1.4324 -1.9200  0.2165
 6061SOL    HW229643   0.686   4.611   1.880  2.0419 -1.0993  1.2723
 6062SOL     OW29644   0.482   3.860   6.096 -0.0334 -0.0256  0.9386
 6062SOL    HW129645   0.523   3.796   6.037  0.0438  2.5481 -1.7675
 6062SOL    HW229646   0.529   3.842   6.178 -0.1361  1.4637  1.3275
 6063SOL     OW29647   0.110   3.988   5.727 -0.1860 -0.2450 -0.2279
 6063SOL    HW129648   0.193   3.969   5.772  1.6146  2.5139 -2.4283
 6063SOL    HW229649   0.117   4.083   5.716  0.3769 -0.0769  1.5151
 6064SOL     OW29650   0.378   3.976   8.889 -0.5759 -0.6599 -0.0106
 6064SOL    HW129651   0.416   4.061   8.868 -0.5238 -0.4914  0.7878
 6064SOL    HW229652   0.317   3.963   8.816 -0.1783  1.7921 -0.7843
 6065SOL     OW29653   1.337   1.994  17.562  0.0748  0.0738 -0.6013
 6065SOL    HW129654   1.243   2.015  17.558  0.2046  0.7764  0.1166
 6065SOL    HW229655   1.340   1.992  17.658 -3.0786  1.0849 -0.4750
 6066SOL     OW29656   2.575   0.227  16.987  0.0777  0.0354  0.7881
 6066SOL    HW129657   2.565   0.184  16.902 -1.0107 -2.1415  2.0306
 6066SOL    HW229658   2.592   0.314  16.952 -0.2548  0.5925  2.0142
 6067SOL     OW29659   3.711   3.430  12.682  0.9583 -0.0610  0.6144
 6067SOL    HW129660   3.743   3.426  12.592 -0.3749 -0.5384  0.1514
 6067SOL    HW229661   3.743   3.517  12.704  1.1194  0.0898 -0.2118
 6068SOL     OW29662   1.218   4.261   8.320  0.1676 -0.4248  0.2162
 6068SOL    HW129663   1.186   4.352   8.322  0.1563 -0.4030 -0.8235
 6068SOL    HW229664   1.137   4.211   8.328  1.2095 -2.4813 -2.0545
 6069SOL     OW29665   3.712   2.095   9.275 -0.1862 -0.4793  0.0068
 6069SOL    HW129666   3.646   2.139   9.328 -1.4741 -0.4522 -1.6288
 6069SOL    HW229667   3.656   2.049   9.213  2.1232 -2.2177 -0.7817
 6070SOL     OW29668   3.091   0.945   5.846  0.6150  0.3261 -0.7348
 6070SOL    HW129669   3.159   0.911   5.904  0.0925  0.4240 -0.0497
 6070SOL    HW229670   3.041   1.002   5.906  0.6365 -0.1174 -0.2936
 6071SOL     OW29671   4.061   0.712  12.341 -0.1533  0.7615  0.5898
 6071SOL    HW129672   4.057   0.808  12.347 -0.2610  0.8213 -0.5037
 6071SOL    HW229673   4.091   0.688  12.429 -0.9420  2.2011  1.2670
 6072SOL     OW29674   2.194   2.605  14.667 -0.1544 -0.0437  0.0453
 6072SOL    HW129675   2.213   2.557  14.749 -2.9046 -0.8120  0.2323
 6072SOL    HW229676   2.140   2.670  14.712 -0.4323  0.2700 -0.7418
 6073SOL     OW29677   4.350   0.265   5.505  0.3552  0.1406 -0.8552
 6073SOL    HW129678   4.324   0.253   5.414  1.9102 -0.2164 -1.2592
 6073SOL    HW229679   4.278   0.230   5.558  1.3977  1.0025  1.1557
 6074SOL     OW29680   3.907   0.021   2.538  0.5864  0.5101  0.1599
 6074SOL    HW129681   3.869   4.658   2.565 -0.0295 -0.4846 -3.7973
 6074SOL    HW229682   3.838   0.049   2.478  1.3435 -1.5809 -1.6889
 6075SOL     OW29683   1.887   0.715   0.979 -0.0033 -0.2063  0.2000
 6075SOL    HW129684   1.811   0.682   1.027 -1.1981  0.1349 -1.4901
 6075SOL    HW229685   1.844   0.786   0.932 -0.7584 -0.8037 -0.0050
 6076SOL     OW29686   2.559   4.149  16.693 -0.3592 -0.7321 -0.3575
 6076SOL    HW129687   2.631   4.087  16.705  1.1130  0.8687 -0.9650
 6076SOL    HW229688   2.524   4.142  16.782 -0.6698  2.8139 -0.2123
 6077SOL     OW29689   1.764   0.322   6.655 -0.1900  0.6833  0.0433
 6077SOL    HW129690   1.743   0.341   6.747  0.5164 -0.8927  0.5222
 6077SOL    HW229691   1.847   0.369   6.651 -0.2299  0.8246  0.8096
 6078SOL     OW29692   3.101   2.467   1.149 -0.3076 -0.5440  0.4188
 6078SOL    HW129693   3.021   2.507   1.116  0.2247 -0.9471 -1.3877
 6078SOL    HW229694   3.157   2.544   1.138  0.1269 -0.7429  1.2203
 6079SOL     OW29695   0.149   1.328   4.705 -0.2853 -0.2696 -0.0157
 6079SOL    HW129696   0.188   1.299   4.787 -1.3106  0.0430  0.5801
 6079SOL    HW229697   0.202   1.273   4.646 -2.5601 -1.3933 -1.0323
 6080SOL     OW29698   1.969   4.359   9.984 -0.1575  0.5376  0.4542
 6080SOL    HW129699   1.935   4.327  10.068 -2.1244 -2.2669 -1.4039
 6080SOL    HW229700   1.898   4.416   9.957 -1.4180 -1.9219 -1.3696
 6081SOL     OW29701   1.657   2.293   5.390 -0.0407 -0.0774  0.2894
 6081SOL    HW129702   1.692   2.257   5.308  0.8321  3.3936 -0.8585
 6081SOL    HW229703   1.647   2.384   5.363  1.5319 -0.6884 -2.3147
 6082SOL     OW29704   3.675   3.593   2.040 -0.0072  0.0672  0.0296
 6082SOL    HW129705   3.741   3.595   1.970 -0.2757 -1.5019 -0.2762
 6082SOL    HW229706   3.609   3.534   2.003  1.0840 -1.0977 -0.0504
 6083SOL     OW29707   4.349   0.473   8.017  0.5125  0.1996  0.2869
 6083SOL    HW129708   4.413   0.543   8.031  1.6882 -0.7128 -0.5048
 6083SOL    HW229709   4.391   0.428   7.944  0.1976  0.7567 -0.2348
 6084SOL     OW29710   4.585   1.438  12.173 -0.0990 -0.1984  0.1425
 6084SOL    HW129711   4.564   1.403  12.086  2.1664 -0.2615 -0.3883
 6084SOL    HW229712   4.681   1.445  12.169  0.1601 -3.6947  0.7000
 6085SOL     OW29713   4.420   4.176   3.800  0.1992  0.0604  0.6520
 6085SOL    HW129714   4.466   4.209   3.723 -0.9037  1.3503  0.5306
 6085SOL    HW229715   4.378   4.258   3.828 -0.2172 -0.0692  0.4100
 6086SOL     OW29716   0.928   0.333   4.931 -0.4980 -0.0808 -1.3499
 6086SOL    HW129717   0.887   0.281   4.862 -3.3929  0.1075  0.2587
 6086SOL    HW229718   0.851   0.349   4.985 -0.9419  1.1683 -2.3511
 6087SOL     OW29719   4.229   1.087   1.401  0.1351 -0.8402  0.3828
 6087SOL    HW129720   4.289   1.012   1.404  0.1075 -0.8738 -0.0037
 6087SOL    HW229721   4.207   1.083   1.308  1.3960 -2.2951  0.1388
 6088SOL     OW29722   1.157   2.685   7.211 -0.1019  0.0149  0.1352
 6088SOL    HW129723   1.206   2.620   7.161 -1.2146 -0.0208 -0.9041
 6088SOL    HW229724   1.073   2.641   7.224 -0.7761  0.9690 -0.9206
 6089SOL     OW29725   0.086   0.498   1.715 -0.5022 -0.0140 -0.6145
 6089SOL    HW129726   4.716   0.526   1.697  0.2213  0.6774 -3.1860
 6089SOL    HW229727   0.120   0.586   1.733  0.0074 -0.5339  0.8707
 6090SOL     OW29728   1.411   0.758   0.647 -0.6392  0.2213 -0.3806
 6090SOL    HW129729   1.377   0.757   0.736  0.0549  0.7512 -0.1156
 6090SOL    HW229730   1.438   0.846   0.623 -2.8794  0.9901 -0.0537
 6091SOL     OW29731   1.891   4.497   7.187  0.0997 -0.0316 -0.8110
 6091SOL    HW129732   1.974   4.459   7.215 -1.0468 -0.4177  2.1370
 6091SOL    HW229733   1.873   4.452   7.105 -1.6014 -1.4445  0.3250
 6092SOL     OW29734   1.031   3.237   7.598  0.0307 -0.3277  0.5550
 6092SOL    HW129735   1.105   3.235   7.659  1.9143 -0.4090 -1.7244
 6092SOL    HW229736   0.963   3.210   7.659 -0.5033 -2.2573 -0.9244
 6093SOL     OW29737   0.302   2.244   2.576 -0.2366 -0.2835  0.7751
 6093SOL    HW129738   0.275   2.196   2.498  2.2816 -1.6137  0.7222
 6093SOL    HW229739   0.310   2.175   2.642 -0.9197  0.0389  1.2010
 6094SOL     OW29740   2.428   2.454   6.667  0.3220 -0.4485  0.1114
 6094SOL    HW129741   2.521   2.471   6.681 -0.2014  1.1712  1.6045
 6094SOL    HW229742   2.412   2.392   6.739  0.3830  0.2040  0.6885
 6095SOL     OW29743   3.537   3.837  16.760 -0.1119  0.4202 -0.5234
 6095SOL    HW129744   3.601   3.774  16.794 -0.7277  1.0523  1.8089
 6095SOL    HW229745   3.576   3.917  16.796  0.8950 -0.5767  0.6137
 6096SOL     OW29746   0.354   0.698   2.056  0.0533 -0.2990  0.3377
 6096SOL    HW129747   0.410   0.633   2.099  2.0891  0.5784 -0.9714
 6096SOL    HW229748   0.285   0.651   2.011  0.2175 -0.8111  0.6193
 6097SOL     OW29749   0.453   2.018   5.994 -0.1431 -0.0949 -0.0598
 6097SOL    HW129750   0.497   2.057   6.069 -1.3960  3.3438 -1.1441
 6097SOL    HW229751   0.454   1.924   6.011 -1.8805 -0.3416 -1.3292
 6098SOL     OW29752   2.587   1.381  10.810  0.8123 -0.5690 -0.6917
 6098SOL    HW129753   2.667   1.378  10.862  0.6086  2.8571 -0.1849
 6098SOL    HW229754   2.572   1.288  10.796  2.4336 -1.2126  1.8487
 6099SOL     OW29755   1.512   1.285   3.932 -0.0421  0.2220  0.2252
 6099SOL    HW129756   1.428   1.257   3.897  0.1683  0.3617 -0.4014
 6099SOL    HW229757   1.510   1.231   4.011 -0.2576 -0.3653 -0.1847
 6100SOL     OW29758   1.140   0.784   4.900  0.1530  0.0169 -0.5440
 6100SOL    HW129759   1.133   0.692   4.874 -1.8589  0.4494 -1.5760
 6100SOL    HW229760   1.128   0.782   4.995 -3.0497 -3.5225 -1.0102
 6101SOL     OW29761   4.255   3.226  14.983 -0.1539  0.0302 -0.1245
 6101SOL    HW129762   4.204   3.244  15.062  0.9219  2.8751 -0.0927
 6101SOL    HW229763   4.309   3.305  14.972  0.8840 -0.3240  2.2307
 6102SOL     OW29764   2.993   0.248   6.386  0.4505 -0.1880  0.9005
 6102SOL    HW129765   3.077   0.217   6.352  0.4099 -0.2593  0.8658
 6102SOL    HW229766   3.000   0.277   6.477  2.0559 -0.8488  0.9805
 6103SOL     OW29767   3.157   4.434   1.931 -0.1018 -0.2492 -0.2233
 6103SOL    HW129768   3.084   4.389   1.974 -0.5938  0.9753  0.2029
 6103SOL    HW229769   3.208   4.456   2.010 -1.4129  2.6611 -0.1838
 6104SOL     OW29770   3.654   3.342   2.617  0.2133  0.5997  0.2916
 6104SOL    HW129771   3.688   3.289   2.690  0.7139  0.6496  0.0967
 6104SOL    HW229772   3.563   3.331   2.643  0.4998 -0.1512  0.9997
 6105SOL     OW29773   3.624   4.019   5.786  0.0324  0.0824  0.3149
 6105SOL    HW129774   3.590   3.965   5.714 -2.1581 -0.7237  1.9423
 6105SOL    HW229775   3.679   4.075   5.730  1.0174 -1.8029 -0.5795
 6106SOL     OW29776   3.742   4.461   7.620  0.1126  0.1146 -0.0722
 6106SOL    HW129777   3.817   4.462   7.560  0.1235 -0.5884 -0.0688
 6106SOL    HW229778   3.789   4.464   7.703 -1.1468  2.5282  0.5450
 6107SOL     OW29779   2.577   3.711   0.686 -0.2802 -0.4461  0.2041
 6107SOL    HW129780   2.539   3.704   0.774 -0.1883 -1.5726  0.1568
 6107SOL    HW229781   2.663   3.747   0.708 -0.3347  0.6703 -1.4026
 6108SOL     OW29782   4.697   2.823   4.467  0.1622  0.3410  0.1516
 6108SOL    HW129783   0.016   2.899   4.425  2.8676 -0.9134  0.4386
 6108SOL    HW229784   0.001   2.751   4.409  0.4615  0.2289  0.4158
 6109SOL     OW29785   1.841   2.779   7.981  0.2050  0.2854 -0.2243
 6109SOL    HW129786   1.825   2.737   8.066 -0.9926 -0.1391 -0.6561
 6109SOL    HW229787   1.859   2.872   7.998  0.5552 -0.2276  2.2519
 6110SOL     OW29788   1.188   0.908   6.179  0.6456  0.4244  0.2481
 6110SOL    HW129789   1.229   0.974   6.235  1.0741 -0.5152  1.0368
 6110SOL    HW229790   1.236   0.832   6.210  1.1695  0.0170 -1.5446
 6111SOL     OW29791   0.780   2.098  14.176 -0.4736  0.5924  0.0557
 6111SOL    HW129792   0.810   2.187  14.196  2.5626 -0.6830  1.2446
 6111SOL    HW229793   0.862   2.049  14.170 -1.0564 -0.5838  1.6881
 6112SOL     OW29794   1.887   1.161   1.634  0.4188 -0.6504  0.0957
 6112SOL    HW129795   1.944   1.108   1.690  0.5523  0.9977  1.5078
 6112SOL    HW229796   1.933   1.245   1.644  1.1544 -1.0640  0.2206
 6113SOL     OW29797   4.279   3.198  14.714  0.0213  0.4897 -0.1126
 6113SOL    HW129798   4.293   3.173  14.805  0.6008  2.0947  0.2342
 6113SOL    HW229799   4.199   3.246  14.736  0.3483  2.0986 -2.3829
 6114SOL     OW29800   3.443   4.053   8.186 -0.0025 -0.3902  0.4242
 6114SOL    HW129801   3.491   4.132   8.209 -0.3176  0.1722 -0.8883
 6114SOL    HW229802   3.439   4.065   8.092  0.5600  0.9240  0.5670
 6115SOL     OW29803   0.076   2.549   6.381  0.4869  0.1842 -0.0535
 6115SOL    HW129804   4.717   2.496   6.372  0.9107 -0.4359 -0.1727
 6115SOL    HW229805   0.050   2.617   6.443 -0.3639 -0.1248 -0.0727
 6116SOL     OW29806   1.884   2.028   1.000  0.4055 -0.3732 -0.2200
 6116SOL    HW129807   1.867   1.942   0.962 -0.6731  0.3827 -1.4274
 6116SOL    HW229808   1.970   2.017   1.041  1.0695  0.4566 -1.3928
 6117SOL     OW29809   3.944   1.825   6.450 -1.0238 -0.8673  0.1388
 6117SOL    HW129810   3.860   1.778   6.452 -0.3834 -1.9718  1.1992
 6117SOL    HW229811   3.916   1.906   6.492 -0.5301 -0.1752 -0.8720
 6118SOL     OW29812   3.332   1.790   9.141  0.2977 -0.4975 -0.2651
 6118SOL    HW129813   3.238   1.778   9.132  0.0097  1.3085  0.4574
 6118SOL    HW229814   3.351   1.858   9.206  0.0870  0.1598 -0.8894
 6119SOL     OW29815   3.749   1.967   3.087 -0.4532  0.2061 -0.2631
 6119SOL    HW129816   3.701   2.044   3.058  1.5925  1.8633  0.7429
 6119SOL    HW229817   3.836   1.986   3.052  1.0397 -2.2401  2.0666
 6120SOL     OW29818   3.789   0.903  12.449 -0.3671  0.1761 -0.4156
 6120SOL    HW129819   3.715   0.947  12.491  0.9382  1.0362  0.9518
 6120SOL    HW229820   3.766   0.811  12.437 -0.4013 -0.0706  1.5303
 6121SOL     OW29821   2.021   2.097   8.220  0.0117 -0.4531  0.7008
 6121SOL    HW129822   1.938   2.080   8.266 -1.4598  0.1018 -1.7131
 6121SOL    HW229823   2.071   2.134   8.292 -0.7594  3.1307 -0.6233
 6122SOL     OW29824   3.852   0.539  17.373 -0.5333 -0.1128  0.4401
 6122SOL    HW129825   3.812   0.517  17.457  0.3629  4.3890  2.0225
 6122SOL    HW229826   3.894   0.458  17.344 -2.2491 -0.0287 -2.2842
 6123SOL     OW29827   1.211   2.066   1.983 -0.0337  0.6995 -0.0690
 6123SOL    HW129828   1.282   2.076   2.047 -1.7792 -0.6914  2.0931
 6123SOL    HW229829   1.219   1.972   1.968 -1.3960  0.6182 -0.3217
 6124SOL     OW29830   1.572   2.978   4.795 -0.1147  0.2464 -0.0503
 6124SOL    HW129831   1.616   3.038   4.855  0.8558 -1.4785  0.9794
 6124SOL    HW229832   1.552   3.037   4.723 -0.4770  1.6896  1.2494
 6125SOL     OW29833   1.414   1.115   3.689  0.1351  0.0871  0.5984
 6125SOL    HW129834   1.461   1.183   3.641 -0.7562 -0.4102 -0.9680
 6125SOL    HW229835   1.406   1.044   3.626 -1.7287  0.5436  0.3290
 6126SOL     OW29836   2.539   4.173  13.709  0.4740 -0.1658 -0.2122
 6126SOL    HW129837   2.623   4.206  13.742  0.3472 -0.7934  0.7557
 6126SOL    HW229838   2.547   4.080  13.733  0.2747 -0.6115 -1.8412
 6127SOL     OW29839   2.934   2.713   2.270 -0.0820 -0.1549  0.0297
 6127SOL    HW129840   2.994   2.731   2.342  1.5328 -2.9641 -0.5919
 6127SOL    HW229841   2.860   2.747   2.319  0.1206 -0.1769  0.3512
 6128SOL     OW29842   3.263   0.999   4.479  0.2632  0.6539  0.5350
 6128SOL    HW129843   3.298   1.037   4.559 -0.7486  0.7020  0.9589
 6128SOL    HW229844   3.176   0.981   4.514  0.4734  0.7866  1.1355
 6129SOL     OW29845   0.307   3.117   2.773  0.1194  0.5036 -0.5659
 6129SOL    HW129846   0.226   3.069   2.790  0.8000 -0.3020  0.3251
 6129SOL    HW229847   0.370   3.047   2.785  0.3485  0.9695  0.8616
 6130SOL     OW29848   2.046   0.487  14.712  0.5068 -0.2245  0.0168
 6130SOL    HW129849   1.988   0.465  14.639  0.9167 -0.4282 -0.2466
 6130SOL    HW229850   2.107   0.415  14.703 -0.3974 -1.0327  0.3865
 6131SOL     OW29851   1.674   4.029  11.430  0.1700  0.2506  0.3779
 6131SOL    HW129852   1.655   4.122  11.442 -2.7408 -0.4273  1.0701
 6131SOL    HW229853   1.760   4.030  11.472 -0.8265  1.7320  2.3819
 6132SOL     OW29854   0.407   3.604   7.733 -0.1390 -0.7170 -0.4109
 6132SOL    HW129855   0.436   3.665   7.666 -0.9945  0.8771  0.6735
 6132SOL    HW229856   0.389   3.526   7.680  0.5253  0.0623 -1.7939
 6133SOL     OW29857   1.971   1.438   1.618 -0.4608 -0.0248  0.1293
 6133SOL    HW129858   1.932   1.493   1.686 -1.0412  0.5733 -0.6862
 6133SOL    HW229859   1.932   1.465   1.535  1.0928  3.1719  0.4196
 6134SOL     OW29860   3.035   0.773   2.994 -0.2628  0.2121  0.2605
 6134SOL    HW129861   3.120   0.794   3.033  0.0516  1.9677 -1.3822
 6134SOL    HW229862   3.033   0.851   2.940  1.8150  0.4242  0.4653
 6135SOL     OW29863   1.832   3.151   6.533  0.1933 -0.2211 -0.1426
 6135SOL    HW129864   1.862   3.110   6.451  0.9801 -1.8711  0.9764
 6135SOL    HW229865   1.750   3.178   6.491  0.6794  0.0793 -0.9159
 6136SOL     OW29866   2.418   0.373   7.243  0.0340  0.4409  0.3934
 6136SOL    HW129867   2.338   0.332   7.208  1.0970  1.0281 -2.7650
 6136SOL    HW229868   2.459   0.427   7.175 -2.4575  0.2324 -1.2885
 6137SOL     OW29869   4.331   0.214   1.302  0.4516 -0.0158  0.1673
 6137SOL    HW129870   4.373   0.209   1.388 -0.2119 -1.5056  0.4101
 6137SOL    HW229871   4.404   0.188   1.246  1.8963  0.2843  1.9009
 6138SOL     OW29872   2.433   0.417   8.121  0.5088  0.0819 -0.0133
 6138SOL    HW129873   2.441   0.368   8.203 -2.0226  3.3273  2.1437
 6138SOL    HW229874   2.347   0.390   8.090 -0.1778 -0.3732  2.2990
 6139SOL     OW29875   4.349   4.508   5.638  0.7783  0.0177 -0.1398
 6139SOL    HW129876   4.306   4.527   5.722 -0.6873 -0.1721 -0.8446
 6139SOL    HW229877   4.270   4.512   5.583  2.9959  1.1130 -3.2199
 6140SOL     OW29878   2.923   4.446   4.042  0.5402 -0.2601  0.3989
 6140SOL    HW129879   2.875   4.392   3.980  0.5670 -1.0410  1.0643
 6140SOL    HW229880   2.850   4.470   4.100 -0.3897  0.1593 -0.9463
 6141SOL     OW29881   2.747   3.437   3.147  0.6740  0.4085 -0.1345
 6141SOL    HW129882   2.738   3.365   3.209 -0.9494 -0.3589 -1.2566
 6141SOL    HW229883   2.793   3.389   3.077 -0.0784 -0.1599 -0.2390
 6142SOL     OW29884   3.220   3.474   8.300 -0.5290 -0.3428  0.1402
 6142SOL    HW129885   3.186   3.403   8.246 -0.5174 -0.8341  0.7955
 6142SOL    HW229886   3.299   3.493   8.248 -2.6655  2.4781 -2.0640
 6143SOL     OW29887   2.993   0.853   4.084  0.1177  0.3072 -0.2639
 6143SOL    HW129888   2.925   0.912   4.051 -0.2026  0.6168  0.9536
 6143SOL    HW229889   3.072   0.901   4.057 -0.4495 -0.5821 -3.5228
 6144SOL     OW29890   2.397   0.313   5.016 -0.9661  0.2008  0.0565
 6144SOL    HW129891   2.364   0.403   5.016 -1.5280  0.0004 -1.4767
 6144SOL    HW229892   2.328   0.270   5.067 -1.4047  0.6189 -0.1847
 6145SOL     OW29893   4.415   4.467   7.117 -0.4791  0.3702  0.1834
 6145SOL    HW129894   4.346   4.496   7.178  0.4619 -0.6045  1.6998
 6145SOL    HW229895   4.377   4.396   7.066  0.4564  0.8850 -1.2042
 6146SOL     OW29896   0.620   1.777  15.690  0.3089  0.0427 -0.3474
 6146SOL    HW129897   0.599   1.696  15.644  0.9961  1.4117 -3.0500
 6146SOL    HW229898   0.622   1.834  15.613 -0.3246 -0.1417 -0.5044
 6147SOL     OW29899   1.220   3.226   7.802 -0.1633  0.0091  0.1402
 6147SOL    HW129900   1.300   3.274   7.822 -0.5527  0.2322  1.1865
 6147SOL    HW229901   1.263   3.140   7.805  0.9302  0.5821  0.5142
 6148SOL     OW29902   4.281   1.948   1.435  0.1019  0.0394  0.5611
 6148SOL    HW129903   4.253   1.858   1.417  1.7454 -0.9017  2.7095
 6148SOL    HW229904   4.270   1.968   1.528 -1.3888 -2.3919  0.8931
 6149SOL     OW29905   1.290   1.622  14.643  0.1249 -0.8468 -0.1921
 6149SOL    HW129906   1.292   1.610  14.549 -2.1706 -1.2777 -0.1884
 6149SOL    HW229907   1.302   1.534  14.678 -0.1392 -0.7699  0.0951
 6150SOL     OW29908   0.183   1.346  14.287 -0.4245 -0.1431 -0.4372
 6150SOL    HW129909   0.128   1.411  14.245 -1.7063  0.7882  2.7130
 6150SOL    HW229910   0.198   1.278  14.221  0.9065  1.6814 -2.0259
 6151SOL     OW29911   1.139   3.143  11.369  0.5142 -0.5974 -0.0031
 6151SOL    HW129912   1.202   3.215  11.372 -1.7255  1.5326 -3.2421
 6151SOL    HW229913   1.109   3.154  11.278  1.5885  1.4724 -0.0934
 6152SOL     OW29914   2.254   0.435  16.711 -0.2222 -0.1497 -0.7207
 6152SOL    HW129915   2.180   0.449  16.653 -0.1303 -3.4388 -1.6308
 6152SOL    HW229916   2.207   0.403  16.789  2.5527 -2.4799  0.0052
 6153SOL     OW29917   0.505   4.544   8.583  0.6031  0.1930 -0.3037
 6153SOL    HW129918   0.478   4.523   8.672  2.0363 -0.2670  0.0339
 6153SOL    HW229919   0.428   4.528   8.529  1.5685 -0.9931 -1.3564
 6154SOL     OW29920   2.480   4.680  16.786  0.0066 -0.2230  0.3967
 6154SOL    HW129921   2.440   4.593  16.792  0.7156 -0.5183  0.8381
 6154SOL    HW229922   2.417   0.009  16.838 -0.1241 -1.9041  1.8321
 6155SOL     OW29923   4.565   2.034   9.090 -0.4834 -0.3203 -0.5793
 6155SOL    HW129924   4.610   2.105   9.044  1.1324 -1.2487 -0.4600
 6155SOL    HW229925   4.516   2.089   9.151  1.2234 -1.3817  1.7486
 6156SOL     OW29926   0.946   2.807   2.977 -0.0291 -0.5231  0.0632
 6156SOL    HW129927   0.934   2.856   3.059  0.2571 -0.1487 -0.1182
 6156SOL    HW229928   0.974   2.870   2.911  0.8539 -0.3418  0.6102
 6157SOL     OW29929   0.127   2.255   8.316  0.3252  0.2290  0.2854
 6157SOL    HW129930   0.081   2.282   8.395 -1.0458  0.3736 -0.5701
 6157SOL    HW229931   0.124   2.340   8.272 -2.8111 -0.4309 -0.7662
 6158SOL     OW29932   2.966   4.248   6.500 -0.3796  0.4976  0.0099
 6158SOL    HW129933   2.919   4.214   6.424  1.5439  1.2548 -1.5163
 6158SOL    HW229934   2.969   4.341   6.480  0.0543  0.2266 -1.1757
 6159SOL     OW29935   2.311   1.234  13.948  0.5621  0.2589  0.0644
 6159SOL    HW129936   2.263   1.153  13.959  0.1647  0.2804 -1.4801
 6159SOL    HW229937   2.346   1.227  13.858 -0.8540 -1.7444 -0.3105
 6160SOL     OW29938   4.001   2.047   2.987 -0.4424  0.2772  0.6155
 6160SOL    HW129939   4.082   2.094   3.002  0.5282 -0.8066 -1.1214
 6160SOL    HW229940   4.037   1.979   2.930  3.3641  1.8883  1.1083
 6161SOL     OW29941   2.593   1.553  10.211  0.7619 -0.1505  0.1343
 6161SOL    HW129942   2.529   1.482  10.210  0.5220  0.0532  0.7139
 6161SOL    HW229943   2.671   1.508  10.246  0.0024 -2.1388 -0.7561
 6162SOL     OW29944   1.196   4.483   0.263  0.4189 -0.5516 -0.5803
 6162SOL    HW129945   1.287   4.468   0.236  0.6939 -0.2531  0.1720
 6162SOL    HW229946   1.210   4.555   0.324 -1.7127  0.1951 -0.9908
 6163SOL     OW29947   0.335   2.907   6.508  0.1543  0.3244  0.1273
 6163SOL    HW129948   0.382   2.837   6.462  0.1197  0.2832  0.1541
 6163SOL    HW229949   0.387   2.904   6.588  1.6502  3.3727 -0.7554
 6164SOL     OW29950   4.158   3.512   8.163  0.2656  0.0697 -0.0527
 6164SOL    HW129951   4.166   3.491   8.256  0.6007 -2.6082 -0.6924
 6164SOL    HW229952   4.063   3.511   8.151  0.3211  0.0964 -0.4847
 6165SOL     OW29953   0.503   0.719   6.580  0.1022  0.0458 -0.4831
 6165SOL    HW129954   0.458   0.640   6.550 -0.5853 -0.1928  1.2275
 6165SOL    HW229955   0.596   0.710   6.559 -0.1741 -1.3084 -1.0942
 6166SOL     OW29956   0.912   2.300   6.257  0.5318 -0.2046  0.1172
 6166SOL    HW129957   0.850   2.287   6.186  0.0912 -2.0807  0.8344
 6166SOL    HW229958   0.860   2.349   6.321  1.7069  0.5554  0.4918
 6167SOL     OW29959   0.937   4.048   9.048 -0.3654 -0.2217 -0.1566
 6167SOL    HW129960   0.942   4.144   9.045  1.3376 -0.2963  0.5295
 6167SOL    HW229961   0.941   4.039   9.143 -1.0187 -2.8179 -0.3861
 6168SOL     OW29962   3.761   1.611   3.013 -0.4157  0.0397  0.0091
 6168SOL    HW129963   3.692   1.672   3.041 -1.1023 -1.9337  2.5554
 6168SOL    HW229964   3.810   1.592   3.093 -1.8890 -0.1329  0.8740
 6169SOL     OW29965   3.343   2.712   3.721  0.0814  0.5748 -0.0600
 6169SOL    HW129966   3.276   2.689   3.656  2.2104  0.6375 -2.2621
 6169SOL    HW229967   3.388   2.786   3.680  2.1375 -1.5910 -1.6440
 6170SOL     OW29968   4.374   1.367   1.618  0.0269 -0.0913  0.1643
 6170SOL    HW129969   4.408   1.433   1.678  0.5736 -0.9795  0.8429
 6170SOL    HW229970   4.301   1.408   1.572  1.1706  2.8926  1.0024
 6171SOL     OW29971   4.233   0.967   0.170 -0.2584  0.4525  0.2256
 6171SOL    HW129972   4.149   1.010   0.157  0.2364  1.1333 -0.6687
 6171SOL    HW229973   4.246   0.988   0.263  1.0775 -0.4841  0.2564
 6172SOL     OW29974   2.930   0.997  13.234 -1.0236 -0.1223 -0.1486
 6172SOL    HW129975   2.940   1.086  13.268 -1.8045  0.2275 -0.8317
 6172SOL    HW229976   2.848   0.997  13.184 -1.2357  1.3021  0.2124
 6173SOL     OW29977   3.042   4.078   4.583 -0.2094 -0.3732 -0.1038
 6173SOL    HW129978   3.088   4.056   4.502 -0.5935  0.8584 -0.6644
 6173SOL    HW229979   3.119   4.125   4.616  0.5242  0.1515 -2.4999
 6174SOL     OW29980   1.841   4.675   0.711 -0.6647  0.8348  0.5711
 6174SOL    HW129981   1.845   0.002   0.793  0.1432 -1.5953  1.9416
 6174SOL    HW229982   1.922   4.624   0.708 -1.4333 -0.3249 -0.8405
 6175SOL     OW29983   2.294   3.245   8.099  0.4348  0.4437 -0.0101
 6175SOL    HW129984   2.208   3.210   8.076  0.9033  0.2718 -1.5194
 6175SOL    HW229985   2.295   3.250   8.194 -1.5692  0.6029  0.0055
 6176SOL     OW29986   2.152   2.394   3.779 -0.3654  0.1162  0.4137
 6176SOL    HW129987   2.104   2.332   3.724 -1.8248  3.9504 -2.6646
 6176SOL    HW229988   2.082   2.459   3.784 -0.8390 -0.1666 -2.2611
 6177SOL     OW29989   3.645   1.785   5.970 -0.7479  0.6672  0.4787
 6177SOL    HW129990   3.725   1.781   6.024 -0.3922 -0.4516 -0.1260
 6177SOL    HW229991   3.689   1.834   5.900 -1.0364  2.3657  1.4902
 6178SOL     OW29992   4.266   4.246   6.412  0.0265 -0.1774 -0.4385
 6178SOL    HW129993   4.280   4.238   6.317 -1.4817 -1.6840 -0.5496
 6178SOL    HW229994   4.321   4.319   6.438 -1.7699  1.0325  0.0129
 6179SOL     OW29995   3.035   3.801   3.214  0.2705 -0.4732  0.0971
 6179SOL    HW129996   3.001   3.753   3.138  0.2553  0.6274 -0.5883
 6179SOL    HW229997   2.947   3.812   3.251 -0.2073 -0.4730 -1.0302
 6180SOL     OW29998   3.599   4.647   0.939 -0.3362 -0.2929  1.1230
 6180SOL    HW129999   3.600   4.707   0.865 -1.4331  2.6881  3.5246
 6180SOL    HW230000   3.564   4.565   0.903 -0.3030 -1.7810  4.4220
 6181SOL     OW30001   3.727   4.654   6.939  0.0993  0.2420  0.0629
 6181SOL    HW130002   3.639   4.688   6.954  0.1657  0.4263  0.0269
 6181SOL    HW230003   3.705   4.567   6.905 -0.3643  0.7378 -0.9182
 6182SOL     OW30004   0.222   4.698  11.689  0.6224 -0.2760  0.4200
 6182SOL    HW130005   0.261   4.718  11.604  2.2750  0.5176  1.3621
 6182SOL    HW230006   0.178   4.618  11.659 -1.3303  0.5637  1.0353
 6183SOL     OW30007   0.287   4.528   1.399 -0.2851 -0.3531 -0.0995
 6183SOL    HW130008   0.275   4.438   1.366  0.1645 -1.1575  1.9490
 6183SOL    HW230009   0.364   4.514   1.455  0.0370  1.1072 -0.1740
 6184SOL     OW30010   2.720   1.438  17.526  0.1530  0.2121 -0.0712
 6184SOL    HW130011   2.651   1.504  17.530  1.0200  1.1829 -0.9801
 6184SOL    HW230012   2.779   1.454  17.600 -0.4404 -0.6914  0.5847
 6185SOL     OW30013   1.165   1.916   4.770  0.0252 -0.2417 -0.0408
 6185SOL    HW130014   1.143   2.009   4.760 -0.8636 -0.8546 -3.9925
 6185SOL    HW230015   1.170   1.885   4.680 -0.9784 -0.8169  0.0985
 6186SOL     OW30016   4.547   0.024   3.508  0.2375  0.0954 -0.2500
 6186SOL    HW130017   4.588   0.025   3.595 -0.5663 -0.9530  0.1367
 6186SOL    HW230018   4.605   4.693   3.451  1.0111  1.3834 -0.6169
 6187SOL     OW30019   0.966   4.330   8.965 -0.0104  0.1479  0.1471
 6187SOL    HW130020   0.975   4.316   8.871 -3.9862 -0.1900 -0.1954
 6187SOL    HW230021   0.876   4.364   8.973 -0.1207 -0.1461  0.1686
 6188SOL     OW30022   3.141   2.168   0.746 -0.0742  0.1033  0.2268
 6188SOL    HW130023   3.109   2.173   0.836  3.8976 -3.0379  1.8400
 6188SOL    HW230024   3.219   2.112   0.751  0.8206  1.3048 -0.5729
 6189SOL     OW30025   2.326   2.496  13.584 -0.4269  0.2281 -0.1402
 6189SOL    HW130026   2.371   2.504  13.500 -0.7492 -0.1265 -0.3489
 6189SOL    HW230027   2.396   2.450  13.631  1.2207  1.5811 -1.2425
 6190SOL     OW30028   2.535   1.219   5.813 -0.3059 -0.6017 -0.3884
 6190SOL    HW130029   2.622   1.247   5.840 -0.6245 -1.6185  1.7688
 6190SOL    HW230030   2.554   1.138   5.766  0.2212 -1.6536  1.6290
 6191SOL     OW30031   1.973   4.167   9.809  0.3334 -0.5173 -0.0722
 6191SOL    HW130032   1.963   4.241   9.868  0.1440 -0.4829 -0.1493
 6191SOL    HW230033   1.945   4.102   9.874  0.1474 -0.4522 -0.0882
 6192SOL     OW30034   3.307   0.339   0.429  0.3327 -0.5606 -0.5939
 6192SOL    HW130035   3.299   0.328   0.334  0.9800  0.1587 -0.7269
 6192SOL    HW230036   3.341   0.254   0.458 -0.7498 -0.6908  0.3152
 6193SOL     OW30037   4.292   0.572   0.719 -0.2245 -0.0565 -0.5555
 6193SOL    HW130038   4.370   0.626   0.703  0.4561 -0.4080  1.5007
 6193SOL    HW230039   4.231   0.615   0.660 -0.3843 -1.7171 -1.6089
 6194SOL     OW30040   0.377   3.686   9.607  0.9233  0.5379 -0.0164
 6194SOL    HW130041   0.299   3.742   9.612  0.5734  0.1985 -1.5930
 6194SOL    HW230042   0.346   3.595   9.604 -0.0793  0.8993 -0.7952
 6195SOL     OW30043   2.776   0.798   1.589 -0.5284 -0.1840 -0.4269
 6195SOL    HW130044   2.800   0.841   1.506 -0.6150 -0.1484 -0.4334
 6195SOL    HW230045   2.849   0.825   1.644  1.1176 -4.3468 -0.5620
 6196SOL     OW30046   2.924   2.979  15.055 -0.2178  0.2053 -0.0255
 6196SOL    HW130047   2.967   2.952  15.136  0.4665 -0.9548 -0.7821
 6196SOL    HW230048   2.928   3.074  15.071 -1.2070 -0.5621  4.8941
 6197SOL     OW30049   2.626   3.791   2.949 -0.1828 -0.2933  0.1338
 6197SOL    HW130050   2.624   3.822   3.040 -1.7012  0.2485 -0.0788
 6197SOL    HW230051   2.533   3.793   2.927  0.2425  1.3750 -1.5396
 6198SOL     OW30052   0.017   1.711  12.031  0.2204  0.3261 -0.6531
 6198SOL    HW130053   0.033   1.783  12.093  0.5275 -0.5273  0.2681
 6198SOL    HW230054   0.051   1.632  12.073 -0.7687  0.1660 -0.1468
 6199SOL     OW30055   1.071   0.737   1.909  0.3422 -0.2567 -0.0421
 6199SOL    HW130056   1.106   0.648   1.913  0.2510 -0.2540  0.6930
 6199SOL    HW230057   0.980   0.717   1.931  0.4080  1.1102  1.4474
 6200SOL     OW30058   2.882   3.897   6.616  0.1611 -0.5823  0.4901
 6200SOL    HW130059   2.842   3.886   6.702 -1.8210 -1.4244 -0.5354
 6200SOL    HW230060   2.809   3.938   6.568  1.8138  1.3157 -0.3950
 6201SOL     OW30061   2.199   0.989   4.572  0.0121  0.4713  0.3554
 6201SOL    HW130062   2.155   1.069   4.545  1.7644  1.8194  1.4746
 6201SOL    HW230063   2.280   0.993   4.520 -1.6569 -1.9936 -2.4496
 6202SOL     OW30064   1.824   1.491   6.103  0.4565  0.2080  0.8099
 6202SOL    HW130065   1.771   1.518   6.029  2.0072  0.4058 -0.2288
 6202SOL    HW230066   1.804   1.397   6.099  1.6631  0.0611 -1.8181
 6203SOL     OW30067   0.941   2.711  10.831  0.7423 -0.2880  0.1940
 6203SOL    HW130068   0.966   2.669  10.749 -0.6725  2.4104 -1.6071
 6203SOL    HW230069   0.970   2.642  10.891 -3.9492 -0.2206  2.5565
 6204SOL     OW30070   0.818   2.376   7.754  0.4837  0.1240  1.5014
 6204SOL    HW130071   0.842   2.319   7.827  0.3091 -0.9922  0.6893
 6204SOL    HW230072   0.898   2.372   7.700 -0.4133  0.9117  0.1048
 6205SOL     OW30073   0.032   4.238   7.999  0.0487 -0.1014 -0.5111
 6205SOL    HW130074   0.006   4.269   8.086 -0.5151  1.3908 -1.2319
 6205SOL    HW230075   4.720   4.148   8.001  0.5012 -0.2527  0.5434
 6206SOL     OW30076   4.529   0.386   8.974 -0.1796 -0.0989  0.1266
 6206SOL    HW130077   4.436   0.366   8.988 -0.4805  1.1394 -0.0433
 6206SOL    HW230078   4.556   0.295   8.964 -1.3063 -0.6639  2.2998
 6207SOL     OW30079   0.547   2.441  17.248 -0.0189 -0.2012 -0.0336
 6207SOL    HW130080   0.532   2.479  17.334  0.1714  2.1888 -1.0452
 6207SOL    HW230081   0.631   2.480  17.220 -1.3248  1.2628 -1.9175
 6208SOL     OW30082   2.066   1.019   5.717  0.3990  0.0287 -0.2718
 6208SOL    HW130083   2.125   1.091   5.739 -1.1874  0.3746  2.9876
 6208SOL    HW230084   2.103   1.001   5.631 -1.2877  1.6405 -1.3329
 6209SOL     OW30085   4.638   4.074   3.542  0.1428 -0.3602  0.4262
 6209SOL    HW130086   4.682   4.159   3.551  1.5063 -1.0880  0.7569
 6209SOL    HW230087   4.690   4.017   3.599  0.7369  1.3548  1.5945
 6210SOL     OW30088   0.108   1.479   3.169 -0.6838 -0.3118 -0.0659
 6210SOL    HW130089   0.157   1.423   3.229 -0.5066  1.3360  1.3320
 6210SOL    HW230090   0.031   1.422   3.168  0.4241 -1.8141 -0.6613
 6211SOL     OW30091   4.141   1.689   0.830  0.3131 -0.1371  0.2897
 6211SOL    HW130092   4.063   1.633   0.829  0.9954 -1.0670 -0.4946
 6211SOL    HW230093   4.102   1.776   0.841  0.4852 -0.0952  0.5662
 6212SOL     OW30094   2.672   2.556  16.802  0.3227  0.2470  0.4484
 6212SOL    HW130095   2.704   2.466  16.812 -1.7822 -0.7557 -1.8490
 6212SOL    HW230096   2.577   2.561  16.804  0.4378  2.7535  0.0280
 6213SOL     OW30097   4.383   4.143   3.434  0.1761  0.0446 -0.1115
 6213SOL    HW130098   4.318   4.209   3.458 -0.9988 -1.0393 -0.3321
 6213SOL    HW230099   4.459   4.185   3.474  1.3150  0.2475 -2.4386
 6214SOL     OW30100   4.703   0.400  17.075 -0.2796 -0.1687 -0.1605
 6214SOL    HW130101   0.075   0.391  17.053 -0.1354 -0.1073  0.4196
 6214SOL    HW230102   4.673   0.358  16.995 -0.4471 -0.1793 -0.0939
 6215SOL     OW30103   0.091   3.641   7.905 -0.2198  0.4146  0.2049
 6215SOL    HW130104   0.010   3.685   7.933  0.6354  0.8773  1.9321
 6215SOL    HW230105   0.070   3.664   7.814 -2.2010  1.8310  1.0168
 6216SOL     OW30106   3.476   3.155   4.821 -0.2946  0.6088  0.5727
 6216SOL    HW130107   3.411   3.093   4.788 -0.1177  2.8757 -3.9366
 6216SOL    HW230108   3.446   3.231   4.771 -1.2026  1.7068  2.7631
 6217SOL     OW30109   3.405   1.935   3.667  0.4464  0.2631  0.1185
 6217SOL    HW130110   3.497   1.946   3.693  0.0077  2.6998  0.6510
 6217SOL    HW230111   3.364   1.958   3.750  0.4754 -1.0016  0.4792
 6218SOL     OW30112   3.141   0.892   0.743 -0.4179  0.3152 -0.4325
 6218SOL    HW130113   3.133   0.838   0.822 -1.6866 -2.2196 -2.2819
 6218SOL    HW230114   3.222   0.939   0.760 -1.1618  1.4614 -0.0841
 6219SOL     OW30115   1.803   3.184   3.374  0.1746 -0.4588 -0.1554
 6219SOL    HW130116   1.726   3.232   3.404 -0.8315 -3.1657  1.5399
 6219SOL    HW230117   1.853   3.243   3.317 -1.8689  2.6653  1.2721
 6220SOL     OW30118   2.901   3.978   3.575  0.3081  0.7561 -0.0405
 6220SOL    HW130119   2.968   3.962   3.642  0.3607 -0.5702 -0.4083
 6220SOL    HW230120   2.849   3.900   3.595 -1.1730  1.4902 -1.0334
 6221SOL     OW30121   1.688   1.303  10.253 -0.1330 -0.7632  0.4621
 6221SOL    HW130122   1.737   1.309  10.335  1.8359 -1.0651 -0.6940
 6221SOL    HW230123   1.666   1.209  10.254 -0.3329 -0.7357 -1.9474
 6222SOL     OW30124   0.568   0.014   1.616 -0.3738 -0.4590  0.0422
 6222SOL    HW130125   0.663   0.016   1.609 -0.2170  0.5902  2.4582
 6222SOL    HW230126   0.550   4.686   1.697  0.9957 -1.8009 -0.4552
 6223SOL     OW30127   0.652   1.082  14.518  0.9646 -0.1299 -0.3305
 6223SOL    HW130128   0.618   1.039  14.596 -1.5384  2.5156 -0.0046
 6223SOL    HW230129   0.687   1.166  14.549  0.2661  0.9170 -2.4248
 6224SOL     OW30130   3.132   1.714   7.109  0.7216  0.1079  0.3234
 6224SOL    HW130131   3.069   1.698   7.180  2.5039  2.5259  2.4192
 6224SOL    HW230132   3.161   1.629   7.077  0.3436 -0.0926  0.5120
 6225SOL     OW30133   4.583   1.273   0.568  0.1765  0.5458  0.5557
 6225SOL    HW130134   4.655   1.328   0.597  0.1000  1.4555 -1.0061
 6225SOL    HW230135   4.609   1.258   0.477 -0.6274  3.9480 -0.2318
 6226SOL     OW30136   0.152   3.655   0.489  0.1471  0.1078  0.5649
 6226SOL    HW130137   0.242   3.653   0.458 -0.2427  1.5039 -0.6703
 6226SOL    HW230138   0.157   3.616   0.576  0.9945 -1.3350 -0.1401
 6227SOL     OW30139   2.309   4.526   7.251 -0.3045 -0.3422 -0.0122
 6227SOL    HW130140   2.347   4.614   7.248 -1.0468 -0.0715 -1.2509
 6227SOL    HW230141   2.375   4.475   7.298  0.1123  0.0195 -0.2056
 6228SOL     OW30142   3.819   4.007   4.483 -0.4589  0.1461 -0.6072
 6228SOL    HW130143   3.826   4.093   4.441  0.9712 -0.5388 -1.7693
 6228SOL    HW230144   3.826   3.956   4.403  0.1477 -2.4975  1.1274
 6229SOL     OW30145   4.282   2.494   3.465 -0.0038 -0.0458 -0.2997
 6229SOL    HW130146   4.339   2.563   3.433  1.9071 -1.9418 -1.0339
 6229SOL    HW230147   4.316   2.464   3.549  1.1253 -0.7595 -0.9931
 6230SOL     OW30148   4.695   2.038   1.492 -0.1744 -0.2305  0.7837
 6230SOL    HW130149   0.027   1.959   1.479  1.3627  0.9356 -0.2122
 6230SOL    HW230150   4.661   2.062   1.406  1.9251 -1.1738 -0.3008
 6231SOL     OW30151   4.274   3.995  14.375  0.2482 -0.3702  0.1707
 6231SOL    HW130152   4.226   3.915  14.353 -0.6606 -0.4989  2.6688
 6231SOL    HW230153   4.340   3.941  14.419 -0.7953 -0.3179  1.8023
 6232SOL     OW30154   2.344   1.108   4.082  0.0085  0.6450  0.2821
 6232SOL    HW130155   2.277   1.175   4.065  1.4283  2.2351  0.9262
 6232SOL    HW230156   2.362   1.132   4.173 -0.0049 -2.0132  0.9810
 6233SOL     OW30157   0.126   2.137   9.535  0.4113  0.0256  0.1028
 6233SOL    HW130158   0.159   2.168   9.451  1.1600  0.4245  0.5463
 6233SOL    HW230159   0.175   2.054   9.538  0.6850  0.2312  1.2438
 6234SOL     OW30160   1.558   1.791   4.165  0.1764 -0.1835 -0.9554
 6234SOL    HW130161   1.580   1.698   4.159 -0.3652 -0.4223  0.7236
 6234SOL    HW230162   1.483   1.782   4.106 -1.4719  0.0864  1.1059
 6235SOL     OW30163   0.569   3.235   1.486  0.1187  0.0740  0.2103
 6235SOL    HW130164   0.477   3.226   1.460  0.3720 -0.9257 -0.3390
 6235SOL    HW230165   0.606   3.301   1.428  0.5887 -0.3588  0.0108
 6236SOL     OW30166   1.880   2.241   7.941  0.2768 -0.3918 -0.1454
 6236SOL    HW130167   1.893   2.334   7.960 -0.8328  0.0944 -1.7124
 6236SOL    HW230168   1.968   2.211   7.963  0.7685  0.9253 -0.2892
 6237SOL     OW30169   1.796   4.029   7.968 -0.1649  0.5231 -0.2162
 6237SOL    HW130170   1.827   4.119   7.962  0.9589  0.3104  2.3614
 6237SOL    HW230171   1.829   3.996   8.052 -1.1084  0.2826  0.0556
 6238SOL     OW30172   2.877   4.699  16.409 -0.7389 -0.3130  0.2148
 6238SOL    HW130173   2.794   0.014  16.378 -0.9627 -0.2850  0.8323
 6238SOL    HW230174   2.847   4.668  16.495 -1.2289 -1.7153 -0.4646
 6239SOL     OW30175   4.676   3.142  13.965 -0.4437  0.0635 -0.2635
 6239SOL    HW130176   0.047   3.163  13.947 -0.1204 -0.8464  0.2571
 6239SOL    HW230177   4.640   3.230  13.962 -1.5549 -0.3651  0.2368
 6240SOL     OW30178   2.613   2.307   7.086 -0.2140 -0.3167  0.3468
 6240SOL    HW130179   2.652   2.282   7.170  1.0669  1.2296  0.2218
 6240SOL    HW230180   2.613   2.402   7.098 -0.8944 -0.0385 -1.9297
 6241SOL     OW30181   0.857   3.706  16.560 -0.6164  0.0520 -0.0566
 6241SOL    HW130182   0.898   3.701  16.646  0.9898  0.0916 -0.8236
 6241SOL    HW230183   0.813   3.791  16.561  0.9495  0.8232  2.6944
 6242SOL     OW30184   3.845   1.646   2.757  0.3741 -0.2972  0.6673
 6242SOL    HW130185   3.939   1.642   2.737  0.3519  1.6766  0.1803
 6242SOL    HW230186   3.846   1.648   2.852 -1.9889 -2.4300  0.7521
 6243SOL     OW30187   3.078   0.405   5.014 -0.3130 -0.0896  0.4201
 6243SOL    HW130188   3.054   0.488   5.056  1.6368 -0.2547  1.8166
 6243SOL    HW230189   3.033   0.339   5.067  2.7567 -2.1845  0.4015
 6244SOL     OW30190   3.893   1.849   3.586  0.0856  0.5890  0.0269
 6244SOL    HW130191   3.951   1.774   3.604  1.3666  1.5606 -0.0501
 6244SOL    HW230192   3.897   1.857   3.490  1.1290  1.9782  0.1875
 6245SOL     OW30193   0.742   1.464   2.839 -0.1522 -0.0378 -0.7438
 6245SOL    HW130194   0.829   1.493   2.868 -0.3768 -1.8780  1.8048
 6245SOL    HW230195   0.759   1.401   2.770 -0.9349 -1.6519  0.5260
 6246SOL     OW30196   2.422   4.423  15.753 -0.1900 -0.4388 -0.1110
 6246SOL    HW130197   2.340   4.456  15.789  0.2900  0.0478  0.5243
 6246SOL    HW230198   2.449   4.498  15.700 -0.0416  1.2539  2.4017
 6247SOL     OW30199   0.593   2.746   3.149  0.1275  0.4078  0.2350
 6247SOL    HW130200   0.679   2.787   3.159  0.0818  1.1388 -2.2274
 6247SOL    HW230201   0.604   2.688   3.073  1.2086  2.8788 -1.4799
 6248SOL     OW30202   2.844   2.942   0.833 -0.0324  0.5260 -0.1871
 6248SOL    HW130203   2.867   3.022   0.881  1.3149  0.6786 -1.0612
 6248SOL    HW230204   2.750   2.952   0.823 -0.5238 -1.4535  2.4645
 6249SOL     OW30205   4.062   2.453   4.078 -0.1251  0.8062  0.4841
 6249SOL    HW130206   3.977   2.454   4.033  0.7370  1.3766 -1.1277
 6249SOL    HW230207   4.090   2.537   4.043 -0.0162 -0.4826 -2.5672
 6250SOL     OW30208   3.387   4.208   2.718  0.4119  0.1380  0.4272
 6250SOL    HW130209   3.466   4.154   2.723  1.0272  1.1217  1.2261
 6250SOL    HW230210   3.350   4.188   2.631  4.1799 -0.3523 -1.0399
 6251SOL     OW30211   2.115   4.620  16.630 -0.2110 -0.4536 -0.5062
 6251SOL    HW130212   2.056   4.678  16.678 -0.5341 -1.1158 -0.0953
 6251SOL    HW230213   2.058   4.572  16.569  0.2829  0.0163 -1.3368
 6252SOL     OW30214   1.891   3.931   4.829 -0.2068 -0.1131 -0.5789
 6252SOL    HW130215   1.903   3.969   4.742 -0.0776 -1.3728 -1.1178
 6252SOL    HW230216   1.891   4.011   4.882 -2.9189  0.8141 -1.9895
 6253SOL     OW30217   4.535   3.164   6.396  0.3445  0.3416  0.8998
 6253SOL    HW130218   4.535   3.254   6.362  0.4833 -0.7880 -2.0724
 6253SOL    HW230219   4.450   3.129   6.373  1.4649 -3.0774  1.9788
 6254SOL     OW30220   1.782   0.527  14.029  0.3130 -0.3696 -0.0246
 6254SOL    HW130221   1.771   0.445  13.980  1.4478 -0.0503 -0.8229
 6254SOL    HW230222   1.877   0.519  14.039  0.3133  0.7493  0.8618
 6255SOL     OW30223   1.994   0.255  13.858  0.5720 -0.6104  0.6583
 6255SOL    HW130224   2.043   0.328  13.896 -0.7190  0.2486  0.6665
 6255SOL    HW230225   2.049   0.218  13.789  0.9116  1.2837 -0.1023
 6256SOL     OW30226   1.970   0.221  12.658  0.3814  0.0946 -0.4453
 6256SOL    HW130227   2.051   0.200  12.704 -0.3752 -0.5127  0.6068
 6256SOL    HW230228   1.900   0.216  12.723  1.1634 -1.2428  0.2934
 6257SOL     OW30229   3.533   0.120   6.957 -0.1643  0.0130  0.4441
 6257SOL    HW130230   3.439   0.130   6.941  0.0332  0.6868 -0.2425
 6257SOL    HW230231   3.532   0.116   7.053  0.4875 -2.2200  0.3622
 6258SOL     OW30232   0.097   2.786   2.083 -0.0074 -0.3491 -0.1677
 6258SOL    HW130233   0.134   2.705   2.119  0.1673 -0.6238 -0.9665
 6258SOL    HW230234   0.179   2.832   2.067  0.6008 -1.2490  0.3908
 6259SOL     OW30235   1.644   1.223  17.540 -0.0521 -0.1602  0.1339
 6259SOL    HW130236   1.739   1.234  17.536 -0.0788 -0.1317 -0.4261
 6259SOL    HW230237   1.611   1.311  17.555  0.1754 -0.5392  2.9740
 6260SOL     OW30238   1.297   2.072   5.396 -0.2217  0.3798 -0.4189
 6260SOL    HW130239   1.378   2.092   5.442  0.9813 -1.6774 -1.6346
 6260SOL    HW230240   1.297   1.977   5.385  2.4409  0.3067  0.4043
 6261SOL     OW30241   0.968   1.666   8.476  0.8479  0.5372  0.8988
 6261SOL    HW130242   0.963   1.575   8.448  1.8491  0.5338  0.7282
 6261SOL    HW230243   1.046   1.654   8.530  1.4380 -1.9346 -0.4840
 6262SOL     OW30244   0.339   1.293  10.274  0.3054 -0.2602 -0.7354
 6262SOL    HW130245   0.393   1.276  10.197 -1.2883 -1.4087 -1.5767
 6262SOL    HW230246   0.276   1.352  10.233 -1.3394 -0.9557  0.7820
 6263SOL     OW30247   4.561   1.993   7.764  0.0402 -0.1066 -0.0662
 6263SOL    HW130248   4.577   2.031   7.850  0.7130  1.8325 -1.0387
 6263SOL    HW230249   4.613   2.051   7.709  1.1626 -0.8781  0.1968
 6264SOL     OW30250   1.804   3.262  11.690  0.0360  0.2682 -0.4407
 6264SOL    HW130251   1.797   3.317  11.767  2.8094 -3.0578  2.1886
 6264SOL    HW230252   1.882   3.210  11.709  1.1297  1.2060 -2.3377
 6265SOL     OW30253   2.946   0.995   3.719  0.2298 -0.1937 -0.5652
 6265SOL    HW130254   2.948   1.088   3.696  0.3442  0.0306  0.3775
 6265SOL    HW230255   2.995   0.957   3.646  1.4588  1.0157 -0.3750
 6266SOL     OW30256   4.670   3.847   6.437  0.3509 -0.1509  0.1681
 6266SOL    HW130257   4.578   3.824   6.454 -0.4856  1.5885 -1.9566
 6266SOL    HW230258   4.710   3.763   6.460  1.5219  0.1603 -0.7349
 6267SOL     OW30259   0.669   3.448   7.614 -0.0935  0.0797  0.4388
 6267SOL    HW130260   0.656   3.533   7.656  3.4210  0.5193  0.6895
 6267SOL    HW230261   0.628   3.392   7.681  1.9611 -1.3797  0.5058
 6268SOL     OW30262   1.106   2.526   3.715  0.7154  0.0179 -0.2139
 6268SOL    HW130263   1.044   2.594   3.740 -2.4514 -2.8529 -0.2621
 6268SOL    HW230264   1.059   2.453   3.755  2.1038 -1.2094 -0.8123
 6269SOL     OW30265   1.333   3.344  11.412 -0.1080 -0.2258 -0.2942
 6269SOL    HW130266   1.368   3.397  11.340  0.5456  1.4255  1.2316
 6269SOL    HW230267   1.364   3.406  11.478  1.8098 -0.0083 -1.4059
 6270SOL     OW30268   1.858   1.106  14.734  0.1860  0.4356  0.2491
 6270SOL    HW130269   1.850   1.070  14.646 -1.9519 -0.2701  0.7177
 6270SOL    HW230270   1.938   1.156  14.720  0.5565 -0.1889  0.1942
 6271SOL     OW30271   1.499   0.377  15.155  0.3227  0.1554 -0.0819
 6271SOL    HW130272   1.536   0.457  15.194 -0.4975  0.3124  0.3726
 6271SOL    HW230273   1.530   0.316  15.221 -0.5592  1.2968  1.3794
 6272SOL     OW30274   0.361   1.647  13.504  0.9341  0.4317 -0.3487
 6272SOL    HW130275   0.347   1.741  13.515 -2.3226 -0.0555 -0.3846
 6272SOL    HW230276   0.300   1.622  13.435  1.0802  0.2153 -0.4000
 6273SOL     OW30277   4.085   1.338  15.400  0.3761  1.2384 -0.6856
 6273SOL    HW130278   4.139   1.270  15.439 -1.1740  0.0756 -0.5951
 6273SOL    HW230279   4.009   1.281  15.401  1.8093 -0.6171  0.7354
 6274SOL     OW30280   0.773   4.334  15.684 -0.3531  0.2174  0.1038
 6274SOL    HW130281   0.719   4.328  15.606 -0.7905  2.9584  0.2129
 6274SOL    HW230282   0.852   4.382  15.660 -2.1184  2.4497 -1.2017
 6275SOL     OW30283   4.453   3.739  10.044 -0.0412 -0.0435  0.2488
 6275SOL    HW130284   4.416   3.666  10.094  2.4371 -0.7515  1.0526
 6275SOL    HW230285   4.422   3.816  10.092 -3.0517 -0.9108 -0.2530
 6276SOL     OW30286   2.920   3.526   5.159  0.0076 -0.3474  0.1565
 6276SOL    HW130287   2.827   3.540   5.142 -0.0600  0.3297  1.0589
 6276SOL    HW230288   2.920   3.527   5.255  1.1088  0.1347  0.1622
 6277SOL     OW30289   2.706   4.270   7.919 -0.1476 -0.2453  0.6099
 6277SOL    HW130290   2.645   4.235   7.854 -0.0774  0.7175  0.0205
 6277SOL    HW230291   2.784   4.244   7.870 -0.9210  0.0370 -0.7742
 6278SOL     OW30292   3.992   3.059  13.712  0.2070 -0.3396 -0.2313
 6278SOL    HW130293   4.087   3.060  13.705  0.1859 -0.8599 -0.6339
 6278SOL    HW230294   3.965   3.043  13.622  1.7918  1.7062 -1.0656
 6279SOL     OW30295   1.911   1.390   8.336  0.2620  0.0106  0.0410
 6279SOL    HW130296   1.980   1.430   8.389  1.1689 -0.3149 -0.8974
 6279SOL    HW230297   1.959   1.383   8.254 -0.4855  0.4149 -0.4359
 6280SOL     OW30298   0.518   1.330  12.183 -0.0751 -0.3735 -0.5145
 6280SOL    HW130299   0.524   1.421  12.153 -0.6242  0.2750  1.3409
 6280SOL    HW230300   0.596   1.334  12.240 -0.4846  1.1737 -0.0631
 6281SOL     OW30301   0.821   3.694  11.607 -0.3603 -0.2570  0.0383
 6281SOL    HW130302   0.889   3.705  11.540 -0.3185  0.1805  0.1548
 6281SOL    HW230303   0.863   3.702  11.693 -2.2859  1.4371  0.8419
 6282SOL     OW30304   4.681   2.317   3.419  0.1439  0.3579 -0.0667
 6282SOL    HW130305   4.614   2.254   3.444  1.4562  0.2404  3.1946
 6282SOL    HW230306   0.037   2.261   3.405 -1.0336 -1.7173  1.7134
 6283SOL     OW30307   4.349   4.364  10.242 -0.5852  0.0720 -0.1519
 6283SOL    HW130308   4.400   4.327  10.314 -0.8037  0.0815  0.0080
 6283SOL    HW230309   4.370   4.295  10.179  1.3428 -0.0045  0.5821
 6284SOL     OW30310   3.970   3.422   7.709 -0.3320  0.1258 -0.8053
 6284SOL    HW130311   3.944   3.514   7.705  1.3675  0.5579 -1.8334
 6284SOL    HW230312   4.039   3.409   7.775  0.0230 -0.6749 -1.3418
 6285SOL     OW30313   2.986   3.671  17.331 -0.0724  0.0656  0.1892
 6285SOL    HW130314   3.035   3.595  17.298 -1.9410 -1.8584  1.8557
 6285SOL    HW230315   2.897   3.636  17.342 -0.6610  1.0682 -1.2353
 6286SOL     OW30316   1.077   3.246   1.947 -0.1674  0.2025  0.0751
 6286SOL    HW130317   1.098   3.159   1.911 -2.7510 -1.1333  1.8072
 6286SOL    HW230318   1.131   3.241   2.026  0.2288 -1.4116 -0.2767
 6287SOL     OW30319   1.015   0.881   4.646 -0.1674 -0.2802  0.1810
 6287SOL    HW130320   0.947   0.815   4.631  0.1315 -0.6638  0.4951
 6287SOL    HW230321   1.031   0.864   4.739  0.9313  2.4513  0.4784
 6288SOL     OW30322   1.839   1.142   7.740 -0.6368  0.1720  0.4835
 6288SOL    HW130323   1.781   1.103   7.674 -0.5103  0.5736  0.1308
 6288SOL    HW230324   1.793   1.223   7.763 -2.7363 -1.0386  0.5109
 6289SOL     OW30325   0.710   1.726  14.697  0.6708 -0.6785  0.1789
 6289SOL    HW130326   0.632   1.695  14.744  1.0427 -1.3375  0.3705
 6289SOL    HW230327   0.744   1.799  14.749  0.0009 -0.3043  0.0887
 6290SOL     OW30328   4.636   3.022   5.685 -0.4272  0.2050 -1.0224
 6290SOL    HW130329   4.679   3.038   5.601 -0.0224  1.3709 -0.6013
 6290SOL    HW230330   4.648   3.107   5.729 -1.1201  0.8470 -2.0691
 6291SOL     OW30331   0.879   0.079   5.790  0.0325 -0.1006  0.4183
 6291SOL    HW130332   0.943   0.065   5.720 -1.0751  0.4109 -0.6951
 6291SOL    HW230333   0.933   0.109   5.863 -0.4627  1.1074  0.2829
 6292SOL     OW30334   0.397   1.659   2.003  0.0706  0.1233  0.2953
 6292SOL    HW130335   0.389   1.722   1.932 -0.2791  0.7952  0.9240
 6292SOL    HW230336   0.304   1.657   2.027 -0.3623 -2.1319 -1.5451
 6293SOL     OW30337   2.512   3.250   3.338 -0.8967  0.0663 -0.4780
 6293SOL    HW130338   2.433   3.299   3.359 -1.0105  0.0495 -0.8818
 6293SOL    HW230339   2.528   3.288   3.252 -1.1163 -0.3382 -0.6965
 6294SOL     OW30340   1.481   1.063   5.504  0.0820  0.4646  0.1878
 6294SOL    HW130341   1.468   0.996   5.437  0.7004  1.5788 -1.0462
 6294SOL    HW230342   1.419   1.128   5.473 -1.9540 -0.8568  1.4649
 6295SOL     OW30343   4.537   1.585   2.403 -0.0193  0.3006  0.8099
 6295SOL    HW130344   4.530   1.545   2.316  2.2469 -1.0554  1.2344
 6295SOL    HW230345   4.451   1.626   2.408  0.2462  0.8581  0.7188
 6296SOL     OW30346   0.937   4.067   8.614  0.0863  0.5097  0.0865
 6296SOL    HW130347   0.924   4.013   8.692  3.4938 -3.1552 -1.8860
 6296SOL    HW230348   1.032   4.075   8.625  0.3600 -0.3892 -1.5985
 6297SOL     OW30349   1.955   3.663  11.734 -0.0591 -0.0991  0.2883
 6297SOL    HW130350   2.040   3.683  11.694 -0.8895  2.0322 -0.3660
 6297SOL    HW230351   1.974   3.659  11.828 -0.0588 -0.4240  0.2753
 6298SOL     OW30352   4.440   0.760   1.070 -0.2043 -0.2892  0.2749
 6298SOL    HW130353   4.428   0.827   1.003  0.6300 -0.3746  0.0363
 6298SOL    HW230354   4.534   0.756   1.089 -0.2112  1.1015  0.6027
 6299SOL     OW30355   2.503   3.353   5.852  0.2953  0.0779 -0.2344
 6299SOL    HW130356   2.410   3.330   5.849 -0.0825  1.4666  0.6094
 6299SOL    HW230357   2.506   3.394   5.938 -1.2285 -0.5654  0.1190
 6300SOL     OW30358   1.485   0.316   7.218 -0.5755  0.4555  0.5777
 6300SOL    HW130359   1.475   0.245   7.282 -1.5417 -1.2235 -1.4469
 6300SOL    HW230360   1.576   0.342   7.229  0.1612 -1.9450  0.0826
 6301SOL     OW30361   4.443   1.254  12.703  0.6679 -0.2897  0.7625
 6301SOL    HW130362   4.474   1.268  12.613 -0.1925 -1.5751  0.2595
 6301SOL    HW230363   4.355   1.290  12.689 -0.3917 -2.7772  0.8917
 6302SOL     OW30364   1.727   3.363   8.874  0.5934  0.1749  0.0940
 6302SOL    HW130365   1.647   3.385   8.921  1.0346 -1.3754  1.5771
 6302SOL    HW230366   1.782   3.333   8.947  1.4013  0.2834 -0.4704
 6303SOL     OW30367   0.292   0.347   1.852  0.2003  0.2454  0.3353
 6303SOL    HW130368   0.212   0.374   1.807  1.4492  0.8456 -1.5139
 6303SOL    HW230369   0.255   0.272   1.898 -0.2401  0.4092  0.2562
 6304SOL     OW30370   4.143   1.143  17.564  1.1967  0.2919 -0.0352
 6304SOL    HW130371   4.101   1.067  17.524 -1.1669  0.7659  1.6136
 6304SOL    HW230372   4.221   1.144  17.508 -0.1927 -0.1700 -1.9968
 6305SOL     OW30373   1.587   1.885   7.688  0.1316  0.1881 -0.0312
 6305SOL    HW130374   1.656   1.950   7.699  1.3963 -0.4662 -4.0128
 6305SOL    HW230375   1.625   1.810   7.734 -0.4745  0.0369  0.2248
 6306SOL     OW30376   4.449   1.791   1.265  0.1740  0.0712  0.6070
 6306SOL    HW130377   4.426   1.710   1.221 -0.1669  1.4373 -1.7244
 6306SOL    HW230378   4.396   1.781   1.344  0.6763 -1.0186  0.8009
 6307SOL     OW30379   1.032   1.495   2.537 -0.2259 -0.0025 -0.6446
 6307SOL    HW130380   1.015   1.436   2.610 -1.1425  0.6358 -0.3440
 6307SOL    HW230381   0.999   1.579   2.570 -0.9084 -0.5008 -0.0626
 6308SOL     OW30382   3.190   2.023   8.828 -0.1727  0.4816  0.3051
 6308SOL    HW130383   3.153   1.972   8.899  0.0739 -1.4460 -0.9489
 6308SOL    HW230384   3.227   2.100   8.870  0.9475  0.7896 -1.2073
 6309SOL     OW30385   1.507   4.009   3.029  0.2502 -0.1660  0.1929
 6309SOL    HW130386   1.483   3.984   2.940  1.1151 -0.6899  0.1141
 6309SOL    HW230387   1.486   3.930   3.078  0.3776 -0.3270 -0.0140
 6310SOL     OW30388   0.094   2.369   5.702  0.2126  0.4056 -0.4398
 6310SOL    HW130389   0.112   2.444   5.645  0.6814 -0.5178 -1.5108
 6310SOL    HW230390   0.101   2.411   5.788  0.5108 -0.8954  0.1719
 6311SOL     OW30391   0.423   3.005   2.465  0.3814  0.3279  0.1811
 6311SOL    HW130392   0.453   3.044   2.383  1.5834 -0.9507  0.0082
 6311SOL    HW230393   0.365   3.074   2.498 -1.2052 -1.6431  1.4614
 6312SOL     OW30394   1.662   3.812   2.622 -0.0429 -0.1501 -0.4492
 6312SOL    HW130395   1.640   3.890   2.570 -1.0159 -1.3055 -1.7408
 6312SOL    HW230396   1.752   3.839   2.642  0.2375 -0.5344 -1.2087
 6313SOL     OW30397   4.413   1.433   7.626  0.2479  0.2797 -0.4067
 6313SOL    HW130398   4.320   1.415   7.617 -0.1856  0.8960  2.8972
 6313SOL    HW230399   4.452   1.358   7.582  0.1489 -1.0510  1.7951
 6314SOL     OW30400   3.406   4.260   1.643  0.3913  0.2711 -0.3518
 6314SOL    HW130401   3.422   4.193   1.576  0.7381  1.5121 -1.5021
 6314SOL    HW230402   3.485   4.313   1.638  0.5237  0.1953  0.8931
 6315SOL     OW30403   0.058   1.937   6.326 -0.0399  1.0894  0.6297
 6315SOL    HW130404   0.097   2.011   6.278 -0.4085  1.2625  0.5917
 6315SOL    HW230405   0.004   1.980   6.392 -0.2047 -1.4428  2.1113
 6316SOL     OW30406   3.652   1.086   6.400 -0.1693  0.1129 -0.2138
 6316SOL    HW130407   3.664   1.103   6.494  0.0349  1.8097 -0.5368
 6316SOL    HW230408   3.665   0.992   6.394 -0.1448  0.0112  1.2865
 6317SOL     OW30409   2.096   0.098   0.523 -0.5368 -0.2705 -0.4361
 6317SOL    HW130410   2.120   0.083   0.432  0.0985  3.0416 -0.8242
 6317SOL    HW230411   2.143   0.021   0.554 -3.7422 -1.6480  1.0073
 6318SOL     OW30412   2.455   4.649   5.677  0.1791  0.5229  0.0207
 6318SOL    HW130413   2.458   4.697   5.760 -0.6178 -0.1833  0.4643
 6318SOL    HW230414   2.548   4.639   5.660  0.3549 -0.5850  1.5957
 6319SOL     OW30415   1.583   1.827  15.661  0.1386 -0.2951  0.5079
 6319SOL    HW130416   1.531   1.848  15.739 -0.8821 -1.8118  0.2294
 6319SOL    HW230417   1.662   1.879  15.677 -0.6443  0.3857  2.2321
 6320SOL     OW30418   2.184   0.318  13.197 -0.3759 -0.7220 -0.2465
 6320SOL    HW130419   2.181   0.403  13.152 -0.8217 -1.3513 -1.4268
 6320SOL    HW230420   2.273   0.288  13.182 -0.1253 -0.1577  0.1332
 6321SOL     OW30421   4.696   1.552   7.705 -0.0293 -0.2178  0.1284
 6321SOL    HW130422   0.018   1.539   7.620  1.2200 -0.1689  0.7559
 6321SOL    HW230423   4.669   1.461   7.723  0.0056 -0.6410 -1.9608
 6322SOL     OW30424   1.918   2.377   2.268  0.1909 -0.1516 -0.2698
 6322SOL    HW130425   1.900   2.306   2.208  0.0545 -0.6373  0.3442
 6322SOL    HW230426   2.004   2.347   2.296  0.3987 -0.6538 -1.4541
 6323SOL     OW30427   3.921   0.932   2.206 -0.7030  0.4021  0.1916
 6323SOL    HW130428   3.946   0.876   2.280  0.8668  1.4492  0.4749
 6323SOL    HW230429   3.862   0.873   2.160  1.3112 -0.2774 -1.5147
 6324SOL     OW30430   0.630   2.692   8.369  0.0680  0.4360 -0.3111
 6324SOL    HW130431   0.622   2.713   8.276 -0.0398  2.2022  0.0971
 6324SOL    HW230432   0.609   2.774   8.414  0.6406 -0.0027  0.7539
 6325SOL     OW30433   2.647   0.947   7.536 -0.0544  0.7794 -0.3119
 6325SOL    HW130434   2.668   0.867   7.584  1.0414  0.0904 -1.9386
 6325SOL    HW230435   2.702   0.935   7.459  0.4623  1.4091 -0.0404
 6326SOL     OW30436   0.432   3.718   8.743  0.3593 -0.5634 -0.1036
 6326SOL    HW130437   0.390   3.699   8.827 -0.3625  1.9676  0.1221
 6326SOL    HW230438   0.520   3.739   8.774  0.9523 -1.4616 -1.2085
 6327SOL     OW30439   1.116   3.364  15.173 -0.4142  0.5095  0.0236
 6327SOL    HW130440   1.100   3.273  15.198 -2.3168  0.5227 -1.1315
 6327SOL    HW230441   1.186   3.385  15.235 -0.6346  1.8329 -0.1785
 6328SOL     OW30442   0.789   3.033  11.356 -0.2764 -0.4840 -0.3309
 6328SOL    HW130443   0.869   3.074  11.390 -0.0224 -0.4390 -0.9960
 6328SOL    HW230444   0.818   2.968  11.293 -0.9601 -1.9220  0.8294
 6329SOL     OW30445   3.565   0.927  12.263 -0.8094  0.0505  0.1572
 6329SOL    HW130446   3.554   0.854  12.202  1.4873  0.8144 -1.1773
 6329SOL    HW230447   3.482   0.922  12.311 -0.0240 -0.9281  1.4110
 6330SOL     OW30448   1.103   2.561  14.726 -0.2640  0.1211  0.0572
 6330SOL    HW130449   1.170   2.594  14.666  0.1305 -0.8229 -0.0226
 6330SOL    HW230450   1.121   2.616  14.802  0.9349 -1.0275  0.6243
 6331SOL     OW30451   2.206   4.103   8.207 -0.0254 -0.1759 -0.4507
 6331SOL    HW130452   2.237   4.081   8.295  1.3193 -1.2112 -1.1721
 6331SOL    HW230453   2.249   4.185   8.186  0.1835  0.3806  2.1424
 6332SOL     OW30454   1.400   2.778   8.517  0.6367 -0.4669  0.6179
 6332SOL    HW130455   1.320   2.734   8.488 -0.2785  1.7904 -0.2949
 6332SOL    HW230456   1.424   2.712   8.581  3.3608 -0.1138 -0.0284
 6333SOL     OW30457   3.316   4.592   8.432  0.1103 -0.3637 -0.7313
 6333SOL    HW130458   3.277   4.530   8.494 -2.2074  0.1825 -1.6294
 6333SOL    HW230459   3.253   4.663   8.438  0.7581  0.1857 -0.4439
 6334SOL     OW30460   0.033   3.464   6.664 -0.0016 -0.3474 -0.6763
 6334SOL    HW130461   4.676   3.520   6.673 -0.7077 -1.2262 -1.3369
 6334SOL    HW230462   0.038   3.421   6.749  2.0143  3.5828  1.1948
 6335SOL     OW30463   1.002   2.848   3.951  0.0692 -0.2665 -0.4132
 6335SOL    HW130464   1.065   2.846   4.023 -0.2452  2.2388 -0.0468
 6335SOL    HW230465   1.033   2.929   3.909  0.4283  0.1915  0.7300
 6336SOL     OW30466   0.452   4.714   8.050  0.2459  0.1199  0.3858
 6336SOL    HW130467   0.360   4.706   8.076 -0.9153  0.0710 -3.8477
 6336SOL    HW230468   0.466   4.633   8.000 -0.0305  0.4183 -0.1736
 6337SOL     OW30469   4.157   0.749   0.553  0.1585 -0.1543  0.5955
 6337SOL    HW130470   4.207   0.827   0.529  0.6564 -0.8780 -0.6995
 6337SOL    HW230471   4.100   0.737   0.477  2.3902  0.7825 -1.1998
 6338SOL     OW30472   3.210   3.435   1.049 -0.0247  0.1396 -0.0505
 6338SOL    HW130473   3.184   3.446   1.141  1.1543  1.9386  0.0866
 6338SOL    HW230474   3.302   3.454   1.070  0.0061 -0.2657  0.1751
 6339SOL     OW30475   2.530   1.918   3.319 -0.1476  0.5136 -0.0018
 6339SOL    HW130476   2.509   1.972   3.395 -0.4843  0.2737  0.0740
 6339SOL    HW230477   2.497   1.963   3.241 -0.7072  1.1051  0.5750
 6340SOL     OW30478   1.857   1.056  16.952 -0.2229  0.2086  0.1468
 6340SOL    HW130479   1.846   1.011  16.868  1.7343  0.6713 -0.3557
 6340SOL    HW230480   1.867   1.142  16.911 -2.8308 -0.5826 -2.1251
 6341SOL     OW30481   4.277   2.553   9.360  0.1905 -0.0604 -0.0711
 6341SOL    HW130482   4.201   2.519   9.313 -0.8922 -0.1520  1.7626
 6341SOL    HW230483   4.241   2.536   9.447  0.7835 -1.0722 -0.0208
 6342SOL     OW30484   2.416   4.464   4.909 -0.3242 -0.1462 -0.2958
 6342SOL    HW130485   2.484   4.411   4.868  0.4545 -0.1714  1.0284
 6342SOL    HW230486   2.466   4.506   4.979 -1.7830 -0.4693  0.9407
 6343SOL     OW30487   1.074   1.160   0.520 -0.1584  0.2030  0.4357
 6343SOL    HW130488   1.126   1.213   0.460  1.6716 -1.1303  0.8645
 6343SOL    HW230489   1.082   1.208   0.602  0.6559 -1.5151  1.3568
 6344SOL     OW30490   0.312   1.702   7.977 -0.3196 -0.1144  0.4671
 6344SOL    HW130491   0.227   1.660   7.972 -1.4691  2.3302 -0.3932
 6344SOL    HW230492   0.300   1.785   7.932 -0.6483 -0.2741  0.2625
 6345SOL     OW30493   3.075   0.318   1.958  0.4974  0.1191  1.2440
 6345SOL    HW130494   3.095   0.363   2.040  1.5738  1.1191  0.4294
 6345SOL    HW230495   2.982   0.298   1.972  0.8423 -2.7597 -0.6412
 6346SOL     OW30496   3.134   4.253  10.274  0.6221 -0.1083 -0.1635
 6346SOL    HW130497   3.222   4.247  10.236  0.6590  0.4065 -0.1517
 6346SOL    HW230498   3.088   4.295  10.202 -0.6169  1.3610  1.4896
 6347SOL     OW30499   0.205   0.103   0.120  0.3150  0.0635  0.0002
 6347SOL    HW130500   0.289   0.083   0.077  0.8221 -0.0673  1.0352
 6347SOL    HW230501   0.188   0.194   0.098 -0.6074 -0.1541 -0.1629
 6348SOL     OW30502   4.648   3.325  10.210 -0.6824 -0.2332 -0.3527
 6348SOL    HW130503   4.562   3.367  10.206  0.0839  1.1354 -2.6157
 6348SOL    HW230504   4.706   3.396  10.236 -1.3498  0.3959 -0.5815
 6349SOL     OW30505   2.490   1.487   2.070  0.6708  0.5811 -0.0150
 6349SOL    HW130506   2.488   1.396   2.042 -0.3117  0.3662  0.7504
 6349SOL    HW230507   2.557   1.485   2.139 -1.7965 -0.0484  2.3671
 6350SOL     OW30508   0.175   4.644   8.601 -0.9628  0.3441 -0.3534
 6350SOL    HW130509   0.093   4.596   8.604  0.1460 -1.4821  0.3132
 6350SOL    HW230510   0.181   4.655   8.506  0.3526  1.4057 -0.1441
 6351SOL     OW30511   1.497   0.513   5.831 -0.3678  0.4403  0.1635
 6351SOL    HW130512   1.524   0.578   5.896  1.8400 -3.0618  2.7302
 6351SOL    HW230513   1.442   0.567   5.774 -2.4417  1.5463  3.2136
 6352SOL     OW30514   1.641   0.959   4.230 -0.3129  0.6583  0.5058
 6352SOL    HW130515   1.729   0.964   4.266  0.0227 -2.4605  0.0812
 6352SOL    HW230516   1.638   0.864   4.238  1.8420  0.5934  0.4918
 6353SOL     OW30517   4.214   1.995   8.771  0.7309 -0.1416  0.1009
 6353SOL    HW130518   4.278   1.959   8.709  1.6760 -0.4019  1.2150
 6353SOL    HW230519   4.186   2.058   8.705 -0.2787 -0.3879  0.2931
 6354SOL     OW30520   1.514   0.915   1.640 -0.0886  0.7750  0.3953
 6354SOL    HW130521   1.418   0.916   1.645  0.0386 -0.4168  2.7758
 6354SOL    HW230522   1.537   0.899   1.731 -1.4863 -0.1865  0.5862
 6355SOL     OW30523   3.903   1.574   8.188 -0.6967 -0.1940  0.4350
 6355SOL    HW130524   3.921   1.492   8.143  0.7175  0.3498  0.0186
 6355SOL    HW230525   3.923   1.632   8.114 -0.5205 -2.6722 -1.4432
 6356SOL     OW30526   2.544   2.711   7.894 -0.0567  0.2273 -0.1739
 6356SOL    HW130527   2.639   2.703   7.894 -0.2706 -2.3492 -1.1358
 6356SOL    HW230528   2.532   2.805   7.910  3.3553  0.4923  0.6915
 6357SOL     OW30529   0.162   1.328  11.038  0.1541  0.2768  0.5792
 6357SOL    HW130530   0.218   1.273  11.094  0.6293  0.8593  0.6781
 6357SOL    HW230531   0.084   1.329  11.094 -0.8456 -0.7242 -0.8126
 6358SOL     OW30532   3.099   0.157   0.094 -0.3109 -0.2876 -0.6363
 6358SOL    HW130533   3.155   0.126   0.165  0.3485  0.5149 -0.8127
 6358SOL    HW230534   3.039   0.208   0.147  0.2805 -1.3977  1.1314
 6359SOL     OW30535   3.898   1.654   4.374 -0.0871  0.2677 -0.2232
 6359SOL    HW130536   3.867   1.690   4.291 -1.7881 -0.4048  0.1281
 6359SOL    HW230537   3.938   1.731   4.415  0.3753  0.7676 -1.6223
 6360SOL     OW30538   1.134   2.158   0.486 -0.4011  0.1742 -0.1976
 6360SOL    HW130539   1.165   2.238   0.444 -1.9969  0.8016 -0.1743
 6360SOL    HW230540   1.174   2.087   0.436  0.2489  0.9635 -0.7855
 6361SOL     OW30541   2.607   2.165   6.307 -0.1222  0.1106 -0.3069
 6361SOL    HW130542   2.683   2.204   6.264 -0.2235 -0.8493 -1.3715
 6361SOL    HW230543   2.648   2.131   6.387 -0.3553  0.2638 -0.1227
 6362SOL     OW30544   2.955   0.948  17.554 -0.3389 -0.1699 -0.8451
 6362SOL    HW130545   2.932   1.007  17.483 -1.1351  0.1857 -0.2908
 6362SOL    HW230546   2.992   1.006  17.621  0.1693  0.6199 -1.8048
 6363SOL     OW30547   0.192   0.425  14.472  0.0038 -0.5884  0.3457
 6363SOL    HW130548   0.228   0.382  14.550  1.7372  1.8830  0.9089
 6363SOL    HW230549   0.148   0.351  14.430 -0.8087  0.6122 -0.8856
 6364SOL     OW30550   0.647   4.660   6.906 -0.5151  0.9314  0.7110
 6364SOL    HW130551   0.674   4.675   6.815 -0.0630 -0.2510  0.6403
 6364SOL    HW230552   0.689   4.575   6.920 -1.8803  0.6372  3.0225
 6365SOL     OW30553   1.473   4.719   6.374 -0.6967  0.1859  0.5323
 6365SOL    HW130554   1.472   0.087   6.339 -1.4829  0.2353  0.6797
 6365SOL    HW230555   1.382   4.700   6.349  0.1799 -0.9535 -1.7926
 6366SOL     OW30556   1.938   3.569   4.227  0.0598 -0.1042  0.0127
 6366SOL    HW130557   2.030   3.565   4.252  0.2301  1.3879 -0.4254
 6366SOL    HW230558   1.904   3.658   4.233 -1.4318 -0.7960  2.1502
 6367SOL     OW30559   4.202   0.045   2.610  0.5889 -0.1737 -0.6504
 6367SOL    HW130560   4.117   0.069   2.573  0.4124 -0.0756 -0.1852
 6367SOL    HW230561   4.200   4.670   2.614 -0.7315 -0.1891 -1.5332
 6368SOL     OW30562   1.385   2.101   2.222  0.5726 -0.4734  0.6140
 6368SOL    HW130563   1.355   2.010   2.232  1.9168 -1.2416 -2.2677
 6368SOL    HW230564   1.374   2.134   2.311 -1.2311  0.6485 -0.0082
 6369SOL     OW30565   4.096   4.155   2.884  0.6591  0.5526  0.4090
 6369SOL    HW130566   4.038   4.180   2.812  0.7103  0.3856  0.3099
 6369SOL    HW230567   4.136   4.072   2.857 -0.5480 -0.1947  0.9366
 6370SOL     OW30568   1.026   0.531   7.175 -0.0525 -0.5379 -0.7270
 6370SOL    HW130569   0.992   0.586   7.246  1.6774 -0.5163  0.0733
 6370SOL    HW230570   1.078   0.459   7.210 -1.3242 -0.9263  0.3552
 6371SOL     OW30571   2.127   2.615   0.701 -0.0718 -0.4471 -0.3337
 6371SOL    HW130572   2.091   2.572   0.623 -0.6539  0.1924 -0.4128
 6371SOL    HW230573   2.217   2.590   0.684  0.2662  0.5612 -0.0455
 6372SOL     OW30574   2.378   4.529   4.002  0.2297 -0.5861 -0.0426
 6372SOL    HW130575   2.424   4.591   4.059  2.2828 -0.5404 -1.7438
 6372SOL    HW230576   2.335   4.468   4.062 -1.5368 -0.2989 -1.0258
 6373SOL     OW30577   3.844   3.673   4.787 -0.2700  0.3651 -0.0720
 6373SOL    HW130578   3.905   3.703   4.855 -0.3022 -1.1922  0.6649
 6373SOL    HW230579   3.786   3.749   4.787 -2.2254 -1.1031  0.0013
 6374SOL     OW30580   4.127   0.984  13.803 -0.3706  0.2724  0.1928
 6374SOL    HW130581   4.157   1.059  13.751 -0.8304 -1.1120 -2.0865
 6374SOL    HW230582   4.055   1.019  13.855  0.1759 -0.1518  1.2123
 6375SOL     OW30583   3.024   4.285   6.801 -0.5262  0.0245 -0.4348
 6375SOL    HW130584   3.042   4.268   6.708  2.6128  0.0701  0.1895
 6375SOL    HW230585   2.930   4.303   6.799 -0.1160  2.2280 -0.2974
 6376SOL     OW30586   0.779   1.715   1.207  0.4466 -0.6833  0.6283
 6376SOL    HW130587   0.787   1.704   1.302  1.7276  1.1560  0.7223
 6376SOL    HW230588   0.864   1.754   1.188 -0.0794  2.0404  3.8811
 6377SOL     OW30589   3.987   0.439   2.350  0.1684 -0.1380  0.0772
 6377SOL    HW130590   3.968   0.471   2.262 -0.6307  0.4525  0.4705
 6377SOL    HW230591   4.074   0.403   2.333  0.5783 -0.2265  2.3678
 6378SOL     OW30592   1.309   3.632  14.729 -0.1197 -0.7619 -0.4674
 6378SOL    HW130593   1.273   3.547  14.752  1.0337 -1.4143 -1.0500
 6378SOL    HW230594   1.232   3.689  14.735  0.3654 -0.0818 -0.7262
 6379SOL     OW30595   1.342   4.305   6.770 -0.0410 -0.1464 -0.2037
 6379SOL    HW130596   1.415   4.244   6.781  0.5292  0.6832  0.5905
 6379SOL    HW230597   1.348   4.334   6.680  0.3839 -1.0510 -0.4722
 6380SOL     OW30598   0.704   3.142   6.993  0.1901 -0.0919 -0.1185
 6380SOL    HW130599   0.621   3.141   6.946  0.2917  2.8811 -0.3937
 6380SOL    HW230600   0.729   3.051   6.981 -0.6674  0.0188 -2.8199
 6381SOL     OW30601   3.070   1.500  14.124  0.3141  0.5016 -0.3213
 6381SOL    HW130602   3.006   1.447  14.077  0.3923 -0.4664  0.6732
 6381SOL    HW230603   3.129   1.425  14.131 -0.4626 -0.0864 -0.1626
 6382SOL     OW30604   1.662   3.376   3.121  0.0817  0.0546 -0.0903
 6382SOL    HW130605   1.625   3.368   3.208  1.3487 -0.0146  0.4370
 6382SOL    HW230606   1.738   3.319   3.131  1.6066  2.0062 -0.4997
 6383SOL     OW30607   0.851   2.148   4.606 -0.2390 -0.8943 -0.7047
 6383SOL    HW130608   0.818   2.075   4.658  1.2338 -0.9441  0.1384
 6383SOL    HW230609   0.773   2.203   4.597 -0.3274 -1.5545 -3.9811
 6384SOL     OW30610   3.030   4.604  16.178  0.0630 -0.5201 -0.2524
 6384SOL    HW130611   2.966   4.640  16.240 -0.2455 -0.7473 -0.4385
 6384SOL    HW230612   3.046   4.686  16.131 -3.5026  0.4989  0.2511
 6385SOL     OW30613   0.164   0.894   4.720 -0.7090  0.2269  0.2618
 6385SOL    HW130614   0.145   0.823   4.659 -1.8723 -1.3185  2.3997
 6385SOL    HW230615   0.117   0.963   4.674 -0.6996 -0.2284 -0.4228
 6386SOL     OW30616   3.829   1.780   7.714  0.2309 -0.1775  0.2068
 6386SOL    HW130617   3.746   1.765   7.668 -0.8232  1.2210  1.6399
 6386SOL    HW230618   3.789   1.809   7.796 -1.3264  0.7151 -0.8621
 6387SOL     OW30619   4.405   2.158   4.108  0.5301  0.5334  0.3766
 6387SOL    HW130620   4.344   2.183   4.039 -1.2899 -1.6063  1.1968
 6387SOL    HW230621   4.438   2.244   4.133 -0.2352  1.0128 -0.2907
 6388SOL     OW30622   1.900   3.124   3.819  0.3384  0.0938  0.4311
 6388SOL    HW130623   1.870   3.213   3.841  1.6344  0.2443  1.5178
 6388SOL    HW230624   1.949   3.106   3.899  0.0538 -0.8803  0.3825
 6389SOL     OW30625   2.718   2.559   7.451  0.3586 -0.4034  0.0449
 6389SOL    HW130626   2.763   2.626   7.503  0.4833 -1.2634  1.0517
 6389SOL    HW230627   2.784   2.505   7.409  1.6812  1.1163  0.1677
 6390SOL     OW30628   2.344   0.431   4.345 -0.6010 -0.0632 -0.5451
 6390SOL    HW130629   2.438   0.416   4.336 -0.3468  0.1586  1.6261
 6390SOL    HW230630   2.312   0.364   4.285 -0.2305 -1.5540  0.9191
 6391SOL     OW30631   3.010   1.189   4.213  0.1795  0.1969 -0.4673
 6391SOL    HW130632   2.943   1.202   4.146  1.3216  0.1159 -1.6130
 6391SOL    HW230633   3.080   1.134   4.179  0.2379  0.0360 -0.0855
 6392SOL     OW30634   3.616   1.072   1.775  0.2526  0.2732 -0.0884
 6392SOL    HW130635   3.691   1.077   1.716  1.6984 -0.8528  1.6613
 6392SOL    HW230636   3.652   1.028   1.852 -1.8361  0.6237  1.1122
 6393SOL     OW30637   2.398   3.721   4.075  0.4123 -0.1870 -0.1678
 6393SOL    HW130638   2.378   3.643   4.023 -0.5058  0.9714 -1.5749
 6393SOL    HW230639   2.341   3.714   4.152  0.4726  3.1222  0.1899
 6394SOL     OW30640   0.079   2.670   7.404  0.1328  0.5529  0.3439
 6394SOL    HW130641   0.059   2.756   7.367  3.4159  1.6535  1.1060
 6394SOL    HW230642   0.102   2.615   7.330  0.5002  0.4101  0.5622
 6395SOL     OW30643   0.669   1.612   0.016  0.1937  0.4254  0.0907
 6395SOL    HW130644   0.732   1.540   0.006  1.5301  1.7541 -1.2381
 6395SOL    HW230645   0.680   1.649  17.613 -0.4612  0.2936 -0.0473
 6396SOL     OW30646   2.477   0.133   6.397 -0.7055 -0.2023 -0.2013
 6396SOL    HW130647   2.479   0.093   6.484 -1.0535 -1.8206 -0.9218
 6396SOL    HW230648   2.547   0.195   6.416  0.2764 -0.7073 -2.0892
 6397SOL     OW30649   4.531   4.678  10.631  0.7959  0.0561  0.0131
 6397SOL    HW130650   4.461   4.701  10.692 -1.2136 -0.7270 -1.9921
 6397SOL    HW230651   4.508   4.586  10.620  0.8368 -0.0928  1.2079
 6398SOL     OW30652   0.529   2.640  15.546 -0.9939 -0.3010  0.1940
 6398SOL    HW130653   0.589   2.602  15.481 -1.5426  1.4226 -1.3120
 6398SOL    HW230654   0.553   2.732  15.551 -0.4950 -0.4778  1.0422
 6399SOL     OW30655   0.447   0.899   0.993 -0.5353 -0.3151  0.0933
 6399SOL    HW130656   0.492   0.912   1.077 -3.2010  0.9711  1.3036
 6399SOL    HW230657   0.361   0.932   1.018 -1.2875 -2.7747  0.7223
 6400SOL     OW30658   0.926   3.876   8.860  0.1748  0.9098  0.1155
 6400SOL    HW130659   0.915   3.796   8.912 -3.5465  0.6327 -1.1257
 6400SOL    HW230660   0.935   3.939   8.931  0.3894 -0.5010  1.3363
 6401SOL     OW30661   0.608   3.244   2.989 -0.7450 -0.0265  0.1137
 6401SOL    HW130662   0.601   3.313   2.923  0.9909 -0.0512 -0.0914
 6401SOL    HW230663   0.535   3.266   3.047  1.0102  2.8107  1.2136
 6402SOL     OW30664   4.573   0.685   8.872 -0.2253 -0.2863  0.0557
 6402SOL    HW130665   4.511   0.743   8.917  1.5645  1.3160  0.4609
 6402SOL    HW230666   4.518   0.616   8.835 -0.8661 -1.5763  3.4034
 6403SOL     OW30667   3.501   2.690   0.980  0.5872 -0.2114  0.1740
 6403SOL    HW130668   3.463   2.603   0.971 -3.7408  1.8670 -1.7624
 6403SOL    HW230669   3.515   2.700   1.074  0.3640 -1.3172  0.3197
 6404SOL     OW30670   2.457   3.853   8.624  0.3680  0.1330  0.0878
 6404SOL    HW130671   2.483   3.833   8.714 -1.1417  0.0874  0.5062
 6404SOL    HW230672   2.364   3.846   8.645  0.3264  1.2348  0.2334
 6405SOL     OW30673   3.634   3.043   2.835  0.3657  0.5920  0.0073
 6405SOL    HW130674   3.648   2.992   2.756 -0.0502 -0.0654  0.3615
 6405SOL    HW230675   3.693   3.116   2.818  2.1638 -0.5277  1.4686
 6406SOL     OW30676   2.058   2.899   2.347 -0.2872  0.1602  0.2894
 6406SOL    HW130677   2.078   2.925   2.257  0.1619 -0.9941  0.0587
 6406SOL    HW230678   2.059   2.988   2.384  2.4091  0.0047  0.5593
 6407SOL     OW30679   2.583   1.463   9.318  0.1582 -0.8850 -0.0557
 6407SOL    HW130680   2.554   1.382   9.359 -2.9425  0.1176 -0.2813
 6407SOL    HW230681   2.552   1.449   9.229 -0.3062 -0.6397  0.0623
 6408SOL     OW30682   2.901   3.281   9.023  0.1993 -0.3669 -0.5898
 6408SOL    HW130683   2.828   3.222   9.045 -0.0203  0.6444  1.4064
 6408SOL    HW230684   2.954   3.267   9.101  0.9516  0.2445 -0.9874
 6409SOL     OW30685   3.911   1.423   4.950 -0.6555 -0.0741 -0.0479
 6409SOL    HW130686   3.878   1.498   4.901 -0.5909  0.4737  0.7496
 6409SOL    HW230687   3.985   1.390   4.899 -0.4581  1.8735 -1.0093
 6410SOL     OW30688   1.977   2.556   1.805 -0.0393  0.4258  0.5469
 6410SOL    HW130689   1.962   2.619   1.734 -1.2903  0.0848  0.5080
 6410SOL    HW230690   1.982   2.611   1.884 -0.3418 -0.3105  1.0678
 6411SOL     OW30691   1.040   3.817   8.292  0.3722  0.4358  0.1868
 6411SOL    HW130692   1.130   3.813   8.325  1.1706  3.2754 -1.6382
 6411SOL    HW230693   0.997   3.787   8.372 -0.2927  1.2117  0.1182
 6412SOL     OW30694   1.860   1.590   1.814  0.4352  0.2534 -0.0318
 6412SOL    HW130695   1.797   1.657   1.838  0.5257  0.7150 -1.0715
 6412SOL    HW230696   1.799   1.517   1.804 -0.8879  1.6192 -1.8492
 6413SOL     OW30697   1.330   2.808   2.829 -0.2210 -0.0227  0.1819
 6413SOL    HW130698   1.253   2.855   2.797  0.3221 -0.4331 -1.7345
 6413SOL    HW230699   1.310   2.719   2.802 -0.0324 -0.3253  1.0397
 6414SOL     OW30700   1.824   3.401   5.587 -0.2464 -0.1135  0.4621
 6414SOL    HW130701   1.902   3.456   5.594  0.7561 -1.9111  3.3941
 6414SOL    HW230702   1.793   3.392   5.497  1.6478 -1.5749 -0.0483
 6415SOL     OW30703   0.924   2.323   3.767 -0.4443 -0.0771 -0.4747
 6415SOL    HW130704   0.888   2.251   3.715 -0.0134 -0.5949 -0.0651
 6415SOL    HW230705   0.845   2.353   3.811  0.1442  0.6025  0.1245
 6416SOL     OW30706   4.147   4.018  15.333 -0.1942 -0.6712 -0.4155
 6416SOL    HW130707   4.184   3.937  15.368  1.3843 -0.1011 -0.7323
 6416SOL    HW230708   4.224   4.064  15.299 -0.0824 -0.4917  0.0827
 6417SOL     OW30709   2.085   3.852   6.963 -0.6549 -0.3392  0.2986
 6417SOL    HW130710   2.074   3.760   6.941 -1.1601 -0.5201  1.3473
 6417SOL    HW230711   2.180   3.851   6.977 -0.5532 -1.7415 -0.5232
 6418SOL     OW30712   3.188   4.148   2.478  0.2148  0.1280 -0.1495
 6418SOL    HW130713   3.094   4.139   2.493  0.2624 -0.8777 -0.4551
 6418SOL    HW230714   3.214   4.072   2.425  2.0206  0.0854  0.7663
 6419SOL     OW30715   1.167   4.342   5.335 -0.2228 -0.3635 -0.0584
 6419SOL    HW130716   1.086   4.291   5.332  0.7726 -2.0009  0.9747
 6419SOL    HW230717   1.132   4.426   5.304 -1.1346 -1.1895 -1.2532
 6420SOL     OW30718   0.750   1.653   7.967  0.1335 -0.6553 -0.1549
 6420SOL    HW130719   0.680   1.633   7.905 -1.7456 -1.1761  2.1781
 6420SOL    HW230720   0.820   1.685   7.910  1.2141  1.4732  2.3778
 6421SOL     OW30721   0.360   4.117   4.994 -0.4969 -0.2328  0.1860
 6421SOL    HW130722   0.311   4.090   5.071 -1.4565  0.7403 -0.0808
 6421SOL    HW230723   0.313   4.073   4.923  0.3011 -0.5107 -0.1687
 6422SOL     OW30724   3.992   3.794  11.398 -0.0855  0.6383  0.3980
 6422SOL    HW130725   4.057   3.826  11.337  0.8658 -1.0029  0.5393
 6422SOL    HW230726   4.047   3.750  11.463 -1.1121  0.6102  1.2500
 6423SOL     OW30727   3.995   0.660   2.676 -0.2411 -0.4884 -0.1760
 6423SOL    HW130728   3.998   0.661   2.580 -0.2219 -0.4180 -0.1747
 6423SOL    HW230729   4.070   0.606   2.701  0.3943  0.7280  0.5303
 6424SOL     OW30730   1.677   2.408   7.569 -0.4831  0.3585 -0.5687
 6424SOL    HW130731   1.694   2.484   7.514  3.8146 -1.9580 -2.4552
 6424SOL    HW230732   1.594   2.439   7.605 -0.6337 -0.4327 -0.2417
 6425SOL     OW30733   0.778   1.399  17.089  0.0026  0.5693 -0.5683
 6425SOL    HW130734   0.800   1.337  17.019 -2.2850  2.4590 -2.9988
 6425SOL    HW230735   0.717   1.457  17.042  0.5155  1.6620  0.1222
 6426SOL     OW30736   3.268   4.194  15.666 -0.1506  0.2210 -0.0033
 6426SOL    HW130737   3.361   4.213  15.651 -0.4687  2.2491  0.6346
 6426SOL    HW230738   3.226   4.279  15.676  2.4261  1.1674  2.9987
 6427SOL     OW30739   3.250   2.725   7.545 -0.2052 -0.2184  0.3278
 6427SOL    HW130740   3.332   2.718   7.496 -0.5666 -2.1137 -0.0159
 6427SOL    HW230741   3.184   2.719   7.476 -1.8113 -1.0110  1.9420
 6428SOL     OW30742   0.245   3.310  16.046 -0.1821 -0.2985 -0.4277
 6428SOL    HW130743   0.180   3.344  15.985 -2.1182 -2.1941  0.6170
 6428SOL    HW230744   0.292   3.251  15.987  1.4919  0.9238 -0.3169
 6429SOL     OW30745   4.052   2.204  12.958 -0.5674  0.5133  1.1368
 6429SOL    HW130746   4.113   2.244  13.020  1.8749  1.4858 -1.8733
 6429SOL    HW230747   4.037   2.120  13.003 -0.2205 -0.4856 -0.6035
 6430SOL     OW30748   1.390   0.371   8.619 -0.0557 -0.0362  0.8586
 6430SOL    HW130749   1.306   0.380   8.665  0.4115  0.3492  1.6303
 6430SOL    HW230750   1.364   0.329   8.537 -1.8393  2.0514  0.3177
 6431SOL     OW30751   2.775   4.614  16.670  0.3566  0.3265 -0.4849
 6431SOL    HW130752   2.749   4.617  16.762 -0.2500 -1.7180 -0.5888
 6431SOL    HW230753   2.703   4.557  16.643 -1.2875  0.9924  2.4947
 6432SOL     OW30754   1.703   3.023   8.417  0.5130  0.2157 -0.0494
 6432SOL    HW130755   1.722   2.930   8.426 -3.2456 -0.7366 -2.1076
 6432SOL    HW230756   1.761   3.047   8.345 -0.6393  0.2569 -0.9645
 6433SOL     OW30757   0.685   4.669  11.917 -0.0666  0.2785 -0.4085
 6433SOL    HW130758   0.686   4.588  11.968  0.5927  0.0852 -0.7408
 6433SOL    HW230759   0.738   4.653  11.839  1.3170 -0.1104  0.6077
 6434SOL     OW30760   3.077   0.256  17.007  0.6473 -0.7593 -0.3727
 6434SOL    HW130761   3.138   0.195  17.049  1.0324  0.6853  1.1610
 6434SOL    HW230762   3.031   0.196  16.948  0.5586  0.3718 -1.4543
 6435SOL     OW30763   3.515   2.874   0.416 -0.4809 -0.2837 -0.1484
 6435SOL    HW130764   3.459   2.806   0.379 -0.7762  0.0681 -0.3480
 6435SOL    HW230765   3.548   2.920   0.339  0.9853 -0.5330  0.3227
 6436SOL     OW30766   4.596   0.054   1.638  0.0859 -0.5420  0.5296
 6436SOL    HW130767   4.689   0.067   1.655  0.6452 -3.4986 -0.2837
 6436SOL    HW230768   4.591   4.681   1.617 -1.2745 -0.3830  0.1254
 6437SOL     OW30769   1.392   0.920   3.486  0.3004  0.3875 -0.5796
 6437SOL    HW130770   1.340   0.934   3.407 -1.2487  0.1473  0.3922
 6437SOL    HW230771   1.445   0.845   3.459  0.9988  1.1556 -1.3548
 6438SOL     OW30772   1.183   3.164  13.782  0.6130  0.2073  0.7761
 6438SOL    HW130773   1.140   3.102  13.723  0.1016  1.6101 -0.3085
 6438SOL    HW230774   1.273   3.170  13.749 -0.2719 -1.7945 -1.9279
 6439SOL     OW30775   2.156   0.153   8.544 -0.5886 -0.2814 -0.0359
 6439SOL    HW130776   2.115   0.174   8.628  1.0557  1.9788  0.2027
 6439SOL    HW230777   2.239   0.108   8.557  0.3925  1.7169  0.6564
 6440SOL     OW30778   4.061   3.048   5.729 -0.1457  1.0125  0.4885
 6440SOL    HW130779   4.072   3.085   5.642  2.1600 -1.0959 -0.1286
 6440SOL    HW230780   4.142   3.086   5.763  0.2917  1.1699 -0.7321
 6441SOL     OW30781   2.578   2.801   3.914  0.4876 -0.6241  0.6451
 6441SOL    HW130782   2.516   2.773   3.980 -0.0808 -0.1577  0.3096
 6441SOL    HW230783   2.521   2.810   3.837  1.2369  0.3445  0.1986
 6442SOL     OW30784   3.744   3.881   7.899  0.2954  0.2464 -0.2696
 6442SOL    HW130785   3.765   3.969   7.866  2.9188  0.0861  0.9789
 6442SOL    HW230786   3.715   3.894   7.989  1.1588 -0.1320  0.0636
 6443SOL     OW30787   0.626   1.825   7.726 -0.2894 -0.2892 -0.0517
 6443SOL    HW130788   0.576   1.906   7.716  0.4122  0.0595 -0.6678
 6443SOL    HW230789   0.562   1.768   7.769 -2.4257  2.4515  0.4132
 6444SOL     OW30790   1.209   1.823   7.308 -0.3377 -1.2607  0.1320
 6444SOL    HW130791   1.277   1.794   7.247  0.3513 -0.4810  0.5291
 6444SOL    HW230792   1.259   1.863   7.379  1.2692  1.3686 -2.5041
 6445SOL     OW30793   2.950   1.941   1.004 -0.1198 -0.0412  0.1722
 6445SOL    HW130794   2.942   1.906   1.093 -1.0267  1.0741  0.5317
 6445SOL    HW230795   2.990   2.027   1.017 -0.2661 -0.4040  3.1431
 6446SOL     OW30796   1.005   3.919  11.412  0.0135  0.2567  0.3194
 6446SOL    HW130797   0.948   3.951  11.481 -1.2033 -1.5459  0.1593
 6446SOL    HW230798   1.075   3.876  11.460 -1.0755  1.8668  3.3317
 6447SOL     OW30799   3.069   0.273   4.010 -0.0156 -0.1233 -0.2678
 6447SOL    HW130800   3.037   0.278   3.920  0.1823  0.5157 -0.3025
 6447SOL    HW230801   3.160   0.303   4.007 -0.4079  0.9523 -1.6512
 6448SOL     OW30802   0.179   1.636  13.326 -0.7898 -0.0826  0.2286
 6448SOL    HW130803   0.084   1.640  13.324 -0.7712  0.1401 -0.2606
 6448SOL    HW230804   0.199   1.719  13.283  0.5846 -1.1758 -1.2651
 6449SOL     OW30805   1.422   1.883  17.323  0.6866 -0.0942  0.1908
 6449SOL    HW130806   1.415   1.796  17.361 -2.1795 -0.7879 -1.9317
 6449SOL    HW230807   1.394   1.930  17.402  0.5911 -1.9995  1.2743
 6450SOL     OW30808   3.978   2.351   3.027  0.2334  0.4150  0.2094
 6450SOL    HW130809   4.043   2.315   3.088  0.1974  0.5879  0.3543
 6450SOL    HW230810   3.963   2.273   2.974 -1.9642  0.5855  0.5675
 6451SOL     OW30811   3.930   1.176  13.638  0.1372  0.0830 -0.9256
 6451SOL    HW130812   3.919   1.191  13.544 -0.0040 -0.5506 -1.0118
 6451SOL    HW230813   4.024   1.188  13.653 -0.0463  0.5510 -0.2071
 6452SOL     OW30814   4.557   1.471   6.298 -0.1726 -0.2060  0.1387
 6452SOL    HW130815   4.617   1.398   6.283 -1.8952 -1.4661 -0.5843
 6452SOL    HW230816   4.588   1.545   6.246 -1.4825  1.2682  1.4549
 6453SOL     OW30817   3.333   0.066  11.715  0.2277 -0.0489  0.6616
 6453SOL    HW130818   3.352   4.695  11.697  1.7845  0.8325 -2.1766
 6453SOL    HW230819   3.422   0.100  11.721  0.0490  0.0930  2.4912
 6454SOL     OW30820   1.841   4.287   1.278 -0.3781 -0.1354  0.0849
 6454SOL    HW130821   1.816   4.272   1.187  0.1992 -2.6484  0.3378
 6454SOL    HW230822   1.781   4.234   1.329  0.3099  0.6432  1.7026
 6455SOL     OW30823   0.036   1.700   7.960  0.0016 -0.1568  0.3345
 6455SOL    HW130824   0.002   1.611   7.948 -1.6527  0.5282  0.0150
 6455SOL    HW230825   0.003   1.748   7.884  1.6239 -0.6517 -0.6866
 6456SOL     OW30826   3.800   0.369   0.205 -0.4956  0.2489  0.5727
 6456SOL    HW130827   3.728   0.315   0.238 -0.6695 -1.1604 -2.1506
 6456SOL    HW230828   3.753   0.452   0.195 -2.4039 -0.7341  1.4208
 6457SOL     OW30829   1.407   3.058  11.864 -0.3727 -0.1202 -0.2112
 6457SOL    HW130830   1.330   3.022  11.821  0.1404 -1.8683  0.3093
 6457SOL    HW230831   1.384   3.148  11.885 -0.3151  0.2063 -1.5991
 6458SOL     OW30832   3.681   1.270   4.747  0.6988  0.0909  0.2374
 6458SOL    HW130833   3.744   1.199   4.757 -1.1873 -1.3484  1.7754
 6458SOL    HW230834   3.742   1.339   4.719 -0.4777  0.1448 -2.1915
 6459SOL     OW30835   2.449   4.393   5.758 -0.4941  0.0106  0.1380
 6459SOL    HW130836   2.457   4.470   5.703 -2.0456  0.5439  0.6618
 6459SOL    HW230837   2.526   4.414   5.811  1.0193 -0.8325 -1.7556
 6460SOL     OW30838   0.008   2.262   6.967 -0.4783 -0.5696  0.2129
 6460SOL    HW130839   0.002   2.238   7.059 -1.2065  0.3941  0.4101
 6460SOL    HW230840   4.663   2.330   6.952 -0.2781 -0.0117  1.9231
 6461SOL     OW30841   0.488   3.889  16.175 -0.1466  0.2858 -0.3774
 6461SOL    HW130842   0.539   3.808  16.169  0.6463  0.6395  1.5986
 6461SOL    HW230843   0.520   3.933  16.095  0.1587  1.0435  0.1619
 6462SOL     OW30844   4.448   3.366  17.142 -0.3725 -0.2326 -0.4195
 6462SOL    HW130845   4.361   3.396  17.120  0.7364  0.6327 -3.4931
 6462SOL    HW230846   4.473   3.328  17.058  0.6210  3.2961 -1.7012
 6463SOL     OW30847   2.124   4.206   3.716 -0.3103 -0.3471 -0.1449
 6463SOL    HW130848   2.196   4.260   3.748 -0.1500  1.0521 -2.7896
 6463SOL    HW230849   2.073   4.209   3.796 -1.5154 -1.2360 -0.8962
 6464SOL     OW30850   1.883   2.402  16.973  0.1449 -0.0770  0.0595
 6464SOL    HW130851   1.838   2.387  16.889  0.5719  0.5300 -0.2734
 6464SOL    HW230852   1.822   2.355  17.030  1.5582  1.0353  2.5077
 6465SOL     OW30853   3.149   4.109   1.574  0.2721 -0.1263  0.3514
 6465SOL    HW130854   3.106   4.167   1.511 -0.3533 -0.5088  0.4305
 6465SOL    HW230855   3.095   4.035   1.599 -1.0308  0.5465 -0.4669
 6466SOL     OW30856   2.443   2.769   5.356  0.5311 -0.1371  0.0432
 6466SOL    HW130857   2.468   2.715   5.281  1.7235  0.4369  0.0256
 6466SOL    HW230858   2.349   2.754   5.369  1.0998 -0.4343  3.7079
 6467SOL     OW30859   0.538   0.418   1.369 -0.1600 -0.2145 -0.7017
 6467SOL    HW130860   0.522   0.356   1.298 -0.8781 -1.8250  0.8472
 6467SOL    HW230861   0.450   0.437   1.402  0.8358  2.4917  0.3993
 6468SOL     OW30862   2.412   4.331   7.899 -0.3107 -0.0439  0.6214
 6468SOL    HW130863   2.438   4.361   7.986  1.0842 -0.7003  0.4194
 6468SOL    HW230864   2.412   4.235   7.907 -0.9069 -0.0134  0.9924
 6469SOL     OW30865   1.349   2.400   4.053 -0.2451  0.2520 -0.2902
 6469SOL    HW130866   1.369   2.417   3.961 -0.8062 -0.4400 -0.5391
 6469SOL    HW230867   1.367   2.482   4.099 -0.2284  0.3545 -0.4818
 6470SOL     OW30868   1.528   1.496   4.155  0.5033  0.1164  0.2175
 6470SOL    HW130869   1.435   1.499   4.180  0.5463  0.7585  0.3149
 6470SOL    HW230870   1.533   1.417   4.102 -1.9538  0.4939 -0.6053
 6471SOL     OW30871   2.814   3.927   7.142  0.7180  0.2508  0.9553
 6471SOL    HW130872   2.848   3.947   7.055 -2.0608 -1.0156 -0.4058
 6471SOL    HW230873   2.847   3.998   7.198 -1.5030  3.0702 -1.2835
 6472SOL     OW30874   1.372   1.928   7.514  0.0076 -0.7743  0.0012
 6472SOL    HW130875   1.381   2.023   7.505  2.0884 -1.2206 -2.4801
 6472SOL    HW230876   1.452   1.900   7.560  1.8113  1.0829 -1.9848
 6473SOL     OW30877   1.008   1.041   2.817  0.0823  0.0356 -0.0376
 6473SOL    HW130878   0.918   1.026   2.847  0.0312  0.3415 -0.0330
 6473SOL    HW230879   1.053   0.965   2.853  0.5726  0.4222  0.1773
 6474SOL     OW30880   0.279   2.029   8.732  0.4842  0.4048 -0.4101
 6474SOL    HW130881   0.354   2.088   8.735  0.3354  0.4642  2.0820
 6474SOL    HW230882   0.279   2.019   8.637  0.2882  2.3383 -0.6029
 6475SOL     OW30883   3.972   0.518  10.536  0.0546 -0.4093 -0.4552
 6475SOL    HW130884   3.950   0.576  10.609 -1.0434 -0.1651 -0.9696
 6475SOL    HW230885   3.888   0.518  10.491  0.9307  0.5186 -2.0589
 6476SOL     OW30886   4.290   1.110  15.478 -0.0155  0.0274 -0.5175
 6476SOL    HW130887   4.335   1.125  15.395 -0.5148 -2.3118 -1.2127
 6476SOL    HW230888   4.246   1.026  15.468 -0.1821 -0.0509  0.9181
 6477SOL     OW30889   3.004   1.635   0.143  0.4314 -0.2998 -0.2870
 6477SOL    HW130890   2.964   1.572   0.083  0.2131 -2.7385  2.4135
 6477SOL    HW230891   3.026   1.581   0.219  2.0904  0.7280 -0.0386
 6478SOL     OW30892   1.819   2.852   7.484  0.4499  0.1310 -0.4483
 6478SOL    HW130893   1.804   2.864   7.578 -0.8999 -0.2513 -0.6175
 6478SOL    HW230894   1.852   2.938   7.459  1.3744 -0.4363 -1.1951
 6479SOL     OW30895   0.756   1.974   4.802 -0.2768  0.6829  0.7473
 6479SOL    HW130896   0.693   1.935   4.863  0.6199 -1.6976  0.1464
 6479SOL    HW230897   0.835   1.953   4.852 -1.3109 -0.1725  2.0222
 6480SOL     OW30898   2.550   0.923   4.894  0.2494 -0.1985  0.0578
 6480SOL    HW130899   2.482   0.864   4.861  1.2218 -1.2767  0.0037
 6480SOL    HW230900   2.618   0.872   4.850  0.1077  1.2386 -1.7976
 6481SOL     OW30901   2.798   1.395   8.198  0.1764  0.0204  0.4500
 6481SOL    HW130902   2.704   1.406   8.213  0.4469  2.4002  0.2761
 6481SOL    HW230903   2.785   1.332   8.127 -1.9892  2.6956 -1.5037
 6482SOL     OW30904   3.479   4.561   4.216 -0.0187  0.0684 -0.0231
 6482SOL    HW130905   3.531   4.543   4.295  0.1733 -0.5765 -0.2931
 6482SOL    HW230906   3.427   4.635   4.248 -0.5071  0.0918 -0.8791
 6483SOL     OW30907   3.025   1.645  13.138  0.1223  0.4385  0.0880
 6483SOL    HW130908   2.937   1.620  13.164 -0.0007  1.3006  0.5151
 6483SOL    HW230909   3.041   1.607  13.052 -0.8248  0.8028 -0.2481
 6484SOL     OW30910   1.468   0.759  15.844 -0.0825 -0.4714 -0.4752
 6484SOL    HW130911   1.443   0.699  15.913  0.0503 -0.2430 -0.2268
 6484SOL    HW230912   1.505   0.824  15.904 -0.2879  1.4450 -2.4037
 6485SOL     OW30913   1.879   0.579   6.332 -0.0903  0.0928 -1.1809
 6485SOL    HW130914   1.820   0.610   6.263 -2.3319  0.3074  0.8235
 6485SOL    HW230915   1.952   0.543   6.283  1.1901 -1.5215  1.8824
 6486SOL     OW30916   0.050   1.097  12.258  0.2193 -0.2972 -0.5616
 6486SOL    HW130917   4.712   1.131  12.191  0.8003  1.0022 -0.4149
 6486SOL    HW230918   0.137   1.131  12.237 -0.4390  1.8708  0.2467
 6487SOL     OW30919   4.261   0.695   5.342  0.4761  0.3507 -0.0439
 6487SOL    HW130920   4.283   0.780   5.306 -1.5125  1.9044  2.4015
 6487SOL    HW230921   4.197   0.662   5.278  0.2734  2.5057 -0.9266
 6488SOL     OW30922   3.299   3.257   6.958  0.6564 -0.4803  0.2200
 6488SOL    HW130923   3.276   3.266   6.866  1.3397  2.2287  0.3130
 6488SOL    HW230924   3.210   3.234   6.986  0.6095 -1.5014 -0.7566
 6489SOL     OW30925   3.665   3.404  15.447  0.3921 -0.2277  0.3074
 6489SOL    HW130926   3.623   3.322  15.419  3.0360 -0.6931 -2.3513
 6489SOL    HW230927   3.746   3.363  15.477  1.0332  1.3272  0.6776
 6490SOL     OW30928   2.432   3.567   5.420 -0.0362  0.3799 -0.2248
 6490SOL    HW130929   2.344   3.605   5.414 -0.0580  0.1033 -1.6430
 6490SOL    HW230930   2.471   3.621   5.488 -1.8021  0.2601  0.8784
 6491SOL     OW30931   2.871   0.327  16.236  0.3078  0.4097 -0.1156
 6491SOL    HW130932   2.921   0.262  16.286  0.4700  0.5181 -0.1357
 6491SOL    HW230933   2.941   0.392  16.228  1.5550 -0.8540  0.5183
 6492SOL     OW30934   4.660   0.480   9.982 -0.6325  0.0391  0.3259
 6492SOL    HW130935   4.614   0.398  10.001  1.5875 -1.2208  0.2602
 6492SOL    HW230936   0.017   0.447   9.938 -0.1820 -0.8326  1.7417
 6493SOL     OW30937   4.283   2.643   2.182 -0.1417  0.3424 -0.0281
 6493SOL    HW130938   4.341   2.693   2.240  0.6275 -1.3398  0.6752
 6493SOL    HW230939   4.223   2.714   2.160 -0.1517 -0.1683 -1.6446
 6494SOL     OW30940   2.281   2.420   8.273 -0.5139 -0.3386 -0.5367
 6494SOL    HW130941   2.209   2.363   8.299  1.8956 -2.2806  1.9374
 6494SOL    HW230942   2.332   2.366   8.213 -1.5629 -1.4674 -0.4168
 6495SOL     OW30943   0.058   0.687  14.523 -0.6879 -0.5631 -0.5480
 6495SOL    HW130944   0.074   0.593  14.528 -1.6963 -0.5993  1.7880
 6495SOL    HW230945   0.053   0.695  14.427 -3.6887  0.2595 -0.3027
 6496SOL     OW30946   1.782   0.765   7.345  0.0775 -0.5827 -0.3717
 6496SOL    HW130947   1.877   0.760   7.350  0.0910 -1.6340 -1.4809
 6496SOL    HW230948   1.766   0.674   7.371 -2.0170 -0.3123 -0.7186
 6497SOL     OW30949   4.213   1.731  17.093  0.9009 -0.0895  0.8639
 6497SOL    HW130950   4.157   1.792  17.045  0.2340 -0.4209  1.2209
 6497SOL    HW230951   4.157   1.654  17.091  1.1703 -0.1657 -2.7563
 6498SOL     OW30952   0.263   4.037  14.764  0.1953 -0.3432  0.1387
 6498SOL    HW130953   0.316   3.983  14.705 -0.2385  1.1611 -1.6506
 6498SOL    HW230954   0.312   4.120  14.760 -2.4243  1.0651 -2.2801
 6499SOL     OW30955   2.761   0.159   5.444  0.2964 -0.0451  0.5032
 6499SOL    HW130956   2.813   0.081   5.425 -0.7380 -0.7113  0.4042
 6499SOL    HW230957   2.829   0.225   5.430 -0.0664  0.5901  1.7082
 6500SOL     OW30958   1.091   1.286  14.030 -0.0831 -0.5048  0.2575
 6500SOL    HW130959   1.040   1.222  14.079 -0.8760  2.0997  2.8025
 6500SOL    HW230960   1.148   1.227  13.981  0.9521  0.6621  0.0440
 6501SOL     OW30961   1.841   4.348   6.718 -0.2763 -0.7766 -0.4510
 6501SOL    HW130962   1.770   4.404   6.685  0.4968  0.4366 -0.0542
 6501SOL    HW230963   1.863   4.294   6.642  2.2188 -0.3788  0.0060
 6502SOL     OW30964   1.872   3.070  12.589  0.6962  0.3017 -0.4627
 6502SOL    HW130965   1.860   2.988  12.636 -1.9314 -0.3035 -2.1565
 6502SOL    HW230966   1.791   3.116  12.614  1.1362  0.6053  0.3977
 6503SOL     OW30967   1.186   1.294   4.765 -0.1113  0.1525 -0.3764
 6503SOL    HW130968   1.111   1.235   4.778 -0.2291  0.4956  0.4525
 6503SOL    HW230969   1.169   1.348   4.841 -0.8375  0.6665 -0.9082
 6504SOL     OW30970   3.371   3.429   4.830 -0.6124 -0.5040  0.1267
 6504SOL    HW130971   3.332   3.503   4.876 -1.1284 -0.9033  0.3327
 6504SOL    HW230972   3.460   3.447   4.862 -0.4540  0.1628 -0.6834
 6505SOL     OW30973   3.683   3.155   8.287 -0.1821 -0.2243 -0.1179
 6505SOL    HW130974   3.671   3.065   8.258 -1.4298  0.0914 -0.5733
 6505SOL    HW230975   3.606   3.184   8.335  2.2318  1.2871  2.8134
 6506SOL     OW30976   2.403   0.957   0.774  0.4041  0.4733 -0.0273
 6506SOL    HW130977   2.490   0.976   0.809  1.3810 -2.8642 -0.5970
 6506SOL    HW230978   2.335   0.982   0.836  0.3734  0.0915  0.0957
 6507SOL     OW30979   4.204   2.272   5.797 -0.4044 -0.2298  0.2783
 6507SOL    HW130980   4.297   2.248   5.802  0.2499  2.1110 -0.4715
 6507SOL    HW230981   4.206   2.302   5.706  0.8646  0.9472  0.6915
 6508SOL     OW30982   0.030   0.529   5.475 -0.1866  1.0170 -0.4998
 6508SOL    HW130983   4.721   0.438   5.465  1.9425  0.2918 -0.3021
 6508SOL    HW230984   4.670   0.560   5.515 -0.6477 -2.5294  1.3200
 6509SOL     OW30985   1.900   1.660   4.510  0.2893  0.4879 -0.4133
 6509SOL    HW130986   1.853   1.600   4.452 -1.3808  0.3477  1.0924
 6509SOL    HW230987   1.828   1.711   4.546 -0.8563 -1.4230  0.0214
 6510SOL     OW30988   4.432   3.421   5.867  0.5243 -0.0722  0.2400
 6510SOL    HW130989   4.478   3.453   5.789  1.9490  0.6316  1.3806
 6510SOL    HW230990   4.393   3.502   5.900  2.4654  0.8768  0.1883
 6511SOL     OW30991   4.577   1.369   8.245 -0.3488 -0.5674  0.5867
 6511SOL    HW130992   4.527   1.290   8.222  1.7367 -0.9489 -2.6273
 6511SOL    HW230993   4.507   1.415   8.291 -0.5352 -1.6690  1.4105
 6512SOL     OW30994   0.296   2.329   7.977  0.1315 -0.9980  0.3740
 6512SOL    HW130995   0.224   2.266   7.978 -1.6923  1.0892 -0.9402
 6512SOL    HW230996   0.276   2.391   7.908  1.7871 -1.2991 -0.3741
 6513SOL     OW30997   1.400   4.510  15.112 -0.5952 -0.6561 -0.0803
 6513SOL    HW130998   1.464   4.569  15.072 -1.0882 -0.7241 -0.9641
 6513SOL    HW230999   1.340   4.511  15.038  1.0851  0.3620 -1.4067
 6514SOL     OW31000   1.037   0.180   8.617  0.0506  0.0828  0.1105
 6514SOL    HW131001   0.956   0.137   8.644  0.2677 -1.1283 -1.2021
 6514SOL    HW231002   1.015   0.190   8.525 -0.5366  2.2995  0.4984
 6515SOL     OW31003   2.804   3.700   5.576 -0.2934 -0.4004 -0.0825
 6515SOL    HW131004   2.896   3.729   5.579  0.4440 -2.8471  0.9118
 6515SOL    HW231005   2.797   3.635   5.646 -0.6336 -0.2228  0.0474
 6516SOL     OW31006   2.936   2.258   2.735  0.1775  0.0598 -0.0676
 6516SOL    HW131007   2.971   2.208   2.661 -2.0759 -0.6177 -0.6636
 6516SOL    HW231008   2.883   2.192   2.779  1.2124 -1.6953 -1.4662
 6517SOL     OW31009   1.775   0.331   2.171 -0.3815 -0.2164 -0.8274
 6517SOL    HW131010   1.774   0.389   2.095 -1.1507 -0.3575 -0.9242
 6517SOL    HW231011   1.681   0.341   2.188  0.1439 -0.2222  1.9703
 6518SOL     OW31012   3.155   1.700   8.264 -0.4231  0.2296 -0.1906
 6518SOL    HW131013   3.107   1.627   8.226  0.6248  0.6924 -2.4168
 6518SOL    HW231014   3.193   1.656   8.339 -1.5768 -0.8572 -0.2620
 6519SOL     OW31015   3.312   0.934   2.850  0.2405 -0.1695 -0.4645
 6519SOL    HW131016   3.375   0.912   2.919 -0.2621 -0.0478  0.0418
 6519SOL    HW231017   3.287   0.853   2.805  1.6538 -1.4547  1.0462
 6520SOL     OW31018   3.986   3.839   5.266 -0.0377 -0.0664 -0.5294
 6520SOL    HW131019   4.044   3.795   5.328  0.2087  1.9020  0.6284
 6520SOL    HW231020   3.916   3.862   5.328  0.4545  0.1877 -0.0635
 6521SOL     OW31021   1.495   0.783  15.164 -0.3406  0.9207  0.0888
 6521SOL    HW131022   1.533   0.711  15.214 -0.7014  1.3945  1.0573
 6521SOL    HW231023   1.580   0.821  15.142 -0.9726  1.6310 -1.1055
 6522SOL     OW31024   2.774   3.567  10.865 -0.2029  1.1772 -0.3478
 6522SOL    HW131025   2.698   3.549  10.921  1.0008 -0.7837  0.6591
 6522SOL    HW231026   2.744   3.596  10.779  0.7064 -0.2523 -1.1416
 6523SOL     OW31027   2.401   0.298  14.400 -0.3602 -0.3358 -0.4889
 6523SOL    HW131028   2.487   0.260  14.416 -0.4360 -0.6554 -0.8204
 6523SOL    HW231029   2.394   0.264  14.310 -1.3854 -0.5555 -0.3315
 6524SOL     OW31030   0.372   1.204   7.024 -0.0269 -0.3174  0.0254
 6524SOL    HW131031   0.418   1.189   7.106  0.6248 -0.4450 -0.3651
 6524SOL    HW231032   0.318   1.125   7.014  1.1453 -0.8672 -2.1369
 6525SOL     OW31033   3.270   3.273  11.296 -0.1910 -0.2328  0.5849
 6525SOL    HW131034   3.315   3.193  11.271  2.6867  0.3391  3.9656
 6525SOL    HW231035   3.311   3.326  11.228  0.9174 -1.2214  0.5016
 6526SOL     OW31036   0.146   3.079  12.468  0.0894 -0.4771  0.2895
 6526SOL    HW131037   0.192   3.160  12.442 -2.3363  1.3888  1.7897
 6526SOL    HW231038   0.200   3.039  12.535  0.3481  0.8128  0.8629
 6527SOL     OW31039   3.824   4.607  11.726  0.4578 -0.0093 -0.3923
 6527SOL    HW131040   3.831   4.559  11.644 -1.7011 -0.5655 -0.2402
 6527SOL    HW231041   3.901   4.562  11.760 -0.3802 -0.0266  1.4526
 6528SOL     OW31042   0.923   2.251  17.272 -0.4409 -0.2190 -0.1635
 6528SOL    HW131043   0.909   2.320  17.337  1.1244  0.9858 -1.1360
 6528SOL    HW231044   0.907   2.298  17.191 -0.9497  1.5712  0.9719
 6529SOL     OW31045   2.228   1.380   2.359 -0.2128 -0.2799 -0.3309
 6529SOL    HW131046   2.252   1.290   2.382 -0.8514 -0.1769  0.7503
 6529SOL    HW231047   2.134   1.383   2.378 -0.2753 -1.6326 -0.4625
 6530SOL     OW31048   4.630   4.210   0.040  0.1785  0.3033 -0.3835
 6530SOL    HW131049   4.592   4.207   0.128 -0.8551 -1.4006 -0.8973
 6530SOL    HW231050   4.625   4.117   0.020  4.1066  0.2117 -0.8642
 6531SOL     OW31051   3.031   0.186   3.615  0.1731  0.0034 -0.3610
 6531SOL    HW131052   2.980   0.258   3.652 -2.7265 -2.5152  0.5454
 6531SOL    HW231053   3.099   0.232   3.565  2.0433 -1.7854  0.5257
 6532SOL     OW31054   3.490   0.065   7.226 -0.1520 -0.1540  0.0634
 6532SOL    HW131055   3.412   0.070   7.281 -1.4234 -0.6638 -1.7189
 6532SOL    HW231056   3.543   4.718   7.269 -1.4447 -2.3737 -1.8446
 6533SOL     OW31057   0.789   0.071   1.933 -0.4894 -0.2260  0.4005
 6533SOL    HW131058   0.755   0.160   1.940 -0.0635  0.0213 -0.6416
 6533SOL    HW231059   0.876   0.077   1.973 -0.4272  1.5040 -0.0229
 6534SOL     OW31060   4.318   2.983   6.793  0.5564 -0.1082  0.2322
 6534SOL    HW131061   4.246   2.928   6.823 -0.8708  1.2771 -0.6719
 6534SOL    HW231062   4.387   2.949   6.850  0.6972 -0.0985  0.0688
 6535SOL     OW31063   2.868   4.518   1.352  0.0222  0.4608  0.1878
 6535SOL    HW131064   2.938   4.453   1.358 -0.5383 -0.2493 -0.9554
 6535SOL    HW231065   2.842   4.542   1.441  1.4190  2.4469  0.0605
 6536SOL     OW31066   1.103   0.239  12.966  0.2820  0.1649 -0.8260
 6536SOL    HW131067   1.011   0.221  12.946 -0.7785  2.4718  1.9119
 6536SOL    HW231068   1.150   0.170  12.920 -0.7279 -2.1578  1.6434
 6537SOL     OW31069   2.924   1.808   1.234  0.2169 -0.1315 -0.2593
 6537SOL    HW131070   2.894   1.725   1.271  0.1961 -0.8107 -1.8032
 6537SOL    HW231071   3.001   1.823   1.288 -1.2003 -1.2358  2.1035
 6538SOL     OW31072   1.385   3.498   2.795  0.2038 -0.1866 -0.0778
 6538SOL    HW131073   1.381   3.419   2.849 -2.5151 -0.3370 -0.5026
 6538SOL    HW231074   1.385   3.452   2.711  0.3564  0.0788 -0.2202
 6539SOL     OW31075   1.686   0.874  12.023  0.0543 -0.1588 -0.1362
 6539SOL    HW131076   1.609   0.931  12.027  0.3534  0.2371  0.0149
 6539SOL    HW231077   1.747   0.914  12.085  0.6730  0.6752 -1.2661
 6540SOL     OW31078   1.851   1.076   2.188 -0.4365 -0.5183 -0.0381
 6540SOL    HW131079   1.771   1.093   2.237  0.5873 -2.7553  2.3889
 6540SOL    HW231080   1.888   1.161   2.165  1.2029 -0.8725  1.2885
 6541SOL     OW31081   4.058   1.270   5.537 -0.1840  0.4399  0.5926
 6541SOL    HW131082   4.008   1.345   5.504  2.1898  0.5178 -2.7368
 6541SOL    HW231083   4.136   1.276   5.482  1.3872  2.3184  3.0111
 6542SOL     OW31084   3.642   3.243   0.664 -0.3755 -0.0558 -0.0996
 6542SOL    HW131085   3.661   3.165   0.716 -0.2574  0.1580  0.1787
 6542SOL    HW231086   3.718   3.297   0.685 -0.8204  0.4982  0.0844
 6543SOL     OW31087   1.697   1.844   6.500 -0.1648 -0.7058  0.0018
 6543SOL    HW131088   1.767   1.791   6.537  0.2775 -0.4520 -0.4655
 6543SOL    HW231089   1.690   1.785   6.425 -2.6698 -1.0996  0.5643
 6544SOL     OW31090   2.004   0.499  16.262 -0.8123 -0.0923  0.3702
 6544SOL    HW131091   2.056   0.578  16.280 -0.1123 -0.5210  0.2392
 6544SOL    HW231092   1.931   0.519  16.321 -0.9153 -2.1897  0.9424
 6545SOL     OW31093   1.235   4.175   4.357 -0.0507 -0.0038  0.2241
 6545SOL    HW131094   1.325   4.148   4.376  0.1916  0.5927 -0.0757
 6545SOL    HW231095   1.196   4.151   4.441  0.3697  1.2367  0.7842
 6546SOL     OW31096   3.838   3.182   6.382  0.2279 -0.4515  0.4023
 6546SOL    HW131097   3.805   3.161   6.470 -4.2680 -0.8841 -1.3760
 6546SOL    HW231098   3.901   3.111   6.368 -0.4741 -0.8865 -0.5499
 6547SOL     OW31099   3.985   2.354   7.005 -0.2644 -0.0120  0.9847
 6547SOL    HW131100   3.996   2.414   6.931  0.6664 -3.7195 -1.9218
 6547SOL    HW231101   4.017   2.269   6.976  0.0469  0.5521 -0.3037
 6548SOL     OW31102   4.131   1.724  13.034  0.4338  0.2356  0.2573
 6548SOL    HW131103   4.066   1.657  13.057  0.3160 -0.3172 -1.6164
 6548SOL    HW231104   4.183   1.675  12.970 -0.7358  0.2604 -0.7275
 6549SOL     OW31105   4.545   3.268   8.300 -0.0544  0.0880  0.2510
 6549SOL    HW131106   4.627   3.315   8.311  1.1205 -1.7436 -0.7319
 6549SOL    HW231107   4.487   3.344   8.296  2.1078  1.7021 -0.5183
 6550SOL     OW31108   2.077   0.419  15.149  0.1716 -0.4098 -0.2400
 6550SOL    HW131109   2.066   0.325  15.135 -0.0078 -0.2773 -0.9988
 6550SOL    HW231110   2.003   0.462  15.105  0.8448  0.6579 -0.3380
 6551SOL     OW31111   3.063   4.396   1.640  0.0244  0.1414  0.5971
 6551SOL    HW131112   2.990   4.405   1.702  0.4174  0.2735  1.0422
 6551SOL    HW231113   3.027   4.354   1.562  0.7782  1.4658 -0.4657
 6552SOL     OW31114   0.096   3.368   8.324 -0.4311 -0.2353 -0.2278
 6552SOL    HW131115   0.179   3.410   8.300 -1.0783 -0.2385 -2.5333
 6552SOL    HW231116   0.095   3.387   8.417 -1.2589 -0.6593 -0.1516
 6553SOL     OW31117   3.254   4.384   8.601  0.5108  0.2553  0.1198
 6553SOL    HW131118   3.261   4.315   8.536  0.7563 -2.4114  3.0108
 6553SOL    HW231119   3.229   4.324   8.671 -0.5691 -0.7913 -1.1602
 6554SOL     OW31120   2.208   2.983  13.495  0.4177  0.7061 -1.1559
 6554SOL    HW131121   2.132   2.925  13.484  1.1034 -0.4378  0.1251
 6554SOL    HW231122   2.203   2.996  13.590 -1.0375 -1.8313 -0.9029
 6555SOL     OW31123   3.125   1.248  11.993  0.1085 -0.3081  0.8191
 6555SOL    HW131124   3.081   1.329  11.966  0.9750 -0.7571 -1.8788
 6555SOL    HW231125   3.149   1.209  11.909  2.0819  1.5648  0.4892
 6556SOL     OW31126   3.109   2.238   7.590 -0.1111  0.1488  0.3042
 6556SOL    HW131127   3.015   2.241   7.606 -0.0040 -0.6728  1.0492
 6556SOL    HW231128   3.148   2.170   7.645  1.1439 -1.5719 -2.6881
 6557SOL     OW31129   1.833   2.983   3.193  0.4227 -0.5294  0.1117
 6557SOL    HW131130   1.843   3.050   3.260 -0.9186  0.2950 -0.5121
 6557SOL    HW231131   1.753   3.016   3.152 -1.1506 -2.1429  1.8191
 6558SOL     OW31132   4.215   1.045   3.354  0.0907  0.0357 -0.1514
 6558SOL    HW131133   4.172   0.975   3.305  1.4775  1.3420 -3.2513
 6558SOL    HW231134   4.259   1.089   3.282  3.2684 -0.8962  1.2289
 6559SOL     OW31135   4.550   1.466   1.252 -0.0406 -0.8160  0.5901
 6559SOL    HW131136   4.614   1.505   1.313 -0.6219  0.3942  0.4277
 6559SOL    HW231137   4.508   1.400   1.307  1.3130 -0.6342  1.8488
 6560SOL     OW31138   2.383   0.222   8.733  0.3514 -0.0128 -0.3908
 6560SOL    HW131139   2.430   0.267   8.803  0.6933  0.1727 -0.7392
 6560SOL    HW231140   2.404   0.287   8.665  1.3921 -0.2359 -0.2767
 6561SOL     OW31141   0.422   1.716   6.317 -0.4361  0.0702  0.7307
 6561SOL    HW131142   0.367   1.667   6.256  2.1634 -0.0563 -1.4839
 6561SOL    HW231143   0.361   1.734   6.389  0.1458 -2.2483  1.8183
 6562SOL     OW31144   2.768   4.435   8.509  0.2006  0.0469 -0.1914
 6562SOL    HW131145   2.835   4.368   8.498  0.9368  0.8485 -0.5682
 6562SOL    HW231146   2.696   4.406   8.454  0.0981 -0.6591  0.3194
 6563SOL     OW31147   3.461   2.507   4.781 -0.1446 -0.5126 -0.2378
 6563SOL    HW131148   3.419   2.590   4.804  1.3563  0.6452 -1.7268
 6563SOL    HW231149   3.543   2.530   4.823 -0.1704 -0.0419 -0.4428
 6564SOL     OW31150   3.198   1.739  15.626  0.9236 -0.2451  0.3304
 6564SOL    HW131151   3.181   1.713  15.716 -1.0332  1.3304  0.4305
 6564SOL    HW231152   3.291   1.717  15.618  0.9535 -0.8895  2.6457
 6565SOL     OW31153   3.999   1.039   6.721  0.1694  0.4487 -0.3503
 6565SOL    HW131154   3.946   0.974   6.767 -0.1528 -0.0056 -1.3726
 6565SOL    HW231155   3.967   1.126   6.746 -2.3181 -1.1272  1.9637
 6566SOL     OW31156   1.007   4.126  17.229 -0.0340  0.1675  0.1019
 6566SOL    HW131157   0.958   4.059  17.275 -1.7210  1.4544  0.1699
 6566SOL    HW231158   1.049   4.170  17.304 -0.5983  0.8037  0.0459
 6567SOL     OW31159   4.620   0.897   1.685 -0.0384  0.3308  0.5632
 6567SOL    HW131160   4.537   0.867   1.720 -0.5964  1.2633  0.0544
 6567SOL    HW231161   4.586   0.983   1.661  0.3512  0.4994  0.6025
 6568SOL     OW31162   3.600   0.042  14.873  0.3147 -0.5449 -0.2916
 6568SOL    HW131163   3.530   0.058  14.937  0.3891  0.1837 -0.3920
 6568SOL    HW231164   3.609   4.667  14.873  0.0391 -0.5733 -0.0704
 6569SOL     OW31165   1.810   2.578   4.025 -0.1969  0.4404  0.0532
 6569SOL    HW131166   1.788   2.485   4.021 -0.4978  0.6527 -3.2172
 6569SOL    HW231167   1.763   2.617   4.099 -0.8024 -0.5861  0.2134
 6570SOL     OW31168   3.698   3.248   2.328 -0.5750  0.1258 -0.1224
 6570SOL    HW131169   3.668   3.336   2.308 -2.7567 -0.4267  0.7484
 6570SOL    HW231170   3.690   3.237   2.423 -0.5859  2.0418  0.0888
 6571SOL     OW31171   3.705   0.500   2.266  0.1345  0.0140  0.1428
 6571SOL    HW131172   3.733   0.417   2.304  0.3873  0.0638  0.0695
 6571SOL    HW231173   3.712   0.477   2.174 -0.6811  1.4662 -0.2881
 6572SOL     OW31174   3.440   0.939   6.638  0.3867  0.4706  0.4541
 6572SOL    HW131175   3.512   0.917   6.697  0.1704 -0.3434  0.4235
 6572SOL    HW231176   3.415   0.851   6.608  0.3927  1.0090 -1.1333
 6573SOL     OW31177   2.253   2.709   7.954  0.1862  0.4046 -0.1415
 6573SOL    HW131178   2.258   2.675   8.043  1.4244  0.3233 -0.2543
 6573SOL    HW231179   2.302   2.790   7.964  1.9647 -0.8943  1.4937
 6574SOL     OW31180   3.325   3.568   4.016 -0.0050  0.6290  0.4200
 6574SOL    HW131181   3.272   3.547   3.939  1.4789 -0.2983 -0.3516
 6574SOL    HW231182   3.406   3.587   3.968 -0.5066  0.9349 -0.3038
 6575SOL     OW31183   2.012   0.329   2.336  0.2221  0.1218 -0.2339
 6575SOL    HW131184   2.009   0.241   2.374  0.9467 -0.1525 -0.8205
 6575SOL    HW231185   1.928   0.333   2.290 -0.9080 -1.5089  1.6958
 6576SOL     OW31186   1.251   2.639  11.685 -0.1755  0.2748  0.2065
 6576SOL    HW131187   1.177   2.579  11.676 -2.0939  2.5449  0.8434
 6576SOL    HW231188   1.303   2.621  11.606  0.1407  0.5202  0.3556
 6577SOL     OW31189   0.559   4.524   2.823  0.1587 -0.8646  0.1477
 6577SOL    HW131190   0.485   4.531   2.884 -0.1549 -1.2629 -0.1876
 6577SOL    HW231191   0.529   4.447   2.775  0.5529  0.0622 -1.5836
 6578SOL     OW31192   0.149   2.344  11.472 -0.0722  0.0343 -0.2784
 6578SOL    HW131193   0.165   2.434  11.502  0.9573 -0.2606  0.0531
 6578SOL    HW231194   0.117   2.363  11.384 -1.2998 -0.9251 -0.0401
 6579SOL     OW31195   4.362   1.528   5.988 -0.3004  0.2107 -0.1006
 6579SOL    HW131196   4.452   1.558   5.999 -0.0143 -0.6653 -0.1084
 6579SOL    HW231197   4.317   1.588   6.048  0.5059 -0.0760  0.7825
 6580SOL     OW31198   2.933   3.021   6.921 -0.3157  0.0929 -0.2076
 6580SOL    HW131199   2.877   3.094   6.897  0.8086  0.0814 -2.8706
 6580SOL    HW231200   3.008   3.073   6.951  0.4354 -1.0922 -0.0497
 6581SOL     OW31201   4.046   3.599   9.362  0.3146 -0.0104 -0.3570
 6581SOL    HW131202   4.121   3.614   9.420 -1.3294 -2.0884  2.3410
 6581SOL    HW231203   3.983   3.631   9.427  0.2809 -0.8626  0.0245
 6582SOL     OW31204   0.939   0.779   6.115  0.1482 -0.1664 -0.2375
 6582SOL    HW131205   1.022   0.818   6.142 -0.5502  1.0438  0.1877
 6582SOL    HW231206   0.875   0.801   6.182 -0.2162 -1.1894 -0.2458
 6583SOL     OW31207   1.084   2.146   1.428 -0.1557 -0.0596 -0.7489
 6583SOL    HW131208   1.038   2.229   1.417  1.2231  0.7578 -0.3933
 6583SOL    HW231209   1.017   2.078   1.434 -0.7810  0.7242  1.3186
 6584SOL     OW31210   1.582   3.731   7.624  0.4707  0.5250 -0.4249
 6584SOL    HW131211   1.551   3.642   7.639 -1.6408  0.7252 -3.5139
 6584SOL    HW231212   1.574   3.772   7.710 -1.2504 -0.4250 -0.1293
 6585SOL     OW31213   0.042   1.126  10.257  0.6771 -0.0000 -0.3890
 6585SOL    HW131214   4.673   1.119  10.292  0.5411 -0.8923 -0.8985
 6585SOL    HW231215   0.055   1.220  10.264 -0.0666  0.2170 -1.9445
 6586SOL     OW31216   0.405   2.471   4.831 -0.1586  0.0379  0.9695
 6586SOL    HW131217   0.461   2.443   4.903  0.9079  0.3648  0.2692
 6586SOL    HW231218   0.320   2.447   4.869 -1.5485  2.6467 -0.4565
 6587SOL     OW31219   2.540   2.196   5.530  0.1455  0.6310 -0.1110
 6587SOL    HW131220   2.472   2.157   5.474  2.7786 -0.8832 -2.2442
 6587SOL    HW231221   2.495   2.186   5.614 -0.2852 -2.0238 -0.6510
 6588SOL     OW31222   2.610   4.653  14.809 -0.4546 -0.2728  0.0926
 6588SOL    HW131223   2.568   4.569  14.827 -0.9039  0.3254  1.8487
 6588SOL    HW231224   2.613   4.648  14.714  0.5974  0.5630  0.0870
 6589SOL     OW31225   2.384   2.977  13.156 -0.4378  0.5151 -0.1859
 6589SOL    HW131226   2.372   3.006  13.065 -1.2670  1.2033  0.1452
 6589SOL    HW231227   2.463   3.027  13.177 -0.6930  1.2058 -0.8638
 6590SOL     OW31228   2.633   3.605  15.888 -0.4749  0.7214 -0.3062
 6590SOL    HW131229   2.706   3.628  15.831 -1.1135 -0.6514 -1.6938
 6590SOL    HW231230   2.676   3.588  15.972  0.6060  0.6776 -0.8747
 6591SOL     OW31231   0.283   2.683   0.466 -0.0098 -0.2185  1.1080
 6591SOL    HW131232   0.206   2.682   0.409  3.2339 -0.7245 -3.2668
 6591SOL    HW231233   0.291   2.602   0.517 -1.2358 -0.1167  1.4501
 6592SOL     OW31234   2.396   1.423  12.374  0.4342 -0.5846 -0.6463
 6592SOL    HW131235   2.303   1.407  12.393  0.0865  2.5395  0.2536
 6592SOL    HW231236   2.438   1.353  12.425 -0.2611 -1.5016 -1.3331
 6593SOL     OW31237   3.213   0.005   3.745 -0.3823  0.0844  0.1899
 6593SOL    HW131238   3.176   0.090   3.766  1.8378  0.5634  2.1985
 6593SOL    HW231239   3.138   4.666   3.757  0.1374 -0.3260  1.4258
 6594SOL     OW31240   2.302   2.293  12.251 -0.3992  0.7520  0.0637
 6594SOL    HW131241   2.360   2.360  12.215  1.5343 -0.1074  1.6126
 6594SOL    HW231242   2.302   2.316  12.344  0.1098  0.8536  0.0375
 6595SOL     OW31243   2.213   3.267   6.056 -0.0084  0.4118  0.3316
 6595SOL    HW131244   2.122   3.266   6.085 -0.2556  0.3487 -0.4596
 6595SOL    HW231245   2.212   3.218   5.975  0.6644  0.0046  0.5731
 6596SOL     OW31246   0.663   4.058   7.332  0.1931 -0.3626 -0.1771
 6596SOL    HW131247   0.699   4.048   7.420  1.0774 -1.2559 -0.6411
 6596SOL    HW231248   0.611   4.137   7.347 -1.4176 -1.5087  0.2657
 6597SOL     OW31249   0.878   2.771  15.191 -0.1245 -0.0853  0.3391
 6597SOL    HW131250   0.831   2.854  15.200 -0.8910 -0.4178 -0.6039
 6597SOL    HW231251   0.817   2.712  15.235  0.6867 -0.8016  0.5142
 6598SOL     OW31252   4.618   0.799   1.425 -0.1368 -0.0359 -0.0903
 6598SOL    HW131253   4.643   0.854   1.499 -0.4187  0.4704 -0.3623
 6598SOL    HW231254   4.587   0.720   1.469  2.1995 -1.3614 -0.8139
 6599SOL     OW31255   1.862   1.345   8.734 -0.2635  0.8624 -0.1125
 6599SOL    HW131256   1.903   1.301   8.659 -3.0811 -1.5723 -0.2385
 6599SOL    HW231257   1.796   1.400   8.693 -0.8574  0.1001 -0.1884
 6600SOL     OW31258   2.224   3.567   2.615 -0.7786 -0.0979 -0.5153
 6600SOL    HW131259   2.131   3.553   2.594 -1.6630  0.3474  3.0367
 6600SOL    HW231260   2.255   3.476   2.618  0.4255  0.3033 -1.0190
 6601SOL     OW31261   2.219   2.440   3.003 -0.1233 -0.0627 -0.0836
 6601SOL    HW131262   2.212   2.354   3.046 -3.1699  0.3594  0.2304
 6601SOL    HW231263   2.154   2.426   2.934  0.5077  0.2601 -0.7411
 6602SOL     OW31264   3.776   0.021   3.481 -0.1259  1.0688  0.0979
 6602SOL    HW131265   3.739   4.673   3.425  0.6163 -1.6301  2.9005
 6602SOL    HW231266   3.818   4.688   3.548  1.7723  1.4061 -0.8243
 6603SOL     OW31267   3.086   2.993   7.371  0.1803  0.1498  0.2402
 6603SOL    HW131268   3.143   2.962   7.441 -0.7181  2.6508  2.0879
 6603SOL    HW231269   3.153   3.004   7.304  0.9080  1.5897  1.1921
 6604SOL     OW31270   0.851   3.488   3.470  0.1652 -0.1846 -0.0828
 6604SOL    HW131271   0.900   3.570   3.471 -1.5024  0.8141  0.3252
 6604SOL    HW231272   0.921   3.429   3.443  0.3789  0.0316  0.0058
 6605SOL     OW31273   4.677   1.828   2.162 -0.0602  0.0138 -0.2233
 6605SOL    HW131274   4.701   1.886   2.090  2.6658  0.1206  0.7749
 6605SOL    HW231275   4.613   1.782   2.107 -0.1384  0.0344 -0.1497
 6606SOL     OW31276   0.990   2.954   6.657  0.8592  0.1510 -0.1422
 6606SOL    HW131277   1.028   3.034   6.620  0.2911  0.2805 -0.4358
 6606SOL    HW231278   0.982   2.989   6.746  3.6493  2.1624 -0.6766
 6607SOL     OW31279   0.921   3.317   8.621 -0.6612  0.1815 -0.0356
 6607SOL    HW131280   0.950   3.245   8.566 -2.7390 -0.1811 -0.6842
 6607SOL    HW231281   0.858   3.266   8.673  0.3817 -1.0967 -0.0259
 6608SOL     OW31282   4.092   1.686  10.662  0.4980  0.4254  0.4809
 6608SOL    HW131283   4.037   1.614  10.629  1.3018 -0.5304  1.2157
 6608SOL    HW231284   4.127   1.717  10.578 -1.2461  1.1504  0.0303
 6609SOL     OW31285   0.154   2.776   0.743 -0.7477 -0.5214  0.3331
 6609SOL    HW131286   0.211   2.718   0.794  0.3887  0.7317  0.4748
 6609SOL    HW231287   0.188   2.776   0.653 -2.3483 -1.6822 -0.2864
 6610SOL     OW31288   1.580   1.966   2.908 -0.3425 -0.0313 -0.0914
 6610SOL    HW131289   1.651   1.973   2.972 -0.6279 -1.1646  0.3489
 6610SOL    HW231290   1.597   2.038   2.848  1.2683 -0.2557  0.0815
 6611SOL     OW31291   1.736   3.788   7.305  0.3440  0.2437 -0.2644
 6611SOL    HW131292   1.787   3.736   7.366  0.7252 -0.9132 -1.5756
 6611SOL    HW231293   1.810   3.815   7.251  0.1844  0.1640 -0.5225
 6612SOL     OW31294   1.039   0.832   1.346 -0.3619 -0.1124  0.2308
 6612SOL    HW131295   1.037   0.790   1.432 -0.5751  1.8382  1.1790
 6612SOL    HW231296   1.133   0.849   1.339 -0.1919 -0.3214  1.9671
 6613SOL     OW31297   0.653   1.662   8.998 -0.3961 -0.1186 -0.4301
 6613SOL    HW131298   0.741   1.695   9.019  0.5363 -1.8806 -1.5296
 6613SOL    HW231299   0.666   1.568   9.012 -0.1022  0.1122  0.7902
 6614SOL     OW31300   4.633   1.774   2.835  0.4520 -0.3846 -0.2768
 6614SOL    HW131301   4.640   1.680   2.822 -1.2247 -0.5505  0.0542
 6614SOL    HW231302   4.694   1.788   2.908 -0.6559 -1.6357  0.8872
 6615SOL     OW31303   3.833   1.050  15.182 -0.6039 -0.2510 -0.1644
 6615SOL    HW131304   3.917   1.065  15.138 -0.0469  1.1087  1.3337
 6615SOL    HW231305   3.839   1.103  15.261  0.6417  2.5929 -2.1733
 6616SOL     OW31306   2.706   1.782   7.175  0.4020  0.1505 -0.7796
 6616SOL    HW131307   2.755   1.703   7.151  1.2329  0.9230 -1.6260
 6616SOL    HW231308   2.747   1.794   7.261  0.3576 -1.9451 -0.4472
 6617SOL     OW31309   0.987   1.634   0.871 -0.3723  0.3582 -0.1558
 6617SOL    HW131310   1.036   1.683   0.804  1.9858 -1.8481 -0.0281
 6617SOL    HW231311   1.046   1.646   0.946 -1.3280  3.2996  0.1180
 6618SOL     OW31312   3.747   0.245   6.127  0.1969  0.7373  0.4680
 6618SOL    HW131313   3.799   0.281   6.199 -1.3610  1.7982  1.0749
 6618SOL    HW231314   3.704   0.322   6.090  1.6212  1.9580  1.3479
 6619SOL     OW31315   3.593   0.396   1.129  0.7000 -0.6467  0.5220
 6619SOL    HW131316   3.528   0.333   1.158 -0.9376  0.0771 -1.6379
 6619SOL    HW231317   3.573   0.408   1.037  1.6454  0.1214  0.4101
 6620SOL     OW31318   4.552   2.288  17.231  0.2493  0.4404  0.2664
 6620SOL    HW131319   4.549   2.287  17.136  0.4805 -0.7303  0.2643
 6620SOL    HW231320   4.636   2.326  17.258  0.4946  0.1293 -0.0564
 6621SOL     OW31321   3.191   1.315   4.356  0.1935 -0.1324 -0.8357
 6621SOL    HW131322   3.153   1.338   4.441  1.9646 -0.4146  0.0211
 6621SOL    HW231323   3.113   1.295   4.304  0.3121  1.3774 -1.6063
 6622SOL     OW31324   3.781   2.263  12.957  0.0344 -0.5333  0.0031
 6622SOL    HW131325   3.874   2.238  12.961  0.1880  0.2051  1.1747
 6622SOL    HW231326   3.735   2.182  12.934  0.1269 -0.8953  1.0990
 6623SOL     OW31327   3.553   4.668   7.639 -0.4849 -0.2049 -0.1646
 6623SOL    HW131328   3.614   4.597   7.660 -0.7851 -0.7584 -1.1538
 6623SOL    HW231329   3.616   0.019   7.644 -0.5534 -0.2087  0.8958
 6624SOL     OW31330   0.650   0.314   2.981 -0.3288  0.3111  0.1497
 6624SOL    HW131331   0.690   0.239   2.938  0.2079  0.5558  0.2299
 6624SOL    HW231332   0.556   0.296   2.976 -0.1240 -0.4571 -0.9366
 6625SOL     OW31333   0.435   1.294   0.868  0.0234 -0.5655  0.3592
 6625SOL    HW131334   0.381   1.237   0.922 -1.5372  0.1295 -0.4842
 6625SOL    HW231335   0.508   1.305   0.929  0.3461 -0.5886 -0.0223
 6626SOL     OW31336   3.611   0.046   8.083 -0.1231  0.1226  0.0770
 6626SOL    HW131337   3.621   0.112   8.015 -2.9310  0.9852  0.5104
 6626SOL    HW231338   3.563   4.698   8.036  1.0045 -0.1740 -0.6441
 6627SOL     OW31339   0.100   3.595   6.989  0.5477  0.2366  0.4065
 6627SOL    HW131340   0.049   3.521   6.956  0.4176 -0.0666  1.2770
 6627SOL    HW231341   0.065   3.677   6.955  2.1487  0.1396 -1.5314
 6628SOL     OW31342   2.013   2.259   8.445  0.6256  0.2791  0.1449
 6628SOL    HW131343   1.933   2.208   8.436  0.6274  0.5615 -1.4258
 6628SOL    HW231344   2.033   2.263   8.539  1.5188 -0.4408 -0.0165
 6629SOL     OW31345   0.646   3.247   9.539 -0.8776  0.5737  0.3423
 6629SOL    HW131346   0.595   3.310   9.488  1.9556  1.3684 -1.4871
 6629SOL    HW231347   0.575   3.184   9.547 -1.2057  0.9449  0.3695
 6630SOL     OW31348   1.448   3.271  15.213  0.4650  0.8329  0.0018
 6630SOL    HW131349   1.401   3.326  15.276 -2.3213  0.2801 -1.6008
 6630SOL    HW231350   1.432   3.183  15.246  1.9592  1.1069  1.4578
 6631SOL     OW31351   3.394   2.038   2.345 -0.0517 -0.4943 -0.2185
 6631SOL    HW131352   3.408   1.953   2.303  2.2331  0.4609 -1.3772
 6631SOL    HW231353   3.310   2.019   2.386  0.8256 -1.1767  1.2419
 6632SOL     OW31354   2.733   4.520   7.582  0.4017  0.2207 -0.0678
 6632SOL    HW131355   2.810   4.526   7.638 -0.3304  0.0970  0.9640
 6632SOL    HW231356   2.747   4.427   7.564 -0.8116  0.3184 -1.4581
 6633SOL     OW31357   2.526   3.053  11.755 -0.1328 -0.0471  0.0644
 6633SOL    HW131358   2.547   3.079  11.845  1.2330  0.2015 -0.3416
 6633SOL    HW231359   2.510   2.959  11.768 -1.1752  0.1597  0.2788
 6634SOL     OW31360   3.320   0.293   7.850 -0.2015 -0.0682 -0.7277
 6634SOL    HW131361   3.344   0.363   7.911 -2.4063  0.3039 -0.2590
 6634SOL    HW231362   3.410   0.263   7.838  0.5347  1.0822  1.7450
 6635SOL     OW31363   0.995   2.821  11.533  0.1812  0.4585  0.1374
 6635SOL    HW131364   1.002   2.735  11.491 -1.5355 -0.2284  1.2729
 6635SOL    HW231365   1.080   2.862  11.515 -0.0054  0.3213 -1.0184
 6636SOL     OW31366   1.071   3.550  12.623 -0.4129 -0.4952 -0.0527
 6636SOL    HW131367   1.052   3.477  12.682 -1.4235  0.3595  0.6799
 6636SOL    HW231368   1.106   3.614  12.684 -0.2383  0.9216 -1.6361
 6637SOL     OW31369   3.042   2.974   3.037 -0.2054 -0.4346 -0.1454
 6637SOL    HW131370   2.992   3.037   2.985  0.9434 -0.0941 -0.8368
 6637SOL    HW231371   3.024   2.994   3.128  0.8667 -1.3903  0.2743
 6638SOL     OW31372   0.511   1.536   4.578 -0.1221  0.3759  0.3140
 6638SOL    HW131373   0.467   1.614   4.613  0.7593  1.2178 -0.4447
 6638SOL    HW231374   0.509   1.485   4.659 -0.7254  0.0016  0.0582
 6639SOL     OW31375   1.975   3.716   4.956  0.8700 -0.7800  0.4547
 6639SOL    HW131376   1.937   3.785   4.901  0.6384  1.4891  3.4694
 6639SOL    HW231377   1.951   3.640   4.903 -1.0188  0.7011 -0.7785
 6640SOL     OW31378   0.387   4.538   5.538 -0.0174 -0.0324  0.0436
 6640SOL    HW131379   0.434   4.610   5.496  0.8867  1.0424  2.9039
 6640SOL    HW231380   0.300   4.558   5.502 -0.3244 -1.9216 -0.2314
 6641SOL     OW31381   1.128   1.297  15.141  0.3865  0.0079 -0.0378
 6641SOL    HW131382   1.092   1.228  15.197  1.9906  0.3321  1.4044
 6641SOL    HW231383   1.177   1.343  15.209 -0.4772  1.3889 -0.3695
 6642SOL     OW31384   3.579   4.596   3.262  0.0782 -0.0370  0.3492
 6642SOL    HW131385   3.558   4.552   3.180 -1.8664 -0.0860  0.8765
 6642SOL    HW231386   3.556   4.520   3.315 -0.0417 -1.7557 -2.1713
 6643SOL     OW31387   4.595   1.338   2.024  0.0736  0.3494  0.4264
 6643SOL    HW131388   4.565   1.426   2.047 -2.5851 -1.1713  2.7739
 6643SOL    HW231389   4.650   1.367   1.951 -1.0799 -0.2119 -0.6670
 6644SOL     OW31390   0.438   0.827   5.130  0.2037  0.6417  0.3015
 6644SOL    HW131391   0.443   0.775   5.210 -1.9757  0.2310  0.1838
 6644SOL    HW231392   0.473   0.913   5.152 -0.2670  1.4281 -2.0193
 6645SOL     OW31393   0.396   2.872   1.156  0.1747 -0.1301  0.2596
 6645SOL    HW131394   0.437   2.810   1.216  1.0354 -0.3354 -0.5578
 6645SOL    HW231395   0.425   2.949   1.205 -0.3126 -1.7045  3.0499
 6646SOL     OW31396   4.264   4.224  11.508  0.9205  0.5395  0.0335
 6646SOL    HW131397   4.211   4.255  11.581 -0.7473  1.2640 -1.4763
 6646SOL    HW231398   4.193   4.217  11.445  1.0912  2.3613 -0.3387
 6647SOL     OW31399   2.613   4.620  14.550  0.9150  0.3327 -0.0653
 6647SOL    HW131400   2.589   4.530  14.529  2.5112  0.1464 -1.1711
 6647SOL    HW231401   2.597   4.667  14.468  0.0725  0.8073  0.3764
 6648SOL     OW31402   0.942   2.974  14.523  0.7051 -0.4054  0.1565
 6648SOL    HW131403   0.949   2.901  14.462  1.9454 -1.3559  1.4350
 6648SOL    HW231404   1.024   3.022  14.518  1.2130 -1.1163  1.6747
 6649SOL     OW31405   1.572   0.558   8.608  0.5328  0.5638  0.3680
 6649SOL    HW131406   1.575   0.587   8.699 -1.2074  0.0916  0.5672
 6649SOL    HW231407   1.491   0.508   8.616 -0.6312  2.3392 -0.4556
 6650SOL     OW31408   0.097   4.092   4.582 -0.0503 -0.4180  0.3804
 6650SOL    HW131409   0.056   4.148   4.515  0.3176 -0.9920 -0.3331
 6650SOL    HW231410   0.186   4.083   4.549  0.3531  0.7521  1.1581
 6651SOL     OW31411   1.270   4.140  17.644  0.5723  0.7009  0.1397
 6651SOL    HW131412   1.237   4.139   0.049 -1.9231 -2.2394 -0.8454
 6651SOL    HW231413   1.317   4.057  17.645 -0.4091  0.1426 -0.7038
 6652SOL     OW31414   4.042   2.489   9.218  0.3474  0.4262  0.1596
 6652SOL    HW131415   4.025   2.509   9.126 -2.2049 -1.6824  0.1554
 6652SOL    HW231416   3.953   2.499   9.252 -0.0035 -0.1232 -0.5885
 6653SOL     OW31417   3.032   3.231   8.462  0.0977  0.3212  0.1399
 6653SOL    HW131418   3.094   3.172   8.419  0.5860 -0.5065  1.9861
 6653SOL    HW231419   2.969   3.167   8.497 -0.2323 -0.2811 -1.5639
 6654SOL     OW31420   3.174   1.464  16.474  0.0735 -0.1080  0.3673
 6654SOL    HW131421   3.101   1.526  16.465  0.5783  0.0386 -2.5705
 6654SOL    HW231422   3.232   1.523  16.521  1.7028 -2.5300  1.3634
 6655SOL     OW31423   3.579   1.174   8.794  0.3675 -0.4686  0.2395
 6655SOL    HW131424   3.661   1.213   8.825 -0.5822  0.6674  1.3070
 6655SOL    HW231425   3.551   1.109   8.858  0.1303  0.4942  1.1212
 6656SOL     OW31426   0.688   1.306   3.124  0.7689  0.0768 -0.5236
 6656SOL    HW131427   0.748   1.363   3.173  0.4520  0.6535 -0.8051
 6656SOL    HW231428   0.656   1.367   3.057  1.0269 -1.9646 -2.4924
 6657SOL     OW31429   4.014   4.488   6.127  0.3250 -1.2891  0.1128
 6657SOL    HW131430   3.953   4.448   6.066 -0.7912  1.3913 -0.5508
 6657SOL    HW231431   3.969   4.572   6.140 -0.9496 -1.9615  0.0191
 6658SOL     OW31432   0.960   2.101   3.310 -0.0451  0.0910  0.0776
 6658SOL    HW131433   0.927   2.062   3.229 -2.0988  0.1259  0.9023
 6658SOL    HW231434   1.015   2.031   3.346 -0.5602 -0.1334  0.4252
 6659SOL     OW31435   1.385   2.712  17.389  0.0240 -0.0731  0.4584
 6659SOL    HW131436   1.385   2.797  17.345  1.1392  0.2357  1.0579
 6659SOL    HW231437   1.348   2.737  17.473  2.5707  1.4555  1.1406
 6660SOL     OW31438   2.167   0.292   4.537  0.1126  0.2396  0.5094
 6660SOL    HW131439   2.102   0.361   4.547 -1.8384 -1.3853 -1.0985
 6660SOL    HW231440   2.248   0.341   4.521 -0.0224  0.3592  0.2017
 6661SOL     OW31441   1.671   0.656   2.501  0.3621 -0.5846  0.4402
 6661SOL    HW131442   1.712   0.691   2.422 -0.7954  0.0327  0.1243
 6661SOL    HW231443   1.746   0.635   2.557  1.4454  0.9428 -0.4568
 6662SOL     OW31444   2.952   3.221  17.623 -0.3555  0.4218  0.4020
 6662SOL    HW131445   2.938   3.311  17.596 -0.7941  0.1229 -0.3565
 6662SOL    HW231446   2.975   3.231   0.031 -0.2107 -0.4543  0.4669
 6663SOL     OW31447   2.754   1.950   8.116  0.4835 -0.1417  0.8331
 6663SOL    HW131448   2.819   1.896   8.161  1.6448  0.2831 -0.3280
 6663SOL    HW231449   2.792   2.037   8.130  0.6390  0.0575 -0.8319
 6664SOL     OW31450   0.690   2.711   6.690  0.0183 -0.0831 -0.0583
 6664SOL    HW131451   0.641   2.640   6.649 -1.1092  1.5602 -1.5126
 6664SOL    HW231452   0.760   2.662   6.735 -0.0639  0.6688  0.8991
 6665SOL     OW31453   0.542   2.745   8.876  0.2737 -0.3455 -0.0913
 6665SOL    HW131454   0.500   2.711   8.797 -1.4139  0.5309  0.4430
 6665SOL    HW231455   0.587   2.669   8.911  0.4755  0.2515  0.9437
 6666SOL     OW31456   2.420   1.207   4.345  0.0563 -0.7499 -0.0778
 6666SOL    HW131457   2.396   1.259   4.422  1.6041  1.9272 -1.3881
 6666SOL    HW231458   2.452   1.129   4.389 -0.3228  0.1794  1.8441
 6667SOL     OW31459   4.090   0.777   8.284  0.0128 -0.7393 -0.1805
 6667SOL    HW131460   4.164   0.816   8.332 -0.5025 -1.9901  1.6015
 6667SOL    HW231461   4.053   0.723   8.353 -2.5425 -0.5832 -1.4209
 6668SOL     OW31462   3.476   1.634   4.514  0.1219  0.0220  0.2703
 6668SOL    HW131463   3.542   1.677   4.461 -2.3692  0.2760 -2.6312
 6668SOL    HW231464   3.493   1.540   4.505 -0.6834 -0.0305 -0.7297
 6669SOL     OW31465   3.607   0.353  11.483 -0.0077 -0.3545 -0.1636
 6669SOL    HW131466   3.650   0.268  11.469  2.5341  0.8420  0.4140
 6669SOL    HW231467   3.662   0.387  11.554 -2.5966  0.6874  1.3454
 6670SOL     OW31468   4.472   3.808   3.639 -0.1173 -0.4468 -1.0495
 6670SOL    HW131469   4.545   3.867   3.624 -1.5452  1.6106  0.1065
 6670SOL    HW231470   4.504   3.720   3.616 -0.5420 -0.6341 -0.9235
 6671SOL     OW31471   3.182   1.770  13.581  0.4949 -0.5606 -0.0957
 6671SOL    HW131472   3.201   1.676  13.572  0.5741 -0.7261  1.8205
 6671SOL    HW231473   3.123   1.791  13.508  3.1272  4.9379 -0.6477
 6672SOL     OW31474   4.043   3.854   8.233  0.1464 -0.0845  0.1096
 6672SOL    HW131475   4.009   3.772   8.267  3.8510 -2.0979 -1.1405
 6672SOL    HW231476   3.980   3.887   8.168 -1.5780 -0.1010  1.8051
 6673SOL     OW31477   2.818   1.335   7.418  0.4762  0.3122 -0.0691
 6673SOL    HW131478   2.839   1.290   7.499  2.0733 -0.2319 -0.7721
 6673SOL    HW231479   2.906   1.341   7.379  0.8065 -1.7963  0.3627
 6674SOL     OW31480   4.444   0.794  14.609  0.0468  0.0385  0.0870
 6674SOL    HW131481   4.484   0.761  14.529  0.4675 -0.3679  0.4669
 6674SOL    HW231482   4.395   0.715  14.632  0.4708 -1.2258 -3.3827
 6675SOL     OW31483   3.878   4.719   7.911  0.0560  0.2452  0.2161
 6675SOL    HW131484   3.826   0.012   7.832  2.7854  0.7617 -1.4932
 6675SOL    HW231485   3.826   4.650   7.953  2.1056 -1.2221  0.3370
 6676SOL     OW31486   1.659   1.000   3.754 -0.0614  0.3891  0.2143
 6676SOL    HW131487   1.572   1.038   3.741 -0.7899 -1.5881 -0.6016
 6676SOL    HW231488   1.710   1.016   3.675 -0.4045  1.2023  0.1540
 6677SOL     OW31489   1.368   3.442   5.016 -0.4592  0.1412  0.2984
 6677SOL    HW131490   1.454   3.431   5.058 -0.0301 -0.8939 -0.8389
 6677SOL    HW231491   1.322   3.390   5.081  0.9608 -0.9209  0.4748
 6678SOL     OW31492   1.523   2.878   7.086  0.1866  0.5784 -0.3153
 6678SOL    HW131493   1.593   2.936   7.057  0.2008  0.7745  0.1015
 6678SOL    HW231494   1.450   2.938   7.103  0.4632 -0.0523  3.2199
 6679SOL     OW31495   3.698   0.651   8.127 -0.7029  0.0169 -0.6968
 6679SOL    HW131496   3.762   0.713   8.093  1.3681 -1.4291  0.5208
 6679SOL    HW231497   3.677   0.705   8.203 -1.0872  0.3823 -1.0729
 6680SOL     OW31498   1.209   1.183   0.089  0.3814  0.0432  0.3073
 6680SOL    HW131499   1.285   1.131   0.062 -0.0350 -0.4605  0.0911
 6680SOL    HW231500   1.214   1.245   0.017 -1.6518 -2.3742 -1.9337
 6681SOL     OW31501   0.417   4.505  11.780  0.4922 -0.2341  0.0762
 6681SOL    HW131502   0.470   4.532  11.705  0.1778  2.4871  0.8300
 6681SOL    HW231503   0.341   4.471  11.734 -0.4496 -0.6826  1.9490
 6682SOL     OW31504   0.093   0.155   9.033 -0.2602  0.5892  0.1953
 6682SOL    HW131505   0.004   0.140   8.999  0.5480 -0.5548 -1.4156
 6682SOL    HW231506   0.146   0.142   8.954  0.7525  1.5752  0.7140
 6683SOL     OW31507   4.394   0.739  11.346  0.0532 -0.0836 -0.4365
 6683SOL    HW131508   4.415   0.679  11.274 -0.7695  1.0608 -1.6159
 6683SOL    HW231509   4.460   0.719  11.412 -0.5843  0.2394  0.2913
 6684SOL     OW31510   3.545   3.927   3.073 -0.0248  0.1660  0.3813
 6684SOL    HW131511   3.458   3.894   3.048  1.1794 -1.4595 -1.6259
 6684SOL    HW231512   3.571   3.852   3.126 -2.3702 -1.6423 -1.0183
 6685SOL     OW31513   3.816   1.059   1.450  0.0560 -0.3716 -0.0031
 6685SOL    HW131514   3.795   1.124   1.517  0.4956 -0.6945  0.4477
 6685SOL    HW231515   3.827   0.981   1.505  4.2601  0.5254  0.3816
 6686SOL     OW31516   4.577   3.013   3.275  0.2565  0.1278 -0.4015
 6686SOL    HW131517   4.505   3.046   3.221 -0.1271  0.5510  0.3585
 6686SOL    HW231518   4.646   3.023   3.211  0.7930  1.8852  0.4665
 6687SOL     OW31519   3.628   0.572   5.620 -0.1673 -0.1638 -0.3995
 6687SOL    HW131520   3.683   0.513   5.569  2.0153  0.1797  1.5507
 6687SOL    HW231521   3.691   0.630   5.663 -0.4333 -2.0849  2.5398
 6688SOL     OW31522   1.145   1.204   4.115  0.1148  0.2879  0.7654
 6688SOL    HW131523   1.181   1.291   4.131 -0.7724  0.9646 -0.9446
 6688SOL    HW231524   1.161   1.194   4.021 -1.0187 -1.3769  0.7546
 6689SOL     OW31525   1.706   3.441   5.035  0.1130  0.4712  0.2096
 6689SOL    HW131526   1.692   3.526   5.076  1.8263  1.4277 -1.2085
 6689SOL    HW231527   1.779   3.403   5.084 -1.3225 -2.0637  0.3962
 6690SOL     OW31528   1.500   0.900   7.336  0.0504  0.0430  0.2099
 6690SOL    HW131529   1.524   0.993   7.333  1.1264 -0.2610 -0.7425
 6690SOL    HW231530   1.579   0.861   7.374 -1.4878 -1.3408  1.9953
 6691SOL     OW31531   1.963   2.660  13.152 -0.0442  0.0383 -0.0643
 6691SOL    HW131532   2.043   2.710  13.171  0.7933 -1.9884  1.6942
 6691SOL    HW231533   1.931   2.650  13.242 -0.2237 -0.1535 -0.1503
 6692SOL     OW31534   3.511   1.601   7.379  0.3466  0.5479 -0.1661
 6692SOL    HW131535   3.551   1.675   7.426  0.3524  1.0241 -0.9210
 6692SOL    HW231536   3.472   1.552   7.451 -1.6475  1.4126 -0.6581
 6693SOL     OW31537   3.586   0.527   7.068 -0.1109 -0.1894 -0.4482
 6693SOL    HW131538   3.497   0.492   7.063 -1.0098  2.1342 -0.6043
 6693SOL    HW231539   3.625   0.451   7.112  0.7065  1.9511  2.4678
 6694SOL     OW31540   1.147   0.464   1.614 -0.4363 -0.3283  0.4917
 6694SOL    HW131541   1.195   0.442   1.694 -1.9397  0.0204  1.4810
 6694SOL    HW231542   1.116   0.378   1.588 -0.5517  0.0988 -0.7615
 6695SOL     OW31543   0.672   4.297  11.449 -0.5265 -0.2294 -1.0196
 6695SOL    HW131544   0.741   4.249  11.402 -3.0489 -3.0009 -1.9335
 6695SOL    HW231545   0.718   4.319  11.530 -1.0969  1.6495 -1.2019
 6696SOL     OW31546   1.042   3.690   3.432  0.5433  0.2461  0.7648
 6696SOL    HW131547   1.126   3.646   3.445  0.6085 -1.0202 -3.8849
 6696SOL    HW231548   1.041   3.743   3.512 -0.7814  0.5691  0.5253
 6697SOL     OW31549   1.957   4.222   7.498 -0.1174 -0.5850 -0.0754
 6697SOL    HW131550   2.037   4.266   7.528 -0.8993 -0.3489  1.7064
 6697SOL    HW231551   1.924   4.160   7.564 -0.0934 -1.5813 -0.9888
 6698SOL     OW31552   1.802   4.017   6.344  0.0495 -0.3627  0.0429
 6698SOL    HW131553   1.783   4.013   6.251  1.9275  2.1183 -0.4454
 6698SOL    HW231554   1.790   3.926   6.372 -3.7553 -0.3155 -1.4412
 6699SOL     OW31555   3.160   4.313   9.561  0.0603  0.2510  0.6027
 6699SOL    HW131556   3.219   4.325   9.635  0.3930  1.7503  0.0921
 6699SOL    HW231557   3.217   4.324   9.485 -1.2153 -0.5244 -0.4702
 6700SOL     OW31558   0.840   0.470   7.000 -0.5445 -0.4701  0.0834
 6700SOL    HW131559   0.797   0.413   7.063  0.1073 -1.7537 -0.6352
 6700SOL    HW231560   0.918   0.480   7.055 -1.6246  0.5316  1.4279
 6701SOL     OW31561   0.070   1.022  14.097  0.3636  0.2976  0.1016
 6701SOL    HW131562   4.699   0.995  14.104  0.9041 -0.8424  2.8297
 6701SOL    HW231563   0.067   1.074  14.016  0.3929  1.6474  0.9694
 6702SOL     OW31564   1.659   2.216   8.132  0.0356  1.0169 -0.0179
 6702SOL    HW131565   1.728   2.206   8.067  2.2460  0.0451  2.4963
 6702SOL    HW231566   1.616   2.296   8.101 -1.2436  0.7689  1.1094
 6703SOL     OW31567   0.395   0.166   0.406 -0.3481 -0.3338 -0.3615
 6703SOL    HW131568   0.353   0.146   0.322 -0.2074 -0.3673 -0.4239
 6703SOL    HW231569   0.319   0.183   0.461 -1.1573 -4.8185 -0.0405
 6704SOL     OW31570   0.553   3.645   5.210  0.3640  0.3565 -0.3214
 6704SOL    HW131571   0.465   3.675   5.187 -0.1530 -1.4801 -0.7071
 6704SOL    HW231572   0.582   3.730   5.244  0.7400  0.4186 -0.8026
 6705SOL     OW31573   4.242   0.306   2.272 -0.0258 -0.0024 -0.1735
 6705SOL    HW131574   4.328   0.305   2.231 -0.6396  2.0141 -1.5221
 6705SOL    HW231575   4.213   0.223   2.234 -0.8800 -0.2288  0.9859
 6706SOL     OW31576   1.668   0.443  12.653  0.0471 -0.3028 -0.3524
 6706SOL    HW131577   1.674   0.534  12.683 -0.8825  0.0593 -1.2900
 6706SOL    HW231578   1.659   0.448  12.558 -0.8173 -0.0548 -0.2588
 6707SOL     OW31579   3.001   2.121  10.881 -0.3527 -0.0160 -0.0608
 6707SOL    HW131580   3.082   2.166  10.905 -1.6606  0.8165  2.7302
 6707SOL    HW231581   2.969   2.180  10.813 -1.6299 -1.3372 -0.6012
 6708SOL     OW31582   1.475   4.322   9.237  0.2182  0.2316 -0.2898
 6708SOL    HW131583   1.381   4.303   9.234 -0.0340  1.4358 -0.0202
 6708SOL    HW231584   1.497   4.355   9.325 -0.5593  0.9337 -0.3599
 6709SOL     OW31585   3.572   4.458   8.388 -0.2139  0.6582  0.1786
 6709SOL    HW131586   3.488   4.503   8.391 -0.3886  0.4721 -1.7513
 6709SOL    HW231587   3.630   4.532   8.370  1.1616  0.1483  2.5049
 6710SOL     OW31588   2.133   3.592   9.149 -0.0071  0.3260 -0.1640
 6710SOL    HW131589   2.092   3.664   9.198  1.2863  2.3627 -2.0561
 6710SOL    HW231590   2.226   3.613   9.152  0.4311 -1.4005 -1.9161
 6711SOL     OW31591   0.270   1.809   7.401  0.2407  0.1403  0.3436
 6711SOL    HW131592   0.304   1.753   7.471 -1.2077 -0.1107  0.8662
 6711SOL    HW231593   0.298   1.897   7.429  1.6247  0.2498 -1.4569
 6712SOL     OW31594   3.997   4.202   7.856 -0.2909  0.1097  0.1771
 6712SOL    HW131595   4.077   4.202   7.908 -0.2846  0.7069  0.1694
 6712SOL    HW231596   4.031   4.166   7.774  2.4269  1.1056  0.8545
 6713SOL     OW31597   0.394   1.352   6.154  0.1435  0.2881  0.0250
 6713SOL    HW131598   0.469   1.302   6.120  0.2356 -0.9336  2.0132
 6713SOL    HW231599   0.421   1.358   6.246  0.4245 -0.0293 -0.0369
 6714SOL     OW31600   4.389   2.162  16.193 -0.2280 -0.3360  0.2814
 6714SOL    HW131601   4.421   2.076  16.167 -1.1030 -0.1252 -1.5071
 6714SOL    HW231602   4.467   2.210  16.219  0.5952 -1.0229 -0.9006
 6715SOL     OW31603   4.416   2.050   7.536  0.1396 -0.0529  0.4337
 6715SOL    HW131604   4.462   1.988   7.479  0.5466  0.3506  0.3234
 6715SOL    HW231605   4.446   2.013   7.619  2.2057  0.5106 -0.0596
 6716SOL     OW31606   2.770   3.271   0.249  0.0055  0.2027 -0.1974
 6716SOL    HW131607   2.857   3.310   0.261  0.2266 -0.4603  0.3219
 6716SOL    HW231608   2.773   3.197   0.309  0.4069 -0.2469 -0.7753
 6717SOL     OW31609   0.065   2.713  17.415 -0.0417 -0.2984  0.2267
 6717SOL    HW131610   0.098   2.803  17.406  0.5023 -0.6796 -1.6107
 6717SOL    HW231611   4.704   2.717  17.365  0.1679  0.8347 -0.0268
 6718SOL     OW31612   1.526   1.454   6.477  0.0242 -0.3828  0.0382
 6718SOL    HW131613   1.501   1.505   6.400 -1.2808 -1.2278 -0.1094
 6718SOL    HW231614   1.507   1.367   6.441  0.7362 -0.5365  0.0376
 6719SOL     OW31615   0.734   3.760  13.542 -0.7822  0.2576  0.5183
 6719SOL    HW131616   0.666   3.827  13.554 -0.2574  1.0554 -0.9886
 6719SOL    HW231617   0.725   3.739  13.449  0.4057  0.0212  0.4596
 6720SOL     OW31618   4.519   3.814   8.197  0.1138  0.3199 -0.4200
 6720SOL    HW131619   4.506   3.898   8.241  0.2486 -0.1523  0.5177
 6720SOL    HW231620   4.432   3.796   8.160  0.2395 -1.0057 -0.0878
 6721SOL     OW31621   1.434   2.669   4.080  0.0058  0.1006 -0.2269
 6721SOL    HW131622   1.491   2.684   4.004  1.9803 -0.3319  1.1625
 6721SOL    HW231623   1.497   2.695   4.147  0.9425  0.6174 -1.3020
 6722SOL     OW31624   0.212   3.265   8.587  0.9187 -0.0501 -0.1274
 6722SOL    HW131625   0.277   3.319   8.631  0.6794  0.8806 -0.9025
 6722SOL    HW231626   0.155   3.234   8.657  2.1268 -1.0052  0.4090
 6723SOL     OW31627   0.113   3.331   2.856 -0.2098  0.3677 -0.6498
 6723SOL    HW131628   0.174   3.393   2.897  0.4660 -0.8568  0.1772
 6723SOL    HW231629   0.168   3.262   2.818 -1.2371 -1.7728  1.7584
 6724SOL     OW31630   1.995   3.896   0.532 -0.1444 -0.1952 -0.3162
 6724SOL    HW131631   1.967   3.811   0.567  1.9434 -1.4181 -1.6667
 6724SOL    HW231632   2.058   3.923   0.599  0.0328  1.4244 -1.1304
 6725SOL     OW31633   1.347   2.113   1.349  0.3298  0.6388  0.0706
 6725SOL    HW131634   1.376   2.182   1.289 -1.4499  0.5530 -0.8876
 6725SOL    HW231635   1.252   2.120   1.339  0.2149 -1.4513 -0.1313
 6726SOL     OW31636   1.992   3.566  14.929  0.3748 -0.0108 -0.1545
 6726SOL    HW131637   2.028   3.630  14.990 -3.0965 -0.5883  2.5190
 6726SOL    HW231638   1.992   3.489  14.985 -0.2521 -1.2758 -1.8857
 6727SOL     OW31639   3.707   0.147   3.972 -0.0326 -0.6443 -0.2647
 6727SOL    HW131640   3.613   0.134   3.980 -0.3822  1.9284 -0.0563
 6727SOL    HW231641   3.748   0.072   4.013  2.0265  0.2581 -0.6571
 6728SOL     OW31642   1.314   1.505   1.972 -0.2295  0.7110 -0.2806
 6728SOL    HW131643   1.271   1.426   2.005 -2.2932  0.3112 -3.9385
 6728SOL    HW231644   1.346   1.546   2.052  1.0387 -0.8098 -0.0055
 6729SOL     OW31645   1.887   3.105   2.149  0.0155  0.4331  0.1098
 6729SOL    HW131646   1.973   3.074   2.119 -0.6815 -0.1285 -1.3114
 6729SOL    HW231647   1.925   3.185   2.186 -2.2431  1.0172  1.0993
 6730SOL     OW31648   3.780   2.472   6.531  0.6752 -0.0017  0.3355
 6730SOL    HW131649   3.727   2.423   6.468 -1.7073  0.0418  2.3259
 6730SOL    HW231650   3.841   2.407   6.566  0.1293 -0.8233 -0.2349
 6731SOL     OW31651   4.261   2.093   2.678  0.3193  0.1359  0.3948
 6731SOL    HW131652   4.295   2.175   2.715 -1.1899  0.3522  1.2886
 6731SOL    HW231653   4.288   2.026   2.740 -2.0572 -3.1949 -2.1929
 6732SOL     OW31654   4.554   0.671   8.044 -0.3843  0.8605 -0.4505
 6732SOL    HW131655   4.549   0.724   8.124 -1.5853 -0.8164  0.5928
 6732SOL    HW231656   4.641   0.692   8.011 -0.1541  0.3465 -0.1770
 6733SOL     OW31657   4.283   1.322   4.949  0.0043  0.2086 -0.0353
 6733SOL    HW131658   4.279   1.405   4.997  0.0907  0.8356 -1.1275
 6733SOL    HW231659   4.373   1.292   4.962  0.5820  2.2234  0.6522
 6734SOL     OW31660   0.432   0.021   3.897  0.1086  0.0701  0.3547
 6734SOL    HW131661   0.472   4.716   3.980 -0.3448 -1.2254  0.1759
 6734SOL    HW231662   0.497   0.011   3.827 -2.1508  0.2789 -1.7640
 6735SOL     OW31663   3.723   1.754  15.790  0.0187  0.1323 -0.0674
 6735SOL    HW131664   3.806   1.731  15.749  0.7404  1.0607  0.8807
 6735SOL    HW231665   3.707   1.676  15.843  2.3361  2.4768  4.0420
 6736SOL     OW31666   0.179   2.785   5.389 -0.1661  0.0979 -0.1385
 6736SOL    HW131667   0.226   2.764   5.308  1.1166 -1.6008  1.0600
 6736SOL    HW231668   0.260   2.813   5.432 -0.7661 -0.3416  1.2632
 6737SOL     OW31669   3.948   3.100   9.108 -0.0576  0.2531  0.0504
 6737SOL    HW131670   3.860   3.136   9.120  0.6364  1.5169  1.2742
 6737SOL    HW231671   3.993   3.183   9.120 -1.3106  0.8825  0.4599
 6738SOL     OW31672   2.725   2.818  11.515 -0.4915  0.1666 -0.0726
 6738SOL    HW131673   2.783   2.747  11.544 -2.0736  0.3511  3.4714
 6738SOL    HW231674   2.680   2.839  11.596  0.2364  0.4246  0.2628
 6739SOL     OW31675   2.664   2.347   9.979 -0.7111  0.1489  0.4438
 6739SOL    HW131676   2.756   2.321   9.970 -0.2797  1.9312 -0.2352
 6739SOL    HW231677   2.644   2.275  10.039 -1.8984 -0.0634 -0.2092
 6740SOL     OW31678   0.527   2.905   7.665  0.3783 -0.2668  0.0375
 6740SOL    HW131679   0.495   2.987   7.702  0.1311  0.7146 -2.3546
 6740SOL    HW231680   0.453   2.884   7.609  1.2675 -0.7254 -0.9667
 6741SOL     OW31681   0.525   4.178  14.506 -0.0729  0.0334 -0.0543
 6741SOL    HW131682   0.501   4.088  14.526  0.4569 -0.4671 -1.6910
 6741SOL    HW231683   0.449   4.234  14.522  0.0361  0.4059 -0.8451
 6742SOL     OW31684   1.194   1.652   5.238  0.4259  0.2632  0.4396
 6742SOL    HW131685   1.266   1.706   5.268  0.0278 -0.3681  2.5240
 6742SOL    HW231686   1.228   1.563   5.251  2.0844  0.8241 -0.0913
 6743SOL     OW31687   3.026   4.458   2.883  0.4537 -0.1528 -0.1731
 6743SOL    HW131688   2.941   4.497   2.904  0.6454  0.7670 -1.1049
 6743SOL    HW231689   3.058   4.525   2.822 -0.5007 -0.2676 -0.7996
 6744SOL     OW31690   3.465   1.442   7.587  0.0903 -0.6252 -0.1661
 6744SOL    HW131691   3.405   1.475   7.654 -1.1800  0.5550 -1.8847
 6744SOL    HW231692   3.431   1.352   7.584 -2.8435  0.4601 -0.0714
 6745SOL     OW31693   1.643   4.247   8.499 -0.3201 -0.1206  0.3562
 6745SOL    HW131694   1.597   4.199   8.567 -0.7338  0.9844  0.8374
 6745SOL    HW231695   1.673   4.324   8.547 -0.0906  0.8897 -1.4073
 6746SOL     OW31696   0.456   4.226   3.640  0.2300  0.0641  0.2107
 6746SOL    HW131697   0.472   4.320   3.648  1.4192 -0.0076 -1.1675
 6746SOL    HW231698   0.533   4.189   3.685  0.5897  1.0093  0.3623
 6747SOL     OW31699   3.364   4.548   2.065  0.4246  0.4601  0.0779
 6747SOL    HW131700   3.450   4.555   2.025 -1.2306  1.9964 -3.1712
 6747SOL    HW231701   3.345   4.640   2.083 -0.2555  0.6633 -1.7149
 6748SOL     OW31702   2.911   3.559   9.375 -0.0362  0.2071  0.1293
 6748SOL    HW131703   2.833   3.508   9.400 -2.4541  5.1599  2.5998
 6748SOL    HW231704   2.862   3.638   9.354 -1.5162 -0.3123  1.5520
 6749SOL     OW31705   3.489   3.392   8.176  0.0752 -0.1895  0.1000
 6749SOL    HW131706   3.482   3.336   8.253 -0.0730 -1.1182 -0.5991
 6749SOL    HW231707   3.412   3.363   8.127 -0.2225  0.3283  0.2571
 6750SOL     OW31708   1.944   2.507   6.111 -0.2014  0.4023  0.1445
 6750SOL    HW131709   2.037   2.495   6.093 -0.4522  1.1812 -1.7191
 6750SOL    HW231710   1.909   2.486   6.024  1.2984 -3.3678  0.4570
 6751SOL     OW31711   2.508   4.440   7.409  0.4064  0.0157 -0.0039
 6751SOL    HW131712   2.584   4.494   7.434 -0.6643  1.6062 -0.1656
 6751SOL    HW231713   2.562   4.374   7.367 -0.8873 -2.0760  1.6292
 6752SOL     OW31714   2.956   3.851   7.468  0.0923 -0.0482  0.0363
 6752SOL    HW131715   2.981   3.761   7.451  0.8342  0.1546  0.0690
 6752SOL    HW231716   2.862   3.846   7.447  0.4515 -1.5104 -1.1665
 6753SOL     OW31717   0.497   4.205   8.759  0.4646  0.5859  0.1797
 6753SOL    HW131718   0.440   4.280   8.775 -2.2846 -1.6859  1.0570
 6753SOL    HW231719   0.527   4.216   8.668  1.8169  1.4567  0.7339
 6754SOL     OW31720   0.917   1.721   9.068  0.2877  0.0474 -0.0132
 6754SOL    HW131721   0.946   1.795   9.120  0.1706 -0.3032  0.5499
 6754SOL    HW231722   0.906   1.645   9.126  1.2639 -0.2591 -0.2220
 6755SOL     OW31723   0.851   1.260  16.858 -0.2437  0.4130  0.0225
 6755SOL    HW131724   0.876   1.173  16.889 -0.2191  1.0797  1.8838
 6755SOL    HW231725   0.796   1.242  16.782  2.0283  0.1690 -1.5767
 6756SOL     OW31726   1.357   4.698   2.332 -0.4599 -0.0561 -0.2368
 6756SOL    HW131727   1.341   4.604   2.338 -3.5160  0.6222  1.9470
 6756SOL    HW231728   1.420   4.712   2.402 -1.0520  0.0539  0.2714
 6757SOL     OW31729   2.363   3.204   6.456 -0.1058 -0.1223  0.5833
 6757SOL    HW131730   2.413   3.209   6.538  0.5306  0.3502  0.1643
 6757SOL    HW231731   2.317   3.288   6.460  0.9361  0.4784 -0.0443
 6758SOL     OW31732   2.127   4.356   7.104  0.0120 -0.0495  0.2630
 6758SOL    HW131733   2.200   4.392   7.155 -0.1124 -0.1551  0.5150
 6758SOL    HW231734   2.120   4.268   7.141  0.1824 -0.8301 -1.5664
 6759SOL     OW31735   0.276   3.381   9.581 -0.0978 -0.2575  0.1873
 6759SOL    HW131736   0.266   3.311   9.646  2.5479 -0.5526  0.3123
 6759SOL    HW231737   0.190   3.378   9.539  1.3917 -4.0602 -2.6324
 6760SOL     OW31738   4.522   3.828  14.428  0.1035 -0.3167  0.1148
 6760SOL    HW131739   4.467   3.749  14.428  2.9079 -2.2377  2.6800
 6760SOL    HW231740   4.518   3.844  14.334 -2.1194  0.6964  0.3767
 6761SOL     OW31741   0.308   4.216   8.204  0.0614  0.3061 -0.2464
 6761SOL    HW131742   0.272   4.149   8.147  1.3750 -1.0224  0.4839
 6761SOL    HW231743   0.327   4.287   8.142 -0.1925 -1.6001 -2.4767
 6762SOL     OW31744   0.955   1.489   6.753  0.0562  0.1027 -0.9226
 6762SOL    HW131745   0.873   1.531   6.729 -0.2946 -0.2785 -0.3708
 6762SOL    HW231746   0.986   1.437   6.678  0.4132 -1.8600  0.5815
 6763SOL     OW31747   3.882   0.153  14.047  0.3564 -0.2508  0.3101
 6763SOL    HW131748   3.898   0.073  13.996  2.2987  0.3953 -0.1140
 6763SOL    HW231749   3.977   0.165  14.052  0.6098 -1.5641 -1.3005
 6764SOL     OW31750   0.729   3.028   5.443 -0.2138 -0.1832 -0.6766
 6764SOL    HW131751   0.805   2.971   5.429 -1.4500 -2.2311  1.0689
 6764SOL    HW231752   0.747   3.098   5.379  2.1623  0.1587  0.3545
 6765SOL     OW31753   0.724   3.932  14.374  0.1518 -0.6902 -0.2723
 6765SOL    HW131754   0.711   3.837  14.366 -2.5734 -0.2937 -0.4017
 6765SOL    HW231755   0.717   3.941  14.469 -1.1636 -1.1397 -0.3376
 6766SOL     OW31756   0.291   3.876   3.530  0.0351  0.3668  0.0063
 6766SOL    HW131757   0.321   3.896   3.619 -0.2645 -0.5560  0.3269
 6766SOL    HW231758   0.346   3.941   3.487  1.9128 -0.3589  1.2960
 6767SOL     OW31759   4.465   2.930  10.513 -0.2332 -0.4247 -0.0690
 6767SOL    HW131760   4.551   2.938  10.554 -0.2524 -2.3006  0.3499
 6767SOL    HW231761   4.485   2.932  10.419  0.9229  0.3738  0.1876
 6768SOL     OW31762   2.378   0.477   9.510 -0.4308  0.4689  0.5251
 6768SOL    HW131763   2.455   0.528   9.484 -0.8773  0.5081 -0.7288
 6768SOL    HW231764   2.417   0.401   9.554 -0.6075 -1.3930 -2.5316
 6769SOL     OW31765   3.949   0.836   8.743 -0.1298  0.2391  0.1915
 6769SOL    HW131766   3.870   0.845   8.796  0.0025  0.3599  0.3669
 6769SOL    HW231767   3.993   0.762   8.785  0.7177 -0.5832 -2.0857
 6770SOL     OW31768   2.450   3.814   8.913 -0.8701  0.1776 -0.1911
 6770SOL    HW131769   2.512   3.758   8.960 -0.0136 -0.3325 -1.9050
 6770SOL    HW231770   2.438   3.871   8.989  0.8535  0.3523 -0.0306
 6771SOL     OW31771   2.563   2.237   2.430  0.1414 -0.2150 -0.3176
 6771SOL    HW131772   2.631   2.184   2.472  1.0895  0.7729 -0.5986
 6771SOL    HW231773   2.542   2.187   2.351  0.2983  0.9859 -1.1110
 6772SOL     OW31774   4.023   4.141  16.124  0.5887  0.3302 -0.4589
 6772SOL    HW131775   4.030   4.046  16.130 -0.7141  0.3176  0.7110
 6772SOL    HW231776   4.112   4.166  16.099  1.1864 -0.5823  0.7572
 6773SOL     OW31777   2.959   4.152   4.862  0.8125 -0.3409 -0.2716
 6773SOL    HW131778   3.009   4.218   4.814  1.0176  0.0528  0.4870
 6773SOL    HW231779   2.975   4.076   4.806  0.0380 -0.9539  0.3394
 6774SOL     OW31780   1.700   0.358  14.497 -0.0078  0.4360 -0.0386
 6774SOL    HW131781   1.754   0.437  14.503  1.0266 -0.4659  2.5688
 6774SOL    HW231782   1.683   0.359  14.403 -3.8935 -2.6819  0.5936
 6775SOL     OW31783   4.442   4.347   2.335 -1.0025  0.3873  0.1346
 6775SOL    HW131784   4.390   4.290   2.393 -0.9172 -0.4763 -0.6284
 6775SOL    HW231785   4.532   4.355   2.367 -1.2141 -0.4590  0.9525
 6776SOL     OW31786   1.339   4.574   7.891 -0.5447 -0.4099 -0.0369
 6776SOL    HW131787   1.282   4.500   7.869 -0.2775 -1.3806  2.5344
 6776SOL    HW231788   1.407   4.542   7.950 -0.9970  0.3205  0.8686
 6777SOL     OW31789   4.689   2.030   2.345  0.3879  0.7948 -0.2868
 6777SOL    HW131790   4.679   1.968   2.273  1.3027 -1.0691  1.1977
 6777SOL    HW231791   4.673   1.969   2.417 -0.3389  0.7183 -0.5091
 6778SOL     OW31792   4.195   3.787   5.420  0.4118 -0.0974 -0.0763
 6778SOL    HW131793   4.253   3.840   5.474  0.1800  1.1625 -1.0525
 6778SOL    HW231794   4.264   3.744   5.370  0.4173 -0.6962  0.4491
 6779SOL     OW31795   0.865   4.656  16.328  0.7418  0.4819 -0.0846
 6779SOL    HW131796   0.841   4.614  16.411  1.0989  1.1731  0.3717
 6779SOL    HW231797   0.866   0.026  16.358 -1.2995  1.3311 -2.6635
 6780SOL     OW31798   4.628   3.625  12.568 -0.6303 -0.2956  0.3667
 6780SOL    HW131799   4.680   3.559  12.613 -0.2301 -0.1611  0.0955
 6780SOL    HW231800   4.553   3.625  12.628 -0.9678 -1.2953 -0.0544
 6781SOL     OW31801   3.070   1.257   5.667 -0.6415  0.3007 -0.0142
 6781SOL    HW131802   3.163   1.236   5.664 -0.0717  2.8676 -0.1493
 6781SOL    HW231803   3.038   1.231   5.753  1.9242 -1.2154  0.4538
 6782SOL     OW31804   4.459   2.460   3.719  0.0979 -0.1572 -0.3157
 6782SOL    HW131805   4.462   2.521   3.793  0.1061 -0.2446 -0.2440
 6782SOL    HW231806   4.505   2.504   3.648 -1.0585  2.1129  0.3440
 6783SOL     OW31807   2.537   3.406   5.224  0.5489  0.3560  0.0848
 6783SOL    HW131808   2.578   3.446   5.148 -0.4273  1.5342  0.1723
 6783SOL    HW231809   2.531   3.476   5.289  1.5252 -1.3733  2.0500
 6784SOL     OW31810   2.897   0.458  12.673 -0.4115  0.0983  0.0006
 6784SOL    HW131811   2.971   0.495  12.625  0.3341  1.0785  1.9311
 6784SOL    HW231812   2.953   0.404  12.729  1.3129 -0.5152 -2.3080
 6785SOL     OW31813   2.571   2.125  12.696 -0.1584  0.4545  0.9400
 6785SOL    HW131814   2.492   2.085  12.659  1.2464 -0.7548 -0.7512
 6785SOL    HW231815   2.573   2.083  12.782  1.7445  1.0772  1.1952
 6786SOL     OW31816   1.318   0.259   7.512  0.9189  0.0230 -0.0668
 6786SOL    HW131817   1.291   0.180   7.560 -1.5442  1.1146  0.3074
 6786SOL    HW231818   1.410   0.237   7.500  0.7373  0.9167 -3.1001
 6787SOL     OW31819   3.061   0.891   6.799  0.4649  0.3183  0.8300
 6787SOL    HW131820   3.073   0.835   6.876  1.0178 -1.6110 -0.6490
 6787SOL    HW231821   3.147   0.931   6.813  0.0614  0.3989  3.0150
 6788SOL     OW31822   3.468   2.281   6.109  0.2711  0.1748  0.0173
 6788SOL    HW131823   3.404   2.225   6.152  1.8876 -1.5891  0.1360
 6788SOL    HW231824   3.416   2.361   6.109  1.0558  0.7094 -2.0618
 6789SOL     OW31825   4.133   2.492  17.356  0.3856 -0.4099  0.0903
 6789SOL    HW131826   4.144   2.539  17.438  2.5188 -0.2589 -0.2965
 6789SOL    HW231827   4.157   2.558  17.291  2.1315  0.6761  1.8261
 6790SOL     OW31828   3.753   0.428   7.951  0.2140 -0.5658  0.3400
 6790SOL    HW131829   3.747   0.504   7.893  0.5141 -0.2761  0.6933
 6790SOL    HW231830   3.721   0.466   8.032 -0.6695 -0.0727 -0.2393
 6791SOL     OW31831   4.354   2.794   9.287 -0.0980 -0.3336  0.0608
 6791SOL    HW131832   4.285   2.827   9.345 -2.8111 -2.4411 -2.0163
 6791SOL    HW231833   4.332   2.705   9.312 -1.9793  0.4180  1.1039
 6792SOL     OW31834   3.507   2.890   9.390  0.6234 -0.4012 -0.3411
 6792SOL    HW131835   3.586   2.899   9.337 -1.1409 -0.0438 -2.8726
 6792SOL    HW231836   3.508   2.794   9.399  2.7583 -0.5535 -2.1550
 6793SOL     OW31837   1.221   0.437   2.986  0.2120 -0.0295  0.6483
 6793SOL    HW131838   1.173   0.492   3.048 -1.7844 -2.8525  1.6168
 6793SOL    HW231839   1.212   0.476   2.899 -2.1151  1.0990  1.3945
 6794SOL     OW31840   2.026   1.139   8.899  0.2227 -0.3552 -0.2821
 6794SOL    HW131841   2.070   1.118   8.817 -0.7451  0.8107 -1.0869
 6794SOL    HW231842   1.990   1.221   8.866  0.6758  0.3667  1.0110
 6795SOL     OW31843   2.277   0.644   1.604  0.7466 -0.2632 -0.2119
 6795SOL    HW131844   2.362   0.601   1.616  0.7720 -0.6462 -1.8067
 6795SOL    HW231845   2.265   0.650   1.509 -0.0804  0.6360 -0.0425
 6796SOL     OW31846   2.486   2.527   3.023  0.0222  0.0341 -0.1898
 6796SOL    HW131847   2.401   2.483   3.034 -0.0365  0.0010 -0.7740
 6796SOL    HW231848   2.453   2.613   3.049  0.1493 -0.2178  0.8070
 6797SOL     OW31849   4.644   1.347   4.948  0.1811 -0.1026  0.6651
 6797SOL    HW131850   4.601   1.409   4.890  3.1046  2.1111  0.8734
 6797SOL    HW231851   4.659   1.276   4.885  1.0275 -2.3528  3.3763
 6798SOL     OW31852   2.134   4.290  10.316 -0.1603 -0.3848  0.1166
 6798SOL    HW131853   2.103   4.380  10.328  0.8336  0.0778 -0.7347
 6798SOL    HW231854   2.057   4.250  10.275  0.5181 -0.2663 -1.2727
 6799SOL     OW31855   0.359   1.263  10.795 -0.5991 -0.0536  0.0433
 6799SOL    HW131856   0.376   1.225  10.709 -0.9656  1.8706 -0.8662
 6799SOL    HW231857   0.272   1.235  10.822 -0.9821 -0.5513 -1.7168
 6800SOL     OW31858   2.566   0.425   6.792  0.1419 -0.5318 -0.5905
 6800SOL    HW131859   2.544   0.469   6.710 -0.1342 -0.3273 -0.4101
 6800SOL    HW231860   2.516   0.344   6.781 -0.1458 -0.2577 -1.2892
 6801SOL     OW31861   3.792   4.045   3.391  0.7386  0.0201  0.4661
 6801SOL    HW131862   3.780   4.083   3.478 -0.5378 -0.2454  0.4048
 6801SOL    HW231863   3.705   4.053   3.352  0.0535  1.1337  2.2723
 6802SOL     OW31864   1.468   0.215  13.601  0.3116  0.1158  0.7881
 6802SOL    HW131865   1.390   0.246  13.554  0.9090  1.0751  0.4310
 6802SOL    HW231866   1.468   0.271  13.678 -1.5873  0.8361  0.2762
 6803SOL     OW31867   3.263   0.455   0.185  0.4352  0.0826 -0.9759
 6803SOL    HW131868   3.299   0.538   0.155  1.0056 -0.3656 -1.5459
 6803SOL    HW231869   3.172   0.463   0.157 -0.0898 -1.0882  0.4177
 6804SOL     OW31870   1.233   3.021  16.610  0.3584 -0.0402 -0.2594
 6804SOL    HW131871   1.146   3.038  16.572  0.6892  1.8984 -0.1671
 6804SOL    HW231872   1.238   2.926  16.599 -0.0513  0.0998 -1.7582
 6805SOL     OW31873   0.780   3.057   2.881  0.0510  0.1858 -0.1673
 6805SOL    HW131874   0.868   3.076   2.914 -0.4126  1.0717  0.5341
 6805SOL    HW231875   0.734   3.129   2.923 -0.0812  0.9027 -1.5600
 6806SOL     OW31876   2.369   0.036  15.206 -0.5429 -0.5437 -0.0101
 6806SOL    HW131877   2.434   4.697  15.170  0.3924  0.4185  0.0970
 6806SOL    HW231878   2.291   0.002  15.161 -1.5704  0.8253  0.7013
 6807SOL     OW31879   3.688   1.389   4.309 -0.4104  0.2058 -0.7181
 6807SOL    HW131880   3.651   1.364   4.224 -0.8106 -1.4448 -0.0578
 6807SOL    HW231881   3.610   1.402   4.362  0.7675 -2.5944  1.6720
 6808SOL     OW31882   2.080   3.122   8.018 -0.4201  0.0937 -0.0737
 6808SOL    HW131883   2.113   3.074   7.942 -0.8444  0.2616 -0.3624
 6808SOL    HW231884   1.986   3.120   7.999 -0.5708  0.4761  0.6412
 6809SOL     OW31885   1.943   1.341   4.759  0.2954  0.0201 -0.4150
 6809SOL    HW131886   1.862   1.290   4.767  0.5006 -0.2125  0.1617
 6809SOL    HW231887   1.901   1.427   4.769  1.1347  0.2174  1.3370
 6810SOL     OW31888   2.233   3.203  13.321  0.1548  0.2947  0.2047
 6810SOL    HW131889   2.225   3.138  13.391  1.1021 -0.7668 -0.6883
 6810SOL    HW231890   2.234   3.143  13.247 -1.1146  1.3779 -0.6891
 6811SOL     OW31891   3.615   1.883   5.241  0.3911  0.1928  0.3706
 6811SOL    HW131892   3.583   1.793   5.250 -1.3711  0.6963 -0.6862
 6811SOL    HW231893   3.678   1.883   5.313  1.6386  2.9785 -0.7219
 6812SOL     OW31894   4.689   1.404  10.842  0.2865 -0.0944 -0.2867
 6812SOL    HW131895   0.017   1.371  10.917 -0.6880 -2.5221 -0.7187
 6812SOL    HW231896   4.655   1.490  10.866  0.7610 -0.6183  2.2360
 6813SOL     OW31897   2.632   0.909  16.266  0.0846 -0.0999 -0.3318
 6813SOL    HW131898   2.714   0.956  16.251 -0.8988  1.1790 -1.7199
 6813SOL    HW231899   2.581   0.976  16.312 -1.8410 -1.0523 -1.0677
 6814SOL     OW31900   4.015   2.833   9.133  0.5021  0.3806 -0.1236
 6814SOL    HW131901   3.998   2.829   9.228  1.6339  0.8240  0.0974
 6814SOL    HW231902   3.971   2.917   9.117  1.8117  1.3358  1.2352
 6815SOL     OW31903   1.219   2.833   4.173 -0.4594  0.1749  0.3742
 6815SOL    HW131904   1.176   2.765   4.225  1.2240 -2.2021 -1.3115
 6815SOL    HW231905   1.296   2.789   4.136 -0.3367  0.3301  0.4471
 6816SOL     OW31906   2.968   1.548  10.835 -0.1782 -0.3711 -0.0832
 6816SOL    HW131907   2.915   1.530  10.912  1.2143  1.3869  1.2686
 6816SOL    HW231908   2.967   1.469  10.780 -0.4235  0.7304 -1.6676
 6817SOL     OW31909   3.905   3.477   8.913 -0.3318 -0.3544  0.1610
 6817SOL    HW131910   3.847   3.550   8.932 -2.3175 -1.5100 -1.5326
 6817SOL    HW231911   3.931   3.440   8.997 -1.3188  0.4478  0.8134
 6818SOL     OW31912   3.465   1.151   4.964  0.7904 -0.2090  0.3316
 6818SOL    HW131913   3.471   1.235   5.010 -0.3896  0.3823 -0.5772
 6818SOL    HW231914   3.550   1.117   4.992  0.2113 -2.1111 -0.2162
 6819SOL     OW31915   0.936   3.952   5.694 -0.2178 -0.1069 -0.5705
 6819SOL    HW131916   0.945   4.046   5.678 -3.3500 -0.0784 -2.2270
 6819SOL    HW231917   1.022   3.920   5.667  0.2163  0.9230 -0.4129
 6820SOL     OW31918   1.969   2.967   0.757 -0.4479 -0.1706  0.0416
 6820SOL    HW131919   1.922   2.952   0.839  0.5605 -0.9684  0.4805
 6820SOL    HW231920   2.056   2.932   0.779 -0.1392 -1.3951 -3.1370
 6821SOL     OW31921   1.795   4.083   7.699  0.3356 -0.6593  0.1953
 6821SOL    HW131922   1.711   4.048   7.671  0.5157 -1.3963  0.5899
 6821SOL    HW231923   1.787   4.067   7.793 -0.1935 -1.0117  0.0883
 6822SOL     OW31924   1.432   1.791   8.429  0.4129 -1.0938  0.4721
 6822SOL    HW131925   1.396   1.705   8.450  0.4919 -0.8987  1.4178
 6822SOL    HW231926   1.358   1.844   8.397  0.5039 -0.8266  0.7007
 6823SOL     OW31927   1.602   2.746   4.927  0.1984 -0.1402 -0.6455
 6823SOL    HW131928   1.515   2.740   4.967  0.6171 -0.5966  0.2039
 6823SOL    HW231929   1.599   2.837   4.898 -2.1720  0.2662  0.8925
 6824SOL     OW31930   0.858   3.447   5.583 -0.4579  0.0044 -0.1665
 6824SOL    HW131931   0.793   3.492   5.528  0.4137 -0.0327 -1.2327
 6824SOL    HW231932   0.867   3.517   5.647 -2.4364  2.1761 -2.2680
 6825SOL     OW31933   3.856   3.142  12.071  0.5746 -0.5131  0.1666
 6825SOL    HW131934   3.928   3.079  12.061 -0.1329 -1.4126  0.7195
 6825SOL    HW231935   3.782   3.085  12.051  1.3246 -0.1999 -3.3629
 6826SOL     OW31936   4.064   3.740  15.729 -0.3706  0.0849 -0.0123
 6826SOL    HW131937   4.007   3.675  15.689 -0.8070  0.2471  0.3380
 6826SOL    HW231938   4.112   3.689  15.794 -1.2209 -0.1075  0.4686
 6827SOL     OW31939   2.394   1.275  12.630  0.0789 -0.0041 -0.3785
 6827SOL    HW131940   2.412   1.330  12.706  0.9303  0.5265 -0.9575
 6827SOL    HW231941   2.456   1.205  12.650 -1.8424 -1.4654  0.4362
 6828SOL     OW31942   2.691   2.465   7.762 -0.0255 -0.3883  0.4006
 6828SOL    HW131943   2.605   2.476   7.722 -0.4049  1.3593  1.7335
 6828SOL    HW231944   2.723   2.549   7.797 -1.0592  0.8290 -1.6017
 6829SOL     OW31945   3.895   1.094   8.168 -0.4663 -0.4550 -0.2884
 6829SOL    HW131946   3.977   1.056   8.136 -0.6080 -2.6739  2.0534
 6829SOL    HW231947   3.904   1.073   8.260 -0.4978  1.0431  0.0522
 6830SOL     OW31948   0.087   2.025   4.823  0.4711  0.1691  0.1812
 6830SOL    HW131949   0.161   2.044   4.764  0.1718  0.8504  0.0273
 6830SOL    HW231950   0.088   1.930   4.810 -1.7721  0.6036 -3.0315
 6831SOL     OW31951   2.024   2.817   4.258  0.0031  0.2102  0.5925
 6831SOL    HW131952   2.067   2.875   4.320 -0.4411 -0.3034  1.3754
 6831SOL    HW231953   2.007   2.739   4.311  0.8987 -1.7350 -1.9552
 6832SOL     OW31954   4.484   0.230   4.730  0.3141 -0.1292  0.8201
 6832SOL    HW131955   4.438   0.306   4.694 -0.1916 -0.8725 -0.1024
 6832SOL    HW231956   4.573   0.241   4.697 -0.4168 -0.8264 -1.3507
 6833SOL     OW31957   3.551   0.290   5.485 -0.6628 -0.1718 -0.2074
 6833SOL    HW131958   3.583   0.333   5.406 -0.1404  1.0456  0.6743
 6833SOL    HW231959   3.632   0.278   5.535 -1.3496  0.1432  0.9778
 6834SOL     OW31960   3.744   2.842   5.901  0.0116 -0.1895 -0.1730
 6834SOL    HW131961   3.807   2.812   5.835 -0.4119  0.5604 -0.9150
 6834SOL    HW231962   3.772   2.784   5.973 -0.3239 -0.4454 -0.2485
 6835SOL     OW31963   3.822   0.059   7.418 -0.2257  0.6554  0.2675
 6835SOL    HW131964   3.862   0.055   7.331 -1.4401  0.0052 -0.2699
 6835SOL    HW231965   3.770   4.699   7.410  1.3654 -0.3195 -0.3274
 6836SOL     OW31966   4.579   1.471   0.967 -0.3891  0.2485  0.6289
 6836SOL    HW131967   4.552   1.472   1.059 -2.0364  0.8557  0.1328
 6836SOL    HW231968   4.667   1.507   0.966 -0.2393 -0.0673  1.8090
 6837SOL     OW31969   2.157   2.073   4.814  0.1432  0.0111  0.3232
 6837SOL    HW131970   2.117   2.045   4.732 -0.6188 -0.9722  1.0343
 6837SOL    HW231971   2.245   2.040   4.792  0.2149  0.4759 -0.1031
 6838SOL     OW31972   4.451   2.633  13.146 -0.8660  0.2648 -0.3020
 6838SOL    HW131973   4.462   2.550  13.192  1.9970  0.1253 -1.2280
 6838SOL    HW231974   4.370   2.661  13.188 -1.3288 -0.0750 -0.9682
 6839SOL     OW31975   2.764   2.520   5.405 -1.0348 -0.1495  0.0479
 6839SOL    HW131976   2.755   2.479   5.491 -1.7189  0.3130  0.1938
 6839SOL    HW231977   2.755   2.614   5.420 -0.4498  0.1266 -1.3599
 6840SOL     OW31978   4.574   1.709   4.547 -0.6270 -0.5194  0.1388
 6840SOL    HW131979   4.490   1.680   4.581 -0.5004 -1.9311 -0.7689
 6840SOL    HW231980   4.633   1.654   4.598  0.2745  0.3317  0.0131
 6841SOL     OW31981   4.209   1.673   3.974 -0.1208  0.4447  0.2894
 6841SOL    HW131982   4.286   1.721   4.003 -0.4215 -0.2764  2.2439
 6841SOL    HW231983   4.182   1.725   3.898  1.4636 -0.9204 -1.2299
 6842SOL     OW31984   4.608   2.099   6.467 -0.3046  0.4476  0.3610
 6842SOL    HW131985   4.539   2.040   6.498 -0.8985 -0.6603 -3.0784
 6842SOL    HW231986   4.655   2.111   6.550  1.0660  1.4868 -0.5709
 6843SOL     OW31987   1.294   3.781  15.140  0.6250 -0.3776  0.1043
 6843SOL    HW131988   1.249   3.749  15.218  2.5469 -0.3733  1.1991
 6843SOL    HW231989   1.382   3.748  15.157 -0.1742 -0.4481  4.0875
 6844SOL     OW31990   2.687   4.140   3.016 -0.4499  0.1313 -0.2658
 6844SOL    HW131991   2.660   4.144   2.924 -0.0337  1.0633 -0.3432
 6844SOL    HW231992   2.773   4.179   3.005  0.5546 -1.9598  0.1588
 6845SOL     OW31993   1.451   0.743   6.040  0.8322 -0.2862  0.3179
 6845SOL    HW131994   1.396   0.731   6.117 -1.3202  0.5648 -1.0717
 6845SOL    HW231995   1.381   0.730   5.976  1.9356  0.2888 -1.0174
 6846SOL     OW31996   1.191   3.707  16.338 -0.1417 -0.1004 -0.1144
 6846SOL    HW131997   1.096   3.719  16.332 -0.3277 -1.0810  0.8564
 6846SOL    HW231998   1.188   3.681  16.430 -1.1860 -1.4632 -0.5379
 6847SOL     OW31999   3.216   2.359  13.520  0.5976  0.2181  0.0718
 6847SOL    HW132000   3.289   2.382  13.462  0.6227 -2.6631 -1.0380
 6847SOL    HW232001   3.167   2.313  13.451 -1.5390  4.1203 -0.9985
 6848SOL     OW32002   2.359   2.827   6.538 -0.5778 -0.5449  1.0062
 6848SOL    HW132003   2.444   2.811   6.497 -0.6663  0.6888  0.3501
 6848SOL    HW232004   2.378   2.857   6.627 -0.3793  0.8253  0.5102
 6849SOL     OW32005   3.474   3.969   7.546  0.0959 -0.4055  0.1401
 6849SOL    HW132006   3.524   4.051   7.552  1.5025 -1.1678 -1.2458
 6849SOL    HW232007   3.391   3.998   7.507  0.2251  2.5308  2.0270
 6850SOL     OW32008   4.559   4.246  10.383 -0.4286  0.6124 -0.4613
 6850SOL    HW132009   4.586   4.160  10.350 -0.6640  1.6809 -3.4749
 6850SOL    HW232010   4.640   4.295  10.373  0.9165 -1.2668  1.2827
 6851SOL     OW32011   3.090   0.929   3.514  0.2106 -0.1894 -0.3213
 6851SOL    HW132012   3.097   0.860   3.448  1.8241  0.8541 -1.2396
 6851SOL    HW232013   3.059   0.998   3.456  1.4469  0.5331 -0.1282
 6852SOL     OW32014   0.069   3.134   4.027 -0.5756 -0.1858 -0.3164
 6852SOL    HW132015   4.705   3.094   4.009 -1.4910  1.1689  1.0130
 6852SOL    HW232016   0.129   3.059   4.033 -1.1237 -0.5297  0.9650
 6853SOL     OW32017   2.650   3.776   6.245  0.1392  0.5424  0.1075
 6853SOL    HW132018   2.637   3.870   6.258 -0.5869  0.3546  0.7788
 6853SOL    HW232019   2.734   3.784   6.200 -0.6793 -1.8788 -1.8388
 6854SOL     OW32020   2.120   3.837   3.469 -0.1909 -0.0092 -0.2696
 6854SOL    HW132021   2.180   3.863   3.538 -0.2419 -2.2003  0.6063
 6854SOL    HW232022   2.065   3.915   3.470 -2.6837 -1.7719  0.8637
 6855SOL     OW32023   0.378   2.758  10.605 -0.3644  0.2213 -0.3977
 6855SOL    HW132024   0.300   2.813  10.610 -0.8674 -0.5436  0.1590
 6855SOL    HW232025   0.359   2.665  10.617 -2.9603  0.7113 -0.7576
 6856SOL     OW32026   4.678   2.421   3.999 -0.4033  0.1145 -0.4764
 6856SOL    HW132027   4.589   2.412   4.033 -0.0326 -1.0973  0.1809
 6856SOL    HW232028   4.708   2.503   4.039 -2.8960  0.0365  1.5263
 6857SOL     OW32029   2.421   2.517   3.373 -0.2545 -0.1249  0.5801
 6857SOL    HW132030   2.433   2.591   3.313 -1.8929 -0.8238 -0.5636
 6857SOL    HW232031   2.330   2.512   3.400 -0.3689  3.0611  0.7972
 6858SOL     OW32032   2.496   3.927  10.216 -0.2592 -0.1597 -0.3175
 6858SOL    HW132033   2.480   3.958  10.127  0.2149  0.4965 -0.1760
 6858SOL    HW232034   2.446   3.996  10.260 -0.0266  0.5326 -1.1389
 6859SOL     OW32035   2.447   3.800   4.793  0.3215 -0.2867 -0.1258
 6859SOL    HW132036   2.389   3.726   4.811 -0.6706  0.9214  1.6184
 6859SOL    HW232037   2.535   3.766   4.806 -0.1499 -1.0891  0.9462
 6860SOL     OW32038   4.267   2.338   7.835  0.2354  0.1056 -0.7288
 6860SOL    HW132039   4.305   2.255   7.863  2.9381  1.7811  0.5636
 6860SOL    HW232040   4.223   2.365   7.915  0.3714 -3.6668  0.6060
 6861SOL     OW32041   3.994   1.666   8.534 -0.0623 -0.1726 -0.4547
 6861SOL    HW132042   4.029   1.608   8.467  1.0598  0.1428 -0.1603
 6861SOL    HW232043   4.070   1.654   8.592 -0.4365  0.1153  0.0965
 6862SOL     OW32044   1.909   0.822   5.189  0.0643 -0.0837  0.0088
 6862SOL    HW132045   1.820   0.796   5.163 -0.8365  0.1162  2.8512
 6862SOL    HW232046   1.917   0.765   5.265  2.7762  0.3911  0.0734
 6863SOL     OW32047   2.774   1.385  11.002  0.1227  0.6436  0.0991
 6863SOL    HW132048   2.723   1.316  11.046 -2.7358  2.2256 -0.7916
 6863SOL    HW232049   2.842   1.391  11.070  1.8459  0.3807 -1.6075
 6864SOL     OW32050   1.213   1.214   6.768 -0.3705  0.3602  0.0101
 6864SOL    HW132051   1.297   1.210   6.813  0.6390 -0.9720 -1.9870
 6864SOL    HW232052   1.161   1.213   6.848  0.0089 -0.0927  0.2522
 6865SOL     OW32053   1.987   1.621   9.755 -0.3083 -0.1239  0.0029
 6865SOL    HW132054   2.079   1.597   9.745 -1.2341 -2.5552 -2.5951
 6865SOL    HW232055   1.944   1.536   9.747  1.3706 -0.6067 -3.7906
 6866SOL     OW32056   2.403   1.869   1.780  0.7765 -0.2395  0.2370
 6866SOL    HW132057   2.363   1.786   1.806 -1.5678  0.7311 -0.2576
 6866SOL    HW232058   2.466   1.839   1.714  0.0945  0.2670 -0.6540
 6867SOL     OW32059   4.625   0.116   1.262  0.1009 -0.1340 -0.2850
 6867SOL    HW132060   4.710   0.079   1.286  0.3728  0.9486  0.4113
 6867SOL    HW232061   4.644   0.205   1.292  0.3875 -0.3223  0.0927
 6868SOL     OW32062   1.867   2.335   1.835 -0.4420  0.1298 -0.7304
 6868SOL    HW132063   1.912   2.419   1.844 -1.4610  0.5374  0.5564
 6868SOL    HW232064   1.938   2.275   1.857 -2.2029 -1.3794  0.8811
 6869SOL     OW32065   0.713   1.407   5.045 -0.2061 -0.2070  0.3399
 6869SOL    HW132066   0.715   1.315   5.021  1.5351  0.0566 -0.6223
 6869SOL    HW232067   0.682   1.399   5.135 -0.0415  1.3928  0.5567
 6870SOL     OW32068   3.819   3.229   2.791 -0.1228 -0.3522 -0.2306
 6870SOL    HW132069   3.874   3.169   2.741  4.0072  2.7365  0.5856
 6870SOL    HW232070   3.881   3.283   2.840 -0.1201  0.0661 -0.6967
 6871SOL     OW32071   3.529   4.442   0.658 -0.4169  0.1189 -0.2664
 6871SOL    HW132072   3.497   4.387   0.730  0.1258  0.6376  0.3807
 6871SOL    HW232073   3.524   4.530   0.694 -0.4201  0.4634 -1.1318
 6872SOL     OW32074   0.632   0.225   9.571  0.3882  0.0238  0.2306
 6872SOL    HW132075   0.618   0.314   9.604 -2.6312 -0.1242 -0.6400
 6872SOL    HW232076   0.551   0.205   9.525  0.2450  2.9907 -0.7915
 6873SOL     OW32077   0.436   3.407  10.116 -0.1055  0.7530  0.2083
 6873SOL    HW132078   0.466   3.358  10.039 -1.6801  1.9122 -1.1290
 6873SOL    HW232079   0.437   3.496  10.080 -1.9184  0.2626 -1.0394
 6874SOL     OW32080   1.030   0.234   3.779 -0.1627  0.1641 -0.4683
 6874SOL    HW132081   0.995   0.145   3.780 -0.1073  0.1391 -0.8528
 6874SOL    HW232082   0.975   0.274   3.847 -0.3784 -2.1283  0.6757
 6875SOL     OW32083   3.701   0.378   2.010  0.3689 -0.0036  0.4792
 6875SOL    HW132084   3.667   0.377   1.921  3.3435 -3.9886 -0.5747
 6875SOL    HW232085   3.780   0.325   2.013 -0.3090 -0.9507  1.4001
 6876SOL     OW32086   2.704   1.596   2.753 -0.0685  0.1916 -0.6198
 6876SOL    HW132087   2.760   1.523   2.778 -0.2256 -0.0799 -1.0578
 6876SOL    HW232088   2.650   1.538   2.698 -0.8108  0.7657 -0.4981
 6877SOL     OW32089   1.744   3.031   4.511 -0.1126  0.7927  0.0892
 6877SOL    HW132090   1.703   3.048   4.426  0.9696 -1.3068 -0.8625
 6877SOL    HW232091   1.742   2.936   4.518  1.1757  0.6760 -1.2101
 6878SOL     OW32092   0.573   2.103  15.607 -0.5431  0.2863 -0.0871
 6878SOL    HW132093   0.596   2.090  15.699  0.3183  0.0424 -0.3391
 6878SOL    HW232094   0.486   2.063  15.604  0.1261 -1.2955  1.8986
 6879SOL     OW32095   1.396   2.468   6.293  0.2125  0.4961 -0.1793
 6879SOL    HW132096   1.465   2.534   6.293  1.3438 -0.7085  1.7542
 6879SOL    HW232097   1.345   2.492   6.371  0.1892 -3.0347  0.8827
 6880SOL     OW32098   1.273   3.056  14.091  0.2455  0.5896  0.3949
 6880SOL    HW132099   1.266   2.992  14.021  1.9618  0.1517  0.6198
 6880SOL    HW232100   1.317   3.130  14.049 -0.1493  1.1565  0.9864
 6881SOL     OW32101   0.200   1.660   1.715  0.0942  0.1225 -0.4574
 6881SOL    HW132102   0.151   1.720   1.658 -0.0080 -0.1343 -0.6394
 6881SOL    HW232103   0.277   1.712   1.736 -0.5845  0.5338  1.0146
 6882SOL     OW32104   2.745   0.991  10.439 -0.2062  0.3807 -0.6967
 6882SOL    HW132105   2.703   0.972  10.523 -0.0884  0.0699 -0.7066
 6882SOL    HW232106   2.712   1.078  10.418 -0.7260  0.1645 -0.7738
 6883SOL     OW32107   4.712   0.051   4.822 -0.1263  0.1520  0.2976
 6883SOL    HW132108   4.637   0.110   4.833 -0.0543 -0.4526  3.9146
 6883SOL    HW232109   4.675   4.703   4.766 -1.6065  0.2076  1.1839
 6884SOL     OW32110   2.122   0.056   3.813  0.3032 -0.6253 -0.2914
 6884SOL    HW132111   2.116   4.687   3.846  0.5719 -1.4665 -2.5925
 6884SOL    HW232112   2.217   0.061   3.803  0.1103  2.2423 -0.8155
 6885SOL     OW32113   4.020   3.350   9.555  0.3970  0.1246 -0.0378
 6885SOL    HW132114   4.023   3.423   9.617  2.4776  1.1378 -1.3442
 6885SOL    HW232115   4.112   3.331   9.538 -0.2691 -2.3739 -0.8077
 6886SOL     OW32116   2.810   3.438   3.694 -0.3092 -0.0522  0.0372
 6886SOL    HW132117   2.741   3.375   3.670 -1.3409  1.5579 -1.2615
 6886SOL    HW232118   2.872   3.417   3.624  1.6563 -0.4226  1.8949
 6887SOL     OW32119   2.299   0.504  14.178  0.3329  0.0000 -0.0174
 6887SOL    HW132120   2.256   0.559  14.243 -0.0322  0.6881 -0.8567
 6887SOL    HW232121   2.327   0.438  14.242 -2.1550 -2.3063 -1.3359
 6888SOL     OW32122   0.892   2.554  11.137  0.3149 -0.3508  0.4313
 6888SOL    HW132123   0.821   2.553  11.201 -1.2767  0.6559 -1.3229
 6888SOL    HW232124   0.948   2.485  11.173 -0.8773 -0.6598  1.7078
 6889SOL     OW32125   2.031   1.716  10.511 -0.1748 -0.6703 -0.6889
 6889SOL    HW132126   2.117   1.720  10.553 -1.8362 -0.9499  2.6698
 6889SOL    HW232127   1.988   1.663  10.577  0.4657  1.0113  1.0748
 6890SOL     OW32128   1.473   1.594   4.672 -0.0617 -0.1460  0.1447
 6890SOL    HW132129   1.412   1.612   4.744 -1.5272 -1.1438 -0.8198
 6890SOL    HW232130   1.412   1.565   4.604 -1.4590  0.3765  1.1730
 6891SOL     OW32131   3.667   1.377   9.783 -0.0020  0.2687 -0.2618
 6891SOL    HW132132   3.635   1.341   9.866  3.0259 -1.2345  0.2731
 6891SOL    HW232133   3.592   1.391   9.725  1.2321 -0.1298 -1.9886
 6892SOL     OW32134   1.036   0.439  16.685  0.0666 -0.1853 -0.8358
 6892SOL    HW132135   1.025   0.344  16.684 -0.9253 -0.0652 -0.7706
 6892SOL    HW232136   1.008   0.459  16.775  2.9102  0.6926 -0.1356
 6893SOL     OW32137   3.733   4.498   7.976 -0.2858  0.0554 -0.4471
 6893SOL    HW132138   3.644   4.504   8.013  0.0979  1.1088  0.2919
 6893SOL    HW232139   3.762   4.416   8.016 -0.6764 -0.4216 -1.1415
 6894SOL     OW32140   3.467   0.743   3.874  0.4411  0.1503 -0.0867
 6894SOL    HW132141   3.384   0.750   3.826  0.4489  1.6144  0.1089
 6894SOL    HW232142   3.512   0.817   3.834  1.6416 -0.1142  0.7911
 6895SOL     OW32143   0.952   3.634   5.732  0.1142  0.4403  0.3419
 6895SOL    HW132144   0.927   3.681   5.811  0.2535  1.2886 -0.1146
 6895SOL    HW232145   1.016   3.685   5.683 -0.1467  0.9852  0.5652
 6896SOL     OW32146   3.167   0.199  10.997 -0.3731  0.1126 -0.0847
 6896SOL    HW132147   3.088   0.251  10.985 -0.8441 -0.9533 -1.5808
 6896SOL    HW232148   3.152   0.137  10.925 -0.8889 -0.3319  0.4168
 6897SOL     OW32149   4.080   2.501   1.859  1.1472  0.3046 -0.1405
 6897SOL    HW132150   4.045   2.434   1.800 -1.4390  1.9746 -0.5212
 6897SOL    HW232151   4.054   2.584   1.818  0.6734 -0.2309 -0.9416
 6898SOL     OW32152   2.441   3.760   9.410 -0.8675  0.1716  0.1122
 6898SOL    HW132153   2.432   3.687   9.348  0.8226 -0.2577  0.3655
 6898SOL    HW232154   2.377   3.816   9.367 -0.9184 -0.5476 -0.7677
 6899SOL     OW32155   1.914   0.563  14.430  0.3891  0.0544 -0.1606
 6899SOL    HW132156   1.867   0.624  14.374 -1.6605 -0.0232  1.4725
 6899SOL    HW232157   1.983   0.533  14.371 -0.4045 -1.4854 -0.3122
 6900SOL     OW32158   0.485   3.564   1.150  0.8345 -0.2508 -0.4195
 6900SOL    HW132159   0.458   3.654   1.169  0.8831 -0.4684  0.6693
 6900SOL    HW232160   0.425   3.522   1.088 -0.6698  1.0367  0.1687
 6901SOL     OW32161   0.936   3.969   0.094 -0.8904 -0.3591 -0.2464
 6901SOL    HW132162   0.900   3.889   0.056 -0.3631 -0.7785  0.1317
 6901SOL    HW232163   0.863   4.022   0.062 -0.8950  0.9946  2.0582
 6902SOL     OW32164   0.445   1.526  10.409  0.1987 -0.2545 -0.1407
 6902SOL    HW132165   0.500   1.582  10.354 -0.4357  0.5390  0.0507
 6902SOL    HW232166   0.420   1.464  10.340 -2.7217  0.3743  0.3850
 6903SOL     OW32167   0.798   0.731   4.000  0.2106 -0.4503  0.2583
 6903SOL    HW132168   0.831   0.796   3.938 -0.5558  0.6811  1.0359
 6903SOL    HW232169   0.732   0.694   3.940 -0.2402  1.4063 -0.3991
 6904SOL     OW32170   2.359   1.065  10.380 -0.4795 -0.4111  0.1785
 6904SOL    HW132171   2.442   1.017  10.388 -0.0639  0.4178  0.9433
 6904SOL    HW232172   2.314   0.998  10.329  2.2684 -2.1958  0.0505
 6905SOL     OW32173   4.249   4.443   3.738 -0.2864  0.1273 -0.2057
 6905SOL    HW132174   4.260   4.452   3.832  0.4948 -1.4893 -0.1398
 6905SOL    HW232175   4.340   4.436   3.708  0.2231  2.7289  0.7051
 6906SOL     OW32176   1.110   2.485   6.895 -0.6455 -0.5172  0.1682
 6906SOL    HW132177   1.205   2.478   6.894 -0.6550 -0.5548 -0.4901
 6906SOL    HW232178   1.097   2.412   6.834  0.7749 -0.3637 -0.3061
 6907SOL     OW32179   1.358   0.507   0.548  0.3755 -0.1004 -0.5507
 6907SOL    HW132180   1.384   0.598   0.560  0.7954 -0.5416  1.8504
 6907SOL    HW232181   1.353   0.478   0.639 -1.8697  1.9617 -0.0220
 6908SOL     OW32182   3.773   1.633  11.547  0.0444  0.0509  0.1847
 6908SOL    HW132183   3.731   1.697  11.605 -0.7868 -0.5413  0.2286
 6908SOL    HW232184   3.701   1.615  11.486  0.3947 -2.9403  0.6508
 6909SOL     OW32185   3.837   0.168  11.746  0.2453 -0.7047  0.3353
 6909SOL    HW132186   3.854   0.076  11.762  0.6532 -0.2020  2.8922
 6909SOL    HW232187   3.926   0.203  11.740 -0.0863  0.2402  0.8004
 6910SOL     OW32188   0.524   1.405   2.045  0.3182 -0.3151  0.0383
 6910SOL    HW132189   0.509   1.373   2.134  0.8340 -2.2853 -0.5839
 6910SOL    HW232190   0.483   1.491   2.035  0.1368 -0.4708 -0.5857
 6911SOL     OW32191   2.585   0.722  17.468  0.2681  0.4327  0.3549
 6911SOL    HW132192   2.494   0.726  17.439  0.2369  0.2530  0.4270
 6911SOL    HW232193   2.625   0.661  17.406  0.8847 -0.2632  1.4390
 6912SOL     OW32194   3.506   2.700   6.675 -0.0332 -0.0727  0.3344
 6912SOL    HW132195   3.417   2.694   6.638 -0.3843  0.8270  1.0422
 6912SOL    HW232196   3.548   2.736   6.597 -0.0002 -1.3781 -0.2450
 6913SOL     OW32197   1.375   2.893  12.416  0.2501  0.3766  0.5212
 6913SOL    HW132198   1.302   2.834  12.434 -1.1064  1.8252 -0.3382
 6913SOL    HW232199   1.372   2.887  12.320 -2.7624 -2.5765  0.8216
 6914SOL     OW32200   3.480   0.051  16.048 -0.4390  0.4102 -0.5371
 6914SOL    HW132201   3.450   0.035  16.137 -1.8169  3.4872 -0.4656
 6914SOL    HW232202   3.413   0.102  16.002 -1.7441 -1.2879 -0.5302
 6915SOL     OW32203   2.786   0.635  14.040 -0.0002  0.2645 -0.3233
 6915SOL    HW132204   2.749   0.705  14.092 -3.0550 -1.0970 -0.6557
 6915SOL    HW232205   2.864   0.620  14.094  0.3773 -2.3376 -1.5365
 6916SOL     OW32206   2.137   1.141   8.393 -0.6440 -0.2851  0.3472
 6916SOL    HW132207   2.151   1.234   8.413  0.3037 -1.0212  2.9983
 6916SOL    HW232208   2.045   1.156   8.372 -0.6123 -1.1644 -0.4004
 6917SOL     OW32209   2.934   2.464  13.342 -0.0151 -0.3151 -0.4084
 6917SOL    HW132210   3.005   2.525  13.323  0.7200 -1.6263 -1.8500
 6917SOL    HW232211   2.887   2.473  13.259 -2.0822  1.3606  0.9394
 6918SOL     OW32212   4.031   1.605   7.120  0.1882  0.2158  0.4368
 6918SOL    HW132213   4.008   1.678   7.177  0.3467  0.2985  0.3950
 6918SOL    HW232214   4.032   1.536   7.187 -0.5382  0.5656  0.8035
 6919SOL     OW32215   2.230   3.640   6.580 -0.2473 -0.5505 -0.1012
 6919SOL    HW132216   2.164   3.709   6.572  0.3429  0.2095  1.4542
 6919SOL    HW232217   2.185   3.556   6.573 -0.6235 -0.3903  0.3892
 6920SOL     OW32218   1.647   4.303   4.632 -0.2298  0.4716  0.0800
 6920SOL    HW132219   1.734   4.265   4.643  0.4082  1.2973 -2.2199
 6920SOL    HW232220   1.644   4.371   4.699 -2.0618  0.2426  0.2484
 6921SOL     OW32221   3.093   1.595  14.392  0.0343  0.4384 -0.2716
 6921SOL    HW132222   3.093   1.540  14.313  0.4605  0.7038 -0.4549
 6921SOL    HW232223   3.187   1.608  14.400  0.3974 -0.9083 -2.0572
 6922SOL     OW32224   2.296   1.294   5.436 -0.0145  0.3155  0.9175
 6922SOL    HW132225   2.288   1.199   5.448  2.7260 -0.3393 -2.6971
 6922SOL    HW232226   2.332   1.288   5.348  1.7516  2.1779  1.4998
 6923SOL     OW32227   4.207   2.770   4.414  0.4810 -0.0409  0.8409
 6923SOL    HW132228   4.194   2.740   4.504 -3.0849 -1.9313 -0.3423
 6923SOL    HW232229   4.127   2.746   4.368  0.6025 -1.0253  1.1354
 6924SOL     OW32230   0.957   3.371  11.030  0.4033  0.2129 -0.0400
 6924SOL    HW132231   0.896   3.348  10.960 -0.4029  1.0765  0.3707
 6924SOL    HW232232   0.899   3.389  11.104 -0.0284 -2.0965  0.1751
 6925SOL     OW32233   3.496   2.821   2.125  0.4615  0.3173  0.5108
 6925SOL    HW132234   3.416   2.865   2.154  0.1340 -0.7297  1.2147
 6925SOL    HW232235   3.491   2.731   2.159  0.4989  0.6182  1.3159
 6926SOL     OW32236   0.614   2.530   4.088  0.0502  0.2371  0.1682
 6926SOL    HW132237   0.570   2.605   4.047 -1.2779 -2.0187 -2.5897
 6926SOL    HW232238   0.681   2.563   4.147  0.6394 -0.1786 -0.2636
 6927SOL     OW32239   4.160   0.720   6.937  0.0834  0.1808 -0.7167
 6927SOL    HW132240   4.234   0.684   6.888  1.3956 -1.7635  2.7030
 6927SOL    HW232241   4.105   0.642   6.929  0.2410 -0.1555  1.4459
 6928SOL     OW32242   0.059   0.789   7.947  0.1678 -0.2550  0.1722
 6928SOL    HW132243   0.095   0.877   7.932 -1.3687  0.4277  0.5134
 6928SOL    HW232244   0.129   0.759   8.005 -0.7824  1.0723  1.9930
 6929SOL     OW32245   3.441   1.100  11.214  0.0163 -0.2514 -0.0453
 6929SOL    HW132246   3.472   1.116  11.125  3.6452  0.0607  1.2489
 6929SOL    HW232247   3.419   1.007  11.210 -0.3974 -0.1137 -1.0809
 6930SOL     OW32248   1.103   3.605  10.187 -0.1983  0.4592 -0.0229
 6930SOL    HW132249   1.035   3.661  10.226 -0.1620  1.7502 -1.8117
 6930SOL    HW232250   1.066   3.519  10.207 -2.4036  1.1018 -1.3731
 6931SOL     OW32251   3.900   2.499   4.843  1.0551  0.0162  0.0002
 6931SOL    HW132252   3.887   2.518   4.750 -0.0684  0.1033  0.1712
 6931SOL    HW232253   3.940   2.413   4.834  3.2935  1.0666 -0.1816
 6932SOL     OW32254   3.011   2.218   4.354 -0.2786  0.0223 -0.3424
 6932SOL    HW132255   2.924   2.259   4.350 -1.0899 -1.5265  2.0522
 6932SOL    HW232256   3.043   2.281   4.419 -2.3646  1.3100 -0.5264
 6933SOL     OW32257   4.674   4.122  16.988 -0.4381  0.1222  0.0148
 6933SOL    HW132258   4.675   4.212  17.020  0.2020 -0.8533  2.8049
 6933SOL    HW232259   0.034   4.109  16.939 -1.1654  2.5947 -1.8054
 6934SOL     OW32260   1.693   2.618   7.402 -0.1206 -0.1672 -0.1582
 6934SOL    HW132261   1.605   2.652   7.386  0.4020  1.1525 -0.2526
 6934SOL    HW232262   1.746   2.697   7.409 -0.3025 -0.0275 -0.3702
 6935SOL     OW32263   4.370   0.695   0.125 -0.2804 -0.1836 -0.8378
 6935SOL    HW132264   4.323   0.741   0.194  1.1376 -0.6403  0.4339
 6935SOL    HW232265   4.397   0.767   0.068 -0.5899  0.2260 -0.4609
 6936SOL     OW32266   0.348   3.986   5.896 -0.2430  0.3132  0.2683
 6936SOL    HW132267   0.391   3.936   5.965 -0.7109  2.1339  1.8871
 6936SOL    HW232268   0.405   4.063   5.890 -0.9291  0.9494  1.6751
 6937SOL     OW32269   2.286   3.356   4.216 -0.3732 -0.4861 -0.5661
 6937SOL    HW132270   2.314   3.382   4.129 -0.6070  0.9083 -0.2351
 6937SOL    HW232271   2.277   3.441   4.260  0.5545 -0.4112 -0.5365
 6938SOL     OW32272   4.389   2.887  14.606 -0.5837  0.1963 -0.0173
 6938SOL    HW132273   4.413   2.796  14.587 -0.5516  0.3572 -0.7428
 6938SOL    HW232274   4.431   2.933  14.533 -0.3825 -0.1344 -0.1107
 6939SOL     OW32275   3.352   0.715   7.809  0.1950 -0.1731 -0.9787
 6939SOL    HW132276   3.402   0.791   7.839 -0.1161 -0.9741  1.5856
 6939SOL    HW232277   3.332   0.667   7.889 -0.1733  2.0382  0.2519
 6940SOL     OW32278   3.167   2.582  12.760 -0.7479  1.0029  0.1967
 6940SOL    HW132279   3.071   2.580  12.751 -0.6836  0.2292 -0.2750
 6940SOL    HW232280   3.192   2.571  12.668  4.3238 -1.2775  1.8689
 6941SOL     OW32281   4.379   4.077   7.785  0.2859 -0.0147  0.5891
 6941SOL    HW132282   4.381   3.984   7.805 -1.5911  0.1256  1.3844
 6941SOL    HW232283   4.379   4.115   7.873  0.7072  3.2516 -0.8082
 6942SOL     OW32284   4.539   1.347   5.217 -0.5196  0.0304  0.4607
 6942SOL    HW132285   4.594   1.347   5.138 -2.8456 -1.5420 -1.1540
 6942SOL    HW232286   4.595   1.379   5.288  0.3200 -1.5196  0.4852
 6943SOL     OW32287   4.418   2.694  17.660  0.2182 -0.4019 -0.0110
 6943SOL    HW132288   4.463   2.728   0.052 -1.1833 -1.2766  1.2084
 6943SOL    HW232289   4.392   2.773  17.612  0.0721 -0.3510  0.1496
 6944SOL     OW32290   3.991   1.093   0.621  0.1485  0.0069 -0.0799
 6944SOL    HW132291   3.963   1.182   0.602 -1.3202 -0.9741 -2.5807
 6944SOL    HW232292   3.925   1.049   0.567  1.9418 -3.3529  0.4399
 6945SOL     OW32293   0.171   1.018   5.787 -0.1761 -0.1604  0.0888
 6945SOL    HW132294   0.208   1.070   5.859  1.4261  0.1218 -0.9436
 6945SOL    HW232295   0.091   0.989   5.831 -0.8746  1.0631 -0.3977
 6946SOL     OW32296   3.322   1.786   8.687  0.2868  0.1487  0.4120
 6946SOL    HW132297   3.252   1.820   8.741  0.3901  1.7948 -0.4910
 6946SOL    HW232298   3.276   1.724   8.631 -1.2910 -0.1724  2.0831
 6947SOL     OW32299   0.611   0.022   2.680 -0.5298  0.0899 -0.1078
 6947SOL    HW132300   0.563   0.072   2.746  0.3387 -0.6453  1.0979
 6947SOL    HW232301   0.588   4.652   2.698  0.7190 -0.1620  0.2482
 6948SOL     OW32302   3.833   1.047  16.648 -0.1794  0.3674 -0.0934
 6948SOL    HW132303   3.796   1.135  16.647  0.7125  0.7490  0.0824
 6948SOL    HW232304   3.919   1.069  16.685 -0.0304 -1.5555  0.7245
 6949SOL     OW32305   0.454   1.076   1.758  0.3133  0.4181  0.2985
 6949SOL    HW132306   0.395   1.142   1.791  1.4741  1.4357  0.3388
 6949SOL    HW232307   0.408   0.995   1.779 -0.8614  0.3584 -2.5137
 6950SOL     OW32308   4.070   3.869  10.084 -0.0833 -0.5188  0.2882
 6950SOL    HW132309   4.157   3.900  10.111 -1.1797  1.1898  1.8180
 6950SOL    HW232310   4.048   3.822  10.164 -1.0783 -1.7039 -0.6778
 6951SOL     OW32311   1.434   3.050   8.452  0.1584  0.7485 -0.0238
 6951SOL    HW132312   1.527   3.041   8.431 -0.4402 -2.6925 -1.2990
 6951SOL    HW232313   1.427   2.961   8.486  0.2200  0.5906 -0.4215
 6952SOL     OW32314   0.193   1.902  10.779 -0.2021 -0.8474 -0.1698
 6952SOL    HW132315   0.232   1.968  10.838 -0.2796  0.8668 -2.0308
 6952SOL    HW232316   0.125   1.951  10.733  0.7208  1.0079  0.4312
 6953SOL     OW32317   1.959   2.694   3.033 -0.1053  0.4076  0.3791
 6953SOL    HW132318   1.978   2.605   3.063 -0.9725 -0.4294 -1.4859
 6953SOL    HW232319   1.868   2.673   3.011  0.9635 -3.1719 -0.6742
 6954SOL     OW32320   0.705   3.095   3.756 -0.0444  0.6242  0.1690
 6954SOL    HW132321   0.691   3.174   3.704  0.3653  0.0928 -0.7493
 6954SOL    HW232322   0.744   3.125   3.838  0.0086 -0.6272  0.6014
 6955SOL     OW32323   0.717   3.439   4.623 -0.3639 -0.1424 -0.1340
 6955SOL    HW132324   0.719   3.474   4.713 -0.8048 -1.7938  0.5090
 6955SOL    HW232325   0.647   3.493   4.585 -0.9979 -1.1849 -0.4298
 6956SOL     OW32326   3.488   1.786  13.273  0.1605  0.0380  0.2733
 6956SOL    HW132327   3.548   1.756  13.341  0.2404 -2.3052 -0.8286
 6956SOL    HW232328   3.402   1.754  13.299  0.4052  0.9566  2.2334
 6957SOL     OW32329   3.280   2.275   8.227 -0.2307 -0.3707  0.2100
 6957SOL    HW132330   3.224   2.197   8.230 -0.4827 -0.1778  0.5290
 6957SOL    HW232331   3.243   2.315   8.148  2.3084 -0.8076 -1.2044
 6958SOL     OW32332   1.455   1.082   2.843 -0.5949 -0.2658 -0.2214
 6958SOL    HW132333   1.480   1.121   2.759 -1.8044  2.2688  0.5899
 6958SOL    HW232334   1.504   1.000   2.837  1.8053  1.2033 -0.5661
 6959SOL     OW32335   3.229   0.390  16.815 -0.9618  0.4642  0.0195
 6959SOL    HW132336   3.144   0.355  16.841  0.0771 -1.6244  0.5647
 6959SOL    HW232337   3.258   0.450  16.883  1.7794 -0.8064 -0.0145
 6960SOL     OW32338   1.850   3.583   2.671  0.4759 -0.2408 -1.2114
 6960SOL    HW132339   1.778   3.575   2.734 -0.6300  2.0006 -2.1857
 6960SOL    HW232340   1.883   3.666   2.705 -0.8990  0.9070 -2.6700
 6961SOL     OW32341   3.944   2.004   7.647 -0.2351 -0.6598  0.0992
 6961SOL    HW132342   3.941   1.909   7.655 -3.0226 -0.4620  1.3441
 6961SOL    HW232343   3.892   2.038   7.720 -0.7896 -0.0355 -0.5948
 6962SOL     OW32344   1.413   3.051   4.489  0.6121 -0.0667 -0.6131
 6962SOL    HW132345   1.436   3.112   4.560  1.2303 -0.0768 -0.8055
 6962SOL    HW232346   1.397   3.118   4.423  2.2385  0.2926 -0.6530
 6963SOL     OW32347   1.200   1.446  17.326  0.1304  0.0682 -0.0361
 6963SOL    HW132348   1.107   1.463  17.311  0.3146  2.3580  1.3269
 6963SOL    HW232349   1.225   1.434  17.235 -0.4552 -0.0977 -0.1781
 6964SOL     OW32350   1.488   3.854   5.335 -0.2522  0.1075 -0.4722
 6964SOL    HW132351   1.403   3.831   5.298 -1.4091  1.3008  1.4572
 6964SOL    HW232352   1.465   3.932   5.386 -0.4144 -0.7965  0.8282
 6965SOL     OW32353   0.350   4.666  11.426 -0.1528  0.4159  0.9444
 6965SOL    HW132354   0.386   4.690  11.341  0.0010 -0.6729  0.6922
 6965SOL    HW232355   0.267   4.628  11.397  0.1116  2.2832 -2.1783
 6966SOL     OW32356   0.174   4.286   2.073  0.3377  0.4065  0.8210
 6966SOL    HW132357   0.259   4.274   2.117  0.9276  1.5123 -0.0040
 6966SOL    HW232358   0.122   4.207   2.082 -0.4878  1.0088  1.3020
 6967SOL     OW32359   1.757   2.185   7.438 -0.4009 -0.4348  0.5777
 6967SOL    HW132360   1.728   2.268   7.476  1.7699  1.2018 -1.3550
 6967SOL    HW232361   1.741   2.130   7.515 -1.7532  1.2969  1.5358
 6968SOL     OW32362   0.559   1.403   4.039 -0.4275  0.1567  0.0062
 6968SOL    HW132363   0.571   1.479   4.096  0.6449  0.5360 -0.7159
 6968SOL    HW232364   0.517   1.441   3.962 -0.2530 -1.3634 -0.8369
 6969SOL     OW32365   0.516   3.068  13.073  0.1935  0.3456  0.2258
 6969SOL    HW132366   0.548   3.122  13.001 -0.4230 -1.2596 -1.2540
 6969SOL    HW232367   0.436   3.115  13.096 -1.0469 -0.8940 -1.5077
 6970SOL     OW32368   2.054   0.750   2.332 -0.3951 -0.0437 -0.9900
 6970SOL    HW132369   2.098   0.693   2.269  2.0427  0.5059  0.1957
 6970SOL    HW232370   2.058   0.696   2.411  2.1913 -1.1214 -1.8763
 6971SOL     OW32371   3.266   0.019   7.807 -0.3295  0.2053 -0.0999
 6971SOL    HW132372   3.306   0.105   7.795 -0.9092  0.4643 -0.1497
 6971SOL    HW232373   3.228   0.031   7.894  1.8033  2.2846  0.5380
 6972SOL     OW32374   1.383   2.177   2.480  0.1872 -0.0450  0.3807
 6972SOL    HW132375   1.461   2.231   2.495  0.3104 -0.1033 -0.0511
 6972SOL    HW232376   1.316   2.246   2.482  1.2368  0.9702  0.8313
 6973SOL     OW32377   2.737   4.007  11.513  0.0589  0.4819  0.0453
 6973SOL    HW132378   2.683   4.084  11.495 -2.0533 -1.6686 -2.8367
 6973SOL    HW232379   2.759   3.987  11.422  2.3772  0.3020  0.6436
 6974SOL     OW32380   3.438   4.527   7.986  0.4054 -0.2219 -0.4138
 6974SOL    HW132381   3.386   4.556   7.911  0.7782  1.8903  0.1249
 6974SOL    HW232382   3.373   4.485   8.043  0.3754  1.6207  0.9353
 6975SOL     OW32383   3.005   4.673   4.388 -0.0191  0.0256 -0.2305
 6975SOL    HW132384   2.989   0.031   4.440 -0.7933 -0.3913  0.1607
 6975SOL    HW232385   3.078   4.629   4.432  0.7425  1.8821  0.3627
 6976SOL     OW32386   3.082   1.972   4.410 -0.0387  0.3361 -0.1808
 6976SOL    HW132387   3.049   2.062   4.405 -0.8529  0.0596  0.1255
 6976SOL    HW232388   3.088   1.958   4.315  2.3038  2.8093 -0.4075
 6977SOL     OW32389   0.300   3.561   1.397 -0.1540 -0.2780 -0.0527
 6977SOL    HW132390   0.291   3.466   1.409 -0.3207 -0.0679  1.5102
 6977SOL    HW232391   0.394   3.570   1.381  0.0256  0.2718  1.3275
 6978SOL     OW32392   1.815   3.772   2.012  0.0501  0.5398 -0.2680
 6978SOL    HW132393   1.744   3.783   1.948  0.7029  0.5235 -0.9922
 6978SOL    HW232394   1.853   3.860   2.006  0.3783  0.5749  2.2436
 6979SOL     OW32395   0.152   2.668   4.730  0.2292 -0.1457 -0.5587
 6979SOL    HW132396   0.194   2.617   4.799 -1.9673 -0.7783  0.3156
 6979SOL    HW232397   0.195   2.631   4.652  0.6929 -0.9033  0.0567
 6980SOL     OW32398   2.390   1.715  15.287 -0.4630 -0.3157  0.3639
 6980SOL    HW132399   2.355   1.729  15.199 -2.5638 -0.9552  1.0918
 6980SOL    HW232400   2.364   1.799  15.324  2.5992 -0.2543  2.2876
 6981SOL     OW32401   1.191   1.233   5.618  0.8111  0.1856 -0.2115
 6981SOL    HW132402   1.239   1.257   5.538  1.1951  0.9727  0.2531
 6981SOL    HW232403   1.208   1.300   5.684  1.5993  0.7504 -0.9794
 6982SOL     OW32404   3.760   1.418   5.182  0.1211  0.3962 -0.1583
 6982SOL    HW132405   3.672   1.431   5.146  0.4521 -1.1675 -1.5984
 6982SOL    HW232406   3.817   1.403   5.107  2.0192 -1.7645  1.7215
 6983SOL     OW32407   0.722   3.632  10.985  0.1558 -0.0606 -0.3696
 6983SOL    HW132408   0.754   3.567  11.048  1.2024  0.9780  0.1789
 6983SOL    HW232409   0.791   3.619  10.920 -0.6984 -0.7256 -1.1255
 6984SOL     OW32410   0.907   4.196  17.572  0.3555  0.0820  0.5824
 6984SOL    HW132411   0.930   4.131  17.505 -1.8172  1.8779 -1.8813
 6984SOL    HW232412   0.980   4.192  17.634 -0.2860 -0.4032  1.3116
 6985SOL     OW32413   1.036   4.401  13.489  0.4840  0.0281 -0.0062
 6985SOL    HW132414   0.994   4.345  13.554  0.7347 -0.8467 -0.5988
 6985SOL    HW232415   1.058   4.339  13.420  1.4289  1.1363 -0.7105
 6986SOL     OW32416   3.483   0.213  12.008 -0.1999  0.3211 -0.4377
 6986SOL    HW132417   3.475   0.127  12.048  1.4123  0.2152 -0.3438
 6986SOL    HW232418   3.449   0.277  12.071  0.0228 -0.9571  0.9660
 6987SOL     OW32419   0.005   1.988   1.954 -0.1775 -0.3062  0.6452
 6987SOL    HW132420   4.674   2.016   1.878 -0.7835 -0.8441  0.8576
 6987SOL    HW232421   0.054   2.069   1.968 -0.1600  0.1403 -1.9294
 6988SOL     OW32422   0.954   3.829   8.042  0.5582  0.7782 -0.3426
 6988SOL    HW132423   0.947   3.734   8.035 -1.1439  0.8542  0.3696
 6988SOL    HW232424   0.991   3.827   8.130 -0.6401 -1.8527  0.0790
 6989SOL     OW32425   2.885   2.627   1.106 -0.5614  0.6110 -0.7450
 6989SOL    HW132426   2.889   2.617   1.011 -2.2432  0.1902 -0.7698
 6989SOL    HW232427   2.798   2.595   1.132  0.7424 -2.7773 -0.5122
 6990SOL     OW32428   1.442   0.580  10.431 -0.0331  0.2697 -0.1539
 6990SOL    HW132429   1.368   0.638  10.450 -0.5647 -0.4455 -0.0380
 6990SOL    HW232430   1.437   0.511  10.498  0.3761 -1.6932 -2.1273
 6991SOL     OW32431   1.483   3.383   5.587 -0.4315  0.1071  0.1871
 6991SOL    HW132432   1.505   3.301   5.544  1.1433 -0.2069  1.5843
 6991SOL    HW232433   1.480   3.440   5.510 -0.5015 -1.2961 -0.8410
 6992SOL     OW32434   1.487   0.072   7.367  0.0077 -0.2961  0.1258
 6992SOL    HW132435   1.415   0.009   7.362 -2.5599  2.5955  0.7811
 6992SOL    HW232436   1.555   0.026   7.317  0.0940 -0.5902  0.5177
 6993SOL     OW32437   1.905   1.254   3.045  0.2543 -0.0184  0.0920
 6993SOL    HW132438   1.960   1.331   3.058  1.2761 -0.9570  1.2480
 6993SOL    HW232439   1.930   1.202   3.121  1.1085  1.7515  0.9965
 6994SOL     OW32440   3.890   3.428   2.526  0.6458  0.2797  0.4850
 6994SOL    HW132441   3.811   3.390   2.564 -0.6370  0.9644 -1.4878
 6994SOL    HW232442   3.856   3.481   2.454  0.3298 -1.3882 -0.5977
 6995SOL     OW32443   4.088   0.401   3.258 -0.1894 -0.0813  0.7259
 6995SOL    HW132444   4.063   0.387   3.167 -0.4270 -0.5010  0.8533
 6995SOL    HW232445   4.114   0.315   3.291 -1.3374 -0.6040  0.2630
 6996SOL     OW32446   3.292   1.307   6.870  0.1409  0.3708  0.1320
 6996SOL    HW132447   3.210   1.344   6.902  0.5499  1.9290 -0.6470
 6996SOL    HW232448   3.343   1.312   6.951 -0.8442  1.2484  0.6984
 6997SOL     OW32449   0.791   0.084   1.255  0.2134  0.5327  0.0226
 6997SOL    HW132450   0.705   0.096   1.295 -0.6296 -1.2640 -1.2707
 6997SOL    HW232451   0.761   0.080   1.164  0.1618  1.8593 -0.0277
 6998SOL     OW32452   2.454   1.039   6.825 -0.6199  0.5086 -0.8762
 6998SOL    HW132453   2.433   1.117   6.875  2.0172  0.4846  0.2869
 6998SOL    HW232454   2.450   0.978   6.899  1.5756  0.2293 -0.9789
 6999SOL     OW32455   4.273   3.267   4.617  0.5103  0.1770  0.3093
 6999SOL    HW132456   4.258   3.336   4.553 -0.5743  0.8136  1.2507
 6999SOL    HW232457   4.254   3.192   4.561 -0.9462  0.2264  0.7517
 7000SOL     OW32458   3.074   4.155   5.582  0.1506  0.3932 -0.5686
 7000SOL    HW132459   3.019   4.226   5.615 -0.2492 -0.4940  0.7145
 7000SOL    HW232460   3.134   4.130   5.652 -3.8132 -5.8644  0.6897
 7001SOL     OW32461   3.773   0.052   3.112 -0.3426 -0.2904  0.6512
 7001SOL    HW132462   3.754   0.113   3.040 -1.0948 -1.0160  0.2421
 7001SOL    HW232463   3.686   0.026   3.141 -0.7452 -0.6860 -0.9194
 7002SOL     OW32464   2.285   3.181   6.848 -0.0612  0.4494  0.6863
 7002SOL    HW132465   2.200   3.176   6.806  0.7948 -0.8935 -0.8580
 7002SOL    HW232466   2.265   3.137   6.931  0.6856  1.2688  1.3197
 7003SOL     OW32467   4.290   0.513   2.938  0.1027 -0.0427  0.0917
 7003SOL    HW132468   4.234   0.498   3.014 -0.9596  1.2939 -0.4354
 7003SOL    HW232469   4.234   0.464   2.879  1.1612 -1.0575 -0.0746
 7004SOL     OW32470   2.669   2.822   7.188 -0.2572 -0.2199 -0.0754
 7004SOL    HW132471   2.607   2.894   7.204 -0.9583 -0.4916 -1.5347
 7004SOL    HW232472   2.732   2.828   7.259 -1.0689 -0.0164  0.6382
 7005SOL     OW32473   4.552   3.890   4.770  0.4198  0.0219  0.4583
 7005SOL    HW132474   4.577   3.977   4.737  1.5551 -0.4453  0.1190
 7005SOL    HW232475   4.491   3.862   4.701  0.4806  0.7351  0.1045
 7006SOL     OW32476   0.493   2.430   8.156  0.2074  0.0897 -0.3090
 7006SOL    HW132477   0.418   2.397   8.106 -0.1196 -0.9920  0.9093
 7006SOL    HW232478   0.560   2.377   8.112  0.3051 -0.1251  0.0998
 7007SOL     OW32479   2.735   2.674   4.642 -0.4069  0.2124 -0.6561
 7007SOL    HW132480   2.785   2.696   4.563 -2.2489  0.3673 -1.7897
 7007SOL    HW232481   2.679   2.601   4.616 -2.0035  0.5968  1.7706
 7008SOL     OW32482   2.021   3.818  14.376  0.5953  0.0809 -0.2237
 7008SOL    HW132483   2.100   3.842  14.327  0.2474  0.4805 -0.5858
 7008SOL    HW232484   2.039   3.858  14.462  3.5812 -2.3158  0.2532
 7009SOL     OW32485   4.356   4.501   6.166  0.4009  0.3654  0.4290
 7009SOL    HW132486   4.368   4.406   6.172  0.5540  0.2728 -1.3129
 7009SOL    HW232487   4.344   4.503   6.071 -0.7171 -0.7306  0.5478
 7010SOL     OW32488   3.213   1.686   9.983 -0.1937 -0.7172 -0.2154
 7010SOL    HW132489   3.120   1.687   9.961 -0.6113 -0.8754  1.5856
 7010SOL    HW232490   3.263   1.728   9.913 -1.4858 -1.1390 -1.3795
 7011SOL     OW32491   4.261   1.356   5.337 -0.2335  0.0395 -0.5670
 7011SOL    HW132492   4.221   1.390   5.257  1.4793 -0.5742 -1.7056
 7011SOL    HW232493   4.355   1.352   5.317 -0.4462 -2.1723 -1.2071
 7012SOL     OW32494   4.177   3.945   3.822  0.6895  0.1257 -0.4675
 7012SOL    HW132495   4.140   3.857   3.820  0.1964  0.3192 -0.0163
 7012SOL    HW232496   4.271   3.934   3.809  0.6915  0.4286 -0.7013
 7013SOL     OW32497   3.787   0.100   5.563 -0.3811 -0.3873 -0.2063
 7013SOL    HW132498   3.753   0.011   5.572 -0.6486 -0.0343  2.0921
 7013SOL    HW232499   3.764   0.136   5.648  0.4864  0.1180 -0.1818
 7014SOL     OW32500   3.541   3.880   5.588 -0.2954  0.1761 -0.2130
 7014SOL    HW132501   3.584   3.812   5.536 -0.5716 -0.7580  0.7836
 7014SOL    HW232502   3.475   3.905   5.524 -0.9085 -0.9413 -0.0097
 7015SOL     OW32503   2.553   3.581   2.424  0.0891 -0.9708  0.0865
 7015SOL    HW132504   2.543   3.504   2.368 -0.0237  0.6093 -2.0412
 7015SOL    HW232505   2.490   3.643   2.387  1.1861  1.3123  2.0830
 7016SOL     OW32506   3.342   0.547   8.043  0.3241  0.4096  0.4318
 7016SOL    HW132507   3.399   0.509   8.109 -1.1779 -1.8085  0.4618
 7016SOL    HW232508   3.353   0.638   8.071  0.1395  1.5757 -3.2013
 7017SOL     OW32509   3.505   0.073   9.325 -0.7836  0.1191 -0.6182
 7017SOL    HW132510   3.496   0.109   9.237  0.8669  0.2674 -0.7234
 7017SOL    HW232511   3.577   0.011   9.310 -0.5335 -0.1353  1.6189
 7018SOL     OW32512   3.077   4.717   2.064 -0.0285  0.1608 -0.5609
 7018SOL    HW132513   3.100   4.696   2.155  1.3803  0.6793 -0.7896
 7018SOL    HW232514   3.019   0.072   2.074  0.9433  1.1442 -2.4026
 7019SOL     OW32515   4.135   0.677  12.590 -0.3618  0.0815  0.0282
 7019SOL    HW132516   4.062   0.646  12.644 -1.4053 -0.8159 -1.9390
 7019SOL    HW232517   4.212   0.650  12.641 -0.3809 -0.2777 -0.1355
 7020SOL     OW32518   0.619   2.827   6.058 -1.0052 -0.1231  0.2345
 7020SOL    HW132519   0.548   2.834   6.122 -1.2154  0.2068 -0.0327
 7020SOL    HW232520   0.674   2.762   6.102  0.1230 -0.5001 -1.7394
 7021SOL     OW32521   3.454   1.173   5.950 -0.1684  0.0663  0.0141
 7021SOL    HW132522   3.545   1.151   5.970  0.1646  1.4357  0.0149
 7021SOL    HW232523   3.440   1.233   6.022  1.9849  0.4565  0.1057
 7022SOL     OW32524   4.095   1.897   2.406  0.2038  0.1577 -0.3773
 7022SOL    HW132525   4.165   1.907   2.342  1.4088 -1.0710  0.7398
 7022SOL    HW232526   4.017   1.930   2.361  1.6792  1.7783 -1.7502
 7023SOL     OW32527   3.330   0.871  13.163  0.2115 -0.5001  0.7389
 7023SOL    HW132528   3.364   0.900  13.247  0.3819  0.0211  0.4931
 7023SOL    HW232529   3.293   0.788  13.191 -0.9996 -0.4113 -0.5941
 7024SOL     OW32530   4.390   4.060   7.328  0.2555  0.5129 -0.1911
 7024SOL    HW132531   4.438   3.979   7.311  0.1656  0.1809  1.1847
 7024SOL    HW232532   4.328   4.032   7.395 -0.7124  2.0426 -0.4446
 7025SOL     OW32533   4.303   2.584  12.920  0.1554 -0.4195 -0.3762
 7025SOL    HW132534   4.367   2.605  12.988 -0.5428  1.0337 -0.1790
 7025SOL    HW232535   4.285   2.676  12.901  1.7442  0.0468  0.3756
 7026SOL     OW32536   3.465   2.400  16.769  0.0437  0.1398 -0.5231
 7026SOL    HW132537   3.462   2.360  16.856  0.1813  0.0130 -0.5763
 7026SOL    HW232538   3.390   2.354  16.731  0.1378 -2.6486  2.6465
 7027SOL     OW32539   1.402   1.269   3.247 -0.2003  0.6687 -0.3748
 7027SOL    HW132540   1.362   1.306   3.326  1.1778  1.7726 -0.1924
 7027SOL    HW232541   1.453   1.196   3.282 -1.0308 -0.3077 -1.1974
 7028SOL     OW32542   1.290   4.689  11.459  0.3941 -0.0936 -0.0748
 7028SOL    HW132543   1.383   4.712  11.466  0.5147  0.0224 -1.9110
 7028SOL    HW232544   1.264   0.011  11.540  1.5086  0.7087 -0.1260
 7029SOL     OW32545   3.399   4.337   2.230 -0.1349  0.1273  0.0806
 7029SOL    HW132546   3.338   4.336   2.304 -0.7129 -0.9790 -0.4105
 7029SOL    HW232547   3.380   4.417   2.181  0.5679  1.0377  1.2941
 7030SOL     OW32548   0.623   4.065   4.455  0.6308 -0.2867  0.2567
 7030SOL    HW132549   0.662   4.036   4.373  0.9568  0.8124  0.0168
 7030SOL    HW232550   0.691   4.041   4.518  0.9968  2.1117  0.7891
 7031SOL     OW32551   4.622   4.593   2.548  0.2059 -0.2158  0.2583
 7031SOL    HW132552   4.559   4.572   2.617  0.3681 -0.4284  0.3429
 7031SOL    HW232553   4.555   4.612   2.482  0.5587 -0.2570 -0.1127
 7032SOL     OW32554   4.518   1.824   7.048 -0.6974  0.6207 -0.3539
 7032SOL    HW132555   4.597   1.836   6.995 -1.1172 -0.2909 -1.1821
 7032SOL    HW232556   4.462   1.843   6.973 -0.5193 -0.2533 -0.7113
 7033SOL     OW32557   1.853   1.702   3.922 -0.3450 -0.2638  1.0109
 7033SOL    HW132558   1.836   1.678   3.830  2.2656 -2.6221  1.1342
 7033SOL    HW232559   1.821   1.622   3.965  0.4847 -1.3064 -0.2942
 7034SOL     OW32560   1.830   0.214  14.672  0.1568  0.1401  0.3265
 7034SOL    HW132561   1.780   0.139  14.641 -1.6294  0.5790  2.1364
 7034SOL    HW232562   1.779   0.282  14.629  1.1893 -0.2799 -1.5785
 7035SOL     OW32563   3.649   4.583   2.042  0.0774 -0.7073  0.0056
 7035SOL    HW132564   3.714   4.565   2.110 -0.6340 -0.0375  0.8651
 7035SOL    HW232565   3.659   4.503   1.991  1.0090  0.3576 -1.4648
 7036SOL     OW32566   2.268   2.039  12.102  0.7111 -0.2260  0.4601
 7036SOL    HW132567   2.194   2.025  12.042  0.2081  2.0198  0.5653
 7036SOL    HW232568   2.254   2.133  12.114 -0.7694 -0.7799  3.2302
 7037SOL     OW32569   3.494   3.256   7.841  0.1748 -0.0360 -0.0323
 7037SOL    HW132570   3.399   3.254   7.853  0.5796 -2.2856  2.9748
 7037SOL    HW232571   3.499   3.174   7.792  2.9904  0.5834 -0.7591
 7038SOL     OW32572   1.902   3.062  15.085  0.2954 -0.1563  0.4439
 7038SOL    HW132573   1.994   3.042  15.101 -0.1504 -2.2498  0.4095
 7038SOL    HW232574   1.884   2.979  15.042  0.1222  0.4868 -0.7265
 7039SOL     OW32575   3.797   1.326   2.507 -0.4741 -0.2360 -0.1658
 7039SOL    HW132576   3.764   1.261   2.445 -3.5936  1.7980 -0.6729
 7039SOL    HW232577   3.715   1.361   2.542 -1.3859 -1.3883 -1.1511
 7040SOL     OW32578   3.833   4.101   0.419 -0.1396 -0.0137  0.3078
 7040SOL    HW132579   3.796   4.179   0.461 -0.6935  0.8447 -1.8107
 7040SOL    HW232580   3.911   4.107   0.474  0.0876 -1.4500  0.1304
 7041SOL     OW32581   4.670   2.585  16.763  0.4470 -0.0222 -0.4597
 7041SOL    HW132582   0.030   2.572  16.813  0.2716  1.1721  0.1466
 7041SOL    HW232583   4.672   2.510  16.704 -1.3894  0.8140 -1.5982
 7042SOL     OW32584   3.895   1.033   8.483 -0.5224 -0.5011 -0.0368
 7042SOL    HW132585   3.905   1.127   8.500 -2.2402 -0.3379  0.0811
 7042SOL    HW232586   3.915   0.995   8.568  0.5095 -1.7048 -0.8156
 7043SOL     OW32587   0.693   0.352   8.540 -0.2606  0.4772 -0.5026
 7043SOL    HW132588   0.751   0.420   8.574  0.4566 -0.2799 -0.2363
 7043SOL    HW232589   0.720   0.277   8.593  1.0732  0.2116 -1.5580
 7044SOL     OW32590   3.905   3.413   4.170  0.1392  0.3420  0.4766
 7044SOL    HW132591   3.961   3.366   4.231  0.6064 -1.8483 -1.6597
 7044SOL    HW232592   3.842   3.459   4.226  1.5475  1.4690  1.1300
 7045SOL     OW32593   0.712   4.460  17.460 -0.3901 -0.6433 -0.9449
 7045SOL    HW132594   0.760   4.480  17.379 -1.2872 -0.2086 -1.3687
 7045SOL    HW232595   0.720   4.545  17.503 -1.3061 -1.0945  0.1224
 7046SOL     OW32596   1.285   3.928   3.336 -0.4055 -0.0554 -0.0604
 7046SOL    HW132597   1.365   3.980   3.325 -0.3552  0.0811  0.9318
 7046SOL    HW232598   1.282   3.869   3.261 -0.2723 -1.5381  1.0949
 7047SOL     OW32599   4.678   3.798   2.471  0.0672  0.1813  0.0304
 7047SOL    HW132600   4.707   3.716   2.431  0.5234  1.4718 -2.2912
 7047SOL    HW232601   4.653   3.776   2.561  1.2539 -1.0091  0.0648
 7048SOL     OW32602   1.461   2.752  14.314 -0.6803  0.1308 -0.3219
 7048SOL    HW132603   1.486   2.740  14.223 -2.2511  0.5200 -0.8163
 7048SOL    HW232604   1.497   2.668  14.342  0.8059  1.2341  1.1212
 7049SOL     OW32605   1.276   2.600   8.762 -0.4008  0.1519  0.1034
 7049SOL    HW132606   1.284   2.525   8.821  1.4227 -0.2870 -0.7110
 7049SOL    HW232607   1.183   2.592   8.739 -0.1118 -0.9326 -0.6865
 7050SOL     OW32608   0.621   2.116   6.198  0.6886  0.7610  0.0210
 7050SOL    HW132609   0.579   2.197   6.226 -3.7078 -0.9063 -1.6995
 7050SOL    HW232610   0.656   2.073   6.276  1.2366 -0.7822 -1.0889
 7051SOL     OW32611   3.625   1.109   7.534  0.6082  0.3549 -0.0022
 7051SOL    HW132612   3.667   1.175   7.479  1.9193 -0.2552  0.2717
 7051SOL    HW232613   3.555   1.073   7.480  1.0610  0.0038 -0.3422
 7052SOL     OW32614   4.243   0.148   6.196  0.1437 -0.2721 -0.5515
 7052SOL    HW132615   4.208   0.192   6.274 -2.2318 -0.6316 -1.3957
 7052SOL    HW232616   4.271   0.061   6.224 -0.4575 -0.5820 -0.9070
 7053SOL     OW32617   3.583   1.782   3.928 -0.2528 -0.2403  0.3001
 7053SOL    HW132618   3.635   1.844   3.876 -1.3730  1.1003  0.7516
 7053SOL    HW232619   3.638   1.780   4.006  0.1994 -0.9725 -0.0447
 7054SOL     OW32620   1.892   3.821  11.077  0.1747 -0.2243  0.4767
 7054SOL    HW132621   1.921   3.735  11.110 -0.5794 -0.4395  0.5716
 7054SOL    HW232622   1.872   3.856  11.164 -0.6081  0.3321  0.0654
 7055SOL     OW32623   1.804   4.074   6.981 -0.3060 -0.5451  0.8868
 7055SOL    HW132624   1.816   3.982   6.955  0.5390  0.4404 -2.1768
 7055SOL    HW232625   1.814   4.080   7.076 -1.1216 -2.7244  1.1266
 7056SOL     OW32626   1.586   2.746  12.547 -0.3807 -0.4565 -0.1403
 7056SOL    HW132627   1.639   2.737  12.468 -0.6084  2.7907 -0.6588
 7056SOL    HW232628   1.516   2.802  12.515  0.4009  0.8442  0.4537
 7057SOL     OW32629   2.590   1.523   2.507  0.1605 -0.3755  0.1695
 7057SOL    HW132630   2.618   1.582   2.437 -0.9207 -1.2092 -0.9664
 7057SOL    HW232631   2.626   1.439   2.481  0.0972 -0.0912 -0.8309
 7058SOL     OW32632   0.793   0.431   5.920  0.1442  0.4607 -0.5008
 7058SOL    HW132633   0.704   0.409   5.895  0.1271 -1.0942  0.8926
 7058SOL    HW232634   0.771   0.442   6.013  0.2292  1.8035 -0.6343
 7059SOL     OW32635   4.491   3.433   6.326 -0.0549  0.3570 -0.6484
 7059SOL    HW132636   4.416   3.488   6.305  1.0599  1.3379 -2.0868
 7059SOL    HW232637   4.550   3.471   6.260 -1.0059 -0.1244 -1.7703
 7060SOL     OW32638   3.751   3.304   9.485 -0.5473 -0.0277 -0.2986
 7060SOL    HW132639   3.763   3.383   9.432 -0.6126 -1.9591 -3.1754
 7060SOL    HW232640   3.843   3.288   9.507 -0.9295  0.6195  1.7802
 7061SOL     OW32641   1.205   1.582  15.505 -0.1332 -0.4903 -0.1661
 7061SOL    HW132642   1.116   1.593  15.471  0.4763 -0.1156 -1.6614
 7061SOL    HW232643   1.204   1.648  15.573  1.9048  1.7483 -2.3066
 7062SOL     OW32644   3.104   0.441  11.725 -0.3734 -0.1047 -0.0221
 7062SOL    HW132645   3.153   0.395  11.794 -0.5002  1.2710  1.0071
 7062SOL    HW232646   3.151   0.525  11.728  1.3745 -1.0329 -1.3019
 7063SOL     OW32647   3.843   1.602   3.290 -0.9181 -0.2487  0.3339
 7063SOL    HW132648   3.826   1.528   3.348 -1.6195  0.0199  0.4714
 7063SOL    HW232649   3.936   1.589   3.270 -1.5302 -1.5954 -1.5953
 7064SOL     OW32650   1.536   1.434  10.497 -0.2360  0.3540 -0.5887
 7064SOL    HW132651   1.503   1.446  10.408  0.6055  1.1430 -0.7967
 7064SOL    HW232652   1.464   1.482  10.538 -0.8877 -1.7625  0.7269
 7065SOL     OW32653   1.618   3.232  10.202  0.2807 -0.4293 -0.1264
 7065SOL    HW132654   1.678   3.231  10.128 -1.1329 -0.0153 -1.2943
 7065SOL    HW232655   1.637   3.317  10.240 -2.8331  1.3907 -2.6234
 7066SOL     OW32656   1.756   1.415   9.747  0.6122 -0.0647  0.2244
 7066SOL    HW132657   1.664   1.439   9.737  1.1651  1.8201 -0.2762
 7066SOL    HW232658   1.762   1.414   9.843  0.4261  1.1016  0.2404
 7067SOL     OW32659   3.577   0.189  11.752 -0.0932  0.1246  0.0856
 7067SOL    HW132660   3.573   0.174  11.847 -0.3125  0.3004  0.1046
 7067SOL    HW232661   3.668   0.215  11.740 -0.5939  1.5770 -0.4846
 7068SOL     OW32662   1.456   0.391   7.803  0.1018 -0.4680  0.0966
 7068SOL    HW132663   1.379   0.336   7.821 -0.0158 -0.3211  0.0367
 7068SOL    HW232664   1.417   0.467   7.845 -0.5612 -0.7970  0.0866
 7069SOL     OW32665   1.178   1.499  13.584 -0.4206 -0.1349  0.0271
 7069SOL    HW132666   1.135   1.492  13.669 -0.4835  0.7250  0.0634
 7069SOL    HW232667   1.104   1.485  13.525 -1.0145  0.5236  0.6124
 7070SOL     OW32668   1.299   3.375   9.998  0.5458 -0.3131 -0.1626
 7070SOL    HW132669   1.330   3.337   9.916  1.8785 -0.1275  0.2687
 7070SOL    HW232670   1.205   3.354   9.993  0.6929 -0.3515 -2.9360
 7071SOL     OW32671   0.747   3.100   7.260  0.2028 -0.4879  0.3802
 7071SOL    HW132672   0.706   3.180   7.292 -0.6242 -0.5981 -0.3957
 7071SOL    HW232673   0.741   3.114   7.165  0.2074 -1.9960  0.1491
 7072SOL     OW32674   3.290   3.295   2.691 -0.3559 -0.2965  0.2509
 7072SOL    HW132675   3.280   3.382   2.731  0.3319 -0.1292  0.0555
 7072SOL    HW232676   3.319   3.242   2.766  1.4435  0.4609  0.0809
 7073SOL     OW32677   1.686   3.722   5.582 -0.3468  0.1755  0.1096
 7073SOL    HW132678   1.704   3.637   5.542 -1.8163 -0.9998  1.9802
 7073SOL    HW232679   1.752   3.781   5.545 -1.0686  0.9926  0.1335
 7074SOL     OW32680   3.357   3.664   8.565 -0.2115  0.3190  0.5228
 7074SOL    HW132681   3.386   3.734   8.623  1.2090  0.1332  0.0431
 7074SOL    HW232682   3.362   3.713   8.483  0.5485  2.2365  1.7253
 7075SOL     OW32683   1.654   1.508   8.556  0.4037 -0.3849  0.3491
 7075SOL    HW132684   1.668   1.484   8.465  2.9599 -0.5251  0.7684
 7075SOL    HW232685   1.684   1.598   8.548 -0.5250  0.0921  2.2891
 7076SOL     OW32686   3.751   0.201   4.626 -0.3151 -0.3303  0.3318
 7076SOL    HW132687   3.740   0.199   4.531  1.0575  0.6933  0.1480
 7076SOL    HW232688   3.663   0.182   4.658  0.7121 -2.6282  1.8247
 7077SOL     OW32689   0.832   0.857   7.779  0.1720  0.1381  0.5018
 7077SOL    HW132690   0.835   0.951   7.762  0.4920  0.1490  0.6310
 7077SOL    HW232691   0.912   0.819   7.743  0.0287 -0.6691  1.0192
 7078SOL     OW32692   4.552   3.833  12.307  0.2796 -0.3141 -0.1376
 7078SOL    HW132693   4.521   3.752  12.267  1.7038 -0.6899 -0.4876
 7078SOL    HW232694   4.491   3.831  12.381 -0.1907  2.2048 -0.4534
 7079SOL     OW32695   4.033   4.626   9.441  0.0665 -0.2524  0.2097
 7079SOL    HW132696   4.110   4.601   9.493 -0.1737  0.0342  0.7089
 7079SOL    HW232697   4.069   4.595   9.358  0.2468 -1.9404  0.9343
 7080SOL     OW32698   2.142   3.794   8.435 -0.9723  0.6976 -0.1781
 7080SOL    HW132699   2.123   3.866   8.496 -0.0147  1.8034 -1.1969
 7080SOL    HW232700   2.229   3.760   8.456 -1.0248  0.3402 -0.5310
 7081SOL     OW32701   0.038   4.266   7.702  0.7126  0.2469  0.1962
 7081SOL    HW132702   4.708   4.275   7.783  0.0564  1.5834 -0.3706
 7081SOL    HW232703   4.698   4.314   7.646  0.4147  0.2376  0.5064
 7082SOL     OW32704   4.086   1.911   2.037 -0.2472  0.2048  0.7569
 7082SOL    HW132705   4.054   2.000   2.021  1.8981  0.5535 -1.6008
 7082SOL    HW232706   4.017   1.892   2.101 -0.2113  0.5907  0.9121
 7083SOL     OW32707   3.383   2.244   2.142  0.3691 -0.1123 -0.4391
 7083SOL    HW132708   3.382   2.159   2.186 -0.2360 -0.6144 -1.4111
 7083SOL    HW232709   3.398   2.208   2.054  0.8067 -2.0727  0.4292
 7084SOL     OW32710   4.524   1.767   1.899  0.2526 -0.2078 -0.0405
 7084SOL    HW132711   4.591   1.834   1.884  0.4623 -0.3414  0.2977
 7084SOL    HW232712   4.446   1.803   1.941 -0.0731 -0.6290 -0.2860
 7085SOL     OW32713   2.472   0.182  11.030  0.6039  0.4045 -0.3221
 7085SOL    HW132714   2.486   0.117  10.961  1.2594  1.6354 -1.3653
 7085SOL    HW232715   2.492   0.122  11.101 -2.2705 -0.2271 -0.0291
 7086SOL     OW32716   3.612   4.345   6.425 -0.3361 -0.5534 -0.5486
 7086SOL    HW132717   3.597   4.255   6.453  0.5240 -0.5633 -0.1419
 7086SOL    HW232718   3.684   4.369   6.483 -0.7818  0.5915 -0.4671
 7087SOL     OW32719   3.257   2.659   6.442  0.1033  0.0773  0.4373
 7087SOL    HW132720   3.211   2.719   6.501  1.9063  0.3708  1.5538
 7087SOL    HW232721   3.229   2.705   6.363 -0.8988 -0.3088  0.5600
 7088SOL     OW32722   0.673   0.212  12.270 -0.0337 -0.5559 -0.2678
 7088SOL    HW132723   0.590   0.227  12.225  0.8551  2.3288 -0.9396
 7088SOL    HW232724   0.721   0.214  12.187 -2.1588  2.7012 -1.4350
 7089SOL     OW32725   0.217   3.240   7.967 -0.0523  0.3818  0.2159
 7089SOL    HW132726   0.126   3.257   7.944  0.4125  0.6131 -1.3970
 7089SOL    HW232727   0.255   3.327   7.958  0.2555  0.2779  0.4950
 7090SOL     OW32728   3.981   2.464   0.766  0.0880 -0.9125 -0.1835
 7090SOL    HW132729   3.886   2.473   0.751 -0.4933 -4.5570  1.4937
 7090SOL    HW232730   4.019   2.527   0.705  0.4565 -0.0386  0.9552
 7091SOL     OW32731   1.214   0.668  10.542  0.3884 -0.1104 -0.1554
 7091SOL    HW132732   1.142   0.605  10.545 -1.1287  1.6277 -0.4579
 7091SOL    HW232733   1.168   0.744  10.577  2.0477 -0.2808  2.3870
 7092SOL     OW32734   2.277   4.634   1.173  0.5603 -0.3902  0.2049
 7092SOL    HW132735   2.301   4.567   1.109  0.1335 -0.1432 -0.2136
 7092SOL    HW232736   2.225   4.576   1.228  1.3006 -1.8942 -0.6848
 7093SOL     OW32737   3.468   3.053  13.366  0.7301 -0.4207 -0.5804
 7093SOL    HW132738   3.380   3.089  13.352  0.3366 -0.7476  0.9703
 7093SOL    HW232739   3.459   2.965  13.330  2.9210 -1.3148  1.0647
 7094SOL     OW32740   4.622   1.717   8.520 -0.1238  0.7636 -0.2424
 7094SOL    HW132741   4.576   1.794   8.485 -1.5886 -0.3174 -0.7317
 7094SOL    HW232742   4.672   1.754   8.592 -0.4405 -3.1593  1.9862
 7095SOL     OW32743   3.956   0.911   4.074  0.1364 -0.0508 -0.3336
 7095SOL    HW132744   3.911   0.989   4.040  1.1038  0.9988  0.7747
 7095SOL    HW232745   3.901   0.838   4.046 -1.0880  0.6414  0.2657
 7096SOL     OW32746   0.161   4.004   9.829  0.1195  0.2153  0.3202
 7096SOL    HW132747   0.169   3.936   9.762 -1.1293  1.2135 -0.8373
 7096SOL    HW232748   0.139   4.084   9.782  0.3637 -1.0018 -1.8867
 7097SOL     OW32749   1.047   2.025   7.308  0.5378 -0.2545  0.1770
 7097SOL    HW132750   1.104   1.948   7.307 -0.1983 -0.8060  0.4010
 7097SOL    HW232751   1.061   2.060   7.397  1.0934 -0.4054  0.1489
 7098SOL     OW32752   1.744   2.913   3.528  0.0699 -0.0176  0.0737
 7098SOL    HW132753   1.814   2.942   3.469 -0.9840 -0.4279 -1.3916
 7098SOL    HW232754   1.704   2.997   3.551  2.3478  1.7020 -2.1996
 7099SOL     OW32755   1.108   2.526   8.096 -0.0021  0.2099  0.6440
 7099SOL    HW132756   1.016   2.526   8.070  0.5233 -0.0532 -1.2534
 7099SOL    HW232757   1.141   2.593   8.036  0.2090 -0.8060 -0.3738
 7100SOL     OW32758   1.404   1.013  16.705 -0.3177 -0.0526  0.8649
 7100SOL    HW132759   1.352   1.072  16.650 -1.9835 -1.3345  1.0782
 7100SOL    HW232760   1.481   1.016  16.648 -0.5330  0.6271  0.6104
 7101SOL     OW32761   1.541   4.294  12.756 -0.0786  0.0804  0.1994
 7101SOL    HW132762   1.508   4.204  12.760  0.9253 -0.1771  2.6762
 7101SOL    HW232763   1.493   4.342  12.823 -0.5051 -0.9219  0.6182
 7102SOL     OW32764   1.711   2.726  14.666  0.5436  0.1852 -0.3678
 7102SOL    HW132765   1.678   2.658  14.607  1.1203  0.7888 -1.3801
 7102SOL    HW232766   1.703   2.687  14.754 -0.3629 -2.3827 -1.5940
 7103SOL     OW32767   3.705   1.866  15.357  0.8486 -0.5671  0.5795
 7103SOL    HW132768   3.665   1.945  15.321  2.6432 -0.6806 -1.6543
 7103SOL    HW232769   3.714   1.821  15.273  1.4714 -1.7044  1.2545
 7104SOL     OW32770   0.851   1.019   1.463 -0.0646  0.3186 -0.5493
 7104SOL    HW132771   0.779   0.965   1.496 -0.6427  2.2209  1.2706
 7104SOL    HW232772   0.910   0.953   1.426  2.1343  2.4532 -0.8730
 7105SOL     OW32773   3.239   2.970   8.177 -0.5205 -0.6491 -0.3207
 7105SOL    HW132774   3.272   2.959   8.088  1.3455 -0.5585  0.3595
 7105SOL    HW232775   3.165   3.028   8.165 -0.6707 -1.2248 -2.2342
 7106SOL     OW32776   4.018   4.495  10.449  0.6761 -0.5334 -0.5980
 7106SOL    HW132777   4.064   4.427  10.498 -0.3845  0.7921  2.2914
 7106SOL    HW232778   3.929   4.463  10.432 -0.7226  1.2085  3.3859
 7107SOL     OW32779   3.601   4.038   2.723  0.3630 -0.1190  0.1435
 7107SOL    HW132780   3.687   4.064   2.756 -0.5056  2.2851  0.4992
 7107SOL    HW232781   3.615   3.945   2.706 -0.5420  0.0400 -1.5660
 7108SOL     OW32782   4.218   1.398   1.133 -0.2978 -0.3022  0.1394
 7108SOL    HW132783   4.247   1.486   1.108  1.3139 -1.1427 -0.9492
 7108SOL    HW232784   4.177   1.410   1.219 -1.7290 -1.4433 -0.3929
 7109SOL     OW32785   0.278   3.622   8.945 -0.1728  0.0353 -0.1802
 7109SOL    HW132786   0.208   3.615   8.880  2.0890 -1.3849 -2.4606
 7109SOL    HW232787   0.226   3.584   9.016 -0.4697 -2.9153 -1.9676
 7110SOL     OW32788   3.295   4.423   8.208 -0.2956 -0.2063 -0.1973
 7110SOL    HW132789   3.297   4.504   8.259 -0.2982 -0.5647  0.3667
 7110SOL    HW232790   3.284   4.362   8.280  0.3672  0.3327  0.3634
 7111SOL     OW32791   1.724   0.195   8.393  0.4741 -0.2334  0.0172
 7111SOL    HW132792   1.714   0.111   8.347  2.4048 -0.2642 -0.3521
 7111SOL    HW232793   1.763   0.159   8.473  0.9797  0.4232  0.0579
 7112SOL     OW32794   2.839   2.944  11.886  0.2537  0.1382  0.3528
 7112SOL    HW132795   2.774   2.906  11.946  0.5786 -2.8186 -1.1542
 7112SOL    HW232796   2.914   2.949  11.946 -1.0338  1.4443  1.8550
 7113SOL     OW32797   3.771   4.228  16.707 -0.0300 -0.1619  0.3212
 7113SOL    HW132798   3.794   4.166  16.637  1.1185  1.8788 -1.1170
 7113SOL    HW232799   3.835   4.298  16.701  0.8407 -1.0789 -1.3124
 7114SOL     OW32800   3.011   4.044   7.633 -0.1697  0.4249 -0.2467
 7114SOL    HW132801   2.997   3.983   7.560  0.9042 -0.9369  0.6942
 7114SOL    HW232802   2.999   3.983   7.706 -0.6596  0.0043 -0.6733
 7115SOL     OW32803   1.151   1.014  16.375  0.0585 -0.2763  0.2909
 7115SOL    HW132804   1.109   0.946  16.428 -1.4888 -1.1594 -2.0620
 7115SOL    HW232805   1.226   0.963  16.343  1.9559  1.8525  1.4032
 7116SOL     OW32806   0.806   0.551  17.192 -0.9312  1.4562 -0.4306
 7116SOL    HW132807   0.762   0.636  17.185  0.0441  2.2209  2.6173
 7116SOL    HW232808   0.808   0.539  17.287  0.0773 -2.0605 -0.8684
 7117SOL     OW32809   3.601   4.118   7.044 -0.0396  0.2148  0.1376
 7117SOL    HW132810   3.570   4.095   6.956 -0.2032  0.8705  0.0251
 7117SOL    HW232811   3.543   4.191   7.065 -1.6321 -0.4880 -1.8118
 7118SOL     OW32812   1.540   1.205  12.469  0.3775 -0.6734  0.3133
 7118SOL    HW132813   1.496   1.265  12.409  3.1522  1.2025  0.1820
 7118SOL    HW232814   1.512   1.251  12.548 -3.2164 -0.9933 -0.7309
 7119SOL     OW32815   2.011   2.700   6.591  0.0468  0.4131 -0.4695
 7119SOL    HW132816   2.079   2.723   6.527 -0.2584 -0.3491 -1.0665
 7119SOL    HW232817   1.938   2.678   6.532  0.4172 -3.1448  0.4179
 7120SOL     OW32818   0.122   0.584  17.301  0.1156 -0.4349  0.5488
 7120SOL    HW132819   0.202   0.636  17.308 -0.6856  0.9029 -0.2608
 7120SOL    HW232820   0.164   0.504  17.270 -0.2675  0.4758 -2.2475
 7121SOL     OW32821   2.641   4.089   3.289  0.1944 -0.1688  0.6154
 7121SOL    HW132822   2.731   4.071   3.316  0.5468  0.5398 -0.1088
 7121SOL    HW232823   2.661   4.125   3.202 -0.2767  1.7129  1.2900
 7122SOL     OW32824   1.777   0.484  16.395 -0.4913 -0.0037  0.0411
 7122SOL    HW132825   1.716   0.534  16.449  1.2757  0.1651  1.8794
 7122SOL    HW232826   1.726   0.458  16.319 -0.5638 -2.8548  1.0825
 7123SOL     OW32827   0.993   2.611   0.581 -0.4360 -0.0264 -0.3159
 7123SOL    HW132828   1.072   2.558   0.569  0.1712  0.5061  1.3379
 7123SOL    HW232829   0.933   2.573   0.517  0.8488  0.2631 -1.6990
 7124SOL     OW32830   3.015   3.489   4.627  0.0001 -0.3873 -0.4433
 7124SOL    HW132831   2.946   3.542   4.585 -1.3292  0.1698  2.4310
 7124SOL    HW232832   3.046   3.539   4.703 -0.9300 -1.4212  0.6305
 7125SOL     OW32833   4.121   0.162  10.702  0.3735 -0.3189 -0.3326
 7125SOL    HW132834   4.082   0.246  10.726  1.6058  0.3419 -0.6500
 7125SOL    HW232835   4.058   0.095  10.730  0.2689 -0.3168 -0.5616
 7126SOL     OW32836   0.083   0.026  14.658  0.8062 -0.2337  0.3577
 7126SOL    HW132837   0.077   4.718  14.749  2.1832  1.5603  1.0081
 7126SOL    HW232838   0.137   0.103  14.675  1.0110 -0.4391  0.6178
 7127SOL     OW32839   2.028   2.383   7.576  0.4275 -0.1459 -0.1423
 7127SOL    HW132840   2.052   2.466   7.535 -1.6389  0.4545 -0.1391
 7127SOL    HW232841   1.937   2.403   7.597  0.7337  0.9706  0.1228
 7128SOL     OW32842   2.374   0.185   6.003 -0.0501  0.5857 -0.0983
 7128SOL    HW132843   2.437   0.248   6.040  0.1666  1.4737 -1.9931
 7128SOL    HW232844   2.351   0.232   5.923 -1.4434  1.4600  0.8203
 7129SOL     OW32845   0.387   4.635  10.934  0.4173 -0.0977 -0.5478
 7129SOL    HW132846   0.336   4.621  10.855  0.3221  1.2891 -0.7335
 7129SOL    HW232847   0.325   4.599  10.997  1.0252 -1.0934 -0.5203
 7130SOL     OW32848   4.635   2.874  10.264 -0.0161  0.5231 -0.4339
 7130SOL    HW132849   4.709   2.928  10.293  1.4640 -2.0589  0.6804
 7130SOL    HW232850   4.655   2.846  10.175  0.8285 -0.6661  0.1265
 7131SOL     OW32851   0.690   2.410   0.566 -0.6351 -0.1739 -0.1471
 7131SOL    HW132852   0.759   2.344   0.582  0.3462  0.3443 -2.2661
 7131SOL    HW232853   0.723   2.449   0.485 -2.6471  0.5832 -0.5826
 7132SOL     OW32854   2.291   0.778   6.944 -0.4748  0.4541 -0.0147
 7132SOL    HW132855   2.346   0.731   6.882 -1.3389  0.7054 -0.9704
 7132SOL    HW232856   2.327   0.740   7.024 -0.9997  0.4319  0.2093
 7133SOL     OW32857   3.275   0.057   0.289  0.2636  0.4527 -0.1461
 7133SOL    HW132858   3.341   0.077   0.356 -1.6201  2.1620  1.1876
 7133SOL    HW232859   3.322   0.003   0.225 -0.2872  0.7052 -0.7538
 7134SOL     OW32860   3.690   2.701   3.286 -0.2429  0.1650  0.4593
 7134SOL    HW132861   3.767   2.755   3.269 -1.5106  1.2381 -1.9972
 7134SOL    HW232862   3.689   2.656   3.201 -0.3396 -0.6636  0.8985
 7135SOL     OW32863   2.229   3.249  15.434  0.6422  0.3214 -0.0259
 7135SOL    HW132864   2.280   3.181  15.478  0.4739  0.2931  0.1235
 7135SOL    HW232865   2.144   3.236  15.477  1.2301 -0.8131  0.7715
 7136SOL     OW32866   4.029   0.733   0.998 -0.3123  0.5521  0.3001
 7136SOL    HW132867   3.985   0.780   1.069  1.5893 -0.8993  2.4340
 7136SOL    HW232868   4.064   0.802   0.941  0.0178  0.0379 -0.1318
 7137SOL     OW32869   2.931   3.489  17.593 -0.0079  0.0726 -0.0679
 7137SOL    HW132870   2.889   3.513  17.510 -0.1894 -1.1565 -0.3242
 7137SOL    HW232871   2.890   3.551  17.654  0.0717 -0.7366  0.7966
 7138SOL     OW32872   0.104   3.446  12.663  0.4480 -0.4686  0.1023
 7138SOL    HW132873   0.169   3.479  12.726  1.0228 -1.8861  0.2646
 7138SOL    HW232874   0.155   3.417  12.587  0.5638 -1.2482  0.4796
 7139SOL     OW32875   2.486   1.829  11.014  0.1501 -0.1113  0.1227
 7139SOL    HW132876   2.409   1.883  11.032  1.0784  0.6515  1.7935
 7139SOL    HW232877   2.485   1.761  11.082 -1.7735 -0.9672 -0.7508
 7140SOL     OW32878   0.346   3.473   8.278  0.3111  0.5308  0.1068
 7140SOL    HW132879   0.426   3.438   8.319 -0.6228 -0.3062  1.2187
 7140SOL    HW232880   0.369   3.459   8.186  1.9418 -1.7494  0.8582
 7141SOL     OW32881   0.782   3.035   1.313  0.0444 -0.0839 -0.0949
 7141SOL    HW132882   0.840   3.016   1.386 -0.9758  1.6087  1.1370
 7141SOL    HW232883   0.836   3.010   1.238  0.0334 -1.3052  0.2920
 7142SOL     OW32884   0.951   0.367  14.997 -0.5296  0.6044 -0.0829
 7142SOL    HW132885   1.009   0.315  14.942  2.8909  0.9961  3.1191
 7142SOL    HW232886   0.937   0.450  14.951  0.9299  1.4483  0.9751
 7143SOL     OW32887   0.161   0.116   1.962 -0.2417  0.4451  1.0213
 7143SOL    HW132888   0.204   0.050   1.907 -0.8079  0.7829  0.1806
 7143SOL    HW232889   0.209   0.099   2.042 -2.6040 -0.4642  2.2469
 7144SOL     OW32890   3.195   3.066   3.635 -0.7464  0.2543 -0.5230
 7144SOL    HW132891   3.215   3.154   3.666 -4.4620  0.8494  0.1382
 7144SOL    HW232892   3.181   3.012   3.713  0.0450  0.8737  0.0504
 7145SOL     OW32893   3.791   1.076   4.410 -0.0377 -0.2465 -0.0015
 7145SOL    HW132894   3.861   1.119   4.460  1.3004  0.4900 -2.4971
 7145SOL    HW232895   3.712   1.125   4.432  0.7944  1.2213 -0.2473
 7146SOL     OW32896   2.673   2.843  12.082  0.3052 -0.4924 -0.8077
 7146SOL    HW132897   2.628   2.785  12.145 -0.0603  0.6494 -0.0245
 7146SOL    HW232898   2.611   2.912  12.060  0.7127 -0.1123 -0.7656
 7147SOL     OW32899   0.917   2.311   9.930 -0.1394 -0.5099  0.0156
 7147SOL    HW132900   0.944   2.322  10.021 -1.2090 -0.7406  0.3594
 7147SOL    HW232901   0.823   2.297   9.935 -0.1265 -0.4363  0.5092
 7148SOL     OW32902   4.207   3.471   6.202 -0.1551  0.4295 -0.1801
 7148SOL    HW132903   4.160   3.549   6.232  0.5932  1.5319 -1.8714
 7148SOL    HW232904   4.260   3.513   6.134 -0.0452 -0.9858 -0.9732
 7149SOL     OW32905   1.469   3.665   6.706 -0.6052 -0.6282 -0.0386
 7149SOL    HW132906   1.479   3.760   6.709 -0.0975 -0.5986 -2.7310
 7149SOL    HW232907   1.446   3.653   6.798 -0.1549  1.1212  0.2962
 7150SOL     OW32908   3.051   1.170  17.674 -0.6390  0.5208 -0.1666
 7150SOL    HW132909   3.137   1.165   0.030 -1.2579 -2.2401  0.8184
 7150SOL    HW232910   3.066   1.205  17.587  0.5721 -0.0845 -0.1887
 7151SOL     OW32911   0.557   3.351   4.384 -0.4499  0.2093  0.3653
 7151SOL    HW132912   0.598   3.423   4.432 -1.4169  1.5805 -0.8813
 7151SOL    HW232913   0.545   3.292   4.459 -1.4972  0.0930  0.1117
 7152SOL     OW32914   0.005   0.493   7.568 -0.0248  0.4215  0.3580
 7152SOL    HW132915   4.683   0.576   7.548 -1.1288 -0.9747 -3.1520
 7152SOL    HW232916   0.074   0.514   7.631  0.6900 -2.2543  0.4947
 7153SOL     OW32917   2.754   3.598   7.967 -0.3366  0.2557 -0.4458
 7153SOL    HW132918   2.661   3.602   7.946  0.6485  1.4091 -4.7247
 7153SOL    HW232919   2.762   3.570   8.058  2.0410  1.9173 -0.1054
 7154SOL     OW32920   1.235   2.706   1.776 -0.4371 -0.1761  0.1680
 7154SOL    HW132921   1.285   2.738   1.851 -0.2944 -0.2745  0.1134
 7154SOL    HW232922   1.194   2.629   1.816 -2.0377  0.7543  0.3449
 7155SOL     OW32923   1.677   4.656  12.180 -0.0354 -0.3468  0.1891
 7155SOL    HW132924   1.629   4.686  12.258 -0.0861 -2.2751  0.8801
 7155SOL    HW232925   1.713   4.577  12.219  2.0589  0.9458  0.8748
 7156SOL     OW32926   0.205   2.214   2.051  0.4272 -0.3804  0.1246
 7156SOL    HW132927   0.194   2.229   2.145  0.3470  0.4439 -0.0203
 7156SOL    HW232928   0.211   2.307   2.030  0.0408 -0.1437  1.0416
 7157SOL     OW32929   3.971   0.535   8.202  0.4007 -0.1682 -0.6740
 7157SOL    HW132930   4.026   0.613   8.192 -0.4659  0.6034  0.6093
 7157SOL    HW232931   3.886   0.579   8.193 -0.3026 -0.9683  2.0460
 7158SOL     OW32932   3.091   0.715   7.114 -0.6744  0.3463  0.1249
 7158SOL    HW132933   3.136   0.671   7.187 -1.4203 -1.5113 -0.5312
 7158SOL    HW232934   2.999   0.725   7.140  0.1349  2.3985  2.2119
 7159SOL     OW32935   1.330   2.140   8.435 -0.7862 -0.6811 -0.1905
 7159SOL    HW132936   1.235   2.129   8.430 -0.7308 -1.0333 -0.5005
 7159SOL    HW232937   1.348   2.131   8.341  2.8096  0.1841  0.4114
 7160SOL     OW32938   1.349   4.082   5.996  0.5474 -0.4730  0.0048
 7160SOL    HW132939   1.287   4.041   6.056 -0.8508 -0.3560 -1.3542
 7160SOL    HW232940   1.415   4.116   6.057  0.9979 -0.0890 -0.6943
 7161SOL     OW32941   2.829   4.231   5.074 -0.0116  0.3552  0.3992
 7161SOL    HW132942   2.873   4.192   5.148  0.9628  0.2356 -0.2461
 7161SOL    HW232943   2.877   4.208   4.994  1.8704  0.2267  1.5703
 7162SOL     OW32944   1.103   2.660   3.464 -0.3532 -0.1596  0.3311
 7162SOL    HW132945   1.009   2.649   3.453 -0.5712 -1.7919  4.0730
 7162SOL    HW232946   1.129   2.609   3.541 -1.0119 -0.0945  0.5904
 7163SOL     OW32947   2.920   0.836  14.190  0.2207  0.2006  0.3292
 7163SOL    HW132948   3.005   0.881  14.196  0.2897 -0.1661  2.0126
 7163SOL    HW232949   2.938   0.749  14.226 -2.6435 -0.0703  1.1071
 7164SOL     OW32950   2.934   1.698   3.507  0.2245  0.3682  0.0989
 7164SOL    HW132951   2.913   1.748   3.585 -1.6146  0.0447 -0.1752
 7164SOL    HW232952   2.946   1.611   3.547 -2.7112 -0.7323 -1.4025
 7165SOL     OW32953   3.562   2.204   8.207  0.2827 -0.3107  0.4522
 7165SOL    HW132954   3.468   2.203   8.222  0.2015  1.2701  0.0247
 7165SOL    HW232955   3.586   2.168   8.292 -0.9084  1.5535  1.5807
 7166SOL     OW32956   1.279   2.484   6.551 -0.4854 -0.0799  0.6710
 7166SOL    HW132957   1.280   2.399   6.594  0.6580 -1.4454 -2.0541
 7166SOL    HW232958   1.189   2.514   6.555 -1.1259 -1.9630  0.1060
 7167SOL     OW32959   4.131   4.633   7.933  0.2756 -0.1535  0.1340
 7167SOL    HW132960   4.160   4.692   7.863 -3.1926  0.8979 -0.4351
 7167SOL    HW232961   4.051   4.670   7.969 -1.3229 -4.1678  0.6516
 7168SOL     OW32962   2.748   1.525   3.193  0.2431  0.0250  0.1989
 7168SOL    HW132963   2.775   1.595   3.252 -0.6947 -0.5438  1.3118
 7168SOL    HW232964   2.718   1.580   3.120  0.4936  0.8742  0.7392
 7169SOL     OW32965   2.466   4.618   2.160  0.5358  0.3607  0.2220
 7169SOL    HW132966   2.465   4.552   2.091 -0.7265 -1.1081  1.6406
 7169SOL    HW232967   2.372   4.629   2.178  0.7914 -0.5017  2.1063
 7170SOL     OW32968   1.012   3.122   8.444 -0.1048  0.2452 -0.1356
 7170SOL    HW132969   0.922   3.110   8.415  0.1791  1.8488 -1.6574
 7170SOL    HW232970   1.023   3.029   8.466 -2.9799 -0.2607 -0.8722
 7171SOL     OW32971   1.765   0.659   7.877 -0.0124 -0.4359 -0.0607
 7171SOL    HW132972   1.710   0.597   7.829  0.0902  0.4462 -1.3287
 7171SOL    HW232973   1.728   0.745   7.855  1.3002  0.1741  0.1050
 7172SOL     OW32974   0.590   4.706   2.201 -0.7521  0.4281  0.1833
 7172SOL    HW132975   0.630   0.055   2.149 -1.8611  0.9373  0.0098
 7172SOL    HW232976   0.606   0.020   2.289 -0.3866  0.2630  0.1843
 7173SOL     OW32977   4.290   3.684  14.337 -0.6400  0.0239  0.4754
 7173SOL    HW132978   4.303   3.672  14.243 -0.9857 -1.6913  0.6606
 7173SOL    HW232979   4.196   3.699  14.345 -0.8861 -0.0691 -2.1912
 7174SOL     OW32980   4.638   3.988  10.295 -0.3174  0.2664  0.3534
 7174SOL    HW132981   4.565   3.982  10.235 -1.2316 -0.9562  1.5893
 7174SOL    HW232982   4.705   4.006  10.229 -0.3280  0.7493  0.4726
 7175SOL     OW32983   4.303   3.087   7.871 -0.8345 -0.1627 -0.3840
 7175SOL    HW132984   4.373   3.150   7.886 -1.3565  0.0813  1.0788
 7175SOL    HW232985   4.223   3.139   7.860 -0.9791  0.3851  3.1723
 7176SOL     OW32986   2.996   1.669   6.314  0.2797  0.8725 -0.4953
 7176SOL    HW132987   3.073   1.641   6.364 -1.1123  0.2720  1.2940
 7176SOL    HW232988   2.960   1.729   6.378 -0.5791  0.0599 -0.2147
 7177SOL     OW32989   4.503   3.580   8.387  0.2036 -0.2332 -0.6243
 7177SOL    HW132990   4.417   3.616   8.411  1.3505 -0.3095  3.6894
 7177SOL    HW232991   4.530   3.649   8.326 -0.1136  0.8236  0.4117
 7178SOL     OW32992   3.091   1.488   5.035 -0.5523 -0.1279 -0.7183
 7178SOL    HW132993   3.128   1.432   5.103  1.0854 -0.0322 -1.5363
 7178SOL    HW232994   3.034   1.545   5.087  0.8279  1.2389 -0.7071
 7179SOL     OW32995   4.229   2.832   7.954 -0.2048 -0.5347  0.0184
 7179SOL    HW132996   4.148   2.844   8.004  0.1610 -1.9164  0.9344
 7179SOL    HW232997   4.259   2.919   7.930  1.0867 -1.2413 -0.9447
 7180SOL     OW32998   3.554   3.899  15.407  0.6746 -0.3504  1.0275
 7180SOL    HW132999   3.583   3.809  15.395 -1.1575 -1.0315  1.7312
 7180SOL    HW233000   3.479   3.905  15.348  0.9743  2.3044  0.8918
 7181SOL     OW33001   1.395   0.566   6.721  0.2235  0.2240 -0.1629
 7181SOL    HW133002   1.485   0.585   6.747  0.5005  0.0942 -1.0293
 7181SOL    HW233003   1.394   0.473   6.743  1.1875  0.1650 -0.3574
 7182SOL     OW33004   1.858   4.519  16.456 -0.3141  0.6754 -0.2862
 7182SOL    HW133005   1.763   4.530  16.456 -0.1743  2.0087  0.9928
 7182SOL    HW233006   1.874   4.446  16.516  1.1927  1.3528  0.1254
 7183SOL     OW33007   2.617   3.027   8.495 -0.6557  0.6627 -0.3965
 7183SOL    HW133008   2.638   2.977   8.574 -1.0671  2.7795  1.0382
 7183SOL    HW233009   2.613   2.957   8.429  1.3407  0.2508 -0.0755
 7184SOL     OW33010   1.229   4.439   7.568 -0.3611 -0.1490 -0.2281
 7184SOL    HW133011   1.184   4.446   7.653 -0.0302  1.6935 -0.2082
 7184SOL    HW233012   1.310   4.399   7.599 -1.9033 -3.3334 -0.2537
 7185SOL     OW33013   1.022   1.835   1.988 -0.1340  0.2203 -0.0331
 7185SOL    HW133014   1.008   1.818   2.081 -1.4803 -0.0300 -0.2845
 7185SOL    HW233015   0.934   1.863   1.962 -0.7655 -0.0451  1.7720
 7186SOL     OW33016   2.759   2.910  10.402 -0.1801  0.2989 -0.1589
 7186SOL    HW133017   2.696   2.880  10.337 -1.4416  2.5417  0.0380
 7186SOL    HW233018   2.689   2.922  10.467 -0.4701  1.1060 -0.6206
 7187SOL     OW33019   2.366   2.756  13.343  0.4013  0.1202 -0.0239
 7187SOL    HW133020   2.355   2.823  13.276  0.5478  1.3521  1.1987
 7187SOL    HW233021   2.358   2.803  13.425  0.1992  1.2411 -0.6902
 7188SOL     OW33022   2.467   4.422  10.370 -0.3428  0.0508  0.1082
 7188SOL    HW133023   2.551   4.465  10.356 -1.4057  2.0747 -0.0431
 7188SOL    HW233024   2.481   4.342  10.320 -1.6968  0.0613 -0.2930
 7189SOL     OW33025   2.314   4.447  15.095 -0.3297  0.1778 -0.2457
 7189SOL    HW133026   2.300   4.407  15.009  1.4383  2.4544 -1.5767
 7189SOL    HW233027   2.410   4.440  15.094 -0.2693  1.0754 -0.5792
 7190SOL     OW33028   0.646   3.390   1.265  0.2615 -0.8045 -0.0803
 7190SOL    HW133029   0.593   3.460   1.226  1.5718 -1.3725 -2.8092
 7190SOL    HW233030   0.644   3.322   1.198 -1.4003 -0.6739 -0.1646
 7191SOL     OW33031   0.098   0.454  11.921 -0.0657  0.2015 -0.6298
 7191SOL    HW133032   0.067   0.401  11.847 -3.0686 -1.2001  1.6154
 7191SOL    HW233033   0.184   0.419  11.943 -1.0473 -2.5507 -1.1124
 7192SOL     OW33034   2.497   1.677   3.438 -0.6927  1.0363 -0.1754
 7192SOL    HW133035   2.558   1.689   3.511 -0.4680 -1.6827  0.0695
 7192SOL    HW233036   2.507   1.760   3.392  0.6152  2.4299  2.6343
 7193SOL     OW33037   1.659   4.707   7.619 -0.1877  0.5834  0.1625
 7193SOL    HW133038   1.633   4.701   7.527 -3.6374  0.0704  1.1454
 7193SOL    HW233039   1.694   4.618   7.631 -1.3064  0.1584  0.3352
 7194SOL     OW33040   1.903   0.860   4.142  0.2315  0.1489 -0.2435
 7194SOL    HW133041   1.989   0.873   4.102  0.8516 -0.4746  0.8824
 7194SOL    HW233042   1.847   0.875   4.066 -0.3551 -0.2313  0.1091
 7195SOL     OW33043   0.843   3.505  12.157  0.0879  0.5035  0.3433
 7195SOL    HW133044   0.854   3.511  12.252 -2.2489 -0.8803  0.6793
 7195SOL    HW233045   0.781   3.433  12.156 -0.8432  1.3207 -1.0746
 7196SOL     OW33046   4.552   1.642   3.368  0.7671 -0.0301 -0.4971
 7196SOL    HW133047   4.568   1.733   3.391 -1.6859 -0.1942  1.7656
 7196SOL    HW233048   4.457   1.641   3.366  0.7020 -2.4835  2.6183
 7197SOL     OW33049   1.427   1.177   6.935 -0.2259  0.0501  0.5042
 7197SOL    HW133050   1.515   1.158   6.969  1.0880  1.7043 -1.9484
 7197SOL    HW233051   1.372   1.101   6.954  0.4950 -1.1298 -2.1628
 7198SOL     OW33052   2.075   0.185  17.631  0.2441  0.2281 -0.6455
 7198SOL    HW133053   2.015   0.239  17.579 -0.2213 -0.9408 -1.3195
 7198SOL    HW233054   2.157   0.227  17.608  1.2268 -0.6874  1.2045
 7199SOL     OW33055   1.723   0.325  17.473 -0.0645 -0.4431  0.1860
 7199SOL    HW133056   1.692   0.322  17.383 -0.2628 -0.8015  0.2668
 7199SOL    HW233057   1.736   0.232  17.491 -0.0743 -0.8948 -2.2415
 7200SOL     OW33058   3.728   3.399   5.794  0.4840 -0.1295  0.7103
 7200SOL    HW133059   3.773   3.315   5.802  0.9423  0.1137  0.7002
 7200SOL    HW233060   3.646   3.361   5.824 -0.1152 -0.4128 -1.3050
 7201SOL     OW33061   3.979   4.133   8.287 -0.3089 -0.0276  0.5852
 7201SOL    HW133062   4.012   4.222   8.302  1.5073 -0.8193  1.3398
 7201SOL    HW233063   4.058   4.080   8.282 -2.0238 -2.6413  1.2655
 7202SOL     OW33064   2.497   1.250  13.012  0.1620 -0.6343 -0.0624
 7202SOL    HW133065   2.483   1.227  13.104  2.3659  0.4263  0.5453
 7202SOL    HW233066   2.477   1.169  12.965 -1.2060  0.6514 -1.7072
 7203SOL     OW33067   4.696   0.431   9.541 -0.6178 -0.3828  0.0762
 7203SOL    HW133068   4.690   0.413   9.447 -0.8020 -0.3601  0.0842
 7203SOL    HW233069   0.065   0.404   9.563  0.9876  2.8104 -2.4472
 7204SOL     OW33070   4.273   0.965   7.195 -0.3352  0.3672  0.1685
 7204SOL    HW133071   4.318   0.967   7.111  0.1165  1.8739  0.4424
 7204SOL    HW233072   4.190   1.002   7.166 -1.1009  0.0262  1.9001
 7205SOL     OW33073   2.515   0.011  14.327 -0.3467  0.2650  0.0976
 7205SOL    HW133074   2.522   4.646  14.284  3.2460  1.0160 -0.7828
 7205SOL    HW233075   2.500   0.067  14.251  1.8155 -0.8284 -1.1643
 7206SOL     OW33076   4.200   1.623   1.982  0.0708  0.4486 -0.2636
 7206SOL    HW133077   4.151   1.671   2.048  1.4060 -0.8464  1.6856
 7206SOL    HW233078   4.169   1.533   1.993 -0.7070  0.7143 -0.3017
 7207SOL     OW33079   2.513   3.563  17.683  0.2945 -0.9573  0.2027
 7207SOL    HW133080   2.543   3.483  17.640 -0.6131 -1.8994  1.3600
 7207SOL    HW233081   2.595   3.566   0.047 -0.3598 -0.9446  1.2831
 7208SOL     OW33082   4.374   2.675   4.671 -0.2814  0.4285 -0.1333
 7208SOL    HW133083   4.457   2.697   4.712  0.0748 -1.0859 -0.0204
 7208SOL    HW233084   4.408   2.628   4.594 -1.6515 -1.7235  0.5582
 7209SOL     OW33085   2.439   4.488   6.138  0.3010  0.1127 -0.1094
 7209SOL    HW133086   2.368   4.479   6.202 -0.6574  2.5575 -0.8244
 7209SOL    HW233087   2.419   4.568   6.090 -1.7708 -0.5129 -0.3015
 7210SOL     OW33088   4.173   2.135  11.989  0.0478 -0.3638  0.0560
 7210SOL    HW133089   4.090   2.144  12.037 -1.3138  1.2838 -2.5657
 7210SOL    HW233090   4.154   2.047  11.958  1.4037 -0.7368  0.3372
 7211SOL     OW33091   4.231   2.461  11.740  0.3686  0.3967 -0.0986
 7211SOL    HW133092   4.157   2.484  11.684 -0.2475 -1.4103 -0.0506
 7211SOL    HW233093   4.222   2.538  11.795 -1.0899  0.3465 -0.2633
 7212SOL     OW33094   4.567   1.171  12.091  0.0935 -0.0153  0.0740
 7212SOL    HW133095   4.545   1.227  12.165 -0.3183 -0.4939  0.3158
 7212SOL    HW233096   4.560   1.234  12.020  0.7300 -1.3858 -1.2099
 7213SOL     OW33097   3.067   1.126   1.952 -0.2938 -0.0674  0.3411
 7213SOL    HW133098   3.093   1.034   1.942  0.2197 -0.0063  1.1139
 7213SOL    HW233099   2.983   1.111   1.909  0.5544 -1.2971 -0.8964
 7214SOL     OW33100   3.125   1.595   1.254 -0.6638 -0.0806  0.5362
 7214SOL    HW133101   3.082   1.598   1.168  1.4441  0.0756 -0.5051
 7214SOL    HW233102   3.170   1.512   1.238  2.4048  1.7517 -0.2152
 7215SOL     OW33103   0.736   0.394   6.685 -0.0922 -0.4994 -0.0218
 7215SOL    HW133104   0.798   0.323   6.701 -1.4204 -1.1986  1.9749
 7215SOL    HW233105   0.702   0.409   6.774 -0.0891  2.6566 -0.5409
 7216SOL     OW33106   2.866   0.156   7.344 -0.3049  0.1268 -0.1642
 7216SOL    HW133107   2.807   0.231   7.335 -0.0832  0.1711 -1.1557
 7216SOL    HW233108   2.923   0.174   7.419  1.7960  0.5195 -1.8606
 7217SOL     OW33109   4.692   1.394   9.408 -0.0755  0.2496 -0.9819
 7217SOL    HW133110   4.700   1.489   9.412 -1.1716  0.2155  2.0904
 7217SOL    HW233111   4.625   1.386   9.476  0.2485 -0.4214 -0.7355
 7218SOL     OW33112   3.003   1.826   0.513  0.0688 -0.2893  0.2157
 7218SOL    HW133113   3.023   1.908   0.557  0.2265  0.4742 -1.2781
 7218SOL    HW233114   2.910   1.818   0.536  0.3310 -1.8477  0.7534
 7219SOL     OW33115   4.567   1.252   7.113 -0.1187  0.3896  0.1395
 7219SOL    HW133116   4.581   1.347   7.122 -2.9547  0.5922  2.4055
 7219SOL    HW233117   4.654   1.218   7.133 -1.0097 -1.1307  1.4417
 7220SOL     OW33118   3.955   0.485   1.886  0.5409  0.4238  0.0642
 7220SOL    HW133119   3.891   0.496   1.816  0.0290 -0.3995  0.4037
 7220SOL    HW233120   3.931   0.395   1.909  0.6207  0.5959  0.8320
 7221SOL     OW33121   2.261   2.259   8.606 -0.1676 -0.0410  0.5758
 7221SOL    HW133122   2.243   2.173   8.568 -1.6487  1.2830 -1.7071
 7221SOL    HW233123   2.311   2.227   8.681 -0.3844 -0.6109  0.4772
 7222SOL     OW33124   0.734   2.984  15.292  0.6676  0.4329 -0.0506
 7222SOL    HW133125   0.750   3.052  15.226 -0.3855 -0.7600 -1.5512
 7222SOL    HW233126   0.640   2.972  15.277  0.5629  1.1247  0.0427
 7223SOL     OW33127   4.248   1.133  12.386 -0.0225 -0.2036  0.3517
 7223SOL    HW133128   4.316   1.198  12.367 -1.7334  1.8175  1.0824
 7223SOL    HW233129   4.212   1.171  12.466  1.6960  0.2231  0.9165
 7224SOL     OW33130   0.775   3.232   8.811  0.1936  0.6054  0.1498
 7224SOL    HW133131   0.795   3.141   8.833  0.0248  0.7832  1.0262
 7224SOL    HW233132   0.713   3.245   8.883  1.3207 -0.5607  1.3294
 7225SOL     OW33133   1.588   2.335   7.174 -0.1578 -0.0347 -0.7121
 7225SOL    HW133134   1.649   2.267   7.204 -0.9704 -1.2047 -1.6670
 7225SOL    HW233135   1.635   2.380   7.104 -1.6131 -1.3171 -2.5135
 7226SOL     OW33136   0.431   2.154  11.816  0.1246  0.2962 -0.0277
 7226SOL    HW133137   0.469   2.241  11.824 -1.4265  0.8732  0.9982
 7226SOL    HW233138   0.394   2.162  11.728  1.0809 -2.9195 -0.7066
 7227SOL     OW33139   0.556   1.427   0.305  0.4602  0.0676 -0.2200
 7227SOL    HW133140   0.482   1.469   0.261  0.3063  0.8204  0.7438
 7227SOL    HW233141   0.591   1.369   0.238  0.2230 -0.1250 -0.1773
 7228SOL     OW33142   1.611   3.117  11.207 -0.0716 -0.5066 -0.5586
 7228SOL    HW133143   1.633   3.158  11.291 -0.7425  1.3081 -1.2668
 7228SOL    HW233144   1.630   3.190  11.148 -0.8497  1.3157  1.4413
 7229SOL     OW33145   3.794   1.764   4.134 -0.1087 -0.0887 -0.1508
 7229SOL    HW133146   3.861   1.708   4.095 -1.6121 -0.7455 -1.7559
 7229SOL    HW233147   3.827   1.852   4.117  1.9935 -0.6670  0.9008
 7230SOL     OW33148   1.801   3.060   7.993 -0.0692  0.3606  0.0179
 7230SOL    HW133149   1.797   3.115   8.071  3.4897  0.4804  0.1355
 7230SOL    HW233150   1.706   3.049   7.997  0.1628 -1.6782  0.1216
 7231SOL     OW33151   3.177   2.317   2.406 -0.4887 -0.0446 -0.0729
 7231SOL    HW133152   3.203   2.408   2.415 -1.7456  0.2802  0.2466
 7231SOL    HW233153   3.259   2.289   2.365 -0.5695 -2.9062  1.6901
 7232SOL     OW33154   4.496   2.111   3.445 -0.0490  0.0443  0.2164
 7232SOL    HW133155   4.560   2.069   3.503 -0.6943 -0.3290  0.6576
 7232SOL    HW233156   4.430   2.042   3.445 -1.6059  1.5319 -1.1556
 7233SOL     OW33157   3.588   2.387  14.227  0.1499 -0.7272  0.1593
 7233SOL    HW133158   3.527   2.360  14.159 -1.1107 -1.5610  1.5990
 7233SOL    HW233159   3.527   2.414  14.297  0.8953  0.2559  0.4340
 7234SOL     OW33160   2.584   3.611   8.373 -0.8331 -0.0051 -0.2047
 7234SOL    HW133161   2.556   3.576   8.458 -0.6017  1.9792  0.6732
 7234SOL    HW233162   2.589   3.705   8.391  1.0957  0.4415 -3.0355
 7235SOL     OW33163   4.312   1.912   3.434  0.0249 -0.1142 -0.3173
 7235SOL    HW133164   4.262   1.852   3.378  1.3774  1.7326 -3.5125
 7235SOL    HW233165   4.247   1.925   3.503  0.7792 -1.7801  0.6908
 7236SOL     OW33166   1.456   1.089   0.069 -0.2929 -0.4935 -0.0965
 7236SOL    HW133167   1.515   1.103  17.680  0.2235  1.4060  0.6886
 7236SOL    HW233168   1.522   1.049   0.125 -0.0524  0.8996  0.6169
 7237SOL     OW33169   1.241   0.928   1.632  0.0678 -0.3747  0.4692
 7237SOL    HW133170   1.184   1.004   1.634  2.3385  1.3392  0.3446
 7237SOL    HW233171   1.177   0.859   1.651 -0.0965 -0.9755 -2.3641
 7238SOL     OW33172   2.691   1.301   3.326  0.2798  0.2003  0.0163
 7238SOL    HW133173   2.615   1.288   3.268  0.2412 -2.1950  0.6072
 7238SOL    HW233174   2.713   1.389   3.295 -0.6260  0.5182  0.2840
 7239SOL     OW33175   3.996   1.253   5.804  0.1246  0.2125 -0.3010
 7239SOL    HW133176   4.020   1.252   5.711  2.2772 -0.5411  0.2560
 7239SOL    HW233177   4.057   1.323   5.827  1.8348 -0.9997 -1.0984
 7240SOL     OW33178   0.866   1.947  13.959 -0.1715 -0.2931  0.0412
 7240SOL    HW133179   0.789   1.994  13.988 -1.2110 -2.4123  0.7015
 7240SOL    HW233180   0.897   2.009  13.893 -0.5215 -1.0258 -0.8244
 7241SOL     OW33181   3.412   0.731   5.023 -0.5058 -0.0849  0.1657
 7241SOL    HW133182   3.502   0.700   5.010 -1.2974 -1.8752 -1.0875
 7241SOL    HW233183   3.383   0.660   5.081 -0.2762 -0.4456 -0.1649
 7242SOL     OW33184   0.796   4.075   5.396  1.0785  0.1414 -0.1233
 7242SOL    HW133185   0.788   4.154   5.450  0.6542  0.2210 -0.3051
 7242SOL    HW233186   0.857   4.101   5.327 -0.9728 -0.9195 -2.3242
 7243SOL     OW33187   2.608   4.536  17.357  0.9249 -0.2005  0.3749
 7243SOL    HW133188   2.563   4.584  17.427 -1.2023 -1.8478  0.1077
 7243SOL    HW233189   2.615   4.608  17.294  0.7980  0.2906  0.9213
 7244SOL     OW33190   3.519   2.114   5.252  0.0952 -0.3459 -1.1319
 7244SOL    HW133191   3.564   2.031   5.241 -1.0514 -1.0068 -0.8169
 7244SOL    HW233192   3.581   2.157   5.193  1.1010 -0.5171 -0.1886
 7245SOL     OW33193   3.368   3.107   4.496  0.2044 -0.1090  0.1651
 7245SOL    HW133194   3.321   3.181   4.535 -1.9785 -2.2903  1.6372
 7245SOL    HW233195   3.347   3.043   4.563  0.0395  0.7002  0.8940
 7246SOL     OW33196   0.652   4.431   8.254 -0.5451  0.1091  0.0847
 7246SOL    HW133197   0.687   4.345   8.277  1.1174  0.8845  0.4035
 7246SOL    HW233198   0.633   4.470   8.339  1.5464  1.3758 -0.0300
 7247SOL     OW33199   2.402   0.190   6.788 -0.0746 -0.0829 -0.3084
 7247SOL    HW133200   2.310   0.166   6.800  0.0819 -0.4839  0.1178
 7247SOL    HW233201   2.438   0.115   6.740  2.5883 -0.8521  2.9038
 7248SOL     OW33202   0.436   0.047  11.174  0.0838 -0.0818  0.2727
 7248SOL    HW133203   0.349   0.060  11.136  0.7948  1.2086 -0.9299
 7248SOL    HW233204   0.477   0.128  11.145 -2.0724  0.2966 -1.7354
 7249SOL     OW33205   2.124   2.212   6.702 -0.3667  0.3459 -0.4713
 7249SOL    HW133206   2.029   2.224   6.690 -0.1378  0.4972 -2.1180
 7249SOL    HW233207   2.139   2.301   6.735  0.2624  0.1353 -0.2043
 7250SOL     OW33208   2.542   3.434   6.131  0.0652 -0.1373  0.3710
 7250SOL    HW133209   2.577   3.499   6.191 -2.6697  1.7328 -0.0828
 7250SOL    HW233210   2.602   3.360   6.141 -1.4392 -1.4861 -0.4655
 7251SOL     OW33211   0.010   4.311   8.882 -0.3898 -0.6681  0.3345
 7251SOL    HW133212   0.044   4.233   8.925  1.2995 -1.4803 -2.4756
 7251SOL    HW233213   0.046   4.312   8.793  2.3397 -0.8378  1.4375
 7252SOL     OW33214   0.672   4.603  11.253  0.7317 -0.0559 -0.6644
 7252SOL    HW133215   0.631   4.667  11.195 -0.5878 -0.7561 -0.5031
 7252SOL    HW233216   0.729   4.557  11.191  0.2972 -1.1945 -0.2213
 7253SOL     OW33217   1.696   4.463   6.506  0.5742 -0.2302 -0.1944
 7253SOL    HW133218   1.613   4.415   6.504  0.2735  0.2137  1.8123
 7253SOL    HW233219   1.698   4.489   6.414  2.7736  1.0363  0.1995
 7254SOL     OW33220   3.506   1.394   0.810  0.2815  0.1348  0.6091
 7254SOL    HW133221   3.451   1.435   0.876 -2.3224 -0.4460 -1.2220
 7254SOL    HW233222   3.447   1.331   0.769  2.0896 -2.1955  1.5945
 7255SOL     OW33223   3.137   3.531   3.074 -0.1876 -0.1544  0.0624
 7255SOL    HW133224   3.108   3.445   3.104  0.3236  0.4972  2.3702
 7255SOL    HW233225   3.055   3.566   3.040 -0.4026 -1.4152 -0.7068
 7256SOL     OW33226   0.477   1.723   4.030 -0.4038  0.1778 -0.0253
 7256SOL    HW133227   0.422   1.685   4.098 -0.7950 -0.1068 -0.5005
 7256SOL    HW233228   0.466   1.666   3.954  1.3353 -0.8099  0.4760
 7257SOL     OW33229   2.963   3.264  15.155  0.1289 -0.0150  0.1812
 7257SOL    HW133230   2.930   3.280  15.243  0.1063  0.7688  0.0326
 7257SOL    HW233231   3.057   3.282  15.165 -0.0432  0.1568  1.4736
 7258SOL     OW33232   4.261   0.945   8.428 -0.0815 -0.2590 -0.0125
 7258SOL    HW133233   4.281   1.034   8.456  2.3220 -0.4250 -1.2329
 7258SOL    HW233234   4.255   0.907   8.516  1.5578 -0.6768 -0.0932
 7259SOL     OW33235   3.230   2.309   4.221  0.0563 -0.3770 -0.3116
 7259SOL    HW133236   3.146   2.292   4.265  0.3151 -1.0332 -0.0838
 7259SOL    HW233237   3.220   2.264   4.137 -0.3224 -0.7700 -0.0574
 7260SOL     OW33238   2.413   2.677   4.571  1.1590  0.3606  0.3433
 7260SOL    HW133239   2.434   2.716   4.486  0.5911  0.7697  0.3913
 7260SOL    HW233240   2.473   2.602   4.570 -0.4875 -0.9640 -1.1125
 7261SOL     OW33241   4.076   1.232   9.001 -0.1889  0.3929  0.3823
 7261SOL    HW133242   4.108   1.153   8.958  0.6260  0.7272  0.3805
 7261SOL    HW233243   4.157   1.276   9.026  1.4292 -2.5205  0.2016
 7262SOL     OW33244   3.596   0.936   5.456  0.2618  0.5071  0.5175
 7262SOL    HW133245   3.581   0.962   5.547  1.8887  1.0741  0.6261
 7262SOL    HW233246   3.542   1.005   5.419 -2.0099 -1.5249  0.1162
 7263SOL     OW33247   1.305   4.323   4.838 -0.2096  0.0318 -0.8812
 7263SOL    HW133248   1.366   4.381   4.793  0.3369  0.3789  0.2919
 7263SOL    HW233249   1.368   4.289   4.901  0.1821  1.1706 -0.6597
 7264SOL     OW33250   2.742   2.090   2.555  0.3526  0.2037  0.3216
 7264SOL    HW133251   2.835   2.068   2.565  0.1312 -0.4643  0.8430
 7264SOL    HW233252   2.710   2.011   2.597  0.6419 -0.3196 -0.4456
 7265SOL     OW33253   3.307   1.465   9.795  0.5394  0.4880 -0.7406
 7265SOL    HW133254   3.267   1.468   9.882  0.1301 -1.1628 -0.8617
 7265SOL    HW233255   3.245   1.422   9.736 -1.0075  3.1457 -1.0211
 7266SOL     OW33256   1.458   1.632   9.597 -0.2086  0.4702  0.0893
 7266SOL    HW133257   1.545   1.656   9.564 -0.5440 -0.6660 -1.5862
 7266SOL    HW233258   1.484   1.602   9.685 -2.3263 -0.7904  0.2903
 7267SOL     OW33259   2.933   3.181   2.911 -0.3921 -0.8594  0.1508
 7267SOL    HW133260   2.926   3.127   2.833 -0.6900 -0.2800 -0.2219
 7267SOL    HW233261   2.901   3.264   2.874 -1.8109 -1.6204 -0.3489
 7268SOL     OW33262   0.886   1.909   7.669  0.1200  0.0236 -0.0951
 7268SOL    HW133263   0.934   1.842   7.717 -1.7837 -0.7419  0.7021
 7268SOL    HW233264   0.797   1.900   7.702 -0.7037 -0.7821 -2.5627
 7269SOL     OW33265   3.420   3.765  16.538 -0.3486 -0.1082 -0.2955
 7269SOL    HW133266   3.387   3.852  16.515 -1.1259  0.2208  1.9679
 7269SOL    HW233267   3.462   3.789  16.621 -1.9403 -0.7754  0.6924
 7270SOL     OW33268   0.243   0.625  14.863  0.5577  0.5079 -0.1624
 7270SOL    HW133269   0.269   0.593  14.949  0.6674 -0.5621 -0.5936
 7270SOL    HW233270   0.290   0.561  14.809  0.7348 -0.1256  0.7465
 7271SOL     OW33271   1.451   3.219   2.470  0.2680 -0.2418  0.3287
 7271SOL    HW133272   1.505   3.231   2.392 -1.3517  0.8610 -0.6315
 7271SOL    HW233273   1.496   3.285   2.523 -0.0430 -0.4814  0.8841
 7272SOL     OW33274   0.216   0.385  16.167  0.1272  0.2339  0.1883
 7272SOL    HW133275   0.161   0.316  16.129  2.6050 -0.5781 -1.8939
 7272SOL    HW233276   0.245   0.336  16.245 -3.1659 -0.3964  1.0080
 7273SOL     OW33277   4.075   0.871  11.388 -0.3421 -0.2503  0.0305
 7273SOL    HW133278   4.052   0.879  11.480  1.8944 -0.8883  0.6441
 7273SOL    HW233279   4.121   0.789  11.373 -1.8029 -1.1308  0.4483
 7274SOL     OW33280   4.182   1.302   6.566 -0.2451 -0.1878 -0.3534
 7274SOL    HW133281   4.274   1.329   6.575 -0.4396  0.6506 -0.9461
 7274SOL    HW233282   4.160   1.254   6.646  2.4712 -0.5908  0.1538
 7275SOL     OW33283   1.393   2.292   0.798  0.0903  0.4439  0.4041
 7275SOL    HW133284   1.347   2.217   0.836 -0.9088  0.1399 -1.4214
 7275SOL    HW233285   1.462   2.251   0.746 -0.7538 -1.3919  0.7389
 7276SOL     OW33286   3.973   0.343   9.784 -0.1452  0.0380  0.1919
 7276SOL    HW133287   3.894   0.377   9.743  0.5227 -0.0320 -1.1381
 7276SOL    HW233288   4.031   0.343   9.709 -0.6395 -2.2570 -0.1834
 7277SOL     OW33289   4.477   0.547  11.818  0.3969 -0.1403 -0.4332
 7277SOL    HW133290   4.409   0.504  11.869 -0.6877  0.0464 -1.7280
 7277SOL    HW233291   4.428   0.561  11.737 -0.4470 -1.1931 -0.1004
 7278SOL     OW33292   1.834   0.448   8.467  0.1331  0.1663  0.3030
 7278SOL    HW133293   1.776   0.376   8.493  0.9035 -0.2513  0.8552
 7278SOL    HW233294   1.766   0.516   8.471 -1.7395 -1.8182  2.0594
 7279SOL     OW33295   2.168   3.366   5.111 -0.0251 -0.0358 -0.4996
 7279SOL    HW133296   2.245   3.331   5.156 -1.2134  0.4929  1.9751
 7279SOL    HW233297   2.198   3.456   5.109  1.8906 -0.6335  0.9844
 7280SOL     OW33298   1.009   1.240  10.228  1.1224 -0.0513 -0.2527
 7280SOL    HW133299   0.918   1.260  10.249  0.7006 -0.8052 -1.4022
 7280SOL    HW233300   1.018   1.170  10.292  0.4767  1.6378  1.6776
 7281SOL     OW33301   3.939   1.064   1.975 -0.7226  0.0678 -0.0048
 7281SOL    HW133302   3.962   1.041   2.065 -0.5474  1.8507  0.4160
 7281SOL    HW233303   3.866   1.003   1.969 -0.1740 -0.5732 -0.1294
 7282SOL     OW33304   2.508   1.164   3.131  0.0279  0.2082 -0.0046
 7282SOL    HW133305   2.461   1.117   3.200  1.1120 -1.9156 -0.6951
 7282SOL    HW233306   2.567   1.093   3.106  4.1251  3.0953  1.5320
 7283SOL     OW33307   2.758   0.148   7.030 -0.0930  0.4705  0.1345
 7283SOL    HW133308   2.789   0.226   6.985  0.4397  0.4154  0.4126
 7283SOL    HW233309   2.844   0.106   7.035  0.0882  0.9759  1.2669
 7284SOL     OW33310   1.782   4.521   1.103 -0.0661  0.3010  0.1844
 7284SOL    HW133311   1.754   4.430   1.116  0.4662  0.2273  0.8557
 7284SOL    HW233312   1.860   4.516   1.046  1.0645 -0.7125  1.8080
 7285SOL     OW33313   2.896   0.804  13.871 -0.1279  0.0249 -0.2895
 7285SOL    HW133314   2.873   0.730  13.927 -0.4993  1.9781  2.1257
 7285SOL    HW233315   2.817   0.822  13.820 -0.1943 -1.3697 -0.7007
 7286SOL     OW33316   4.482   3.564   6.908  0.2658 -0.3149  0.7160
 7286SOL    HW133317   4.402   3.513   6.920 -2.3284  2.7731 -3.6176
 7286SOL    HW233318   4.518   3.562   6.997  0.7920  1.2693  0.5483
 7287SOL     OW33319   2.819   0.051  12.537 -0.0761 -0.1307 -0.3819
 7287SOL    HW133320   2.764   0.123  12.568 -1.7400  0.0128 -3.7470
 7287SOL    HW233321   2.852   0.025  12.623  0.8262  1.0719 -0.3652
 7288SOL     OW33322   3.686   4.279   8.602  0.2092  0.6123  0.2568
 7288SOL    HW133323   3.608   4.328   8.576  0.5159  0.5718 -0.7602
 7288SOL    HW233324   3.654   4.243   8.684  3.7331 -1.3337  0.7859
 7289SOL     OW33325   4.015   0.351   8.003  0.6553 -0.3229 -0.5069
 7289SOL    HW133326   3.927   0.377   7.975  1.1646  2.1481  0.1401
 7289SOL    HW233327   4.009   0.389   8.090  1.0462 -0.5502 -0.3852
 7290SOL     OW33328   0.132   3.437   5.260  0.3070  0.6057 -0.7198
 7290SOL    HW133329   0.193   3.412   5.329 -0.1787 -0.6264 -0.7494
 7290SOL    HW233330   0.182   3.419   5.180  0.2770  0.0085 -0.6029
 7291SOL     OW33331   2.736   3.934  11.786 -0.1482  0.1001 -0.2917
 7291SOL    HW133332   2.817   3.891  11.760  0.5660  0.4675  1.3669
 7291SOL    HW233333   2.719   3.979  11.703 -0.2339  0.5822 -0.0131
 7292SOL     OW33334   2.241   1.905   3.291 -0.3449 -0.4217  0.6040
 7292SOL    HW133335   2.211   1.822   3.252 -1.8474  1.3333 -1.9962
 7292SOL    HW233336   2.334   1.907   3.270  0.1269  0.8260  2.9561
 7293SOL     OW33337   2.651   2.289  12.921 -0.3263  0.5393  0.0680
 7293SOL    HW133338   2.733   2.339  12.926 -0.4358  0.9517 -2.5698
 7293SOL    HW233339   2.660   2.233  12.844 -2.2219  0.6375 -0.2339
 7294SOL     OW33340   0.632   1.826   3.455  0.0065  0.2440  0.0871
 7294SOL    HW133341   0.547   1.782   3.451 -0.1541  0.5783 -0.1265
 7294SOL    HW233342   0.651   1.850   3.364 -0.9280  3.3417  0.7305
 7295SOL     OW33343   4.479   2.947   2.690 -0.4980 -0.0899  0.4230
 7295SOL    HW133344   4.460   2.972   2.599  0.7490 -1.6388 -0.2625
 7295SOL    HW233345   4.463   3.031   2.731 -0.3271 -1.2335  2.8071
 7296SOL     OW33346   4.200   0.477   8.398  0.4671 -0.8663  1.3202
 7296SOL    HW133347   4.219   0.450   8.308 -1.4107  1.1981  0.3345
 7296SOL    HW233348   4.109   0.502   8.389  1.5279  2.0970 -0.9943
 7297SOL     OW33349   4.337   1.516  12.576  0.1761  0.1734  0.2685
 7297SOL    HW133350   4.316   1.450  12.509 -4.0076 -0.4629  2.2517
 7297SOL    HW233351   4.264   1.521  12.636 -1.2659  1.2528 -1.5746
 7298SOL     OW33352   0.980   2.223   7.931  0.3399  0.0268 -0.2383
 7298SOL    HW133353   1.050   2.283   7.958  0.7171 -0.3108 -0.4494
 7298SOL    HW233354   1.014   2.136   7.950 -0.5629 -0.0725  0.8956
 7299SOL     OW33355   2.330   3.572   4.840  0.1681 -0.1382  0.1231
 7299SOL    HW133356   2.316   3.573   4.934  0.4841  1.6607  0.1562
 7299SOL    HW233357   2.356   3.480   4.836  0.2817 -0.0447 -1.2521
 7300SOL     OW33358   0.381   1.664   6.754 -0.4155  0.4544 -0.1009
 7300SOL    HW133359   0.428   1.708   6.684  0.1515  1.9136  1.2051
 7300SOL    HW233360   0.339   1.738   6.798  0.9677  0.4675  1.2118
 7301SOL     OW33361   3.709   0.016  16.347 -0.0505  0.7926 -0.1887
 7301SOL    HW133362   3.750   0.085  16.400 -0.7986 -1.3513  3.1305
 7301SOL    HW233363   3.716   0.049  16.257 -1.8552 -0.1513 -0.6752
 7302SOL     OW33364   0.986   4.198  13.652  0.3517 -0.5054 -0.6822
 7302SOL    HW133365   1.019   4.232  13.736 -1.1979  1.7243 -0.9774
 7302SOL    HW233366   1.052   4.132  13.630  1.0370  0.1504 -0.5919
 7303SOL     OW33367   0.106   1.410   8.724 -0.0226 -0.8396 -0.3170
 7303SOL    HW133368   0.158   1.330   8.720 -2.1376 -2.1893 -0.8264
 7303SOL    HW233369   0.022   1.374   8.753 -0.0513 -0.9526 -0.5390
 7304SOL     OW33370   3.110   0.037   5.900  0.1971  0.3156 -0.0870
 7304SOL    HW133371   3.186   0.012   5.953  0.7987  1.9545 -0.1929
 7304SOL    HW233372   3.121   0.132   5.901 -1.1516  0.4640  0.4157
 7305SOL     OW33373   1.626   2.743  15.671 -0.2656 -1.0408 -0.4488
 7305SOL    HW133374   1.655   2.833  15.688 -1.5071 -0.4400 -1.5294
 7305SOL    HW233375   1.560   2.765  15.605 -0.5463 -0.6963 -0.0600
 7306SOL     OW33376   2.804   1.939   4.514  0.0102 -0.0918  0.0912
 7306SOL    HW133377   2.893   1.911   4.496 -0.0293 -1.0415  1.3673
 7306SOL    HW233378   2.754   1.865   4.479  0.7099 -0.7187  0.4139
 7307SOL     OW33379   2.032   1.255   4.462  0.2903  0.0708 -0.3962
 7307SOL    HW133380   1.953   1.210   4.432  0.7087 -0.3134 -0.9276
 7307SOL    HW233381   1.996   1.343   4.471 -0.1957 -0.0256 -1.3765
 7308SOL     OW33382   0.786   3.421   4.148 -0.1190 -0.2425  0.3764
 7308SOL    HW133383   0.790   3.514   4.127 -0.4697 -0.4578 -0.6844
 7308SOL    HW233384   0.811   3.431   4.239 -2.9468  0.6397  1.0679
 7309SOL     OW33385   4.390   2.777   4.193 -0.3122  0.2606  0.3034
 7309SOL    HW133386   4.323   2.766   4.261 -1.2854  1.2405 -0.4876
 7309SOL    HW233387   4.430   2.863   4.203 -1.2697  0.9486 -1.6964
 7310SOL     OW33388   4.297   2.965   3.048  0.1466  0.0195  0.4188
 7310SOL    HW133389   4.206   2.939   3.032 -0.2675  1.4944  0.3956
 7310SOL    HW233390   4.316   2.911   3.125 -0.5600  2.6176  2.4334
 7311SOL     OW33391   0.840   0.974  16.177  0.4175  0.9424 -0.2892
 7311SOL    HW133392   0.758   0.974  16.127 -0.3302  3.7640  0.9659
 7311SOL    HW233393   0.805   0.979  16.266 -0.3150  1.3052 -0.5951
 7312SOL     OW33394   4.359   2.291  13.701 -0.5064  0.2844  0.4532
 7312SOL    HW133395   4.285   2.255  13.653  0.6677 -2.4415  0.6517
 7312SOL    HW233396   4.379   2.364  13.643 -0.2301 -0.0770  0.0930
 7313SOL     OW33397   1.305   3.379   5.272  0.4055  0.4662 -0.1639
 7313SOL    HW133398   1.343   3.459   5.309  0.2772 -1.2588  3.6836
 7313SOL    HW233399   1.212   3.397   5.284  1.0268  2.5545  1.5570
 7314SOL     OW33400   1.714   1.376   6.966 -0.4377 -0.0576 -0.1585
 7314SOL    HW133401   1.754   1.290   6.953 -0.4615  0.0281 -0.7862
 7314SOL    HW233402   1.691   1.394   6.875  2.0584  1.4018 -0.4782
 7315SOL     OW33403   4.112   3.426   1.934 -0.3617  0.3224  0.4758
 7315SOL    HW133404   4.123   3.333   1.954 -2.8258  0.1747  1.1209
 7315SOL    HW233405   4.062   3.456   2.009 -0.1693 -1.6723  1.3937
 7316SOL     OW33406   1.980   2.462   6.781 -0.1981 -0.6198 -0.2754
 7316SOL    HW133407   1.936   2.441   6.698 -0.9810 -1.3429  0.3132
 7316SOL    HW233408   1.993   2.556   6.775  1.1804 -0.9663 -2.9202
 7317SOL     OW33409   3.210   2.658   8.964  0.8832  0.6537 -0.6169
 7317SOL    HW133410   3.122   2.621   8.973  1.8584 -1.1058  1.5387
 7317SOL    HW233411   3.202   2.751   8.987 -0.5486  0.5380 -0.6418
 7318SOL     OW33412   4.279   1.500   0.662  0.4533 -0.1135 -0.0878
 7318SOL    HW133413   4.307   1.440   0.731 -0.1864  0.3725  0.5960
 7318SOL    HW233414   4.246   1.575   0.712 -0.7828 -0.1301 -0.8849
 7319SOL     OW33415   4.053   4.165  10.247  0.5150 -0.8508 -0.3008
 7319SOL    HW133416   3.960   4.163  10.272 -0.3368  0.5791 -3.4131
 7319SOL    HW233417   4.056   4.222  10.171 -1.5208 -0.1025  0.1844
 7320SOL     OW33418   1.272   4.217  17.362  0.0919 -0.1067 -0.1520
 7320SOL    HW133419   1.253   4.197  17.453 -0.7958 -2.5891 -0.8895
 7320SOL    HW233420   1.314   4.134  17.338  2.9034  2.0479 -2.7907
 7321SOL     OW33421   1.380   4.602   5.666 -0.1506 -0.5391  0.6846
 7321SOL    HW133422   1.459   4.569   5.623  1.0812  0.3403  2.2524
 7321SOL    HW233423   1.348   4.662   5.599  0.7829 -0.4760  0.2927
 7322SOL     OW33424   0.906   2.592   7.306  0.5608 -0.3468  0.6396
 7322SOL    HW133425   0.852   2.533   7.359 -1.2332  0.9137  0.2192
 7322SOL    HW233426   0.847   2.664   7.283  0.7914 -0.6016 -0.7855
 7323SOL     OW33427   1.725   2.712   5.984 -0.3925  0.3710 -0.3370
 7323SOL    HW133428   1.643   2.695   5.937  0.2032  2.5714 -2.1565
 7323SOL    HW233429   1.792   2.663   5.936  1.6231  0.7230  2.1473
 7324SOL     OW33430   0.784   3.307  11.867 -0.3575  0.5840  0.3046
 7324SOL    HW133431   0.878   3.290  11.872 -0.4283 -0.4927 -1.9460
 7324SOL    HW233432   0.763   3.278  11.777  0.3611  2.8062 -0.5673
 7325SOL     OW33433   1.151   2.337   2.089 -0.7062 -0.3055  0.2595
 7325SOL    HW133434   1.124   2.247   2.067  0.7599 -1.2119  2.1789
 7325SOL    HW233435   1.227   2.335   2.031 -0.3837 -0.5615  0.6879
 7326SOL     OW33436   2.290   3.227   3.875 -0.2795  0.0099 -0.0106
 7326SOL    HW133437   2.303   3.176   3.795 -2.2827  0.1755 -0.4452
 7326SOL    HW233438   2.268   3.156   3.936 -0.7682  0.3350  0.1857
 7327SOL     OW33439   1.828   2.558  14.004  0.0334  0.2951  0.2304
 7327SOL    HW133440   1.784   2.634  14.043 -0.6776  0.4119 -0.8098
 7327SOL    HW233441   1.763   2.488  14.018  0.0524  0.4497  1.1326
 7328SOL     OW33442   4.593   1.902   5.512 -0.3695 -0.1408  0.3757
 7328SOL    HW133443   4.625   1.874   5.598 -0.7533 -2.4198 -0.2359
 7328SOL    HW233444   4.614   1.821   5.467  1.0505  0.2265  0.3814
 7329SOL     OW33445   0.222   4.069  17.189 -0.4723 -0.0676  0.1491
 7329SOL    HW133446   0.189   4.090  17.102  0.9749  0.4340 -0.2709
 7329SOL    HW233447   0.261   3.982  17.185 -1.5652 -0.5766  0.4630
 7330SOL     OW33448   0.792   2.665   4.249 -0.1398 -0.3068 -1.2009
 7330SOL    HW133449   0.886   2.680   4.241  0.2236 -1.2182  1.3724
 7330SOL    HW233450   0.792   2.637   4.341 -1.0900  0.4539 -0.9743
 7331SOL     OW33451   0.514   3.424   5.819  0.7312  0.2341 -0.0477
 7331SOL    HW133452   0.474   3.375   5.891  3.2930 -2.0428 -0.1841
 7331SOL    HW233453   0.570   3.357   5.781 -1.3217 -1.6923  0.3176
 7332SOL     OW33454   1.854   3.738  12.010 -0.0923 -0.2081 -0.1571
 7332SOL    HW133455   1.862   3.674  12.081  1.0729  0.5899  0.4347
 7332SOL    HW233456   1.761   3.759  12.004 -0.1550 -0.0895  1.2673
 7333SOL     OW33457   3.779   2.027   6.588 -0.2271  0.2779 -0.2240
 7333SOL    HW133458   3.732   2.109   6.573 -1.9960 -0.2668  2.1805
 7333SOL    HW233459   3.711   1.979   6.636 -1.5313  0.4392 -1.9324
 7334SOL     OW33460   1.112   0.885   0.435 -0.3060 -0.5426 -0.0924
 7334SOL    HW133461   1.093   0.964   0.485  0.9791 -1.1971  1.4279
 7334SOL    HW233462   1.060   0.817   0.477  0.1969  0.1416  1.6682
 7335SOL     OW33463   2.842   4.458   8.095 -0.6814 -0.9496  0.0915
 7335SOL    HW133464   2.802   4.416   8.019 -0.3558  0.2920 -0.7679
 7335SOL    HW233465   2.765   4.505   8.127 -0.5817  0.0438 -1.1255
 7336SOL     OW33466   1.065   3.949  16.684 -0.3943 -0.3259  0.4685
 7336SOL    HW133467   1.047   4.025  16.741  1.5976 -0.2750  1.0241
 7336SOL    HW233468   0.975   3.929  16.661  0.4378 -2.2801 -0.9931
 7337SOL     OW33469   3.643   1.412  13.394 -0.0389  0.1415  0.4391
 7337SOL    HW133470   3.586   1.444  13.324  1.8331 -0.3370 -1.2790
 7337SOL    HW233471   3.665   1.495  13.436  0.3401  1.4356 -2.3293
 7338SOL     OW33472   4.210   0.810   7.706 -0.2608 -0.2387  0.1657
 7338SOL    HW133473   4.151   0.745   7.744  1.0423 -1.5517 -0.0743
 7338SOL    HW233474   4.290   0.774   7.745  0.3779  1.9381  0.8644
 7339SOL     OW33475   0.155   1.606   2.157 -0.2440 -0.2550  0.1568
 7339SOL    HW133476   0.136   1.563   2.241 -0.4049  1.3738  0.9562
 7339SOL    HW233477   0.092   1.678   2.159  0.6034  0.4469  1.8782
 7340SOL     OW33478   0.836   0.369   1.711 -0.4495  0.3354  0.2804
 7340SOL    HW133479   0.804   0.341   1.626  1.7522  0.9727 -0.7679
 7340SOL    HW233480   0.924   0.332   1.705 -1.0571 -1.3464  1.8114
 7341SOL     OW33481   0.080   1.975  16.221  0.2753  0.0436  0.2811
 7341SOL    HW133482   0.167   1.938  16.206  0.7157  0.3528  2.0302
 7341SOL    HW233483   0.029   1.896  16.201 -1.9653  1.0107  2.1501
 7342SOL     OW33484   4.147   1.891   4.421  0.4051  0.0281  0.2810
 7342SOL    HW133485   4.166   1.806   4.384 -1.0201  0.0923 -0.5903
 7342SOL    HW233486   4.219   1.949   4.396  2.7266 -3.3039 -0.6404
 7343SOL     OW33487   0.466   2.238   8.708 -0.0141  0.2376 -0.8718
 7343SOL    HW133488   0.520   2.200   8.640  0.3084 -0.2482 -0.3469
 7343SOL    HW233489   0.503   2.326   8.713  0.2533  0.0569  0.3275
 7344SOL     OW33490   4.530   0.597  11.088  0.4237 -0.2959 -0.1521
 7344SOL    HW133491   4.509   0.541  11.013  1.2533 -0.2958 -0.3871
 7344SOL    HW233492   4.522   0.687  11.058 -0.7425 -0.5080 -0.4703
 7345SOL     OW33493   3.535   1.671   8.819 -0.4349 -0.6948  0.1195
 7345SOL    HW133494   3.453   1.711   8.790  0.2819  0.0251 -0.8948
 7345SOL    HW233495   3.504   1.594   8.866  0.1975 -0.4967  0.8693
 7346SOL     OW33496   0.376   1.811   8.896  0.2424  0.1952 -0.7550
 7346SOL    HW133497   0.309   1.752   8.863  0.9240 -0.8884 -0.2193
 7346SOL    HW233498   0.387   1.864   8.817  1.1138  2.3240  0.7919
 7347SOL     OW33499   0.533   2.836   8.604 -0.3009 -0.3633  0.3721
 7347SOL    HW133500   0.438   2.835   8.589 -0.3247 -1.6974  0.5451
 7347SOL    HW233501   0.559   2.920   8.569  2.7301 -1.7207 -0.5933
 7348SOL     OW33502   3.482   4.172   6.781  0.9041  0.1310 -0.0947
 7348SOL    HW133503   3.427   4.237   6.737  0.0736  0.2636  1.1357
 7348SOL    HW233504   3.433   4.093   6.761 -0.1990  0.8023 -0.0436
 7349SOL     OW33505   2.074   3.127   2.470 -0.1099 -0.0110 -0.0715
 7349SOL    HW133506   1.979   3.140   2.473  0.0964  1.3652  0.5096
 7349SOL    HW233507   2.090   3.207   2.521 -1.1577  0.8125 -1.0554
 7350SOL     OW33508   3.508   4.451   2.729  0.1110  0.2070  1.2812
 7350SOL    HW133509   3.452   4.377   2.752 -0.9017  0.7084  0.4100
 7350SOL    HW233510   3.586   4.452   2.784  1.3545 -0.0766 -0.4878
 7351SOL     OW33511   4.625   0.026   2.036  0.3611 -0.0972  0.0601
 7351SOL    HW133512   4.710   0.043   1.996 -1.1114  2.5979 -1.8848
 7351SOL    HW233513   4.646   4.663   2.079 -0.5486 -0.3292  0.0501
 7352SOL     OW33514   0.737   1.223   5.293  0.1741  0.5223  0.0513
 7352SOL    HW133515   0.830   1.239   5.309  0.4841 -1.0221 -0.2433
 7352SOL    HW233516   0.693   1.305   5.319  0.0802  0.9962 -1.6200
 7353SOL     OW33517   2.157   1.101   8.678 -0.4954  0.0956 -0.5590
 7353SOL    HW133518   2.233   1.049   8.704  0.4759  1.6397 -0.2564
 7353SOL    HW233519   2.155   1.083   8.584  1.4654  0.4385 -0.6770
 7354SOL     OW33520   4.313   2.185  17.681 -0.3479 -0.3466  0.3600
 7354SOL    HW133521   4.353   2.225  17.603  2.0192  0.0393  1.7687
 7354SOL    HW233522   4.246   2.132  17.637 -1.0045  1.1159 -0.3956
 7355SOL     OW33523   1.833   2.758   2.415  0.1157 -0.5515 -0.6748
 7355SOL    HW133524   1.917   2.803   2.406 -1.4860  2.4249 -0.8845
 7355SOL    HW233525   1.825   2.726   2.505  1.6278 -0.1135 -0.3863
 7356SOL     OW33526   3.897   0.969  12.227 -0.9217 -0.4740  0.2594
 7356SOL    HW133527   3.816   0.993  12.181 -0.2483 -2.9878 -2.2041
 7356SOL    HW233528   3.858   0.944  12.311 -0.8839  0.8286  0.6761
 7357SOL     OW33529   0.213   2.510   4.153  0.2705  0.1365 -0.2460
 7357SOL    HW133530   0.209   2.601   4.183 -0.0885  0.6138 -1.7711
 7357SOL    HW233531   0.269   2.519   4.077 -0.3195 -0.9751 -0.8094
 7358SOL     OW33532   2.191   3.777   7.457  0.3695  0.2785  0.5089
 7358SOL    HW133533   2.136   3.732   7.393  0.3786 -0.7904  1.2526
 7358SOL    HW233534   2.145   3.763   7.539 -3.6030  3.2399 -1.1856
 7359SOL     OW33535   2.457   0.612   6.151 -0.3416 -0.0555 -0.4654
 7359SOL    HW133536   2.513   0.556   6.204 -1.0022 -3.6838 -3.6279
 7359SOL    HW233537   2.371   0.591   6.185  0.3618  1.2027  2.0828
 7360SOL     OW33538   2.080   4.235   3.326 -0.5656  0.5145  0.9912
 7360SOL    HW133539   2.155   4.285   3.357 -0.1201 -0.1000  0.9032
 7360SOL    HW233540   2.132   4.163   3.292 -3.4394 -1.1306  0.0432
 7361SOL     OW33541   2.786   2.862  15.545 -0.1841  0.2211 -0.6655
 7361SOL    HW133542   2.844   2.841  15.472 -0.7285 -3.8010  0.0458
 7361SOL    HW233543   2.736   2.782  15.559  1.0282 -0.3607  0.3006
 7362SOL     OW33544   0.783   1.555   0.310  0.0655 -0.1840  0.1673
 7362SOL    HW133545   0.712   1.491   0.310  0.2120 -0.3386  2.4406
 7362SOL    HW233546   0.784   1.580   0.217 -0.6983 -0.1920  0.1566
 7363SOL     OW33547   2.666   1.550   7.970 -0.0839  0.3043  0.5393
 7363SOL    HW133548   2.733   1.515   8.028 -2.0688 -1.8794  1.5097
 7363SOL    HW233549   2.702   1.532   7.883 -1.1595  0.3042  0.0862
 7364SOL     OW33550   2.798   3.227   8.116 -0.1745  0.5077 -0.2750
 7364SOL    HW133551   2.799   3.313   8.158  1.1345  0.2639  0.1747
 7364SOL    HW233552   2.793   3.251   8.023  1.0763  2.1352  0.0823
 7365SOL     OW33553   1.400   1.511   0.646  0.1285  0.8948  0.1505
 7365SOL    HW133554   1.369   1.498   0.736  2.1320  2.9691  1.1494
 7365SOL    HW233555   1.399   1.422   0.612 -0.8623  0.7493  0.5541
 7366SOL     OW33556   1.352   2.992   9.401 -0.5187 -0.0653  0.3697
 7366SOL    HW133557   1.266   2.958   9.422 -0.4773 -0.4819 -0.1289
 7366SOL    HW233558   1.415   2.953   9.462 -0.0916  0.5118  0.3027
 7367SOL     OW33559   4.302   4.279   7.616  0.0814  0.6185  0.0078
 7367SOL    HW133560   4.213   4.251   7.591  0.3884 -1.0637  0.7451
 7367SOL    HW233561   4.327   4.218   7.685  0.5972 -1.7013 -2.2125
 7368SOL     OW33562   1.616   0.528  10.000 -0.3163 -0.1618  0.1479
 7368SOL    HW133563   1.665   0.481   9.932 -0.6134  0.4615 -0.4978
 7368SOL    HW233564   1.576   0.593   9.943 -0.8218 -0.5362  0.0786
 7369SOL     OW33565   3.384   0.677   4.135 -0.0895  0.7440 -0.0855
 7369SOL    HW133566   3.460   0.632   4.174 -0.0339 -1.1927 -2.4316
 7369SOL    HW233567   3.416   0.705   4.049 -0.2590 -0.4891 -0.5382
 7370SOL     OW33568   1.390   1.800   0.894  0.0572 -0.1632 -0.0786
 7370SOL    HW133569   1.384   1.723   0.951  0.6679  1.3404  2.0122
 7370SOL    HW233570   1.339   1.863   0.946  0.3355 -1.8388  2.2701
 7371SOL     OW33571   4.050   3.876  16.127  0.1320 -0.3096  0.2535
 7371SOL    HW133572   4.141   3.848  16.121  0.2490 -0.0176  0.6981
 7371SOL    HW233573   4.028   3.830  16.208  1.9532 -2.2349 -0.3280
 7372SOL     OW33574   1.639   0.996  10.236 -0.1795  0.2736  0.3588
 7372SOL    HW133575   1.649   1.011  10.142 -1.1423 -1.5165 -0.0482
 7372SOL    HW233576   1.701   0.923  10.247  1.1801  1.1621 -1.4537
 7373SOL     OW33577   4.515   3.230   2.586 -0.1003 -0.5641 -0.1330
 7373SOL    HW133578   4.498   3.294   2.517 -2.4541  0.8257  1.7483
 7373SOL    HW233579   4.581   3.169   2.553  0.9237 -0.7516  2.2892
 7374SOL     OW33580   4.480   3.939   3.932  0.3955 -0.0836  0.1606
 7374SOL    HW133581   4.462   4.026   3.896  1.6646  0.9488  2.0899
 7374SOL    HW233582   4.571   3.927   3.907  0.8810  1.8823  0.9614
 7375SOL     OW33583   2.236   0.816   7.478  0.6998  0.1905 -0.1240
 7375SOL    HW133584   2.229   0.761   7.556  0.5054 -0.0341 -0.2983
 7375SOL    HW233585   2.299   0.885   7.498 -0.1860  1.2679 -1.1030
 7376SOL     OW33586   1.037   3.661   0.166 -0.1977  0.2692 -0.1170
 7376SOL    HW133587   0.962   3.690   0.115 -1.1835 -0.9495  0.6613
 7376SOL    HW233588   1.018   3.715   0.243 -0.6291 -0.1914  0.0979
 7377SOL     OW33589   0.149   0.136   5.273 -0.0648 -0.4843 -0.8086
 7377SOL    HW133590   0.077   0.189   5.307 -1.6057 -1.9613 -1.8101
 7377SOL    HW233591   0.155   0.168   5.183 -0.4275  1.1684 -0.2528
 7378SOL     OW33592   1.489   0.184   0.649 -0.2948  0.0030 -0.5494
 7378SOL    HW133593   1.520   0.221   0.731  1.5657  0.9044 -1.6520
 7378SOL    HW233594   1.504   0.259   0.591  0.4393  0.7274  0.5867
 7379SOL     OW33595   4.392   2.543   5.118  0.3332  0.0862 -0.0607
 7379SOL    HW133596   4.376   2.610   5.052 -0.8768 -0.7339 -0.5979
 7379SOL    HW233597   4.407   2.471   5.057 -1.7379  0.6267 -1.1813
 7380SOL     OW33598   2.346   3.692  15.363 -0.0494  0.2125  0.4361
 7380SOL    HW133599   2.360   3.606  15.323  0.8307  0.1697  0.8348
 7380SOL    HW233600   2.431   3.704  15.404 -0.5422  1.4705  1.0817
 7381SOL     OW33601   3.192   2.625  10.685  0.4318 -0.0007  0.1472
 7381SOL    HW133602   3.237   2.705  10.713  0.5950  0.3655 -1.1585
 7381SOL    HW233603   3.168   2.586  10.769  1.6219 -1.9814 -0.4158
 7382SOL     OW33604   0.177   3.406   3.148  0.2197  0.5223  0.5680
 7382SOL    HW133605   0.169   3.500   3.130 -0.1016  0.7753  2.0076
 7382SOL    HW233606   0.085   3.391   3.127  0.4682  1.2838 -1.0204
 7383SOL     OW33607   3.647   2.806   4.178 -0.6121 -0.1990 -0.2628
 7383SOL    HW133608   3.591   2.822   4.254 -2.5948 -2.7441 -1.2157
 7383SOL    HW233609   3.698   2.738   4.222 -0.5663  0.3897  0.5987
 7384SOL     OW33610   2.386   2.295   6.405  0.3679 -0.6931  0.0590
 7384SOL    HW133611   2.411   2.343   6.484  1.6367  0.7760 -1.2415
 7384SOL    HW233612   2.467   2.251   6.381 -0.1646 -0.8660 -1.4494
 7385SOL     OW33613   3.049   1.378  12.975  0.4494 -0.3170  0.0281
 7385SOL    HW133614   2.990   1.334  13.036  0.9511  1.1498  1.5565
 7385SOL    HW233615   3.008   1.345  12.895 -1.7481  1.5851  0.3783
 7386SOL     OW33616   2.161   4.019   0.747 -0.4289  0.3967 -0.2786
 7386SOL    HW133617   2.217   4.095   0.765 -1.7236  1.0089  1.1626
 7386SOL    HW233618   2.197   3.938   0.783  0.8079  0.4640 -1.3621
 7387SOL     OW33619   3.657   2.878  13.753 -0.3869  0.2319  0.4214
 7387SOL    HW133620   3.588   2.934  13.717 -0.0937  0.8040  0.7421
 7387SOL    HW233621   3.617   2.832  13.826 -0.6221 -0.5492 -0.2031
 7388SOL     OW33622   2.387   3.807   2.647  0.2426 -0.0468  0.4169
 7388SOL    HW133623   2.326   3.740   2.618 -0.1898  1.2636 -1.7686
 7388SOL    HW233624   2.389   3.789   2.740 -0.7595 -0.0337  0.4409
 7389SOL     OW33625   4.043   3.181   5.467 -0.3212 -0.1258 -0.4495
 7389SOL    HW133626   4.022   3.200   5.375  1.1782 -2.6148 -1.2935
 7389SOL    HW233627   4.087   3.263   5.491  2.7575 -1.9770  0.2571
 7390SOL     OW33628   2.710   2.428   4.911  0.6949  0.1148  0.2449
 7390SOL    HW133629   2.663   2.351   4.879  2.2383 -1.5581  1.9743
 7390SOL    HW233630   2.749   2.400   4.994  0.5812 -0.9544 -0.0549
 7391SOL     OW33631   2.666   2.001   7.009 -0.4011 -0.4805 -0.0989
 7391SOL    HW133632   2.581   2.025   7.046 -0.0373  0.1337  0.3298
 7391SOL    HW233633   2.688   1.931   7.070  1.5119  1.3849  1.3249
 7392SOL     OW33634   1.322   1.073   3.077 -0.1635  0.5080  0.3423
 7392SOL    HW133635   1.336   1.167   3.085  0.0562  0.4248  0.9860
 7392SOL    HW233636   1.366   1.049   2.996 -1.0899 -1.8412  0.5441
 7393SOL     OW33637   4.384   2.847   2.331 -0.7773  0.2982 -0.6234
 7393SOL    HW133638   4.477   2.870   2.339 -1.0436  1.4947 -0.9709
 7393SOL    HW233639   4.348   2.932   2.308 -2.0341 -0.2336 -0.5840
 7394SOL     OW33640   2.905   4.355   2.504 -0.0055  0.3099  0.1496
 7394SOL    HW133641   2.902   4.262   2.526  0.3444 -0.3467 -2.5395
 7394SOL    HW233642   2.842   4.386   2.569 -0.4153  0.0418 -0.1182
 7395SOL     OW33643   3.610   1.789   4.325  0.6286  0.5121  0.0862
 7395SOL    HW133644   3.529   1.832   4.298  0.5880  0.9387  0.8984
 7395SOL    HW233645   3.664   1.785   4.246 -0.2032 -2.7690 -0.3265
 7396SOL     OW33646   4.442   1.779   4.073 -0.0101 -0.3182 -0.2769
 7396SOL    HW133647   4.485   1.770   4.158  1.2465  0.4965 -0.8197
 7396SOL    HW233648   4.514   1.788   4.011 -1.6012  0.2284 -2.0633
 7397SOL     OW33649   2.615   0.668   4.495  0.5986  0.4217  0.2084
 7397SOL    HW133650   2.654   0.660   4.409 -1.4449  2.0581 -0.8886
 7397SOL    HW233651   2.637   0.581   4.528 -1.6516  0.0868  0.8935
 7398SOL     OW33652   1.575   3.760  11.078 -0.2326 -0.3506 -0.3862
 7398SOL    HW133653   1.670   3.777  11.079 -0.1539 -0.7794 -0.5923
 7398SOL    HW233654   1.567   3.729  10.987 -3.6927  2.2061 -0.9361
 7399SOL     OW33655   2.193   0.907   6.374 -0.6765  0.4855 -0.0091
 7399SOL    HW133656   2.125   0.945   6.319 -0.2378 -0.1126 -0.9506
 7399SOL    HW233657   2.246   0.878   6.300  0.7578  0.8287  0.8751
 7400SOL     OW33658   1.395   1.645  17.419  0.4581  0.3743  0.0254
 7400SOL    HW133659   1.315   1.603  17.387  0.5713  0.4801 -0.3944
 7400SOL    HW233660   1.413   1.597  17.500  0.3982 -1.5448 -1.0935
 7401SOL     OW33661   4.020   0.728   2.405 -0.4994 -0.1295  0.2466
 7401SOL    HW133662   4.105   0.748   2.365 -0.5201 -0.3764  0.0789
 7401SOL    HW233663   4.011   0.637   2.376  0.5784 -0.3377  0.5558
 7402SOL     OW33664   3.563   2.006   4.836  0.2055 -0.3833  0.3332
 7402SOL    HW133665   3.515   2.002   4.753  0.1342  0.0370  0.3521
 7402SOL    HW233666   3.496   1.980   4.898 -0.2358  0.0028  0.0206
 7403SOL     OW33667   1.364   2.299   7.803 -0.0525 -0.2309 -0.2948
 7403SOL    HW133668   1.277   2.324   7.770 -0.7268 -1.1560  0.7951
 7403SOL    HW233669   1.420   2.373   7.777 -0.9303  1.4393  2.5467
 7404SOL     OW33670   0.060   3.798   5.539 -0.0473 -0.4094  0.4386
 7404SOL    HW133671   0.083   3.873   5.594 -0.1303  0.6346 -0.9360
 7404SOL    HW233672   0.108   3.736   5.593  2.5966  2.0068  0.8649
 7405SOL     OW33673   0.419   0.179   1.178 -0.0973  0.1065  0.3700
 7405SOL    HW133674   0.427   0.103   1.235 -0.1057  1.5092  2.2192
 7405SOL    HW233675   0.324   0.186   1.187 -0.1994  1.2522 -1.7044
 7406SOL     OW33676   0.327   1.180   4.549 -0.0214 -0.1461 -0.3839
 7406SOL    HW133677   0.418   1.192   4.523  0.3105  1.2984  1.4313
 7406SOL    HW233678   0.297   1.178   4.458 -0.0786 -0.4365 -0.3586
 7407SOL     OW33679   3.339   3.493   5.686 -0.5742  0.2805  0.0708
 7407SOL    HW133680   3.253   3.461   5.658 -1.4963  2.8500 -0.0871
 7407SOL    HW233681   3.362   3.518   5.597  2.0025 -1.3851  0.2558
 7408SOL     OW33682   0.836   0.700   5.486 -0.0819  0.1057  0.2333
 7408SOL    HW133683   0.806   0.765   5.424  0.3305 -0.8096 -0.9212
 7408SOL    HW233684   0.925   0.735   5.493  0.2914 -0.8138  0.0612
 7409SOL     OW33685   2.292   2.580  10.654 -0.7000  0.3240 -0.3811
 7409SOL    HW133686   2.350   2.534  10.714 -1.5323  0.0679  0.2222
 7409SOL    HW233687   2.280   2.522  10.579 -1.7392 -2.0562  1.6150
 7410SOL     OW33688   4.659   0.521   6.302 -0.6257 -0.0205  0.5073
 7410SOL    HW133689   0.006   0.576   6.343  0.4709  0.2845 -1.6823
 7410SOL    HW233690   4.689   0.431   6.314  1.6079  0.3023 -2.5605
 7411SOL     OW33691   2.641   4.384   6.279  0.0568  0.2030  0.5765
 7411SOL    HW133692   2.698   4.458   6.257 -0.6843  0.5112 -0.3098
 7411SOL    HW233693   2.578   4.395   6.208  1.7253  0.0010 -0.9388
 7412SOL     OW33694   2.498   1.118   8.148 -0.4496 -0.4903  0.0313
 7412SOL    HW133695   2.439   1.073   8.209 -0.0394  1.0249  1.5170
 7412SOL    HW233696   2.576   1.062   8.149  0.4172  0.7875  3.4794
 7413SOL     OW33697   3.445   1.242   9.542  0.5694  0.0434  0.1325
 7413SOL    HW133698   3.513   1.192   9.496  1.7013  0.6753  1.1220
 7413SOL    HW233699   3.367   1.199   9.507  0.0159  0.2825  1.0796
 7414SOL     OW33700   1.964   1.984   0.680  0.1969  0.1328 -0.4740
 7414SOL    HW133701   1.968   1.935   0.762 -1.5908  2.4014  0.9676
 7414SOL    HW233702   2.023   1.942   0.618  1.5049  1.0797  0.1147
 7415SOL     OW33703   3.252   4.005   5.165  0.4115 -0.4201  0.0631
 7415SOL    HW133704   3.173   3.951   5.172  0.0093  0.5175  2.9556
 7415SOL    HW233705   3.256   4.016   5.070 -1.7240  0.8361  0.1111
 7416SOL     OW33706   1.235   2.382  12.177 -0.2409 -0.4983 -0.0082
 7416SOL    HW133707   1.278   2.404  12.095  0.4017 -1.0819  0.1761
 7416SOL    HW233708   1.252   2.288  12.175 -0.2224 -0.4409 -1.9046
 7417SOL     OW33709   2.955   2.039   4.923 -0.1122  0.1688  0.0309
 7417SOL    HW133710   2.933   2.093   4.999 -1.8190  1.5721 -1.4860
 7417SOL    HW233711   2.867   2.031   4.888 -0.8684  1.6760  1.6421
 7418SOL     OW33712   0.242   2.300   4.300 -0.1811 -0.4122 -0.1944
 7418SOL    HW133713   0.161   2.331   4.341 -0.0357 -0.0381 -0.1842
 7418SOL    HW233714   0.255   2.370   4.235 -0.0777  0.0172  0.2858
 7419SOL     OW33715   4.435   0.330  10.043  0.0043 -0.1073  0.4565
 7419SOL    HW133716   4.366   0.385  10.005 -0.7413 -1.6614 -0.4338
 7419SOL    HW233717   4.442   0.263   9.976 -1.2933 -0.8807  1.0885
 7420SOL     OW33718   3.471   3.451   6.087 -0.0071  0.8069  0.1635
 7420SOL    HW133719   3.458   3.404   6.005 -2.4092  3.2461 -0.8646
 7420SOL    HW233720   3.521   3.383   6.131 -1.7363 -0.2339  0.5005
 7421SOL     OW33721   1.457   3.298   8.955 -0.5520 -0.7104 -0.2456
 7421SOL    HW133722   1.388   3.336   9.009 -0.4779 -2.1962  0.9159
 7421SOL    HW233723   1.451   3.209   8.989  4.0879 -0.5382  1.1282
 7422SOL     OW33724   3.621   0.211   0.368  0.2109  0.4990 -0.4352
 7422SOL    HW133725   3.544   0.180   0.415  0.7788  1.3424  1.0266
 7422SOL    HW233726   3.687   0.160   0.415 -1.1295  0.4124  1.3672
 7423SOL     OW33727   1.850   0.459   1.931  0.3527  0.2414 -0.9028
 7423SOL    HW133728   1.924   0.492   1.881 -1.5397  0.4113 -3.5961
 7423SOL    HW233729   1.820   0.382   1.881 -0.6740 -0.7895  1.2779
 7424SOL     OW33730   1.745   2.152   8.855 -0.4023  0.1444  0.1220
 7424SOL    HW133731   1.661   2.172   8.814 -0.7491 -1.8894 -0.1510
 7424SOL    HW233732   1.754   2.057   8.849  2.4500  0.5193 -1.4783
 7425SOL     OW33733   0.758   2.479  14.115  0.2805 -0.0823 -0.5042
 7425SOL    HW133734   0.707   2.553  14.147 -0.8751 -2.0472  2.2257
 7425SOL    HW233735   0.728   2.415  14.180  0.4148  0.8541  0.4755
 7426SOL     OW33736   0.603   3.379   5.133 -0.6388 -0.2839 -0.2834
 7426SOL    HW133737   0.541   3.348   5.067 -0.9238 -1.8438  0.7182
 7426SOL    HW233738   0.576   3.471   5.129 -1.5484 -0.5260  0.4326
 7427SOL     OW33739   0.046   1.144   3.316 -0.2785  0.2760 -0.0936
 7427SOL    HW133740   0.023   1.051   3.317 -0.2861  0.3169  3.9225
 7427SOL    HW233741   0.029   1.162   3.409 -1.3792 -0.4542 -0.1465
 7428SOL     OW33742   1.996   4.418   0.947 -0.0547 -0.1973  0.1757
 7428SOL    HW133743   1.980   4.327   0.923 -0.2879  0.5563 -2.4669
 7428SOL    HW233744   2.004   4.455   0.859  0.6322  0.1214  0.3660
 7429SOL     OW33745   0.899   4.650   4.115 -0.1088  0.2599  0.1742
 7429SOL    HW133746   0.974   4.632   4.059  1.0375  2.5577  0.9803
 7429SOL    HW233747   0.911   4.582   4.182  1.8279 -0.7891 -1.2767
 7430SOL     OW33748   1.216   0.661   0.252 -0.8718 -0.0296 -0.2433
 7430SOL    HW133749   1.196   0.570   0.270  2.6799 -0.9853 -1.1523
 7430SOL    HW233750   1.174   0.705   0.326  2.9322 -2.1872  3.1776
 7431SOL     OW33751   2.678   4.462   5.889 -0.0576  0.4602  0.1296
 7431SOL    HW133752   2.772   4.464   5.906 -0.2004  3.5294  0.6314
 7431SOL    HW233753   2.655   4.555   5.897  0.7926  1.0973 -4.8478
 7432SOL     OW33754   1.195   4.052   1.192  0.1258  0.2716  0.2213
 7432SOL    HW133755   1.174   3.982   1.131 -0.3409  0.6837 -0.0938
 7432SOL    HW233756   1.204   4.132   1.140  1.9147  0.9493  1.5875
 7433SOL     OW33757   0.843   3.146   7.779 -0.1598  0.0280 -0.1677
 7433SOL    HW133758   0.858   3.110   7.867 -0.0473 -0.0954 -0.2373
 7433SOL    HW233759   0.751   3.173   7.774 -0.5329 -1.1676  0.1194
 7434SOL     OW33760   0.970   4.550   0.141  0.0441  0.3339  0.1017
 7434SOL    HW133761   1.009   4.544   0.053  0.3270 -1.2831  0.3305
 7434SOL    HW233762   1.042   4.513   0.192 -0.9394 -1.0807  0.4564
 7435SOL     OW33763   0.705   1.137   0.396 -0.3130 -0.2386 -0.0763
 7435SOL    HW133764   0.795   1.113   0.417  0.3549  0.4926 -2.1297
 7435SOL    HW233765   0.702   1.216   0.450 -1.4749  0.1512 -0.7081
 7436SOL     OW33766   1.654   4.542   6.238  0.0901 -0.0943 -0.1589
 7436SOL    HW133767   1.641   4.585   6.153 -2.6453 -4.2873 -1.8929
 7436SOL    HW233768   1.584   4.582   6.289 -0.2717  0.3654 -1.0161
 7437SOL     OW33769   2.471   2.751  17.295 -0.1006 -0.1114  0.8515
 7437SOL    HW133770   2.495   2.676  17.350  1.5489 -0.2894 -0.1217
 7437SOL    HW233771   2.520   2.726  17.216  0.1345 -0.1428  1.0072
 7438SOL     OW33772   1.000   3.911   6.928 -0.1592  0.6260 -0.3933
 7438SOL    HW133773   1.013   3.899   7.022  0.1682  3.1349 -0.1040
 7438SOL    HW233774   1.021   3.823   6.897  1.3723  0.8737 -0.0686
 7439SOL     OW33775   3.175   2.356  10.586 -0.0558 -0.5887  0.6614
 7439SOL    HW133776   3.208   2.442  10.613 -1.0976  0.0371 -0.1132
 7439SOL    HW233777   3.094   2.344  10.636  0.2310  1.0123  1.5361
 7440SOL     OW33778   2.234   0.287   0.221 -0.0807  0.4567  0.2920
 7440SOL    HW133779   2.249   0.316   0.311 -0.8363 -1.1264  0.9360
 7440SOL    HW233780   2.201   0.198   0.230  1.4358 -0.1903 -0.5313
 7441SOL     OW33781   2.442   4.327   1.714  0.1048  0.3876 -0.4612
 7441SOL    HW133782   2.493   4.296   1.640 -1.5406 -1.1617 -0.9403
 7441SOL    HW233783   2.356   4.300   1.682  0.4635 -1.4699  0.1384
 7442SOL     OW33784   3.395   2.157  13.666 -0.0242  0.1019 -0.7868
 7442SOL    HW133785   3.347   2.176  13.585 -1.4473 -0.0333  0.0280
 7442SOL    HW233786   3.421   2.242  13.701 -1.1228 -0.1623  0.6474
 7443SOL     OW33787   2.641   4.070   7.458  0.6883 -0.1848  0.0391
 7443SOL    HW133788   2.602   3.999   7.408  0.8800 -0.1405 -0.1771
 7443SOL    HW233789   2.647   4.139   7.391 -2.7871 -0.6639 -0.7526
 7444SOL     OW33790   2.380   3.325   1.810 -0.4229 -0.4617 -0.3063
 7444SOL    HW133791   2.310   3.350   1.749 -2.3444  1.9913  2.8870
 7444SOL    HW233792   2.440   3.287   1.747 -1.3777  1.6011 -2.4691
 7445SOL     OW33793   1.353   3.270  10.251 -0.4251 -0.5754 -0.3281
 7445SOL    HW133794   1.340   3.308  10.164 -0.0131  0.7405  0.1739
 7445SOL    HW233795   1.445   3.244  10.240  0.4504  1.5175  2.1251
 7446SOL     OW33796   0.178   4.049   6.572 -0.2222 -0.2129  0.1632
 7446SOL    HW133797   0.130   4.117   6.524 -0.5952 -0.4504  0.1932
 7446SOL    HW233798   0.248   4.100   6.612 -0.6450 -1.4539  2.4982
 7447SOL     OW33799   2.808   0.536   5.000  0.5108  0.0303 -0.6487
 7447SOL    HW133800   2.744   0.544   5.071  0.2506  0.7200 -0.9657
 7447SOL    HW233801   2.767   0.470   4.943  1.5456 -0.7811 -0.4574
 7448SOL     OW33802   4.038   0.141  10.049 -0.1319 -0.0729  0.0258
 7448SOL    HW133803   4.035   0.185   9.963  1.2897  1.1033  0.5833
 7448SOL    HW233804   4.032   0.223  10.098 -0.5751 -1.0747  1.6229
 7449SOL     OW33805   3.826   4.385   6.578  0.1418 -0.7136 -0.0504
 7449SOL    HW133806   3.853   4.387   6.670  2.1914 -0.9631 -0.6589
 7449SOL    HW233807   3.910   4.399   6.534  0.0492 -0.4228 -0.1378
 7450SOL     OW33808   4.620   1.717   6.489  0.3249 -0.4932 -0.2080
 7450SOL    HW133809   4.624   1.626   6.460  2.6335  0.0522 -1.6416
 7450SOL    HW233810   4.663   1.759   6.414  0.1617  0.5039  0.2653
 7451SOL     OW33811   2.383   1.598   8.255 -0.4819 -0.2770 -0.3717
 7451SOL    HW133812   2.442   1.668   8.227  0.1547 -0.5774  0.2390
 7451SOL    HW233813   2.422   1.519   8.216  1.7891  0.9367 -0.5164
 7452SOL     OW33814   1.252   1.287   0.335 -0.0608  0.1552 -0.0996
 7452SOL    HW133815   1.225   1.239   0.257 -3.0705  0.9648  0.4479
 7452SOL    HW233816   1.304   1.358   0.299 -0.4505  1.7420  2.4468
 7453SOL     OW33817   2.939   3.389   7.927 -0.4518 -0.2701  0.2266
 7453SOL    HW133818   2.883   3.467   7.922 -1.5201 -0.8631  2.9827
 7453SOL    HW233819   3.014   3.415   7.873 -0.9037 -0.1930 -0.3648
 7454SOL     OW33820   2.391   2.420  16.314 -0.0597 -0.1890 -0.5695
 7454SOL    HW133821   2.463   2.445  16.373 -1.0812 -2.0045  1.4134
 7454SOL    HW233822   2.427   2.339  16.280  0.1861 -0.2677 -0.1305
 7455SOL     OW33823   4.403   4.496   9.200 -0.1444 -0.1452  0.1734
 7455SOL    HW133824   4.420   4.432   9.270 -1.5376 -1.5312 -0.7445
 7455SOL    HW233825   4.428   4.448   9.121 -0.5212  2.2364 -1.3929
 7456SOL     OW33826   3.159   3.420   5.049  0.7541  0.2364  0.5874
 7456SOL    HW133827   3.142   3.332   5.017 -0.6383  0.1179  1.6487
 7456SOL    HW233828   3.076   3.433   5.095  1.2784  0.3851  1.5049
 7457SOL     OW33829   1.052   1.098   1.589  0.1400 -0.3574  0.3689
 7457SOL    HW133830   1.017   1.115   1.677  1.1618 -0.4098  0.7758
 7457SOL    HW233831   0.972   1.066   1.547  1.0440 -1.2543 -0.6359
 7458SOL     OW33832   1.081   1.927   3.073 -1.2510  0.4504 -0.1505
 7458SOL    HW133833   1.161   1.959   3.113  0.2093 -4.4950  0.8589
 7458SOL    HW233834   1.076   1.836   3.103  0.7639  0.7941  1.1744
 7459SOL     OW33835   1.233   0.885  12.010 -0.1288  0.5420  0.2098
 7459SOL    HW133836   1.287   0.880  11.932  0.2775 -1.4745  0.6088
 7459SOL    HW233837   1.306   0.896  12.071  2.2968 -2.7242 -2.1582
 7460SOL     OW33838   4.584   3.011  11.999 -0.0210  0.4901 -0.2560
 7460SOL    HW133839   4.657   2.964  11.960  0.7339 -0.3346  2.1715
 7460SOL    HW233840   4.511   2.950  11.983 -0.2214  0.5783  0.3072
 7461SOL     OW33841   2.894   1.412   8.461 -0.3973 -0.5248  0.1843
 7461SOL    HW133842   2.859   1.327   8.486 -2.1440  0.3030  0.5842
 7461SOL    HW233843   2.884   1.412   8.366 -2.0857  1.3370  0.3542
 7462SOL     OW33844   0.790   2.074  15.235  0.4077 -0.4318 -0.7659
 7462SOL    HW133845   0.712   2.108  15.192 -0.3893  0.5144  1.4057
 7462SOL    HW233846   0.852   2.078  15.162  1.9979  1.6724  0.6867
 7463SOL     OW33847   2.408   1.390   3.848  0.5030 -0.4080 -0.2964
 7463SOL    HW133848   2.416   1.452   3.920 -0.3226 -1.6446  0.8466
 7463SOL    HW233849   2.313   1.380   3.839  0.0302  2.2727  1.8036
 7464SOL     OW33850   3.995   3.481   5.940 -0.4790  0.1329  0.1793
 7464SOL    HW133851   3.961   3.475   6.030  0.5580  2.1840  0.7045
 7464SOL    HW233852   3.921   3.485   5.879 -1.8998 -2.5635  1.6697
 7465SOL     OW33853   2.829   0.904  16.542  0.3523 -0.1314 -0.3482
 7465SOL    HW133854   2.758   0.886  16.480  0.7285  1.7431 -1.3252
 7465SOL    HW233855   2.889   0.831  16.529 -0.2081 -0.8967  1.3764
 7466SOL     OW33856   1.191   4.542   4.971  0.1034 -0.3511 -0.2509
 7466SOL    HW133857   1.107   4.576   4.939  0.5580 -0.6665 -1.7892
 7466SOL    HW233858   1.199   4.453   4.936 -0.8206 -0.7826  0.6596
 7467SOL     OW33859   2.716   3.979   5.556 -0.5596  0.0288  0.2562
 7467SOL    HW133860   2.635   4.007   5.598 -0.9462  1.8900 -1.7174
 7467SOL    HW233861   2.749   3.906   5.608  0.8599  0.0373 -0.6244
 7468SOL     OW33862   2.716   3.798   6.832 -0.2367  0.0019  0.3392
 7468SOL    HW133863   2.629   3.840   6.826 -0.0775  0.6429  2.5395
 7468SOL    HW233864   2.698   3.747   6.911 -0.4306  0.0188  0.3071
 7469SOL     OW33865   1.496   2.988   2.866 -0.3131 -0.1202  0.0458
 7469SOL    HW133866   1.436   2.919   2.838  1.0107 -0.2156 -2.5826
 7469SOL    HW233867   1.552   2.981   2.788 -1.4027  0.8048 -0.8109
 7470SOL     OW33868   3.274   0.306   5.365  0.1674 -0.2536  0.4774
 7470SOL    HW133869   3.349   0.274   5.415  0.0688  1.7670  1.9237
 7470SOL    HW233870   3.274   0.242   5.294  0.4240  0.4899 -0.1920
 7471SOL     OW33871   3.454   3.437  11.147 -0.2469  1.2230  0.2489
 7471SOL    HW133872   3.545   3.437  11.117 -0.6795 -0.1315 -1.1254
 7471SOL    HW233873   3.411   3.461  11.065  0.1131  0.9446 -0.0265
 7472SOL     OW33874   0.603   3.337   7.369  0.2308  0.3770 -0.2262
 7472SOL    HW133875   0.594   3.404   7.301 -1.1232 -0.3719 -0.7787
 7472SOL    HW233876   0.597   3.389   7.449  0.1258  1.4085 -0.9035
 7473SOL     OW33877   3.368   2.395   6.537  0.1572  0.7102  0.7520
 7473SOL    HW133878   3.455   2.358   6.555  0.0002 -1.0919 -2.1673
 7473SOL    HW233879   3.378   2.465   6.473  1.7684 -0.3943 -0.2071
 7474SOL     OW33880   4.348   1.837   5.615 -0.5581  0.0873 -0.0215
 7474SOL    HW133881   4.433   1.829   5.573 -0.9550 -1.4874 -0.5181
 7474SOL    HW233882   4.331   1.743   5.609 -1.0777  0.2985 -1.8137
 7475SOL     OW33883   3.373   2.455   1.012 -0.0853  0.5874  0.0950
 7475SOL    HW133884   3.422   2.374   1.000 -0.7900  0.2995 -0.8260
 7475SOL    HW233885   3.328   2.470   0.929  1.5321  1.5634 -0.6010
 7476SOL     OW33886   0.207   0.159   3.938  0.7442  0.4440  0.2589
 7476SOL    HW133887   0.282   0.103   3.920 -1.8138 -2.7914 -0.3068
 7476SOL    HW233888   0.172   0.155   3.849 -3.0459  1.3826  1.7178
 7477SOL     OW33889   2.628   0.017  17.176 -0.2274 -0.6060 -0.1427
 7477SOL    HW133890   2.538   4.705  17.167 -0.4746  0.4482 -1.4574
 7477SOL    HW233891   2.621   0.105  17.139 -1.7241 -0.5171  0.3328
 7478SOL     OW33892   4.572   0.461  14.469 -0.2895  0.0918  0.1833
 7478SOL    HW133893   4.507   0.390  14.472  1.0583 -1.0256  2.7389
 7478SOL    HW233894   4.629   0.417  14.532 -2.0933 -0.4827  1.4117
 7479SOL     OW33895   3.883   0.466  11.541  0.9297 -0.9002  0.1446
 7479SOL    HW133896   3.954   0.407  11.515  2.2973  0.9405 -0.2846
 7479SOL    HW233897   3.858   0.491  11.452 -0.4843 -2.8418 -0.0025
 7480SOL     OW33898   1.798   1.759   5.679  0.3667 -0.2916 -0.2339
 7480SOL    HW133899   1.854   1.729   5.750  0.4362 -2.0512 -1.0371
 7480SOL    HW233900   1.803   1.854   5.692 -0.1798 -0.1462 -1.0296
 7481SOL     OW33901   0.054   3.735   9.165  0.1621  0.0842  0.4129
 7481SOL    HW133902   4.700   3.777   9.122 -1.0105 -2.6795 -0.2746
 7481SOL    HW233903   0.043   3.746   9.259  4.9236 -1.8674  1.1974
 7482SOL     OW33904   2.715   2.775   5.450  0.5551 -0.4666 -0.3055
 7482SOL    HW133905   2.772   2.804   5.378  0.3155 -0.4746 -0.4976
 7482SOL    HW233906   2.630   2.784   5.408  0.9434  0.2255 -0.9519
 7483SOL     OW33907   2.329   0.548  12.578 -0.0648 -0.2128 -0.0051
 7483SOL    HW133908   2.316   0.456  12.603  1.1741  0.2895  2.5312
 7483SOL    HW233909   2.240   0.581  12.592  0.4134  0.9461  0.2849
 7484SOL     OW33910   1.359   0.247   3.582 -0.0693 -0.3248  0.1305
 7484SOL    HW133911   1.313   0.324   3.549 -1.4160 -0.3528  1.9760
 7484SOL    HW233912   1.427   0.232   3.516 -0.4966 -0.0553 -0.3734
 7485SOL     OW33913   4.378   1.856  14.655 -0.0044 -0.1239 -0.4431
 7485SOL    HW133914   4.413   1.798  14.723  1.9673  0.2630 -1.1011
 7485SOL    HW233915   4.439   1.927  14.677  0.0750  0.3414 -2.1449
 7486SOL     OW33916   0.635   1.884   5.566 -0.2550  0.1416  0.1085
 7486SOL    HW133917   0.707   1.943   5.542  0.5965 -0.4862  1.1151
 7486SOL    HW233918   0.580   1.945   5.614 -2.2398 -2.1044  0.6539
 7487SOL     OW33919   0.456   1.334   8.505  0.0651  0.2115  0.6182
 7487SOL    HW133920   0.412   1.295   8.430  2.3506 -2.0127  0.4288
 7487SOL    HW233921   0.482   1.260   8.560  1.0827  2.6307  3.4396
 7488SOL     OW33922   0.669   1.959   2.364 -0.1005  0.0397 -0.2875
 7488SOL    HW133923   0.605   1.900   2.324 -0.6244  0.5784 -0.2548
 7488SOL    HW233924   0.741   1.982   2.305 -0.5320 -1.5161 -1.4097
 7489SOL     OW33925   3.443   2.773   5.252  0.2409  0.4076  0.0472
 7489SOL    HW133926   3.380   2.806   5.317 -0.1175 -1.2412  0.5374
 7489SOL    HW233927   3.423   2.838   5.185 -1.4871 -0.6285 -0.4713
 7490SOL     OW33928   2.979   2.721   6.045  0.3309 -0.0848  0.0242
 7490SOL    HW133929   3.019   2.789   5.990  2.1676 -0.7637  0.5407
 7490SOL    HW233930   3.033   2.716   6.124 -0.6881 -0.3538  0.7021
 7491SOL     OW33931   3.711   3.444   3.733  0.4503  0.3093  0.1679
 7491SOL    HW133932   3.651   3.403   3.670  0.0731  0.2049  0.5933
 7491SOL    HW233933   3.718   3.378   3.802  1.9653 -0.0509 -0.3346
 7492SOL     OW33934   4.285   1.916   1.715 -0.7921  0.3517  0.3382
 7492SOL    HW133935   4.280   1.823   1.737  2.8968 -0.4178 -2.0161
 7492SOL    HW233936   4.332   1.940   1.795 -2.9840  1.9963  1.1142
 7493SOL     OW33937   4.571   0.641   1.940 -0.2157 -0.1192  0.1163
 7493SOL    HW133938   4.502   0.693   1.898  1.3104  2.3001  0.5863
 7493SOL    HW233939   4.619   0.716   1.975 -1.0268 -0.0023  0.9753
 7494SOL     OW33940   3.065   1.466   8.651  0.4584  0.6665 -0.4561
 7494SOL    HW133941   3.140   1.482   8.592 -0.5672 -0.0137 -1.9332
 7494SOL    HW233942   2.997   1.447   8.587 -1.6507 -1.1666  2.3412
 7495SOL     OW33943   1.675   3.623   1.614  0.8101 -0.6353 -0.7104
 7495SOL    HW133944   1.592   3.671   1.603 -0.0977 -1.8557  0.7733
 7495SOL    HW233945   1.644   3.549   1.665  1.9409  0.9467  2.2829
 7496SOL     OW33946   3.946   4.429   7.409  1.0385  0.1703 -0.1164
 7496SOL    HW133947   3.875   4.413   7.346  0.0750  1.9376  0.5204
 7496SOL    HW233948   4.021   4.377   7.380  0.7346 -0.7494  0.7185
 7497SOL     OW33949   2.307   2.039  11.007 -0.2102  0.4322 -0.4241
 7497SOL    HW133950   2.354   2.090  10.941  0.2185 -1.8397 -1.8781
 7497SOL    HW233951   2.276   1.960  10.963 -1.8184  0.1405  1.2352
 7498SOL     OW33952   1.518   4.074   6.286  0.3963 -0.1676  0.4441
 7498SOL    HW133953   1.593   4.020   6.312 -0.4183 -1.2106  0.6329
 7498SOL    HW233954   1.545   4.119   6.206  1.2789 -2.6289 -0.6558
 7499SOL     OW33955   0.673   4.088   0.048 -0.3329  0.0236  0.5480
 7499SOL    HW133956   0.610   4.034   0.001  2.2788 -1.7570 -0.8760
 7499SOL    HW233957   0.635   4.079   0.135 -1.3106 -0.6769  0.0474
 7500SOL     OW33958   0.125   0.266   1.096  0.1725  0.4558  0.2330
 7500SOL    HW133959   0.072   0.345   1.085  0.3447  0.5861  0.3329
 7500SOL    HW233960   0.070   0.198   1.134  0.1986  0.4675  0.2928
 7501SOL     OW33961   0.747   3.168   4.287  0.5335 -0.2857  0.3167
 7501SOL    HW133962   0.727   3.261   4.292 -1.3228 -0.6944  0.4870
 7501SOL    HW233963   0.715   3.144   4.200 -1.0504 -1.0440  1.1087
 7502SOL     OW33964   1.601   4.077   9.221 -0.4387  0.5162 -0.0944
 7502SOL    HW133965   1.566   4.163   9.244 -1.9153  0.3802 -1.8461
 7502SOL    HW233966   1.676   4.072   9.280  0.1050  0.5148 -0.7902
 7503SOL     OW33967   4.718   2.958  10.009  0.2384  0.1667 -0.0321
 7503SOL    HW133968   0.070   3.019  10.021  1.0842 -0.6074 -1.1426
 7503SOL    HW233969   4.720   2.955   9.913 -0.1741  1.1497 -0.0645
 7504SOL     OW33970   4.114   4.052  10.617 -0.2753  0.2683 -0.1944
 7504SOL    HW133971   4.113   3.958  10.632  0.2445  0.3383  0.2564
 7504SOL    HW233972   4.055   4.082  10.686  1.0168 -1.3376  1.6104
 7505SOL     OW33973   0.846   4.374   2.718  0.0703 -0.0114  0.4052
 7505SOL    HW133974   0.788   4.418   2.781 -0.8624  1.9960 -1.8814
 7505SOL    HW233975   0.928   4.422   2.735  1.5353 -1.5127 -2.5598
 7506SOL     OW33976   3.030   1.965  13.014 -0.2031  0.2439  0.0118
 7506SOL    HW133977   2.980   1.970  12.933  0.4916 -3.1718 -0.6308
 7506SOL    HW233978   2.962   1.930  13.071  0.0081  1.1269  0.8068
 7507SOL     OW33979   1.411   4.030   5.535 -0.3131  0.1101 -0.3151
 7507SOL    HW133980   1.320   4.050   5.512 -0.3193  0.1039 -0.2958
 7507SOL    HW233981   1.408   4.013   5.629  0.3511 -1.2860 -0.5439
 7508SOL     OW33982   1.370   4.596   4.236 -0.2513 -0.4741 -0.2009
 7508SOL    HW133983   1.275   4.584   4.230 -0.3483  0.8451 -1.3029
 7508SOL    HW233984   1.385   4.596   4.330 -0.6504  2.1073 -0.1596
 7509SOL     OW33985   1.463   3.475   2.208  0.2119 -0.0593 -0.5448
 7509SOL    HW133986   1.430   3.507   2.292  0.8216 -2.6623  0.6858
 7509SOL    HW233987   1.399   3.512   2.148 -1.4106 -3.2204 -0.7755
 7510SOL     OW33988   0.139   3.793  11.032  0.0102  0.5040  0.3186
 7510SOL    HW133989   0.186   3.710  11.032 -1.1423 -0.1522 -1.1689
 7510SOL    HW233990   0.194   3.850  10.979 -0.3140 -0.0607 -0.6185
 7511SOL     OW33991   1.736   0.424  13.479 -0.2741 -0.0129 -0.9065
 7511SOL    HW133992   1.739   0.503  13.533  1.3843  0.3976 -1.6047
 7511SOL    HW233993   1.813   0.372  13.500 -0.5086 -0.8302 -2.0745
 7512SOL     OW33994   2.011   2.259   3.590  0.3215  0.0913  0.4466
 7512SOL    HW133995   2.014   2.164   3.588 -0.9068  0.0539  0.6491
 7512SOL    HW233996   1.921   2.283   3.569  0.3098 -0.7244 -0.3970
 7513SOL     OW33997   4.396   4.144  11.166 -0.5030 -0.5331 -0.1646
 7513SOL    HW133998   4.427   4.130  11.255 -0.7774 -0.8837 -0.1226
 7513SOL    HW233999   4.384   4.055  11.132 -0.8585 -0.4271 -0.3221
 7514SOL     OW34000   3.304   2.897   6.792  0.4836 -0.3629  0.1680
 7514SOL    HW134001   3.347   2.913   6.875  1.7118  0.0426 -0.5426
 7514SOL    HW234002   3.353   2.957   6.736  0.2483 -0.3223  0.0030
 7515SOL     OW34003   3.782   0.676   4.717  0.0205 -0.0321 -0.1711
 7515SOL    HW134004   3.874   0.703   4.725 -0.6219  2.1079 -0.0597
 7515SOL    HW234005   3.802   0.582   4.716 -0.0126 -0.0235 -1.4361
 7516SOL     OW34006   3.684   4.418   3.501 -0.6301  0.5228  0.0862
 7516SOL    HW134007   3.588   4.414   3.499 -0.5932 -1.8832  2.1273
 7516SOL    HW234008   3.711   4.362   3.575  1.3421  0.6737 -0.5148
 7517SOL     OW34009   3.065   4.146   1.882 -0.2904 -0.1661 -0.2917
 7517SOL    HW134010   3.050   4.094   1.961 -3.1232 -2.3579 -2.2490
 7517SOL    HW234011   2.975   4.155   1.851  0.2517 -0.5503 -1.9654
 7518SOL     OW34012   2.245   4.107   5.924 -0.4797 -0.1246  0.2705
 7518SOL    HW134013   2.289   4.175   5.975  1.1081 -1.5044  0.7385
 7518SOL    HW234014   2.281   4.031   5.970  2.6205 -0.0976 -2.2043
 7519SOL     OW34015   3.584   0.230   7.859 -0.2585 -0.2884 -0.5859
 7519SOL    HW134016   3.629   0.311   7.883  2.3179 -2.0891  0.6577
 7519SOL    HW234017   3.654   0.195   7.804  0.0703  0.0153 -0.3618
 7520SOL     OW34018   4.412   0.976  17.650 -0.2026  0.3877 -0.4525
 7520SOL    HW134019   4.441   1.067  17.646 -0.2229  0.3920 -0.5005
 7520SOL    HW234020   4.345   0.972   0.033 -0.2802 -0.5111 -0.5761
 7521SOL     OW34021   0.550   1.550   3.230  0.4427 -0.2586  0.3493
 7521SOL    HW134022   0.503   1.523   3.151 -0.7649 -0.5310  1.1511
 7521SOL    HW234023   0.624   1.591   3.187  1.5626 -2.3982  0.2102
 7522SOL     OW34024   0.998   2.273   8.788  0.3978 -0.1121  0.7923
 7522SOL    HW134025   1.015   2.229   8.704  1.5145  1.8484  0.0069
 7522SOL    HW234026   0.914   2.317   8.779  0.3344 -0.4737 -0.4021
 7523SOL     OW34027   1.167   1.595  16.374  0.5070  0.6701 -0.2181
 7523SOL    HW134028   1.206   1.682  16.365 -1.1105  1.5601  1.5056
 7523SOL    HW234029   1.110   1.614  16.448  0.5343 -1.1211  0.2707
 7524SOL     OW34030   1.339   2.440   5.614  0.3974 -0.0648  0.7754
 7524SOL    HW134031   1.278   2.469   5.682  0.6160  0.9324  0.5510
 7524SOL    HW234032   1.359   2.525   5.574 -0.3995 -0.7374 -1.0535
 7525SOL     OW34033   3.738   0.793  10.936  0.2483  0.3098  0.6579
 7525SOL    HW134034   3.783   0.877  10.940 -1.2459  1.1041  1.0300
 7525SOL    HW234035   3.786   0.749  11.006 -0.4802 -1.8238 -0.1735
 7526SOL     OW34036   0.064   0.152   2.816  0.1146 -0.3206  0.1389
 7526SOL    HW134037   4.708   0.185   2.768  2.2520  2.6575 -1.2295
 7526SOL    HW234038   0.103   0.089   2.756  3.5645 -0.6803  2.7833
 7527SOL     OW34039   0.518   2.751   7.028 -0.1210  0.0342 -0.2794
 7527SOL    HW134040   0.489   2.744   6.937  1.1498  1.7913 -0.8161
 7527SOL    HW234041   0.555   2.839   7.032  1.5958 -0.7127  0.0352
 7528SOL     OW34042   3.616   3.220   4.444 -0.3684  0.0248 -0.0310
 7528SOL    HW134043   3.535   3.177   4.470  0.1498  0.3244  2.0831
 7528SOL    HW234044   3.669   3.201   4.521 -2.1929  0.4535  1.3142
 7529SOL     OW34045   3.744   1.306   7.769  0.1675  0.6100  0.3461
 7529SOL    HW134046   3.782   1.357   7.698  2.8631 -1.6427  0.1739
 7529SOL    HW234047   3.691   1.234   7.734  2.0403  0.0736 -1.3511
 7530SOL     OW34048   3.997   3.411   3.762  0.2529 -0.2356 -0.0512
 7530SOL    HW134049   3.952   3.356   3.826  2.2385 -0.6151  1.0321
 7530SOL    HW234050   3.928   3.434   3.700 -0.4538  1.1295  1.2556
 7531SOL     OW34051   2.721   3.969  12.063  0.1721  0.4364 -0.6873
 7531SOL    HW134052   2.813   3.982  12.088  0.0985 -2.1550  0.9032
 7531SOL    HW234053   2.728   3.963  11.967  0.7659  0.5986 -0.6575
 7532SOL     OW34054   1.606   4.308   4.385  0.3335  0.4176 -0.3248
 7532SOL    HW134055   1.611   4.307   4.481 -0.6483  1.2106 -0.2699
 7532SOL    HW234056   1.556   4.229   4.367 -0.8281  0.9033  0.7637
 7533SOL     OW34057   2.873   0.182   3.252 -0.6264  0.0399  0.0997
 7533SOL    HW134058   2.822   0.131   3.189  0.0589  1.3347 -1.5185
 7533SOL    HW234059   2.956   0.201   3.207  1.0121 -2.0329  2.2426
 7534SOL     OW34060   1.645   4.279   3.087 -0.8705  0.2254  0.2684
 7534SOL    HW134061   1.720   4.259   3.030 -0.1464 -2.0456  2.0255
 7534SOL    HW234062   1.653   4.371   3.112  0.3301  0.3741 -0.6198
 7535SOL     OW34063   1.712   2.635   2.984  0.2445  1.2966 -0.5014
 7535SOL    HW134064   1.691   2.620   2.892 -1.6623  0.4354  0.0717
 7535SOL    HW234065   1.632   2.675   3.019 -0.2674  0.3949 -0.6371
 7536SOL     OW34066   3.343   0.755   7.548  0.3133 -0.1804  0.0545
 7536SOL    HW134067   3.367   0.741   7.640 -3.3583 -1.3143  0.8402
 7536SOL    HW234068   3.276   0.687   7.551  1.0530 -1.0654 -3.2160
 7537SOL     OW34069   4.686   2.118  14.525  0.7669 -0.4495 -0.0056
 7537SOL    HW134070   4.629   2.080  14.592 -1.5265  2.0765 -0.4894
 7537SOL    HW234071   4.622   2.152  14.462 -0.1984 -1.7099  0.2857
 7538SOL     OW34072   0.643   4.003  13.078  0.3368 -0.2051 -0.3702
 7538SOL    HW134073   0.566   3.948  13.099 -1.3114  0.9647 -3.3431
 7538SOL    HW234074   0.670   4.014  13.169 -1.2167  1.8283 -0.1476
 7539SOL     OW34075   0.862   0.480   3.454 -0.1308 -0.2404 -0.7631
 7539SOL    HW134076   0.782   0.504   3.406 -1.4359 -5.1216 -1.0908
 7539SOL    HW234077   0.882   0.550   3.516  0.5840 -1.5169  0.4455
 7540SOL     OW34078   2.446   2.710  15.410 -0.6677 -0.0728  0.1434
 7540SOL    HW134079   2.451   2.614  15.405 -0.1160 -0.1197  1.6130
 7540SOL    HW234080   2.533   2.734  15.379 -2.1972  1.7772 -2.6808
 7541SOL     OW34081   4.151   3.960   5.088 -0.1239  0.1620  0.2747
 7541SOL    HW134082   4.105   3.924   5.164 -1.1169  1.6362  0.3821
 7541SOL    HW234083   4.140   3.886   5.029 -0.2129 -0.5689  1.2130
 7542SOL     OW34084   0.116   4.133   2.506  0.2516  0.5048  0.4067
 7542SOL    HW134085   0.061   4.057   2.486  3.1181 -1.0380 -1.5617
 7542SOL    HW234086   0.054   4.206   2.502  1.3432  1.4468  0.7724
 7543SOL     OW34087   3.246   2.245  16.675 -0.2736  0.1906 -0.2330
 7543SOL    HW134088   3.239   2.149  16.680 -0.6629  0.2116 -0.3607
 7543SOL    HW234089   3.260   2.263  16.582  0.4776 -0.2933 -0.2109
 7544SOL     OW34090   3.623   0.214   0.879 -0.0252  1.1568 -0.8221
 7544SOL    HW134091   3.597   0.162   0.802  1.2538 -2.2735  1.0383
 7544SOL    HW234092   3.556   0.281   0.886 -1.2518 -0.0652 -0.7635
 7545SOL     OW34093   0.992   4.057  15.659 -0.1384  0.4415  0.4081
 7545SOL    HW134094   0.932   4.073  15.732  0.2223 -0.3702  0.8829
 7545SOL    HW234095   0.961   4.134  15.611  1.0434 -0.7234 -2.1981
 7546SOL     OW34096   4.296   1.634   3.280 -0.5765  0.0021 -0.0475
 7546SOL    HW134097   4.245   1.629   3.199 -1.5135 -1.1476  0.6162
 7546SOL    HW234098   4.304   1.540   3.293 -1.2002  0.1338  1.3184
 7547SOL     OW34099   3.873   2.911   8.589  0.2127  0.0937  0.2268
 7547SOL    HW134100   3.828   2.931   8.671  0.6779 -0.9236  0.7350
 7547SOL    HW234101   3.880   3.004   8.569  1.1269  0.6988  3.4018
 7548SOL     OW34102   1.581   3.404   8.251  0.1762  1.0377  0.1657
 7548SOL    HW134103   1.487   3.407   8.233 -0.1535  0.2005  1.7908
 7548SOL    HW234104   1.605   3.494   8.276 -0.8376  1.1321  0.8048
 7549SOL     OW34105   4.624   4.177   6.134 -0.2094 -0.0179 -0.6512
 7549SOL    HW134106   4.641   4.269   6.154 -0.7746 -0.1741  0.5793
 7549SOL    HW234107   4.709   4.139   6.117  0.0031 -0.0440  0.4665
 7550SOL     OW34108   0.847   4.063   4.622 -0.2721 -0.0749  0.6565
 7550SOL    HW134109   0.895   3.985   4.593 -1.3225  0.2834 -2.0520
 7550SOL    HW234110   0.922   4.120   4.641  0.0127  0.4525 -1.9145
 7551SOL     OW34111   2.916   3.902  10.728  0.1789  0.1310  0.1563
 7551SOL    HW134112   3.007   3.874  10.721  0.1990  0.6192 -1.5025
 7551SOL    HW234113   2.874   3.816  10.728  1.4544 -0.4903  1.7123
 7552SOL     OW34114   4.363   1.453   9.367  0.3408 -0.2572 -0.0766
 7552SOL    HW134115   4.272   1.432   9.389  0.6763  1.9054  3.4865
 7552SOL    HW234116   4.415   1.409   9.435 -0.4569 -1.9003 -0.5327
 7553SOL     OW34117   3.173   2.025   3.287 -0.3641  0.5943  0.2086
 7553SOL    HW134118   3.136   1.936   3.286  0.2146  0.3608 -0.4170
 7553SOL    HW234119   3.139   2.073   3.212  1.3446 -1.0152 -1.6049
 7554SOL     OW34120   0.291   0.684  11.072 -0.1043  0.1973 -0.0343
 7554SOL    HW134121   0.228   0.658  11.004  1.5722 -0.7216 -1.2206
 7554SOL    HW234122   0.286   0.779  11.079 -1.8393 -0.0142  1.5976
 7555SOL     OW34123   4.196   3.682   7.657 -0.2779 -1.0790 -0.0457
 7555SOL    HW134124   4.189   3.607   7.717 -1.5646 -0.2775  0.8211
 7555SOL    HW234125   4.109   3.717   7.675  1.0546  1.5949  1.2113
 7556SOL     OW34126   2.897   0.211   5.119 -0.4107  0.0681  0.2764
 7556SOL    HW134127   2.805   0.235   5.132  0.3071  1.6824  2.3408
 7556SOL    HW234128   2.906   0.141   5.183 -0.7971  1.5436  1.9267
 7557SOL     OW34129   4.596   4.057   4.242 -0.2079 -0.1229  0.2173
 7557SOL    HW134130   4.664   4.110   4.201 -0.4538 -0.9844 -1.3147
 7557SOL    HW234131   4.569   4.114   4.313  0.1249  0.8130 -0.4137
 7558SOL     OW34132   2.476   2.172  10.851 -0.0792  0.3211 -0.1837
 7558SOL    HW134133   2.547   2.197  10.910 -0.9918 -0.2119  1.1277
 7558SOL    HW234134   2.428   2.253  10.831 -2.0871 -0.9313 -0.4262
 7559SOL     OW34135   4.065   2.154   7.217 -0.5049  0.3301 -0.6926
 7559SOL    HW134136   4.130   2.100   7.262 -0.8955 -0.0239 -0.5527
 7559SOL    HW234137   4.048   2.098   7.141  0.1902 -0.1816 -0.4684
 7560SOL     OW34138   4.460   4.673   4.640  0.0465 -0.2946  0.3596
 7560SOL    HW134139   4.373   4.638   4.621 -0.5329 -1.0154  4.3989
 7560SOL    HW234140   4.442   0.045   4.655 -1.3030  0.2051 -4.3578
 7561SOL     OW34141   0.480   4.279  15.377  0.4333 -0.1058 -0.3063
 7561SOL    HW134142   0.436   4.219  15.317  0.9099 -1.0061  0.2459
 7561SOL    HW234143   0.567   4.240  15.370  0.6335  0.1065  0.9499
 7562SOL     OW34144   3.914   0.031   6.136 -0.2931  0.0963 -0.4512
 7562SOL    HW134145   3.868   0.109   6.104 -1.0657 -0.4281 -0.6222
 7562SOL    HW234146   3.876   0.026   6.224 -0.6078  1.2177 -0.5244
 7563SOL     OW34147   3.612   1.864   6.769 -0.1579  0.0645 -0.7550
 7563SOL    HW134148   3.592   1.779   6.808  2.3764 -1.7486 -3.3614
 7563SOL    HW234149   3.527   1.892   6.734 -0.0931 -0.9443 -1.7245
 7564SOL     OW34150   4.606   0.035   8.394  0.7803  0.2042  0.0714
 7564SOL    HW134151   4.568   0.070   8.474 -2.6985  0.2040 -1.5567
 7564SOL    HW234152   4.562   0.102   8.341 -0.0790  2.0192  3.1374
 7565SOL     OW34153   2.278   4.240   5.110 -0.1628 -0.1550  0.4723
 7565SOL    HW134154   2.307   4.331   5.109  1.0389 -0.5361 -0.6571
 7565SOL    HW234155   2.282   4.208   5.201  0.9013 -1.0658  0.1193
 7566SOL     OW34156   2.382   4.234  17.081 -0.1591  0.1057  0.0928
 7566SOL    HW134157   2.469   4.270  17.069  0.3097 -0.6542  1.2279
 7566SOL    HW234158   2.393   4.162  17.018  0.6037 -0.6434  1.0896
 7567SOL     OW34159   1.333   0.056   1.086  0.0047  0.2628  0.5296
 7567SOL    HW134160   1.310   0.135   1.037 -0.4255 -0.9814 -1.2677
 7567SOL    HW234161   1.350   4.712   1.018 -1.2425  0.1410  0.3285
 7568SOL     OW34162   4.128   2.623   3.216  0.5141 -0.3307 -0.4568
 7568SOL    HW134163   4.174   2.707   3.225  1.7314 -0.9069 -1.1866
 7568SOL    HW234164   4.166   2.562   3.279  0.7276 -1.2908 -1.5027
 7569SOL     OW34165   3.254   4.085   7.268  0.0709  0.0910  0.1964
 7569SOL    HW134166   3.309   4.006   7.264 -1.3208 -0.9295  1.1028
 7569SOL    HW234167   3.274   4.118   7.355 -0.3298 -0.2860  0.4334
 7570SOL     OW34168   3.460   2.325  16.183  0.2770  0.5694 -0.7159
 7570SOL    HW134169   3.407   2.292  16.110 -1.3110 -0.8635  1.0869
 7570SOL    HW234170   3.535   2.267  16.190  0.5176  0.8404 -1.0538
 7571SOL     OW34171   3.377   0.191  16.704  0.2622 -0.5069 -0.3130
 7571SOL    HW134172   3.460   0.206  16.749  0.5180 -1.1123 -0.5834
 7571SOL    HW234173   3.314   0.247  16.751  0.7061 -0.6605  0.4638
 7572SOL     OW34174   4.372   1.541   7.925 -0.0857  0.6952 -0.3206
 7572SOL    HW134175   4.297   1.506   7.973  0.5706  1.1387  1.0348
 7572SOL    HW234176   4.356   1.515   7.834 -0.0653  0.0595 -0.1431
 7573SOL     OW34177   0.524   2.392   2.618 -0.1375  0.0707 -0.1037
 7573SOL    HW134178   0.541   2.378   2.711  1.8965 -0.1973 -0.4985
 7573SOL    HW234179   0.446   2.340   2.600  0.6641 -1.3340  0.4780
 7574SOL     OW34180   2.343   2.841   9.269  0.3611 -0.1407 -0.1996
 7574SOL    HW134181   2.299   2.833   9.354  0.1854  0.8326 -0.1956
 7574SOL    HW234182   2.283   2.803   9.204 -1.1614  0.0946  1.0491
 7575SOL     OW34183   3.720   3.872   7.011 -0.2101 -0.8270 -0.2131
 7575SOL    HW134184   3.681   3.956   7.035  0.1127 -1.0314  1.0244
 7575SOL    HW234185   3.666   3.849   6.935  2.2606 -1.3646 -1.8051
 7576SOL     OW34186   4.676   0.393   1.991  0.2570  1.1040 -0.7608
 7576SOL    HW134187   4.622   0.468   1.966 -2.9119 -0.6123  0.9647
 7576SOL    HW234188   4.720   0.372   1.909  0.0811  0.9360 -0.8103
 7577SOL     OW34189   1.237   1.453   9.596  0.6565 -0.0573 -0.1329
 7577SOL    HW134190   1.282   1.396   9.658  1.7054  0.7278 -0.1669
 7577SOL    HW234191   1.299   1.526   9.596 -1.2101  1.5211  0.8514
 7578SOL     OW34192   0.947   0.792   8.463  0.2815 -0.1965  0.3904
 7578SOL    HW134193   0.874   0.738   8.494  0.2757 -1.6948 -2.1973
 7578SOL    HW234194   1.020   0.740   8.497 -0.0491 -0.1645  1.1387
 7579SOL     OW34195   4.636   1.947   2.606  0.1164  0.0584 -1.0658
 7579SOL    HW134196   4.669   1.895   2.679 -0.8003 -1.7615 -1.9404
 7579SOL    HW234197   4.600   2.026   2.647  1.7601  0.6093 -0.6804
 7580SOL     OW34198   4.012   2.259   4.743  0.0087 -0.4265  0.1854
 7580SOL    HW134199   3.940   2.198   4.757  1.6264 -2.1433  1.1073
 7580SOL    HW234200   4.024   2.259   4.648  1.4833  0.1306  0.3679
 7581SOL     OW34201   0.014   0.009   4.089 -0.4075 -0.4775  0.6585
 7581SOL    HW134202   0.067   0.063   4.030 -2.5763  0.2932 -0.5621
 7581SOL    HW234203   4.651   0.033   4.050 -0.2866 -4.5746 -2.1206
 7582SOL     OW34204   1.602   0.079   7.891 -0.7792 -0.3814 -0.4631
 7582SOL    HW134205   1.640   0.032   7.816 -1.2312  3.0391 -2.8219
 7582SOL    HW234206   1.684   0.122   7.915 -0.3443 -0.4506 -1.7853
 7583SOL     OW34207   1.950   0.198   4.354  0.0738  0.6213 -0.0147
 7583SOL    HW134208   2.004   0.249   4.293  0.9040 -1.1605 -0.7555
 7583SOL    HW234209   1.972   0.229   4.441  1.4557 -1.0110  0.2060
 7584SOL     OW34210   0.814   0.893   6.329 -0.5765 -0.1892 -0.8721
 7584SOL    HW134211   0.831   0.985   6.349  4.4256 -1.3100  0.1917
 7584SOL    HW234212   0.819   0.861   6.419  0.3916  0.2395 -0.7678
 7585SOL     OW34213   1.469   1.015  16.983  0.3460 -0.7641 -0.3123
 7585SOL    HW134214   1.434   1.014  16.894  0.8023  1.0442 -0.5095
 7585SOL    HW234215   1.402   1.074  17.018  1.1438  0.0366 -0.1630
 7586SOL     OW34216   2.629   1.731   8.474  0.7973 -0.1283  0.0872
 7586SOL    HW134217   2.596   1.642   8.490  0.9464 -0.1089  0.4969
 7586SOL    HW234218   2.632   1.731   8.378  0.0603 -0.8353  0.0632
 7587SOL     OW34219   0.996   0.389   5.748 -0.5130  0.2776  0.3801
 7587SOL    HW134220   0.926   0.421   5.806 -0.5146  1.6442 -0.3786
 7587SOL    HW234221   0.960   0.301   5.732  0.1998  0.2363 -0.9849
 7588SOL     OW34222   0.335   1.745   4.967  0.5008  0.1625  0.1119
 7588SOL    HW134223   0.312   1.806   5.037 -0.9397  0.1572 -0.3701
 7588SOL    HW234224   0.255   1.693   4.974  1.0733 -1.0226 -2.1072
 7589SOL     OW34225   0.379   4.106   0.109  0.3275  0.3247  0.3219
 7589SOL    HW134226   0.428   4.053   0.173  0.5957  1.0527  0.7225
 7589SOL    HW234227   0.346   4.183   0.156  0.8655  2.6187 -3.0371
 7590SOL     OW34228   0.888   2.374   4.863 -0.2829 -0.1059  0.4679
 7590SOL    HW134229   0.831   2.402   4.934  0.6672  2.5296  0.2092
 7590SOL    HW234230   0.826   2.324   4.810  0.2354 -0.3479  0.0960
 7591SOL     OW34231   2.056   3.841   6.552  0.5121 -0.6479 -0.0067
 7591SOL    HW134232   2.005   3.899   6.609  0.5693 -2.3963  1.8178
 7591SOL    HW234233   1.985   3.823   6.490  1.1959  0.8792 -1.2621
 7592SOL     OW34234   3.703   2.235   2.177  0.2851 -0.0998  0.4035
 7592SOL    HW134235   3.639   2.213   2.110  1.7797 -0.5379 -0.8635
 7592SOL    HW234236   3.643   2.251   2.250  0.1482 -0.0139  0.2712
 7593SOL     OW34237   2.508   0.893  10.579 -0.0565 -0.3361 -0.6132
 7593SOL    HW134238   2.414   0.878  10.591 -0.0274  0.7399  0.9139
 7593SOL    HW234239   2.516   0.840  10.499 -0.0617 -0.3832 -0.5823
 7594SOL     OW34240   2.337   1.511   6.875 -0.6029  0.2160  0.6374
 7594SOL    HW134241   2.393   1.567   6.820  0.7592 -0.5728  1.2259
 7594SOL    HW234242   2.329   1.435   6.818 -1.1721 -0.7917  2.0758
 7595SOL     OW34243   3.299   0.487   3.223  0.0171  0.0767  0.2014
 7595SOL    HW134244   3.344   0.459   3.143 -1.5259 -2.0368  0.0518
 7595SOL    HW234245   3.208   0.496   3.193 -0.1140 -1.9527 -0.0250
 7596SOL     OW34246   2.757   0.126   3.735  0.1350  0.4419  0.3975
 7596SOL    HW134247   2.714   0.166   3.660  1.1838  0.1235 -0.3715
 7596SOL    HW234248   2.790   0.047   3.692  1.4921  0.6316  1.0748
 7597SOL     OW34249   0.523   2.765   5.014  0.0296 -0.0104  0.5913
 7597SOL    HW134250   0.520   2.859   4.997 -0.9394 -0.3765 -1.2961
 7597SOL    HW234251   0.481   2.737   4.933  1.4205  0.3961 -0.2720
 7598SOL     OW34252   4.568   2.887  13.130 -0.2212 -0.5447  0.3105
 7598SOL    HW134253   4.532   2.799  13.140  0.0608 -0.6557  0.3656
 7598SOL    HW234254   4.543   2.911  13.041 -0.3682  0.6750  0.6928
 7599SOL     OW34255   2.020   4.536   7.546  0.0471  0.3468 -0.7494
 7599SOL    HW134256   2.032   4.620   7.500 -1.2626  0.1064 -1.5470
 7599SOL    HW234257   2.105   4.492   7.556 -0.0002 -0.2542 -2.9431
 7600SOL     OW34258   2.736   2.264   8.988 -0.3261 -0.0463  0.7299
 7600SOL    HW134259   2.648   2.249   9.024  0.7988 -1.4902  2.8459
 7600SOL    HW234260   2.793   2.280   9.063 -0.1328 -0.1694  0.6105
 7601SOL     OW34261   2.424   0.476   3.681 -0.1726 -0.4229 -0.4315
 7601SOL    HW134262   2.438   0.420   3.604 -2.2043  0.5140 -1.4789
 7601SOL    HW234263   2.503   0.530   3.678 -0.4537 -0.0704 -1.7638
 7602SOL     OW34264   3.184   3.798   3.611  0.6038  0.0224 -0.7981
 7602SOL    HW134265   3.126   3.740   3.561  0.0152  1.6439 -1.9632
 7602SOL    HW234266   3.213   3.855   3.540 -0.8096  0.0829 -1.3149
 7603SOL     OW34267   3.845   3.815   7.299 -0.2399  0.7132 -0.2679
 7603SOL    HW134268   3.866   3.728   7.264  0.5341  0.9031 -0.2761
 7603SOL    HW234269   3.792   3.852   7.229 -0.0071  1.0347 -0.2758
 7604SOL     OW34270   3.913   2.779   5.693  0.3247  0.3794 -0.2352
 7604SOL    HW134271   3.949   2.862   5.724 -0.2492  0.2357  0.7952
 7604SOL    HW234272   3.996   2.737   5.667  0.0516 -0.3581  0.0733
 7605SOL     OW34273   3.135   2.382   7.098  0.1088 -0.4357  0.1797
 7605SOL    HW134274   3.222   2.345   7.084  1.0491  1.8005  0.1078
 7605SOL    HW234275   3.146   2.468   7.058  0.2861 -0.3238  0.4687
 7606SOL     OW34276   4.299   3.860   3.434 -0.0538  0.0177 -0.8973
 7606SOL    HW134277   4.321   3.953   3.434  0.3662 -0.0826  1.2775
 7606SOL    HW234278   4.321   3.838   3.524  2.4276 -0.5168 -1.6319
 7607SOL     OW34279   3.302   1.178   0.114 -0.9360  0.4798 -0.3211
 7607SOL    HW134280   3.367   1.109   0.101 -0.9074  0.2387  1.1800
 7607SOL    HW234281   3.247   1.145   0.185  0.9461 -0.9873  0.4313
 7608SOL     OW34282   1.654   1.137   2.366  0.1466  0.0853  0.1681
 7608SOL    HW134283   1.621   1.178   2.446  1.1280  0.3006  0.4561
 7608SOL    HW234284   1.619   1.197   2.300  0.9594  0.6762  0.2691
 7609SOL     OW34285   3.056   1.459   8.141 -0.4057  0.0578 -0.2554
 7609SOL    HW134286   3.123   1.413   8.090  1.2837  2.3691 -0.1110
 7609SOL    HW234287   2.983   1.399   8.149 -0.2923  0.2651  2.4254
 7610SOL     OW34288   3.562   0.942   2.690 -0.3001 -0.5515  0.3153
 7610SOL    HW134289   3.630   0.979   2.633  0.2987  0.1614  1.4912
 7610SOL    HW234290   3.532   1.024   2.729  2.4269  1.0844 -1.0124
 7611SOL     OW34291   1.622   1.777   3.508 -0.1864  0.2374  0.3586
 7611SOL    HW134292   1.710   1.792   3.472  0.5830  0.0649  2.1563
 7611SOL    HW234293   1.629   1.833   3.586  1.9574 -0.7503  0.8769
 7612SOL     OW34294   2.330   0.869   5.792 -0.2701  0.2986 -0.0443
 7612SOL    HW134295   2.253   0.916   5.823 -1.5408 -1.2921 -0.8198
 7612SOL    HW234296   2.356   0.902   5.705 -0.2418  0.7854  0.1481
 7613SOL     OW34297   3.414   4.552   3.027 -0.4981  0.1644  0.2730
 7613SOL    HW134298   3.349   4.500   3.073 -0.8697 -0.3373 -0.8162
 7613SOL    HW234299   3.409   4.521   2.937  1.5416  2.0949 -0.4962
 7614SOL     OW34300   3.286   2.923   2.943  0.1720 -0.4127 -0.3358
 7614SOL    HW134301   3.207   2.944   2.993 -0.2879 -0.9840 -0.8262
 7614SOL    HW234302   3.354   2.972   2.990 -0.0941  0.9327 -1.3491
 7615SOL     OW34303   0.547   1.744  12.434  0.1037 -0.0328  0.2180
 7615SOL    HW134304   0.638   1.718  12.417 -0.2642 -0.7645 -0.6360
 7615SOL    HW234305   0.517   1.676  12.495 -2.1619 -0.2745 -1.1936
 7616SOL     OW34306   2.112   2.173  17.491 -0.2574 -0.8004 -0.0176
 7616SOL    HW134307   2.023   2.152  17.462  0.0349  0.3911 -1.8027
 7616SOL    HW234308   2.138   2.225  17.414  1.7682 -0.0187  1.1975
 7617SOL     OW34309   3.522   0.918  10.810 -0.4714 -0.0551 -0.1748
 7617SOL    HW134310   3.583   0.854  10.847 -2.7605 -2.0745  0.1021
 7617SOL    HW234311   3.571   0.945  10.733  0.1902  1.1812  0.6798
 7618SOL     OW34312   0.427   2.952   3.773 -0.2055  0.5185  0.4321
 7618SOL    HW134313   0.518   2.982   3.773 -0.2676  0.6877 -0.1223
 7618SOL    HW234314   0.379   3.026   3.738  2.4632  1.7524 -0.6031
 7619SOL     OW34315   0.040   1.264   3.895 -0.1060  0.4398  0.3366
 7619SOL    HW134316   4.671   1.234   3.878 -0.1949 -0.1629  1.8310
 7619SOL    HW234317   0.028   1.354   3.926  1.2584  1.1205 -1.1005
 7620SOL     OW34318   1.248   3.882  13.283  0.5770  0.1939  0.3993
 7620SOL    HW134319   1.194   3.819  13.235  0.5892 -1.1264  2.1321
 7620SOL    HW234320   1.333   3.872  13.241 -0.7325 -1.4148 -1.8337
 7621SOL     OW34321   3.187   2.990   0.800 -0.9984 -0.4250  0.0956
 7621SOL    HW134322   3.130   3.027   0.868 -0.4108 -1.7594  1.3177
 7621SOL    HW234323   3.122   2.984   0.730  1.6714  0.2731 -2.4213
 7622SOL     OW34324   0.813   4.009   6.111  0.2883 -0.8184 -0.2475
 7622SOL    HW134325   0.777   4.075   6.051  0.3618  1.1650  1.9055
 7622SOL    HW234326   0.784   4.038   6.198 -1.4338 -1.4153 -0.6186
 7623SOL     OW34327   0.780   3.782   7.477  0.3428  0.4005  0.3757
 7623SOL    HW134328   0.762   3.704   7.529 -2.3268  0.8613  0.1647
 7623SOL    HW234329   0.689   3.811   7.463  0.0280  0.1560  1.8437
 7624SOL     OW34330   1.241   4.269   7.329  0.1667 -0.2949  0.2071
 7624SOL    HW134331   1.148   4.246   7.319 -0.1087  0.4515  1.0451
 7624SOL    HW234332   1.225   4.345   7.385  3.3835  0.3245  0.2796
 7625SOL     OW34333   3.448   3.473   4.260  0.1409  0.2213  0.0660
 7625SOL    HW134334   3.367   3.432   4.291  0.4715 -0.2037  0.3675
 7625SOL    HW234335   3.422   3.499   4.172 -0.8171 -1.0867 -0.0506
 7626SOL     OW34336   3.684   3.931   6.061 -0.9348  0.5118  0.0385
 7626SOL    HW134337   3.694   3.920   5.966 -1.6200 -1.2854  0.1747
 7626SOL    HW234338   3.616   3.864   6.072  0.1513 -0.6549 -0.4083
 7627SOL     OW34339   0.116   3.010   8.784 -0.7016  0.1716 -0.1979
 7627SOL    HW134340   0.050   2.999   8.715 -2.8289  0.3042  1.8155
 7627SOL    HW234341   0.060   3.028   8.860 -1.4986 -1.0964 -0.4892
 7628SOL     OW34342   0.760   3.331  17.234  0.0541  0.3950  0.4709
 7628SOL    HW134343   0.820   3.330  17.160  0.2632 -0.3594  0.6431
 7628SOL    HW234344   0.827   3.339  17.302  0.8921 -0.6503 -0.2240
 7629SOL     OW34345   0.732   0.547   6.215  0.3555  0.1701  0.0502
 7629SOL    HW134346   0.718   0.528   6.308  0.9219  0.8226  0.2641
 7629SOL    HW234347   0.827   0.554   6.218  0.3862 -0.5890  0.7977
 7630SOL     OW34348   1.350   0.302   8.336  0.3076 -0.5923  0.3217
 7630SOL    HW134349   1.276   0.331   8.282  0.5741 -0.5675 -0.0353
 7630SOL    HW234350   1.375   0.220   8.294 -0.8257 -0.8873  0.2260
 7631SOL     OW34351   0.562   1.262   8.085  0.2380 -0.4177  0.7116
 7631SOL    HW134352   0.525   1.181   8.122 -0.9518 -0.8555 -1.3930
 7631SOL    HW234353   0.497   1.330   8.100 -1.3470 -1.7818  0.0868
 7632SOL     OW34354   1.944   4.308   3.059 -0.5661  0.1158  0.1759
 7632SOL    HW134355   1.984   4.305   3.146  1.0687  0.3523 -0.5617
 7632SOL    HW234356   2.009   4.258   3.010 -1.1133  0.6319 -1.0728
 7633SOL     OW34357   4.604   4.652  10.128  0.3125 -0.0955  0.4351
 7633SOL    HW134358   4.693   4.652  10.164 -0.1477  3.6486  1.6290
 7633SOL    HW234359   4.553   4.679  10.205  1.9979  1.4148  1.0200
 7634SOL     OW34360   4.708   2.651   4.989 -0.6827 -0.0115 -0.1920
 7634SOL    HW134361   4.704   2.741   5.021 -1.5618 -0.0989 -0.0595
 7634SOL    HW234362   4.687   2.668   4.897  0.8338  1.7231 -0.2174
 7635SOL     OW34363   2.573   2.380   4.019 -0.1790  0.4148 -0.2519
 7635SOL    HW134364   2.561   2.428   3.937 -1.8662  2.2607  1.0670
 7635SOL    HW234365   2.600   2.292   3.991  2.2474  0.8354  0.8438
 7636SOL     OW34366   2.440   0.727  16.205 -0.6507 -0.3410 -0.3529
 7636SOL    HW134367   2.513   0.776  16.241 -1.2799 -0.3726  1.0007
 7636SOL    HW234368   2.375   0.797  16.212 -1.8291 -1.2769 -1.7890
 7637SOL     OW34369   1.885   0.457   3.819  0.2316  0.4194 -0.2213
 7637SOL    HW134370   1.901   0.525   3.754 -1.2082  1.6247  0.6787
 7637SOL    HW234371   1.975   0.423   3.829 -0.8736 -2.1040  1.1930
 7638SOL     OW34372   2.484   0.543   7.877 -0.7087  0.3265  0.3611
 7638SOL    HW134373   2.458   0.493   7.954 -0.0839  1.3492  1.2229
 7638SOL    HW234374   2.532   0.475   7.828  1.1234  1.6303  0.3341
 7639SOL     OW34375   0.680   3.261   5.689 -0.3285  0.3036  0.3261
 7639SOL    HW134376   0.713   3.171   5.689  0.6351  0.6527  1.3609
 7639SOL    HW234377   0.745   3.301   5.632 -0.2641  1.4149  1.1791
 7640SOL     OW34378   3.254   3.026   8.449 -0.3283  0.1054  0.5690
 7640SOL    HW134379   3.244   3.002   8.357 -0.1688 -1.0784  0.8583
 7640SOL    HW234380   3.286   2.943   8.484  0.7342 -0.1117 -0.9303
 7641SOL     OW34381   1.120   0.738   5.421 -0.5353 -0.5698  0.2151
 7641SOL    HW134382   1.122   0.804   5.490 -1.2898 -0.3804  0.0561
 7641SOL    HW234383   1.122   0.650   5.460 -0.2263 -0.6360  0.0510
 7642SOL     OW34384   2.126   0.301   3.188  0.1633 -0.1283 -0.4446
 7642SOL    HW134385   2.136   0.333   3.098 -0.8338 -1.1126 -0.9109
 7642SOL    HW234386   2.103   0.210   3.169 -3.3928  0.8553 -0.9437
 7643SOL     OW34387   2.978   1.670   4.283  0.2171 -0.0771  0.6717
 7643SOL    HW134388   3.073   1.680   4.287  0.0116  1.5585  1.3780
 7643SOL    HW234389   2.961   1.644   4.373 -0.6020  0.4021  0.6553
 7644SOL     OW34390   0.229   2.172  13.457  0.5240  0.2548  0.5998
 7644SOL    HW134391   0.256   2.092  13.502  1.1215 -0.7737 -1.5765
 7644SOL    HW234392   0.300   2.230  13.483 -0.4750  2.3090 -1.2109
 7645SOL     OW34393   2.992   0.878  15.943 -0.1205 -0.6052  0.1130
 7645SOL    HW134394   2.932   0.880  15.869  0.7716 -1.5300 -0.6290
 7645SOL    HW234395   3.067   0.926  15.909 -0.0870  0.1157  1.2027
 7646SOL     OW34396   2.148   2.333  10.440  0.0379  0.3017  0.5321
 7646SOL    HW134397   2.106   2.405  10.393  1.4458  1.5556  1.1858
 7646SOL    HW234398   2.153   2.268  10.370  0.1146  0.9736 -0.0841
 7647SOL     OW34399   0.330   1.563  13.760 -0.0392 -0.0815  0.3417
 7647SOL    HW134400   0.329   1.636  13.822 -1.1803 -0.6065  0.9324
 7647SOL    HW234401   0.333   1.609  13.676 -2.4586  0.0636  0.3599
 7648SOL     OW34402   3.350   3.636   6.725 -0.3284 -0.0802 -0.0928
 7648SOL    HW134403   3.332   3.627   6.819  0.2980 -0.8963 -0.0496
 7648SOL    HW234404   3.275   3.694   6.710 -0.8962 -0.5244  1.0729
 7649SOL     OW34405   0.353   4.383  15.610 -0.7596 -0.2888 -0.4462
 7649SOL    HW134406   0.395   4.368  15.526 -0.8081  1.8467 -0.8587
 7649SOL    HW234407   0.265   4.406  15.579 -0.4477  1.5357  0.0021
 7650SOL     OW34408   3.015   3.861   5.151  0.1743 -0.3828 -0.3317
 7650SOL    HW134409   2.935   3.880   5.199  0.8177 -0.4766  0.7753
 7650SOL    HW234410   3.046   3.772   5.169  0.3120  0.3745  3.0872
 7651SOL     OW34411   2.526   2.817  10.291  0.4063 -0.3979 -0.1610
 7651SOL    HW134412   2.471   2.820  10.213  2.2492 -1.0832 -1.4827
 7651SOL    HW234413   2.496   2.737  10.336 -3.0208  1.1441  0.2565
 7652SOL     OW34414   3.734   3.723   4.251 -0.0632  0.6174  0.2517
 7652SOL    HW134415   3.684   3.746   4.173  1.6703 -1.3875 -1.4637
 7652SOL    HW234416   3.810   3.778   4.235 -0.8944  2.0340  1.2106
 7653SOL     OW34417   3.306   1.094   4.737  0.2592  0.1727 -0.0502
 7653SOL    HW134418   3.283   1.185   4.755  1.6980  0.4752  0.2991
 7653SOL    HW234419   3.364   1.071   4.810 -1.2191 -2.4220  0.2914
 7654SOL     OW34420   2.065   4.600   4.962 -0.1095 -0.6023  0.2122
 7654SOL    HW134421   2.122   4.566   4.893 -0.8308  0.5668 -0.9472
 7654SOL    HW234422   2.048   4.686   4.922  0.9043 -0.7864 -0.6229
 7655SOL     OW34423   3.286   2.525   4.543  0.2704  0.3730 -0.1010
 7655SOL    HW134424   3.311   2.542   4.634 -1.3581 -1.6918  0.7469
 7655SOL    HW234425   3.218   2.458   4.550  0.2542  0.4685  0.7531
 7656SOL     OW34426   3.917   0.068  10.448 -0.1885  0.4371  0.0085
 7656SOL    HW134427   3.924   4.715  10.509  1.5636  1.3673  0.9207
 7656SOL    HW234428   3.879   0.135  10.505 -1.5959 -0.5642  0.2384
 7657SOL     OW34429   0.422   3.600   2.342 -0.0443  0.0047  0.5162
 7657SOL    HW134430   0.392   3.526   2.289  1.0772 -0.4864  0.5679
 7657SOL    HW234431   0.362   3.597   2.416 -2.0516  1.2071 -1.0760
 7658SOL     OW34432   1.195   0.972   3.298 -0.5002 -0.0190 -0.0548
 7658SOL    HW134433   1.116   0.943   3.252  0.3032 -1.2076 -0.6846
 7658SOL    HW234434   1.251   1.001   3.226  0.9878 -0.1565  1.0347
 7659SOL     OW34435   1.842   4.493   5.293  0.0030  0.0067 -0.1915
 7659SOL    HW134436   1.887   4.441   5.358 -0.0056  0.3912  0.1237
 7659SOL    HW234437   1.751   4.472   5.314  0.0845  1.8450  2.0500
 7660SOL     OW34438   1.158   2.296   3.563  0.6274 -0.4273  0.0360
 7660SOL    HW134439   1.148   2.384   3.599 -1.0639 -0.5637 -0.0921
 7660SOL    HW234440   1.073   2.292   3.519  0.7330 -0.9094 -0.1259
 7661SOL     OW34441   4.513   0.606   9.209  0.4691 -0.5693  0.2854
 7661SOL    HW134442   4.483   0.679   9.263  1.1837 -0.8856  1.1055
 7661SOL    HW234443   4.425   0.569   9.213  0.6318 -1.1812 -2.0697
 7662SOL     OW34444   2.903   3.666   2.958 -0.4336 -0.0553  0.5511
 7662SOL    HW134445   2.819   3.713   2.964 -1.2695 -1.4638 -0.0737
 7662SOL    HW234446   2.934   3.708   2.878 -2.3587 -1.0357 -0.7242
 7663SOL     OW34447   4.612   2.270   2.290 -0.3669 -0.5544 -0.0139
 7663SOL    HW134448   4.655   2.194   2.329 -1.2914 -1.8317 -1.4840
 7663SOL    HW234449   4.575   2.233   2.210  1.8473 -1.0940 -0.7637
 7664SOL     OW34450   0.511   3.344  15.067 -0.2276  0.4144 -0.7260
 7664SOL    HW134451   0.503   3.258  15.025 -0.9703 -0.3770  0.9907
 7664SOL    HW234452   0.450   3.399  15.018 -3.8813 -0.9326  2.2035
 7665SOL     OW34453   0.254   2.785   4.297 -0.2332 -0.3952 -0.0466
 7665SOL    HW134454   0.346   2.805   4.312 -0.6661  0.4526  1.4973
 7665SOL    HW234455   0.233   2.854   4.233  1.4601 -1.8030 -2.1255
 7666SOL     OW34456   3.518   1.334   9.151 -0.2091 -0.5110 -0.0520
 7666SOL    HW134457   3.589   1.345   9.215  0.2021  0.6666 -0.7093
 7666SOL    HW234458   3.453   1.396   9.185 -1.2867 -0.2760 -2.5859
 7667SOL     OW34459   0.535   0.913   5.905  0.4786  0.1324  0.6627
 7667SOL    HW134460   0.449   0.954   5.910  1.5347  2.0978  2.2142
 7667SOL    HW234461   0.536   0.908   5.809  0.0955  1.1343  0.6139
 7668SOL     OW34462   1.088   2.346   4.227 -0.0431  0.0341  0.4443
 7668SOL    HW134463   1.016   2.311   4.175 -1.1592  0.2196  1.9001
 7668SOL    HW234464   1.158   2.302   4.178 -0.8995 -2.3063  1.3144
 7669SOL     OW34465   1.285   1.066  10.880 -0.3137 -0.2355 -0.0801
 7669SOL    HW134466   1.345   1.007  10.924 -0.5991  0.2200  0.9361
 7669SOL    HW234467   1.283   1.137  10.945 -0.8790 -1.0455  0.7979
 7670SOL     OW34468   1.964   1.939   5.204  0.0852  0.5118  0.3595
 7670SOL    HW134469   2.032   1.886   5.245 -1.2770  0.7279  2.8663
 7670SOL    HW234470   1.911   1.870   5.162  0.1882  0.9748 -0.5466
 7671SOL     OW34471   0.884   2.662   9.725 -0.4404  0.8494  0.6898
 7671SOL    HW134472   0.940   2.732   9.693  1.2585 -0.2682  1.2053
 7671SOL    HW234473   0.815   2.716   9.763 -2.6914 -1.5080 -0.0356
 7672SOL     OW34474   0.297   1.955   8.489  0.5135  0.0884 -0.3378
 7672SOL    HW134475   0.361   1.895   8.527  0.6326 -0.9470 -2.2073
 7672SOL    HW234476   0.221   1.909   8.455  1.6957 -2.1915  0.1100
 7673SOL     OW34477   1.799   3.215   8.221 -0.0879  0.8497 -0.6121
 7673SOL    HW134478   1.718   3.258   8.248  0.7841  2.2408 -0.2210
 7673SOL    HW234479   1.855   3.292   8.228  1.3602 -0.2383 -0.2647
 7674SOL     OW34480   1.714   2.552   5.270  0.5211  0.3194 -0.3516
 7674SOL    HW134481   1.760   2.533   5.189  0.9805 -0.6227  0.1316
 7674SOL    HW234482   1.786   2.597   5.314  0.9627  1.1859 -1.9672
 7675SOL     OW34483   1.967   1.630  13.256  0.2668 -0.0130  0.0505
 7675SOL    HW134484   2.040   1.650  13.314  0.7445  0.4122 -0.7001
 7675SOL    HW234485   1.925   1.716  13.256 -0.8914 -0.5835 -2.4446
 7676SOL     OW34486   4.059   0.331   3.004  0.3968 -0.0397 -0.1500
 7676SOL    HW134487   3.968   0.303   3.004  0.0945  0.9200  0.5878
 7676SOL    HW234488   4.095   0.302   2.921 -0.5780 -0.8591 -0.2838
 7677SOL     OW34489   2.761   0.746   1.159  0.1349  0.2880 -0.0008
 7677SOL    HW134490   2.739   0.728   1.250  0.3448  1.4207  0.2734
 7677SOL    HW234491   2.723   0.670   1.116  2.0948 -0.6795 -0.0266
 7678SOL     OW34492   1.788   1.132   6.838  0.1295 -0.5390 -0.0154
 7678SOL    HW134493   1.812   1.055   6.786  2.1085  0.2401 -0.2403
 7678SOL    HW234494   1.828   1.196   6.779 -0.1231  2.1724  2.7493
 7679SOL     OW34495   0.362   1.534   3.040  0.4813  0.0856 -0.1031
 7679SOL    HW134496   0.355   1.497   2.952 -0.4235 -0.7039  0.3047
 7679SOL    HW234497   0.293   1.494   3.092 -1.3011  1.8599 -1.0834
 7680SOL     OW34498   4.637   0.327   6.040  0.3563  0.0623  0.1536
 7680SOL    HW134499   4.553   0.332   5.996  2.2719 -0.2913 -3.5425
 7680SOL    HW234500   4.660   0.420   6.041  0.8087 -0.0556  0.5778
 7681SOL     OW34501   3.107   2.706   2.531  0.0850  0.6348 -0.2619
 7681SOL    HW134502   3.059   2.624   2.545 -0.1133  0.9190  0.7482
 7681SOL    HW234503   3.152   2.738   2.609  0.4726 -0.2214 -0.1379
 7682SOL     OW34504   1.580   3.209   6.434  0.1385  0.0358  0.4239
 7682SOL    HW134505   1.616   3.268   6.368  0.9382 -1.7471 -0.7536
 7682SOL    HW234506   1.530   3.268   6.490  0.4911  2.1222 -1.4545
 7683SOL     OW34507   2.862   1.767   3.770  0.2667 -0.5144 -0.4935
 7683SOL    HW134508   2.872   1.749   3.863  0.2680  0.4343 -0.3091
 7683SOL    HW234509   2.944   1.814   3.752  0.5714 -0.4996  0.9339
 7684SOL     OW34510   0.912   0.861   6.647 -0.0634 -0.1885  0.4629
 7684SOL    HW134511   1.007   0.872   6.643 -0.0814  0.5421  1.9527
 7684SOL    HW234512   0.911   0.796   6.717  1.2829 -0.1719  0.4900
 7685SOL     OW34513   3.312   2.630   1.751  0.6370 -0.0958  1.0244
 7685SOL    HW134514   3.239   2.656   1.807 -1.0252 -0.3186 -1.0056
 7685SOL    HW234515   3.381   2.607   1.813  1.2300 -0.8211  0.1027
 7686SOL     OW34516   2.665   3.420   9.444  0.1480 -0.2157  0.2544
 7686SOL    HW134517   2.582   3.464   9.464 -0.4558 -2.0931  1.9024
 7686SOL    HW234518   2.648   3.339   9.492 -0.5180 -0.1704  0.0983
 7687SOL     OW34519   2.362   0.999   8.351 -0.0492 -0.2509 -0.5344
 7687SOL    HW134520   2.337   0.929   8.412 -1.8313  0.5068 -0.3917
 7687SOL    HW234521   2.279   1.046   8.348 -0.7692 -1.6051 -1.6303
 7688SOL     OW34522   0.635   3.780   6.734  0.0302 -0.5802 -0.0038
 7688SOL    HW134523   0.567   3.843   6.711  0.8646  0.1885 -0.3877
 7688SOL    HW234524   0.604   3.748   6.819 -0.4769  1.4048  0.5771
 7689SOL     OW34525   1.019   0.505  15.653  0.2404  1.1268 -0.2149
 7689SOL    HW134526   1.044   0.560  15.727  0.6766  0.1930  0.3337
 7689SOL    HW234527   1.074   0.541  15.583  0.5891  1.9157  0.4662
 7690SOL     OW34528   4.119   0.180  12.237  0.1173 -0.2111 -0.1029
 7690SOL    HW134529   4.194   0.133  12.272 -0.9919 -2.0912 -0.2202
 7690SOL    HW234530   4.088   0.240  12.305 -0.0578 -0.5067  0.0830
 7691SOL     OW34531   1.528   4.115   6.927  0.3707  0.5151 -0.4076
 7691SOL    HW134532   1.494   4.075   7.008  3.1026  0.6791  0.8069
 7691SOL    HW234533   1.622   4.107   6.940  0.3701 -0.6804 -1.1170
 7692SOL     OW34534   3.865   1.546  14.220  0.1640 -0.1330  0.2443
 7692SOL    HW134535   3.938   1.487  14.239  0.2999  0.3141  1.1076
 7692SOL    HW234536   3.917   1.626  14.225  0.8550 -0.5603 -0.2047
 7693SOL     OW34537   1.714   4.181   0.636 -0.1766  0.2679 -0.8318
 7693SOL    HW134538   1.644   4.117   0.621  1.4519 -1.7733  0.2185
 7693SOL    HW234539   1.676   4.253   0.686 -1.2324 -0.3019 -0.7878
 7694SOL     OW34540   0.043   0.990  15.323  0.2331  0.5971 -0.6494
 7694SOL    HW134541   0.038   0.936  15.244  2.3562  0.5715 -0.7620
 7694SOL    HW234542   0.103   1.060  15.299 -0.7589  1.5339 -0.3666
 7695SOL     OW34543   4.255   4.033   8.494  0.5319 -0.5673 -0.0117
 7695SOL    HW134544   4.279   3.951   8.538  1.3137 -0.3064  0.0405
 7695SOL    HW234545   4.223   4.078   8.572 -1.5601 -3.3640  0.7584
 7696SOL     OW34546   0.147   0.611   1.331 -0.4765 -0.1867  0.0219
 7696SOL    HW134547   0.151   0.703   1.357 -0.6938  0.0478 -0.7735
 7696SOL    HW234548   0.201   0.615   1.252  0.9286 -1.1794  0.9175
 7697SOL     OW34549   0.344   2.698   5.842  0.6413 -0.2740 -0.0936
 7697SOL    HW134550   0.289   2.668   5.770 -2.2460 -1.9773  2.7831
 7697SOL    HW234551   0.278   2.696   5.911 -0.1676 -0.6513 -0.8822
 7698SOL     OW34552   1.970   2.573   4.395  0.3861  0.1015 -0.2399
 7698SOL    HW134553   2.014   2.571   4.480  1.4287 -0.0545 -0.7830
 7698SOL    HW234554   2.002   2.492   4.354  1.7344  0.3584  0.3236
 7699SOL     OW34555   0.259   3.644  16.128 -0.1002  0.3212  0.0280
 7699SOL    HW134556   0.331   3.635  16.065  0.6056 -1.5836  1.1035
 7699SOL    HW234557   0.303   3.617  16.209 -0.9823 -2.5620 -0.4648
 7700SOL     OW34558   3.384   3.512  10.895 -0.4677 -0.1515 -0.3417
 7700SOL    HW134559   3.411   3.520  10.803 -1.0373 -1.5958 -0.6484
 7700SOL    HW234560   3.376   3.606  10.913 -0.2155 -0.2744  0.3656
 7701SOL     OW34561   2.982   2.107   0.524 -0.0414  0.0653  0.1967
 7701SOL    HW134562   2.998   2.182   0.466  1.4306  1.4564  2.4009
 7701SOL    HW234563   3.036   2.139   0.597  1.0013  1.6734 -1.2786
 7702SOL     OW34564   2.187   1.315   3.342 -0.1633 -0.7206  0.1851
 7702SOL    HW134565   2.267   1.365   3.326  0.4396 -1.6176  0.4057
 7702SOL    HW234566   2.129   1.343   3.271  1.8020  0.3082 -0.9979
 7703SOL     OW34567   1.723   1.907   4.983  0.6099  0.0287 -0.2307
 7703SOL    HW134568   1.651   1.856   5.021 -1.5797  1.6724 -2.1807
 7703SOL    HW234569   1.702   1.906   4.889 -0.4876  1.4550  0.0038
 7704SOL     OW34570   1.282   3.482   4.737  0.0740 -0.3430 -0.0203
 7704SOL    HW134571   1.258   3.427   4.812  2.4662 -0.5511  0.5774
 7704SOL    HW234572   1.359   3.529   4.769  1.6845 -2.0024 -1.4950
 7705SOL     OW34573   3.461   1.847   3.401 -0.3346  0.1866 -0.6055
 7705SOL    HW134574   3.454   1.852   3.497  2.7767 -3.6558 -0.1682
 7705SOL    HW234575   3.465   1.939   3.374  3.9713 -0.3511 -1.7832
 7706SOL     OW34576   3.309   2.454   8.420  0.0171 -0.1015  0.1881
 7706SOL    HW134577   3.399   2.482   8.403 -0.0254 -1.0690 -1.5878
 7706SOL    HW234578   3.299   2.389   8.351 -1.5619 -0.1323  0.4314
 7707SOL     OW34579   1.208   1.746   1.824  0.1321  0.3141  0.2770
 7707SOL    HW134580   1.225   1.654   1.842 -0.7586  0.0648 -0.1994
 7707SOL    HW234581   1.138   1.778   1.881 -1.1296  1.9737 -2.2247
 7708SOL     OW34582   1.381   1.994  15.511 -0.0093  0.4059 -0.2145
 7708SOL    HW134583   1.375   1.956  15.423  0.3073 -1.7720  0.7119
 7708SOL    HW234584   1.458   1.950  15.547 -0.6164 -0.1044  0.4485
 7709SOL     OW34585   3.258   1.638   4.884 -0.3768  0.0673  0.6248
 7709SOL    HW134586   3.232   1.549   4.905  0.8616 -0.9374 -2.0619
 7709SOL    HW234587   3.198   1.683   4.943 -0.7512  0.2592  0.0991
 7710SOL     OW34588   0.899   3.434   1.975 -0.2529  0.2473 -0.3775
 7710SOL    HW134589   0.966   3.366   1.968 -0.8058 -0.1798 -1.4930
 7710SOL    HW234590   0.900   3.459   1.883  2.5590 -0.8543 -0.6756
 7711SOL     OW34591   2.641   0.954   8.397  0.8832 -0.0941  0.1824
 7711SOL    HW134592   2.549   0.980   8.386  1.2338  0.9675 -0.1965
 7711SOL    HW234593   2.669   0.935   8.307 -0.5189 -1.1095 -0.0354
 7712SOL     OW34594   2.731   3.785   4.947 -0.0521  0.3744  0.1962
 7712SOL    HW134595   2.698   3.858   4.894  0.7316  1.1694  0.8127
 7712SOL    HW234596   2.782   3.820   5.019  0.1497 -0.4168  0.4452
 7713SOL     OW34597   4.184   1.176  12.658  0.0031  0.3313  0.3311
 7713SOL    HW134598   4.153   1.212  12.741  1.2793 -1.2156  1.4695
 7713SOL    HW234599   4.142   1.090  12.657  1.7445 -0.5224  1.0404
 7714SOL     OW34600   0.429   3.612   2.772  0.0813  0.4646  0.3191
 7714SOL    HW134601   0.504   3.651   2.728 -0.1635  0.3382 -0.2138
 7714SOL    HW234602   0.444   3.518   2.768  0.9497  0.5252  2.0031
 7715SOL     OW34603   4.634   0.874   7.192  0.3421  0.3408  0.2735
 7715SOL    HW134604   4.620   0.956   7.143 -0.5277  0.1628  0.2236
 7715SOL    HW234605   4.624   0.911   7.280 -1.5204  0.0581  0.1862
 7716SOL     OW34606   2.148   2.266   0.743  0.2939  0.1301 -0.2459
 7716SOL    HW134607   2.188   2.343   0.784  1.4675 -0.1776 -0.8276
 7716SOL    HW234608   2.226   2.217   0.717  0.4689  0.1507  0.2337
 7717SOL     OW34609   3.422   0.198   5.832 -0.2049 -0.5809  0.5793
 7717SOL    HW134610   3.404   0.292   5.832  0.6581 -0.4123  1.4130
 7717SOL    HW234611   3.340   0.161   5.799  1.1652 -0.7756 -2.6598
 7718SOL     OW34612   2.619   0.200   5.137 -0.8717  0.0051  0.0177
 7718SOL    HW134613   2.572   0.175   5.217  0.5693 -1.2185  0.4820
 7718SOL    HW234614   2.545   0.216   5.078  0.0523  0.4625 -1.0019
 7719SOL     OW34615   2.789   1.532  10.605  0.7529 -0.9848  0.1053
 7719SOL    HW134616   2.786   1.597  10.676  0.8916  0.5235 -1.2733
 7719SOL    HW234617   2.751   1.458  10.651  1.0354  0.7925  3.2864
 7720SOL     OW34618   0.702   4.420   3.630  0.6910 -0.1319 -0.3151
 7720SOL    HW134619   0.794   4.444   3.634  0.7949 -0.4791 -0.5968
 7720SOL    HW234620   0.712   4.332   3.594 -3.0333 -1.0155  0.7845
 7721SOL     OW34621   1.274   0.252   6.533  0.1345  0.0141 -0.1120
 7721SOL    HW134622   1.309   0.191   6.468  1.3731 -0.4840  1.0047
 7721SOL    HW234623   1.345   0.259   6.597 -0.4273  2.0426  0.2794
 7722SOL     OW34624   1.087   0.257  14.207 -0.0003 -0.1538 -0.0777
 7722SOL    HW134625   1.081   0.322  14.277  0.5591 -0.9501  0.7029
 7722SOL    HW234626   1.023   0.189  14.227 -1.0728  1.0448  0.5732
 7723SOL     OW34627   4.128   2.788   8.713 -0.6204  0.1002  0.2714
 7723SOL    HW134628   4.051   2.821   8.665 -1.1728 -2.1954 -0.4544
 7723SOL    HW234629   4.097   2.751   8.795 -2.9956 -1.8206 -1.4922
 7724SOL     OW34630   0.125   3.334   3.831  0.0603  0.3045  0.3286
 7724SOL    HW134631   0.104   3.287   3.750  1.7862 -1.3640  0.8305
 7724SOL    HW234632   0.122   3.259   3.891 -1.3501 -0.4793 -0.6938
 7725SOL     OW34633   1.705   3.819   6.914 -0.3113  0.1847 -0.0969
 7725SOL    HW134634   1.617   3.786   6.895  0.2636 -0.4094 -1.6596
 7725SOL    HW234635   1.750   3.735   6.914 -0.5906  0.0304  1.0463
 7726SOL     OW34636   2.753   4.102   2.333 -0.1582 -0.0581 -0.3961
 7726SOL    HW134637   2.713   4.163   2.271  3.9578  2.3381 -0.7075
 7726SOL    HW234638   2.686   4.042   2.364  1.1685 -0.0382  2.4824
 7727SOL     OW34639   0.696   4.660   0.327 -0.1669 -0.1110  0.1625
 7727SOL    HW134640   0.738   4.709   0.256 -1.7353  0.0515 -0.6643
 7727SOL    HW234641   0.736   4.699   0.404 -0.9867  1.2472 -0.0896
 7728SOL     OW34642   2.128   4.306   2.260 -0.3266  0.3190  0.1811
 7728SOL    HW134643   2.149   4.323   2.168  1.1964  0.7666  0.6053
 7728SOL    HW234644   2.108   4.393   2.293  1.9468  0.5284  1.0268
 7729SOL     OW34645   0.835   0.070   0.119 -0.1890  0.1280 -0.1344
 7729SOL    HW134646   0.899   4.720   0.128  0.6153  0.8854  0.0042
 7729SOL    HW234647   0.862   0.121   0.043  0.5443 -1.2943 -0.8321
 7730SOL     OW34648   3.200   0.599   8.535 -0.0907 -0.2847 -0.4946
 7730SOL    HW134649   3.214   0.694   8.536  0.8573 -0.4551  2.8572
 7730SOL    HW234650   3.280   0.559   8.503 -0.2084  0.4172 -1.6825
 7731SOL     OW34651   0.535   4.262   6.491 -0.7743  0.4244 -0.2748
 7731SOL    HW134652   0.449   4.277   6.530 -0.9243 -0.7884 -0.1422
 7731SOL    HW234653   0.584   4.235   6.569  0.1722 -0.4313 -1.1608
 7732SOL     OW34654   2.325   1.779   2.979 -0.3075  0.6255 -0.0193
 7732SOL    HW134655   2.280   1.714   2.926  0.1762 -1.4235  2.1220
 7732SOL    HW234656   2.301   1.859   2.932 -0.2377  0.3109 -0.5971
 7733SOL     OW34657   2.164   0.705   6.577  0.1763 -0.5611 -0.2486
 7733SOL    HW134658   2.071   0.695   6.594 -0.0759  1.4302 -0.3786
 7733SOL    HW234659   2.158   0.759   6.497  0.7523  1.9623  1.4073
 7734SOL     OW34660   2.213   4.460   5.463 -0.1864 -0.5066  0.1882
 7734SOL    HW134661   2.277   4.476   5.393  1.2566  0.5326  1.7352
 7734SOL    HW234662   2.243   4.517   5.534  0.4932 -0.5743 -0.0421
 7735SOL     OW34663   4.107   4.686   1.924 -0.1260 -0.4742 -0.5990
 7735SOL    HW134664   4.034   4.632   1.892  0.4433 -0.2699 -2.2057
 7735SOL    HW234665   4.165   4.666   1.851 -0.6538 -1.6100 -0.7041
 7736SOL     OW34666   0.896   0.685  15.424  0.0796  0.2037  0.4336
 7736SOL    HW134667   0.894   0.781  15.433  3.2312  0.2152  0.8445
 7736SOL    HW234668   0.989   0.665  15.421  0.4593  2.0336  0.0735
 7737SOL     OW34669   0.655   0.093   3.699  0.1079 -0.2529 -0.1986
 7737SOL    HW134670   0.716   0.133   3.636  0.1620 -0.2881 -0.1684
 7737SOL    HW234671   0.716   0.070   3.770 -0.2338  1.4896  0.6818
 7738SOL     OW34672   2.055   1.195   3.551  0.0216 -0.0256  0.0064
 7738SOL    HW134673   2.092   1.230   3.470 -0.7182  1.1934  0.1950
 7738SOL    HW234674   2.086   1.258   3.616 -1.8186 -1.0985  1.9354
 7739SOL     OW34675   1.331   1.792  10.339  0.2120  0.1518  0.0829
 7739SOL    HW134676   1.283   1.738  10.276  0.5074 -0.3789  0.3135
 7739SOL    HW234677   1.289   1.875  10.317 -1.1784 -0.7616 -0.7204
 7740SOL     OW34678   4.527   3.656   3.941 -0.0226 -0.2836 -0.2610
 7740SOL    HW134679   4.539   3.625   3.851 -0.3549  0.0219 -0.4117
 7740SOL    HW234680   4.517   3.750   3.924  0.1261  0.3131  2.9974
 7741SOL     OW34681   0.121   1.708   3.015 -0.1583  0.7585  0.3424
 7741SOL    HW134682   0.206   1.681   2.980  0.1890  1.2841  0.7822
 7741SOL    HW234683   0.103   1.629   3.066  0.2885  0.1761 -0.4057
 7742SOL     OW34684   3.249   4.155   7.522  0.0728 -0.2323 -0.5825
 7742SOL    HW134685   3.245   4.243   7.561 -0.2039 -0.5231  0.0367
 7742SOL    HW234686   3.163   4.118   7.542  0.2398 -1.0146 -1.3055
 7743SOL     OW34687   4.437   2.301   4.954  0.4516 -0.4535  0.4789
 7743SOL    HW134688   4.407   2.356   4.882 -0.1578  0.2302  1.2525
 7743SOL    HW234689   4.361   2.244   4.959 -0.3310  0.3395 -2.0922
 7744SOL     OW34690   3.741   0.713   4.069  0.5242 -0.1948  0.2419
 7744SOL    HW134691   3.698   0.628   4.062  1.6892 -0.6765 -1.1382
 7744SOL    HW234692   3.725   0.746   4.157 -0.6095 -0.7028  0.2197
 7745SOL     OW34693   1.599   3.660   2.829  0.0004  0.1354 -0.1626
 7745SOL    HW134694   1.521   3.611   2.804 -0.8936  1.0194  0.8317
 7745SOL    HW234695   1.619   3.715   2.753 -0.9642 -0.0509 -0.5474
 7746SOL     OW34696   0.540   0.451   8.325 -0.8275  0.3056  0.6953
 7746SOL    HW134697   0.557   0.370   8.277  1.4797  1.0734  0.1910
 7746SOL    HW234698   0.589   0.421   8.401 -0.5790  0.5043  0.6167
 7747SOL     OW34699   1.691   3.648   8.340  0.5703  0.9385  0.1511
 7747SOL    HW134700   1.756   3.701   8.385  0.3832  1.0252  0.3207
 7747SOL    HW234701   1.627   3.717   8.326 -1.6263 -1.2784 -0.8107
 7748SOL     OW34702   2.242   2.710   2.931  0.5187 -0.3544 -0.0182
 7748SOL    HW134703   2.165   2.749   2.973  1.6914  0.1168  1.6725
 7748SOL    HW234704   2.225   2.622   2.962  0.2358 -0.3018 -0.0250
 7749SOL     OW34705   1.831   1.719  10.162  0.5121  0.4597 -0.1508
 7749SOL    HW134706   1.764   1.651  10.159  0.4269  0.6034 -1.4211
 7749SOL    HW234707   1.772   1.780  10.206 -0.9059 -0.7604 -0.3812
 7750SOL     OW34708   2.068   1.150  11.289  0.2788 -0.1288 -0.3894
 7750SOL    HW134709   1.979   1.140  11.322  0.3526 -2.0326 -0.7621
 7750SOL    HW234710   2.051   1.215  11.221 -1.9042  0.1557  0.4242
 7751SOL     OW34711   2.098   2.618  17.276  0.1992 -0.9469  0.1134
 7751SOL    HW134712   2.065   2.706  17.294 -0.3868 -0.9756 -0.8464
 7751SOL    HW234713   2.172   2.636  17.218 -0.8281 -0.4978 -1.0305
 7752SOL     OW34714   1.349   0.585   5.576 -0.4349  0.7125  0.3111
 7752SOL    HW134715   1.268   0.536   5.561 -1.0672  1.7868  0.1927
 7752SOL    HW234716   1.416   0.518   5.573 -1.6854 -0.3829 -3.3962
 7753SOL     OW34717   1.275   1.675   4.854 -0.4997 -0.2578  0.0349
 7753SOL    HW134718   1.202   1.626   4.816  0.5382 -2.9833  1.5010
 7753SOL    HW234719   1.247   1.763   4.831  0.6779  0.2158  0.4075
 7754SOL     OW34720   4.204   0.235   5.272  0.0290 -0.1978  0.2059
 7754SOL    HW134721   4.229   0.161   5.216  1.2436 -0.5019  1.1469
 7754SOL    HW234722   4.118   0.206   5.301 -0.9274  3.3135  0.8445
 7755SOL     OW34723   1.205   4.126  10.625 -0.0632  0.4420  0.1116
 7755SOL    HW134724   1.204   4.195  10.559 -0.9057  2.2032  1.9734
 7755SOL    HW234725   1.287   4.145  10.671 -0.0971 -0.9974  0.7443
 7756SOL     OW34726   1.344   3.479  15.348 -0.2479 -0.6809 -0.3300
 7756SOL    HW134727   1.413   3.546  15.346 -0.1640 -0.7986 -1.6753
 7756SOL    HW234728   1.274   3.514  15.402  0.3357 -1.2383  0.7965
 7757SOL     OW34729   4.343   2.224  11.790  0.7932 -0.1506 -0.2070
 7757SOL    HW134730   4.280   2.195  11.856 -0.3764 -1.3022 -1.8246
 7757SOL    HW234731   4.302   2.310  11.777  0.4641 -0.2002  0.4869
 7758SOL     OW34732   2.754   3.603  14.583 -0.3625 -0.1444 -0.6555
 7758SOL    HW134733   2.663   3.628  14.568 -0.1958  1.5555  1.1716
 7758SOL    HW234734   2.775   3.560  14.500  1.3551 -0.6357  0.0301
 7759SOL     OW34735   1.386   4.551   1.906 -0.7245  0.0235 -0.1564
 7759SOL    HW134736   1.377   4.465   1.948 -1.3019  1.4151  2.5355
 7759SOL    HW234737   1.472   4.538   1.865 -0.7285 -0.6802  0.0575
 7760SOL     OW34738   1.872   2.134  13.207 -0.4174 -0.4096  0.2550
 7760SOL    HW134739   1.907   2.159  13.293 -1.5465 -0.5426  0.7517
 7760SOL    HW234740   1.914   2.195  13.146 -1.0013 -0.4253 -0.1692
 7761SOL     OW34741   2.082   0.746   5.553 -1.1304  0.1607 -0.2589
 7761SOL    HW134742   2.010   0.698   5.512 -0.5857 -0.8588 -0.0007
 7761SOL    HW234743   2.139   0.766   5.478 -1.2945 -3.0288 -1.2337
 7762SOL     OW34744   2.451   0.362  12.775 -0.0259  0.7476  0.0273
 7762SOL    HW134745   2.366   0.398  12.800 -1.6507 -1.5731 -2.1255
 7762SOL    HW234746   2.427   0.269  12.769 -0.4282  0.8676 -0.1822
 7763SOL     OW34747   1.944   2.925   5.605  0.1602 -0.0755 -0.4361
 7763SOL    HW134748   1.961   2.836   5.573 -0.4481 -0.3848  0.0874
 7763SOL    HW234749   1.850   2.907   5.593  0.0706 -0.4305  0.7920
 7764SOL     OW34750   2.603   3.653   4.314  0.0595  0.8763  0.1274
 7764SOL    HW134751   2.619   3.720   4.247  1.2991 -0.6779 -1.1303
 7764SOL    HW234752   2.571   3.580   4.261  1.1024  1.9970 -2.0755
 7765SOL     OW34753   3.015   2.512   2.099  0.0141 -0.5274 -0.7608
 7765SOL    HW134754   2.992   2.573   2.169 -1.2376 -0.9492 -0.8080
 7765SOL    HW234755   2.971   2.432   2.129  0.0715 -0.4474 -0.4590
 7766SOL     OW34756   0.019   2.007   8.401  0.6981 -0.3112  0.7098
 7766SOL    HW134757   0.057   2.078   8.349  0.1299 -0.7823 -0.3511
 7766SOL    HW234758   0.005   1.956   8.321 -1.4443  1.9248 -0.3264
 7767SOL     OW34759   1.327   0.626   4.528  0.1324  0.0006  0.9641
 7767SOL    HW134760   1.330   0.687   4.454 -0.3077 -1.9285 -0.6491
 7767SOL    HW234761   1.403   0.578   4.495 -0.6707 -0.9573  0.5359
 7768SOL     OW34762   0.294   4.681  10.662 -0.3677  0.0109  0.1115
 7768SOL    HW134763   0.222   4.710  10.607 -0.8410  0.2427  0.8481
 7768SOL    HW234764   0.279   4.587  10.651  0.1018  0.0039 -0.4552
 7769SOL     OW34765   4.693   1.274   7.752  0.2519  0.3757  0.0534
 7769SOL    HW134766   4.655   1.296   7.837 -0.8079  1.4094 -0.6860
 7769SOL    HW234767   4.637   1.198   7.737 -2.0985  2.1453 -0.2043
 7770SOL     OW34768   3.672   3.008   0.773 -0.4279 -0.0594  0.3412
 7770SOL    HW134769   3.607   2.961   0.720 -1.6998 -0.2127  2.0573
 7770SOL    HW234770   3.738   2.939   0.765  0.2613  0.4144  2.0523
 7771SOL     OW34771   3.418   3.863   4.317  0.0070  0.5878 -0.4025
 7771SOL    HW134772   3.465   3.814   4.384  1.7205  2.6609 -0.0688
 7771SOL    HW234773   3.457   3.829   4.237  0.9859 -1.5029  0.9725
 7772SOL     OW34774   3.528   3.262   3.673 -0.2788  0.1989 -0.1793
 7772SOL    HW134775   3.553   3.174   3.701  2.7550  0.6665 -1.4685
 7772SOL    HW234776   3.440   3.265   3.710 -0.2983  1.3833 -0.3275
 7773SOL     OW34777   1.104   1.342   5.963 -0.0840  0.0903 -1.2278
 7773SOL    HW134778   1.170   1.397   5.920 -0.0985  0.8796 -0.2545
 7773SOL    HW234779   1.059   1.413   6.009  3.5633  1.2993  0.5316
 7774SOL     OW34780   2.339   3.113   0.098  0.5307  0.7009  0.1611
 7774SOL    HW134781   2.254   3.071   0.097  1.9601 -2.1729  0.8615
 7774SOL    HW234782   2.393   3.049   0.051 -0.2703 -0.5134  0.9157
 7775SOL     OW34783   0.042   2.136   4.100  0.2223 -0.1418  0.3723
 7775SOL    HW134784   4.712   2.136   4.019 -1.5893 -1.4522  1.4891
 7775SOL    HW234785   0.049   2.230   4.111 -1.1734  0.0094 -0.0341
 7776SOL     OW34786   0.023   3.865   3.786  0.6470 -0.2232 -0.3234
 7776SOL    HW134787   0.111   3.891   3.814  0.5450 -1.2891  1.0027
 7776SOL    HW234788   0.027   3.804   3.713  1.7924  0.0256 -0.4734
 7777SOL     OW34789   1.766   4.580   1.371  0.5813  0.8357  0.6941
 7777SOL    HW134790   1.770   4.552   1.280 -1.3282 -0.8107  1.1254
 7777SOL    HW234791   1.702   4.518   1.408  0.3209  0.5396 -0.2457
 7778SOL     OW34792   0.555   3.356   2.056 -0.2572  0.1618 -0.1377
 7778SOL    HW134793   0.633   3.393   2.097  0.2473 -1.0050 -0.0291
 7778SOL    HW234794   0.578   3.342   1.965  1.5285 -0.0558  0.3517
 7779SOL     OW34795   2.489   3.136   0.612  0.4312  0.3253 -0.0293
 7779SOL    HW134796   2.429   3.164   0.542  0.1847 -2.0467 -0.7704
 7779SOL    HW234797   2.440   3.147   0.693  0.2110  1.1265 -0.2731
 7780SOL     OW34798   2.256   1.717  16.020 -0.1396 -0.0618  0.9924
 7780SOL    HW134799   2.267   1.689  15.929 -1.0993  0.1507  0.8120
 7780SOL    HW234800   2.163   1.739  16.022  0.0266  0.9451 -2.1286
 7781SOL     OW34801   2.109   2.978  14.602 -0.2203  0.3635 -0.4131
 7781SOL    HW134802   2.114   3.018  14.689 -2.8871 -2.8116  1.1897
 7781SOL    HW234803   2.018   2.949  14.601  0.1541 -0.6884 -2.6006
 7782SOL     OW34804   3.790   2.167  14.710  0.4698 -0.3335 -0.2960
 7782SOL    HW134805   3.734   2.233  14.668 -0.6421 -0.7757  0.4947
 7782SOL    HW234806   3.735   2.142  14.784 -2.5936 -0.1984 -2.5169
 7783SOL     OW34807   2.185   2.669   6.363 -0.7487  0.6330  0.2254
 7783SOL    HW134808   2.254   2.720   6.405  1.3142 -1.6845 -0.3396
 7783SOL    HW234809   2.217   2.680   6.273  2.0801 -3.3090  0.7598
 7784SOL     OW34810   2.267   3.519   8.088  0.2410 -0.5040 -0.5272
 7784SOL    HW134811   2.215   3.518   8.169  1.9153 -0.1382  0.5542
 7784SOL    HW234812   2.290   3.428   8.073 -1.9836 -1.0783 -0.4208
 7785SOL     OW34813   1.134   1.994  17.246  0.2453 -0.8011 -0.0067
 7785SOL    HW134814   1.129   2.007  17.151 -0.0732 -3.3880 -0.3388
 7785SOL    HW234815   1.214   1.945  17.262  0.4891 -0.9636 -1.7415
 7786SOL     OW34816   0.249   2.393   6.935 -0.1182 -0.3268  0.2209
 7786SOL    HW134817   0.220   2.477   6.970 -0.6520 -0.8492  1.0200
 7786SOL    HW234818   0.174   2.337   6.955  1.1865 -1.9445  0.5532
 7787SOL     OW34819   1.200   3.334   2.623  0.4112 -0.3591  0.6077
 7787SOL    HW134820   1.194   3.412   2.567 -0.0668 -0.8173  0.0182
 7787SOL    HW234821   1.278   3.292   2.588  0.0877  0.3027 -0.9350
 7788SOL     OW34822   1.145   3.915   4.906  0.1144 -0.2216 -0.2488
 7788SOL    HW134823   1.090   3.903   4.982 -0.6070 -0.3459 -0.7927
 7788SOL    HW234824   1.102   3.848   4.854  0.2675 -2.0945  2.0493
 7789SOL     OW34825   0.129   4.612   2.697  0.0392 -0.4349  0.2183
 7789SOL    HW134826   0.059   4.595   2.634 -1.1604  0.6983  1.2576
 7789SOL    HW234827   0.202   4.636   2.639  0.0955 -0.0850  0.4358
 7790SOL     OW34828   1.176   3.423   6.517 -0.6520 -0.1426  0.0266
 7790SOL    HW134829   1.182   3.410   6.612 -0.8383 -1.4335 -0.1444
 7790SOL    HW234830   1.203   3.514   6.500  0.3193 -0.7672 -1.7581
 7791SOL     OW34831   1.464   2.247   3.456  0.9452 -0.5162  0.0878
 7791SOL    HW134832   1.398   2.197   3.407 -0.9331  1.3108  0.7787
 7791SOL    HW234833   1.471   2.318   3.392 -1.8646  1.0411  1.5115
 7792SOL     OW34834   2.595   2.694  10.600  0.3966  0.2002  0.3881
 7792SOL    HW134835   2.507   2.697  10.563 -0.0016 -1.8758  1.1769
 7792SOL    HW234836   2.611   2.784  10.629 -1.5388  0.7025 -0.1394
 7793SOL     OW34837   1.416   3.512   7.963 -0.0039 -0.0531  0.5348
 7793SOL    HW134838   1.323   3.504   7.986  0.2207  1.0099  1.8023
 7793SOL    HW234839   1.433   3.606   7.969 -2.1049  0.4216 -0.6241
 7794SOL     OW34840   3.188   2.565   9.566  0.0012  0.7554  0.2654
 7794SOL    HW134841   3.175   2.581   9.659 -0.5699 -2.5624  0.7406
 7794SOL    HW234842   3.258   2.627   9.546  0.8113  0.2674  1.6245
 7795SOL     OW34843   2.818   3.414   2.857 -0.7710  0.1223  0.3351
 7795SOL    HW134844   2.777   3.439   2.774 -2.7339  0.5128  1.4233
 7795SOL    HW234845   2.849   3.503   2.873 -2.0589  0.6367 -0.0288
 7796SOL     OW34846   2.546   3.981   5.293 -0.0150 -0.2607  0.1041
 7796SOL    HW134847   2.494   3.966   5.372  1.2561 -0.9258  0.8229
 7796SOL    HW234848   2.496   3.934   5.227 -0.6077  3.5526 -2.1352
 7797SOL     OW34849   0.669   3.748   9.526 -0.5040 -0.3487  0.7135
 7797SOL    HW134850   0.580   3.732   9.557 -0.1053 -1.0916  1.4613
 7797SOL    HW234851   0.682   3.678   9.461 -2.6431 -1.3582  1.3683
 7798SOL     OW34852   3.321   2.063  12.543 -0.1804  0.1240 -0.0453
 7798SOL    HW134853   3.251   2.128  12.537  1.2138  1.5161 -1.3370
 7798SOL    HW234854   3.363   2.095  12.623  2.8746 -2.8938 -0.4070
 7799SOL     OW34855   0.208   2.705   3.452  0.0761 -0.0555 -0.3512
 7799SOL    HW134856   0.194   2.612   3.470  2.0418 -0.2047  0.4082
 7799SOL    HW234857   0.302   2.714   3.439 -0.0997  0.9406 -0.8969
 7800SOL     OW34858   0.336   3.990   4.408 -0.4380 -0.2093 -0.0993
 7800SOL    HW134859   0.428   3.980   4.386 -0.8651  0.7548 -2.3263
 7800SOL    HW234860   0.306   4.074   4.373 -0.4106 -0.8033 -1.5363
 7801SOL     OW34861   3.586   3.580  12.883  0.3467  0.5965  0.3234
 7801SOL    HW134862   3.665   3.631  12.900  0.7025  0.3821 -0.6950
 7801SOL    HW234863   3.528   3.629  12.941 -0.7667 -1.4481  0.9471
 7802SOL     OW34864   0.522   3.930   5.294 -0.2250  0.3258  0.1070
 7802SOL    HW134865   0.465   3.897   5.363  0.3271 -0.4691  0.1840
 7802SOL    HW234866   0.572   3.990   5.349 -0.2928 -1.1308  1.7534
 7803SOL     OW34867   0.773   2.509  17.105 -0.5538  0.0570 -0.0149
 7803SOL    HW134868   0.797   2.599  17.083 -0.6696  0.0864 -0.0220
 7803SOL    HW234869   0.841   2.456  17.062  0.0505  1.2469 -0.5253
 7804SOL     OW34870   3.985   0.934  13.431  0.3014 -0.2013  0.2431
 7804SOL    HW134871   3.965   1.025  13.452 -1.4992 -0.2471 -1.2870
 7804SOL    HW234872   4.080   0.930  13.444  0.8128  2.5191 -2.4596
 7805SOL     OW34873   3.054   3.213   0.885 -0.4482  0.1478  0.3252
 7805SOL    HW134874   3.110   3.268   0.938 -0.8440  1.0582 -0.2049
 7805SOL    HW234875   2.979   3.202   0.944 -1.9529  1.0661 -1.4137
 7806SOL     OW34876   0.938   4.662   4.711 -0.2212  0.1030 -0.0388
 7806SOL    HW134877   0.875   4.633   4.777 -1.3063 -1.6723 -1.8684
 7806SOL    HW234878   0.877   4.706   4.653  1.1265  0.4800 -1.1693
 7807SOL     OW34879   0.996   2.324  10.229  0.0315 -0.0585 -0.1123
 7807SOL    HW134880   0.994   2.277  10.312 -0.7492 -0.5406 -0.4026
 7807SOL    HW234881   0.989   2.414  10.258 -1.4480  0.1820 -1.2180
 7808SOL     OW34882   4.506   0.038   3.945 -0.4848  0.1400  0.1899
 7808SOL    HW134883   4.453   4.709   4.008 -0.7331 -0.4969 -0.5189
 7808SOL    HW234884   4.449   0.060   3.872  2.2585  1.6725 -1.4745
 7809SOL     OW34885   2.157   2.954   2.114 -0.0132 -0.6872  0.2735
 7809SOL    HW134886   2.223   2.998   2.060 -0.1009 -1.3595 -0.3815
 7809SOL    HW234887   2.157   2.866   2.078 -0.3318 -0.3653 -0.5319
 7810SOL     OW34888   1.022   1.602   7.385  0.3340  0.0118  0.4236
 7810SOL    HW134889   1.077   1.655   7.326  0.5909 -0.3129  0.3712
 7810SOL    HW234890   0.997   1.538   7.319 -0.9929  2.0805 -1.1015
 7811SOL     OW34891   2.876   0.432   5.834  0.1586  0.6387 -0.2456
 7811SOL    HW134892   2.804   0.442   5.896  0.9129  0.3223  0.6846
 7811SOL    HW234893   2.821   0.413   5.759  0.5105  0.2976 -0.4149
 7812SOL     OW34894   0.784   2.866   6.940 -0.3970 -0.7109  0.3668
 7812SOL    HW134895   0.878   2.880   6.952 -0.5158  1.0354 -0.7253
 7812SOL    HW234896   0.774   2.781   6.898 -0.1003 -1.0826  1.0411
 7813SOL     OW34897   1.588   1.932   4.401  0.0916  0.6761 -0.2760
 7813SOL    HW134898   1.682   1.927   4.384  0.2479 -2.2961  1.5314
 7813SOL    HW234899   1.558   1.907   4.313 -1.1904 -0.8201  0.5815
 7814SOL     OW34900   2.987   4.707   6.627 -0.1290  0.4776  0.2888
 7814SOL    HW134901   3.061   0.030   6.584  0.7525 -1.0712  0.2318
 7814SOL    HW234902   3.004   0.016   6.716  2.9486  0.1118 -0.1774
 7815SOL     OW34903   0.724   0.697   6.934 -0.3072  0.1020 -0.0982
 7815SOL    HW134904   0.750   0.620   6.984 -0.6972 -1.1587 -1.8070
 7815SOL    HW234905   0.769   0.666   6.855 -1.1516  1.8110 -1.2462
 7816SOL     OW34906   0.544   1.650   0.999  0.2579  0.2717  0.2740
 7816SOL    HW134907   0.636   1.668   1.015  0.6655 -0.3654 -1.3300
 7816SOL    HW234908   0.503   1.680   1.080  2.4556  1.8528  0.7915
 7817SOL     OW34909   0.090   1.313   2.723  0.1856  0.3662 -0.5513
 7817SOL    HW134910   0.010   1.359   2.700 -1.4914 -1.4543  1.6067
 7817SOL    HW234911   0.138   1.318   2.641 -1.6455 -0.3420 -1.6662
 7818SOL     OW34912   3.560   0.510   4.488  0.4525  0.2643  0.2425
 7818SOL    HW134913   3.488   0.549   4.438  0.4822 -1.6761 -1.3074
 7818SOL    HW234914   3.541   0.527   4.580  2.3207 -0.7318  0.8217
 7819SOL     OW34915   1.137   3.722  15.369 -0.2324 -0.2168 -0.8687
 7819SOL    HW134916   1.117   3.742  15.461  0.0880 -2.1948 -0.3701
 7819SOL    HW234917   1.059   3.677  15.336  0.8113 -1.6177 -1.4358
 7820SOL     OW34918   2.150   2.812   4.540  0.4190 -0.6962 -0.3728
 7820SOL    HW134919   2.159   2.778   4.629 -1.0670 -1.6808 -0.5994
 7820SOL    HW234920   2.234   2.785   4.503  0.5512  0.2818 -0.7839
 7821SOL     OW34921   0.107   4.528  10.877 -0.4863  0.5800 -0.2644
 7821SOL    HW134922   0.146   4.521  10.964  1.1481 -0.3120 -1.0718
 7821SOL    HW234923   0.064   4.613  10.868 -1.2624  0.2292  0.0905
 7822SOL     OW34924   2.602   0.222   0.947 -0.2386  0.3597 -0.3200
 7822SOL    HW134925   2.653   0.301   0.931 -0.0125  0.4863  1.0286
 7822SOL    HW234926   2.615   0.220   1.041 -0.5523 -1.9010 -0.3312
 7823SOL     OW34927   2.910   1.568  13.870 -0.3714  0.0358  0.3930
 7823SOL    HW134928   2.846   1.498  13.878 -0.9475  0.3302 -1.5467
 7823SOL    HW234929   2.906   1.593  13.778 -0.8193 -0.1060  0.3776
 7824SOL     OW34930   1.226   3.993  14.075 -0.2676 -0.6363  0.0229
 7824SOL    HW134931   1.165   4.001  14.148  0.8736 -1.1641  1.0353
 7824SOL    HW234932   1.298   3.942  14.111  0.7339 -0.2385 -1.4038
 7825SOL     OW34933   0.763   2.426  10.589  0.2939 -0.0954  0.6267
 7825SOL    HW134934   0.683   2.373  10.590 -0.2720  0.6686 -2.7338
 7825SOL    HW234935   0.818   2.358  10.629 -1.3708 -2.2556 -0.7334
 7826SOL     OW34936   3.662   3.185   7.503 -0.0686 -0.2871  0.1049
 7826SOL    HW134937   3.670   3.277   7.525 -0.4173 -0.4248  0.8341
 7826SOL    HW234938   3.654   3.180   7.408  1.0564  0.3456 -0.0196
 7827SOL     OW34939   0.332   2.730   0.946 -0.0300 -0.2069 -0.0898
 7827SOL    HW134940   0.373   2.778   0.874 -1.1276  0.7043 -0.1098
 7827SOL    HW234941   0.354   2.787   1.020  2.9002  1.0476 -1.9054
 7828SOL     OW34942   2.916   2.383  12.903  0.1823  0.1609  0.2570
 7828SOL    HW134943   2.975   2.323  12.948 -1.4826 -0.2658  1.8762
 7828SOL    HW234944   2.908   2.450  12.971  0.7606  0.5962 -0.1046
 7829SOL     OW34945   4.698   3.429   1.449  0.2775  0.0773  0.0049
 7829SOL    HW134946   4.717   3.522   1.437 -1.7900  0.2537 -1.7843
 7829SOL    HW234947   4.609   3.419   1.417  0.4008 -1.6352  0.1872
 7830SOL     OW34948   2.063   1.242   9.350 -0.0380  0.3110  0.2810
 7830SOL    HW134949   2.113   1.230   9.431  1.1640  3.4998  0.0107
 7830SOL    HW234950   1.978   1.259   9.391 -0.1553  2.3375 -0.8589
 7831SOL     OW34951   0.780   1.892   1.772 -0.3071 -0.5266 -0.3380
 7831SOL    HW134952   0.787   1.831   1.698  2.8540  2.3766 -2.3985
 7831SOL    HW234953   0.763   1.835   1.848 -0.5758 -0.1043 -0.0807
 7832SOL     OW34954   4.007   1.942   5.100 -0.1811 -0.3070  0.0032
 7832SOL    HW134955   3.986   1.882   5.171 -3.0661 -1.4325 -1.7884
 7832SOL    HW234956   4.071   1.892   5.050 -0.8982 -1.3156  0.0878
 7833SOL     OW34957   1.980   0.446   4.172 -0.7726 -0.5087  0.1407
 7833SOL    HW134958   1.971   0.363   4.125 -2.2599  0.9375 -2.1445
 7833SOL    HW234959   1.955   0.507   4.103  0.7150  0.7279  0.6923
 7834SOL     OW34960   3.266   1.408   4.109 -0.2897 -0.4193  0.3450
 7834SOL    HW134961   3.254   1.359   4.191 -2.6978  0.9199  0.7998
 7834SOL    HW234962   3.307   1.487   4.144 -1.3496  1.1689 -2.0554
 7835SOL     OW34963   2.841   1.094  15.697 -0.3840  0.1298 -0.1565
 7835SOL    HW134964   2.918   1.108  15.642  1.4730  1.6431  2.7667
 7835SOL    HW234965   2.805   1.007  15.682  0.0098 -0.2441  1.0628
 7836SOL     OW34966   1.258   1.355   6.215 -0.0281  0.8681  0.1370
 7836SOL    HW134967   1.281   1.277   6.266  1.2987  1.3279  0.2252
 7836SOL    HW234968   1.316   1.334   6.142  3.0703 -0.7210  3.0527
 7837SOL     OW34969   3.793   4.239   4.314 -0.5640  0.6452 -0.5477
 7837SOL    HW134970   3.879   4.215   4.279 -0.1001 -0.7793  1.5920
 7837SOL    HW234971   3.739   4.228   4.235 -1.8391 -0.5240  0.4996
 7838SOL     OW34972   1.298   0.710  14.179  0.3811 -0.4467  0.2072
 7838SOL    HW134973   1.380   0.663  14.196 -0.1940 -1.0996  1.2034
 7838SOL    HW234974   1.329   0.769  14.110 -1.4016 -0.1162 -0.2982
 7839SOL     OW34975   2.298   2.180  11.248  0.0454  0.5340 -0.5468
 7839SOL    HW134976   2.278   2.131  11.168  0.4850 -1.4755  0.5935
 7839SOL    HW234977   2.221   2.180  11.304  0.6679  0.2534  0.3103
 7840SOL     OW34978   3.522   1.068  17.578 -0.0465 -0.0647  0.1476
 7840SOL    HW134979   3.577   1.005  17.626  0.5054  0.5453  0.3192
 7840SOL    HW234980   3.564   1.151  17.601  0.6465 -0.7233  1.2572
 7841SOL     OW34981   3.481   1.849   1.816 -0.0167 -0.7810 -0.0785
 7841SOL    HW134982   3.553   1.856   1.753  0.0108 -0.9866 -0.0713
 7841SOL    HW234983   3.513   1.766   1.852  1.4724  0.4309  1.3823
 7842SOL     OW34984   3.393   4.035   5.947 -0.2481  0.6386  0.2759
 7842SOL    HW134985   3.446   4.023   5.869  0.6143  0.6093  0.8632
 7842SOL    HW234986   3.461   4.085   5.993 -2.0217  2.1468  1.2512
 7843SOL     OW34987   2.801   3.486   8.209  0.2977 -0.0529  0.0086
 7843SOL    HW134988   2.870   3.549   8.229  0.3165  0.1813 -0.7774
 7843SOL    HW234989   2.731   3.501   8.272 -0.8891 -0.4583 -1.2056
 7844SOL     OW34990   0.926   0.814  11.458  0.2993 -0.5661 -0.5153
 7844SOL    HW134991   1.014   0.839  11.433 -0.4127 -0.1250 -2.5694
 7844SOL    HW234992   0.934   0.775  11.545 -2.5347 -0.4746 -0.1952
 7845SOL     OW34993   0.076   0.799   9.565  0.5115 -0.6277 -0.5481
 7845SOL    HW134994   0.140   0.869   9.552  1.1954 -1.0984  0.2596
 7845SOL    HW234995   0.117   0.720   9.529  2.3902 -0.1197  0.4791
 7846SOL     OW34996   0.499   0.705   8.189  0.3531 -0.2384  0.2339
 7846SOL    HW134997   0.514   0.622   8.234 -1.3196  0.7380  2.6242
 7846SOL    HW234998   0.457   0.680   8.107  2.5269 -2.2388 -0.2555
 7847SOL     OW34999   4.477   0.902   4.765 -0.3872 -0.1378 -0.1549
 7847SOL    HW135000   4.396   0.877   4.721 -0.4344  0.1257 -0.2127
 7847SOL    HW235001   4.535   0.834   4.729  1.0861  1.4332 -0.7404
 7848SOL     OW35002   4.534   0.563   2.803  0.1156 -0.9426  0.2063
 7848SOL    HW135003   4.538   0.471   2.831  0.9556 -0.9580  0.0211
 7848SOL    HW235004   4.454   0.586   2.850  1.4177  1.2326  1.3542
 7849SOL     OW35005   4.021   2.455   8.241 -0.0689  0.5716 -0.0302
 7849SOL    HW135006   4.107   2.461   8.283 -0.2208 -0.2628  0.3933
 7849SOL    HW235007   3.968   2.509   8.300 -1.4620 -1.2592  0.3861
 7850SOL     OW35008   2.568   0.397   5.934  0.1933 -0.1166  0.2033
 7850SOL    HW135009   2.552   0.487   5.962  0.8267 -0.0898  0.4766
 7850SOL    HW235010   2.496   0.387   5.872  0.2905  1.8183 -0.2068
 7851SOL     OW35011   1.414   0.571   7.543 -0.2223  0.0202 -0.3103
 7851SOL    HW135012   1.448   0.630   7.610  1.3333 -0.8328 -0.3634
 7851SOL    HW235013   1.388   0.500   7.602  1.8203  0.1832  0.7666
 7852SOL     OW35014   0.365   1.156  10.516  0.3819  0.7279 -0.3953
 7852SOL    HW135015   0.355   1.201  10.432 -0.9630  0.1420 -0.5391
 7852SOL    HW235016   0.276   1.175  10.547  0.7709  2.7022 -0.4703
 7853SOL     OW35017   1.806   0.689   8.910  1.1385  0.0823  0.7565
 7853SOL    HW135018   1.857   0.769   8.922  0.2310  0.8324 -0.4008
 7853SOL    HW235019   1.752   0.693   8.989  0.9870  1.5414  0.5840
 7854SOL     OW35020   4.231   3.018   4.478 -0.1501 -0.1303  0.0830
 7854SOL    HW135021   4.284   2.973   4.544 -0.8101 -1.9859 -0.6360
 7854SOL    HW235022   4.212   2.947   4.416 -1.8763  0.1651  0.2571
 7855SOL     OW35023   1.420   1.895   5.770  0.2302  0.2317  0.1650
 7855SOL    HW135024   1.440   1.922   5.680  1.3310 -0.5627  0.1736
 7855SOL    HW235025   1.351   1.832   5.748  1.8221 -2.1453  2.0451
 7856SOL     OW35026   2.874   2.491   3.452  0.4773 -0.2352 -0.0893
 7856SOL    HW135027   2.807   2.425   3.437 -0.4203  0.9220 -1.0545
 7856SOL    HW235028   2.820   2.569   3.454  0.0298 -0.5307 -0.8792
 7857SOL     OW35029   2.726   3.547  15.121  0.1673  0.5457 -0.0912
 7857SOL    HW135030   2.758   3.637  15.126  0.5015  0.4603 -0.7762
 7857SOL    HW235031   2.753   3.518  15.034 -1.1722 -2.2604  0.4104
 7858SOL     OW35032   0.073   1.659   4.890 -0.1908 -0.4028 -0.0476
 7858SOL    HW135033   0.074   1.647   4.795 -0.6831 -2.0876  0.1452
 7858SOL    HW235034   4.701   1.683   4.898  0.9114  3.1754  1.7671
 7859SOL     OW35035   0.838   3.137   1.826 -0.0997 -0.1361 -0.3293
 7859SOL    HW135036   0.879   3.195   1.890 -1.6836  0.8354 -0.1688
 7859SOL    HW235037   0.870   3.049   1.847 -1.2779 -0.2175  1.1967
 7860SOL     OW35038   0.092   2.980   2.870  0.3269  0.3078 -0.3969
 7860SOL    HW135039   0.064   2.926   2.944  0.9685  2.0193  1.1249
 7860SOL    HW235040   0.053   2.914   2.814  2.5815 -0.1948 -1.3649
 7861SOL     OW35041   4.167   2.907   6.188  0.0834 -0.1270  0.0930
 7861SOL    HW135042   4.173   2.829   6.132 -2.2406 -1.2301  1.3818
 7861SOL    HW235043   4.148   2.983   6.134  1.6777  1.1174  1.2507
 7862SOL     OW35044   1.840   0.218   5.412  0.4300 -0.1672 -0.4523
 7862SOL    HW135045   1.771   0.267   5.458 -0.4092 -1.5845 -0.2287
 7862SOL    HW235046   1.808   0.226   5.323 -1.0525  0.2875  0.1105
 7863SOL     OW35047   1.852   0.884   3.026  0.4146 -0.1783  0.1579
 7863SOL    HW135048   1.891   0.796   3.029  0.6823 -0.0656 -0.0153
 7863SOL    HW235049   1.829   0.894   2.934  1.1593  1.2202  0.1184
 7864SOL     OW35050   4.140   4.639  13.401  0.2873 -0.1202 -0.2283
 7864SOL    HW135051   4.124   4.709  13.338  0.1886  0.1287  0.0762
 7864SOL    HW235052   4.192   4.576  13.351 -1.0692 -0.9675 -0.5695
 7865SOL     OW35053   0.814   3.428   0.340  0.2850  0.2935  0.6301
 7865SOL    HW135054   0.770   3.354   0.382  1.7432 -1.2754 -0.6308
 7865SOL    HW235055   0.905   3.404   0.324  0.2824  0.5398  0.2445
 7866SOL     OW35056   4.072   1.925   1.072 -0.4627 -0.4561 -0.6164
 7866SOL    HW135057   4.091   1.954   0.983 -1.6674  0.6041 -0.5204
 7866SOL    HW235058   4.026   2.001   1.107 -1.3300 -1.3387  0.1612
 7867SOL     OW35059   2.268   3.987   9.395 -0.0919  0.2499 -0.1881
 7867SOL    HW135060   2.235   3.988   9.484 -0.1700  1.9193 -0.2486
 7867SOL    HW235061   2.197   4.034   9.351 -0.5393 -0.4085 -0.1773
 7868SOL     OW35062   4.492   0.020  10.361  0.7220  0.3089 -0.3295
 7868SOL    HW135063   4.504   4.715  10.453  1.8861  1.3860 -0.1770
 7868SOL    HW235064   4.399   0.046  10.363  0.1170 -1.8616 -0.6703
 7869SOL     OW35065   2.943   1.082  11.530  0.3292 -0.2475 -0.4297
 7869SOL    HW135066   2.940   0.996  11.489 -2.6080 -0.5919  0.5315
 7869SOL    HW235067   2.945   1.046  11.619 -0.0284 -0.6303 -0.5806
 7870SOL     OW35068   3.680   3.907  12.805 -0.3007 -0.0117  0.0402
 7870SOL    HW135069   3.632   3.844  12.751 -0.6839  0.0900  0.2673
 7870SOL    HW235070   3.703   3.856  12.882  0.4968  1.2619  0.6398
 7871SOL     OW35071   2.025   1.907   4.650  0.0998  0.4749  0.4594
 7871SOL    HW135072   2.022   1.956   4.567  1.6873  0.5634  0.4414
 7871SOL    HW235073   2.023   1.818   4.615 -0.0979  0.3506  0.7969
 7872SOL     OW35074   4.660   4.569   6.386  0.4064  0.0396  0.6553
 7872SOL    HW135075   4.672   4.537   6.296 -1.4627  1.5376 -0.1413
 7872SOL    HW235076   0.028   4.569   6.420  0.7272  1.9220 -0.2086
 7873SOL     OW35077   3.328   2.932   4.706  0.3617 -0.2133  0.0617
 7873SOL    HW135078   3.354   2.854   4.756 -2.6426 -2.0089 -1.1888
 7873SOL    HW235079   3.235   2.911   4.709  0.4977 -0.8896 -0.4586
 7874SOL     OW35080   0.859   2.579   6.879  0.3452  0.4303 -0.3536
 7874SOL    HW135081   0.952   2.555   6.870  0.2025 -0.5972  0.9052
 7874SOL    HW235082   0.843   2.529   6.959 -0.3048  0.1983 -0.6323
 7875SOL     OW35083   3.353   4.504   7.566  0.0521 -0.2750  0.1690
 7875SOL    HW135084   3.288   4.510   7.635  0.7316  0.2185  0.7659
 7875SOL    HW235085   3.413   4.573   7.596 -0.5714  0.3559 -0.0163
 7876SOL     OW35086   4.714   2.203   7.673 -0.2576  0.6635 -0.0169
 7876SOL    HW135087   0.005   2.184   7.580  0.6635  0.8705  0.0549
 7876SOL    HW235088   0.007   2.297   7.687 -2.2368  0.5824  2.4544
 7877SOL     OW35089   2.707   0.893  17.254  0.4992 -0.0401 -0.1502
 7877SOL    HW135090   2.682   0.817  17.307  0.0894 -0.7810 -1.4012
 7877SOL    HW235091   2.663   0.860  17.175 -1.4374  0.9501  0.5183
 7878SOL     OW35092   3.346   1.871  17.379 -0.1532 -0.1544  0.1953
 7878SOL    HW135093   3.408   1.936  17.412 -0.4440 -0.0203  0.4731
 7878SOL    HW235094   3.306   1.829  17.456 -1.3747  0.4950 -0.0945
 7879SOL     OW35095   2.204   4.597   2.214 -0.1157 -0.1013 -0.5412
 7879SOL    HW135096   2.115   4.596   2.179 -0.1751  0.5407 -0.4133
 7879SOL    HW235097   2.241   4.517   2.176 -0.5871  0.3226 -1.8995
 7880SOL     OW35098   2.616   2.694   5.695  0.0987 -0.1769 -0.7565
 7880SOL    HW135099   2.654   2.726   5.613 -0.3290 -2.3266 -1.7821
 7880SOL    HW235100   2.689   2.664   5.750  0.7179  0.2899 -1.3196
 7881SOL     OW35101   0.574   3.752  11.210  0.0467 -0.0176 -0.0753
 7881SOL    HW135102   0.659   3.789  11.232  0.4518 -0.9193 -0.1080
 7881SOL    HW235103   0.591   3.716  11.123  0.4633 -1.4538  0.6043
 7882SOL     OW35104   4.409   1.201  11.167 -0.2664 -0.0596 -0.6292
 7882SOL    HW135105   4.382   1.138  11.234  1.4347 -0.0087  0.1005
 7882SOL    HW235106   4.321   1.224  11.136 -0.2285  1.6323  0.5239
 7883SOL     OW35107   2.381   3.838   7.733  0.1739 -0.2422  0.0079
 7883SOL    HW135108   2.396   3.819   7.826  0.8495 -0.6830 -0.1957
 7883SOL    HW235109   2.330   3.761   7.709 -1.5771  0.9504 -0.1512
 7884SOL     OW35110   2.761   3.016   5.934 -0.0392  0.5689  0.2679
 7884SOL    HW135111   2.719   3.065   5.863  1.9772  1.3615 -0.3797
 7884SOL    HW235112   2.698   2.948   5.960 -1.0066  1.4628  0.2841
 7885SOL     OW35113   2.629   2.490   8.067 -0.3407  0.1530 -0.5501
 7885SOL    HW135114   2.553   2.547   8.053 -0.2357  0.5936  0.7118
 7885SOL    HW235115   2.656   2.476   7.976  1.1647 -0.4601 -0.0017
 7886SOL     OW35116   0.294   1.916   9.192 -0.2493 -0.3025  0.3684
 7886SOL    HW135117   0.249   1.981   9.246  0.6739 -1.0077  1.9494
 7886SOL    HW235118   0.267   1.956   9.109 -0.6615 -0.8536  0.2420
 7887SOL     OW35119   2.068   0.564  13.363  0.3803  0.1417 -0.3078
 7887SOL    HW135120   2.115   0.572  13.280  1.1421 -2.8370 -0.2024
 7887SOL    HW235121   2.055   0.469  13.368 -0.7967  0.3584  0.4767
 7888SOL     OW35122   0.992   3.082   7.373  0.0861 -0.0092  0.0410
 7888SOL    HW135123   0.918   3.100   7.315  1.3607 -0.4714 -1.7291
 7888SOL    HW235124   0.990   3.161   7.428 -0.8094  1.4011 -2.0358
 7889SOL     OW35125   4.052   1.807  15.340 -0.5015  0.8642 -0.3481
 7889SOL    HW135126   4.113   1.876  15.364  1.0913 -0.2469 -1.2111
 7889SOL    HW235127   3.983   1.857  15.295 -0.6652 -0.7510 -1.8732
 7890SOL     OW35128   0.313   0.651   2.934 -0.2606  0.6560  0.5146
 7890SOL    HW135129   0.311   0.747   2.932  0.7474  0.6400 -0.8006
 7890SOL    HW235130   0.395   0.624   2.894 -0.5783  1.3781 -0.6166
 7891SOL     OW35131   1.427   2.302   2.762 -0.0470 -0.5527  0.6435
 7891SOL    HW135132   1.446   2.389   2.798  0.6415  0.0976 -1.2840
 7891SOL    HW235133   1.507   2.265   2.725 -1.5670 -3.0875 -0.0547
 7892SOL     OW35134   3.232   0.222  16.079  0.1090  0.4560 -0.7135
 7892SOL    HW135135   3.304   0.276  16.045  0.5357  1.1885  1.3237
 7892SOL    HW235136   3.206   0.280  16.151  0.8401  1.8107 -1.5348
 7893SOL     OW35137   3.463   3.616   1.395 -0.3590  0.3384 -0.2305
 7893SOL    HW135138   3.452   3.523   1.418  0.1593  0.6804  1.4207
 7893SOL    HW235139   3.375   3.649   1.381  0.4011  2.7818  0.7919
 7894SOL     OW35140   3.160   1.565   5.629 -0.0153  0.3191  0.2453
 7894SOL    HW135141   3.183   1.641   5.683  1.0975 -0.3047  0.6527
 7894SOL    HW235142   3.219   1.497   5.662 -0.7655 -0.4694 -0.0268
 7895SOL     OW35143   2.043   1.673   2.008  0.5094 -0.4438  0.1065
 7895SOL    HW135144   2.137   1.669   1.994  0.4591  0.7647 -0.5780
 7895SOL    HW235145   2.007   1.670   1.919  3.1264 -0.0354 -0.9541
 7896SOL     OW35146   1.893   1.579   3.353 -0.4253  0.3701 -0.0419
 7896SOL    HW135147   1.916   1.670   3.373 -0.5579  0.4819 -0.3896
 7896SOL    HW235148   1.913   1.569   3.260 -0.6748 -0.1700 -0.0374
 7897SOL     OW35149   2.652   3.537   4.695 -0.0770 -0.3305 -0.6638
 7897SOL    HW135150   2.714   3.577   4.634 -1.7080  2.1406 -0.6939
 7897SOL    HW235151   2.636   3.459   4.642  0.6406 -1.0025  0.1048
 7898SOL     OW35152   2.626   0.622   9.509  0.0395  0.1558  0.2032
 7898SOL    HW135153   2.703   0.642   9.455  0.7802  0.6238  1.4551
 7898SOL    HW235154   2.665   0.585   9.588  1.5457 -2.4387 -1.7564
 7899SOL     OW35155   4.229   0.505  14.263  0.0436  1.0425 -0.0162
 7899SOL    HW135156   4.225   0.439  14.332  0.9773 -0.0464 -1.0176
 7899SOL    HW235157   4.135   0.519  14.252  0.0105  0.2980 -0.6091
 7900SOL     OW35158   0.325   2.013   1.934 -0.0293 -1.0063  0.1349
 7900SOL    HW135159   0.397   2.019   1.996  0.8085  1.3690 -1.0606
 7900SOL    HW235160   0.260   2.064   1.982  1.5465  1.0781  0.0703
 7901SOL     OW35161   1.071   1.480   8.167 -0.1810  0.2493  0.0683
 7901SOL    HW135162   1.098   1.440   8.084  0.6169  1.2840 -0.1579
 7901SOL    HW235163   1.008   1.410   8.188  0.0282 -0.3429 -1.2380
 7902SOL     OW35164   2.491   1.702   6.711  0.5594 -0.0436 -0.1624
 7902SOL    HW135165   2.576   1.675   6.747  0.5269 -0.1048 -0.1315
 7902SOL    HW235166   2.507   1.796   6.698 -2.8599  0.3464 -1.4323
 7903SOL     OW35167   0.334   3.488   1.709  0.0416 -0.2035 -0.4971
 7903SOL    HW135168   0.360   3.434   1.634  1.1415 -1.7254  0.9584
 7903SOL    HW235169   0.421   3.525   1.722 -0.0066 -1.1868  2.7625
 7904SOL     OW35170   4.532   1.501   2.964  0.0345 -0.5707 -0.1226
 7904SOL    HW135171   4.556   1.437   3.031 -0.1923 -0.2807  0.2334
 7904SOL    HW235172   4.566   1.451   2.890  0.5726 -0.4188  0.0224
 7905SOL     OW35173   0.673   0.903   9.802 -0.6765  0.1559  0.5382
 7905SOL    HW135174   0.711   0.948   9.878 -1.5722  0.7731  0.6255
 7905SOL    HW235175   0.682   0.974   9.738 -1.6576 -2.0897 -2.0762
 7906SOL     OW35176   1.151   3.567  15.957 -0.0832 -0.3075 -0.6751
 7906SOL    HW135177   1.213   3.508  16.001 -2.5732 -1.5040  1.2422
 7906SOL    HW235178   1.180   3.566  15.866  1.5567 -1.0869 -0.1509
 7907SOL     OW35179   1.064   0.645   9.061  0.3364  0.4464  0.3770
 7907SOL    HW135180   1.113   0.721   9.030 -1.3894  1.4649  0.1714
 7907SOL    HW235181   1.048   0.663   9.153 -0.6683 -0.5836  0.4040
 7908SOL     OW35182   3.179   0.448  11.366  0.2040  0.0548  0.1707
 7908SOL    HW135183   3.200   0.367  11.413  1.8317  2.0021  2.7506
 7908SOL    HW235184   3.091   0.454  11.402 -0.2065  1.6305 -1.0579
 7909SOL     OW35185   2.088   0.877   4.776 -0.0959  0.2485 -0.1303
 7909SOL    HW135186   2.116   0.911   4.691 -1.5710  0.1594 -0.6510
 7909SOL    HW235187   2.091   0.961   4.823 -1.4439  0.5607 -0.6262
 7910SOL     OW35188   2.349   0.983   7.970 -0.2911  0.5338 -0.3154
 7910SOL    HW135189   2.287   1.054   7.983  0.8021  1.2391  1.1000
 7910SOL    HW235190   2.423   1.018   8.020  0.4647 -2.9911  1.0365
 7911SOL     OW35191   3.990   2.107  10.104 -0.3750 -0.2439  0.2397
 7911SOL    HW135192   4.075   2.146  10.126 -0.2911  0.4240 -1.3323
 7911SOL    HW235193   3.934   2.170  10.059  0.7412  0.6408  0.0885
 7912SOL     OW35194   4.357   2.247   8.886  0.5389 -0.1690 -0.2005
 7912SOL    HW135195   4.355   2.153   8.866  0.7871  0.1299 -1.6190
 7912SOL    HW235196   4.264   2.250   8.905  0.6871  0.1845  0.4842
 7913SOL     OW35197   1.452   2.085   5.095  0.5200 -0.0899 -0.2306
 7913SOL    HW135198   1.440   2.098   5.001  0.7046 -1.5980 -0.4656
 7913SOL    HW235199   1.363   2.057   5.117  0.3828  0.6967  0.2087
 7914SOL     OW35200   4.283   1.665   4.653 -0.1721  0.5658  0.2149
 7914SOL    HW135201   4.254   1.749   4.616 -1.9643 -1.2967 -2.6710
 7914SOL    HW235202   4.198   1.626   4.672  0.2085 -0.3113  0.1233
 7915SOL     OW35203   1.612   1.353   2.917  0.2599 -0.1441 -0.6897
 7915SOL    HW135204   1.578   1.269   2.888  0.1090  1.1744 -4.4118
 7915SOL    HW235205   1.699   1.327   2.947 -0.0233 -0.4467 -0.1464
 7916SOL     OW35206   2.128   3.800  15.805 -0.1103  0.5014 -0.1620
 7916SOL    HW135207   2.219   3.774  15.788 -0.2581 -0.7464  0.9869
 7916SOL    HW235208   2.100   3.810  15.714 -0.8389 -1.4415 -0.1477
 7917SOL     OW35209   1.613   3.178  15.002  0.2137  0.4189  0.2668
 7917SOL    HW135210   1.618   3.082  15.005  0.3616  0.4695  1.3834
 7917SOL    HW235211   1.575   3.205  15.085  2.0546 -3.2126  2.2936
 7918SOL     OW35212   0.011   3.321   3.564  0.5172  0.1486 -0.1048
 7918SOL    HW135213   4.690   3.235   3.566  1.5866 -0.3184  2.6952
 7918SOL    HW235214   0.078   3.310   3.497  1.6451 -0.2475  1.0794
 7919SOL     OW35215   0.019   1.245  15.958 -0.0636 -0.4200  0.3669
 7919SOL    HW135216   0.001   1.322  16.011  1.8616 -0.1834  0.6984
 7919SOL    HW235217   0.114   1.258  15.947 -0.7063  3.8700 -0.2020
 7920SOL     OW35218   2.936   3.586   6.529  0.1467 -0.0435 -0.6970
 7920SOL    HW135219   2.847   3.619   6.542  0.6122  1.8505 -2.2530
 7920SOL    HW235220   2.944   3.608   6.436  1.3882 -1.3872 -0.9031
 7921SOL     OW35221   3.586   3.859   6.777  0.1512 -0.2361  0.3676
 7921SOL    HW135222   3.607   3.864   6.684 -1.2184 -1.0197  0.0083
 7921SOL    HW235223   3.490   3.859   6.774  0.2089  0.8452 -1.0336
 7922SOL     OW35224   1.807   3.820   0.800 -0.1182  0.2033 -0.1840
 7922SOL    HW135225   1.818   3.764   0.723 -0.3767 -2.4567  1.6931
 7922SOL    HW235226   1.890   3.817   0.846 -0.9760 -2.0832  1.2273
 7923SOL     OW35227   0.149   3.819   7.575  0.1515 -0.6732  0.2711
 7923SOL    HW135228   0.195   3.875   7.512  0.2821 -0.9875  0.0842
 7923SOL    HW235229   0.174   3.868   7.653  1.4584  0.9297 -1.1623
 7924SOL     OW35230   0.219   2.588   3.106  0.4832  0.1422  0.1079
 7924SOL    HW135231   0.142   2.539   3.136  0.7723 -0.1156  0.4317
 7924SOL    HW235232   0.284   2.527   3.141 -0.2660 -0.3562  0.6256
 7925SOL     OW35233   3.382   1.605   6.604 -0.7269  0.4307  0.0000
 7925SOL    HW135234   3.358   1.587   6.695  0.3619  2.1367  0.6164
 7925SOL    HW235235   3.300   1.581   6.561 -0.8056 -0.6563  0.7588
 7926SOL     OW35236   2.082   3.717  15.150 -0.2449 -0.4168 -0.2965
 7926SOL    HW135237   2.127   3.789  15.195 -1.3224 -0.4824  0.8809
 7926SOL    HW235238   2.049   3.666  15.224  0.7649 -2.7642 -1.4512
 7927SOL     OW35239   1.519   4.676  12.429  0.1314  0.1946 -0.0058
 7927SOL    HW135240   1.457   0.028  12.440  0.9212  0.9040 -0.2026
 7927SOL    HW235241   1.547   4.668  12.521  1.0509  1.4796 -0.1673
 7928SOL     OW35242   1.367   1.789   0.611  0.3637 -0.5881  0.4441
 7928SOL    HW135243   1.386   1.701   0.645 -0.2492 -1.5740 -1.7548
 7928SOL    HW235244   1.419   1.839   0.674  1.1362  0.1021 -0.7274
 7929SOL     OW35245   1.965   0.718  10.020  0.5288 -0.7336  0.3858
 7929SOL    HW135246   2.011   0.801  10.011 -1.0012  0.1793  1.0503
 7929SOL    HW235247   1.954   0.699   9.926 -0.2366  0.9645  0.1300
 7930SOL     OW35248   4.025   2.772   1.790 -0.0797 -0.0643  0.1228
 7930SOL    HW135249   4.008   2.758   1.696  1.1578 -1.2177  0.0722
 7930SOL    HW235250   4.087   2.844   1.789 -1.3071  1.0143  1.7084
 7931SOL     OW35251   0.540   3.601   4.223  0.3923  0.3360  0.4508
 7931SOL    HW135252   0.543   3.516   4.266  0.1986  0.4133  0.6200
 7931SOL    HW235253   0.476   3.651   4.274 -0.5277 -1.5496  1.1095
 7932SOL     OW35254   4.136   2.120   6.610  0.1074  0.2414 -0.2311
 7932SOL    HW135255   4.117   2.026   6.617  0.5770  0.2295  0.9153
 7932SOL    HW235256   4.184   2.131   6.528 -0.1000 -2.2544 -0.7067
 7933SOL     OW35257   4.457   0.938   3.011  0.0257  0.4537 -0.5869
 7933SOL    HW135258   4.545   0.970   2.989  0.7551  0.5817  2.5596
 7933SOL    HW235259   4.422   0.932   2.921  0.2304  2.2159 -0.7935
 7934SOL     OW35260   4.376   0.820   3.266 -0.1256 -0.3708 -0.2419
 7934SOL    HW135261   4.431   0.838   3.190 -1.2759  0.2056 -0.9298
 7934SOL    HW235262   4.329   0.745   3.230  1.3376 -1.0761 -0.6890
 7935SOL     OW35263   2.988   1.685   3.008  0.3643  0.0179  0.1873
 7935SOL    HW135264   2.927   1.751   3.041 -0.0941 -0.7557  0.9213
 7935SOL    HW235265   2.931   1.613   2.980  0.2718 -0.7150  2.2539
 7936SOL     OW35266   0.412   3.903   5.547 -0.1393  0.0722 -0.0451
 7936SOL    HW135267   0.462   3.975   5.586  1.1207 -1.3317  0.9457
 7936SOL    HW235268   0.453   3.830   5.593  0.1296  0.6505  0.6285
 7937SOL     OW35269   4.587   4.080  12.178 -0.7200 -0.0123  0.2250
 7937SOL    HW135270   4.665   4.054  12.128 -0.6079 -1.6822  1.2849
 7937SOL    HW235271   4.575   4.007  12.238 -1.3364  0.6349  0.8873
 7938SOL     OW35272   4.510   2.651  16.986 -0.2323 -0.3404  0.3037
 7938SOL    HW135273   4.436   2.637  16.927 -0.1851 -0.4739  0.2767
 7938SOL    HW235274   4.570   2.684  16.919 -0.3354 -1.7199 -0.4571
 7939SOL     OW35275   0.312   3.310   2.216  0.0159 -0.2620  0.0273
 7939SOL    HW135276   0.254   3.318   2.141  0.8106  1.6122 -0.3765
 7939SOL    HW235277   0.391   3.278   2.172  0.0198  1.4049 -1.1686
 7940SOL     OW35278   0.667   0.238  14.184 -0.0270  0.1586 -0.1553
 7940SOL    HW135279   0.626   0.223  14.099  0.7655 -0.7030 -0.3846
 7940SOL    HW235280   0.597   0.273  14.239 -0.9951 -0.2388 -1.1347
 7941SOL     OW35281   1.548   3.002  13.823  0.2328 -0.3576 -0.3828
 7941SOL    HW135282   1.578   3.033  13.908  0.2522 -0.9508 -0.1745
 7941SOL    HW235283   1.526   3.080  13.771  1.2066  0.1714 -0.0124
 7942SOL     OW35284   0.194   4.486  11.141 -0.2991 -0.2262 -0.3401
 7942SOL    HW135285   0.142   4.474  11.220 -1.3064  4.1645 -0.3337
 7942SOL    HW235286   0.280   4.493  11.183  0.3731 -2.6874 -1.2674
 7943SOL     OW35287   1.504   0.916   8.072  0.6453 -0.2873  0.3514
 7943SOL    HW135288   1.553   0.933   7.992 -0.5973 -1.0565 -0.5788
 7943SOL    HW235289   1.472   1.003   8.097  1.1731  0.0442 -0.1290
 7944SOL     OW35290   0.207   4.052  16.916 -0.1158 -0.3880  0.3522
 7944SOL    HW135291   0.242   4.091  16.836 -3.6859  1.0151 -0.5197
 7944SOL    HW235292   0.213   3.959  16.894 -1.8427 -0.0668 -1.4180
 7945SOL     OW35293   1.138   4.154   5.561 -0.3947 -0.0679  0.1919
 7945SOL    HW135294   1.169   4.245   5.560 -1.1171  0.1773 -0.5017
 7945SOL    HW235295   1.102   4.145   5.472 -2.4389  3.9517  0.5914
 7946SOL     OW35296   1.842   4.365   3.689 -0.0225  0.1523  0.4470
 7946SOL    HW135297   1.852   4.353   3.595  1.0580  0.0869  0.5742
 7946SOL    HW235298   1.840   4.274   3.719 -2.4481  0.2087  0.5201
 7947SOL     OW35299   3.599   1.666   0.953 -0.2536 -0.1539 -0.2501
 7947SOL    HW135300   3.653   1.659   0.875 -0.3783  0.1374 -0.3608
 7947SOL    HW235301   3.661   1.712   1.009 -0.6651  0.3357 -0.1976
 7948SOL     OW35302   3.257   0.674   6.844  0.0325 -0.2194  0.0969
 7948SOL    HW135303   3.286   0.637   6.761 -1.2264  0.8859 -0.8513
 7948SOL    HW235304   3.193   0.611   6.878  0.4049  0.4640  2.0425
 7949SOL     OW35305   0.231   4.462  16.876 -0.3699  0.6846 -0.1628
 7949SOL    HW135306   0.291   4.454  16.802 -2.3451  1.5177 -1.8705
 7949SOL    HW235307   0.158   4.414  16.836  0.9749 -2.2776  0.9730
 7950SOL     OW35308   4.612   2.411   1.911  0.2589 -0.1370 -0.8017
 7950SOL    HW135309   4.610   2.364   1.828  3.2117  0.4027 -1.2028
 7950SOL    HW235310   4.524   2.447   1.913  0.7703  1.0682  0.1855
 7951SOL     OW35311   3.450   3.222   8.401  0.0873  0.0039 -0.0466
 7951SOL    HW135312   3.427   3.278   8.475 -1.1369 -1.3360  0.5924
 7951SOL    HW235313   3.386   3.152   8.412  1.3974 -1.2776 -0.5645
 7952SOL     OW35314   1.648   0.773   5.793  0.3849 -0.2501  0.2965
 7952SOL    HW135315   1.705   0.850   5.788 -1.5608  1.1658 -0.1184
 7952SOL    HW235316   1.565   0.814   5.770  0.4109 -1.1141 -1.3318
 7953SOL     OW35317   3.445   1.864  17.115  0.3577  0.2192  0.1636
 7953SOL    HW135318   3.427   1.863  17.209  0.3819 -1.9960  0.1466
 7953SOL    HW235319   3.385   1.931  17.082 -1.6483 -2.3985 -1.4382
 7954SOL     OW35320   0.744   0.952   2.752  0.0608  0.2066 -0.0353
 7954SOL    HW135321   0.752   0.857   2.761 -2.3288  0.1290  1.4640
 7954SOL    HW235322   0.690   0.976   2.828 -0.4031  1.9444 -0.9097
 7955SOL     OW35323   4.668   3.711   0.765  0.0394 -0.0665  0.2469
 7955SOL    HW135324   4.577   3.719   0.737 -0.0941 -1.0883  0.3847
 7955SOL    HW235325   4.700   3.788   0.719  1.6846 -0.2185  1.1192
 7956SOL     OW35326   1.172   2.190   5.844 -0.2003  0.0753  0.1144
 7956SOL    HW135327   1.265   2.172   5.829 -0.0578 -0.3308  1.4766
 7956SOL    HW235328   1.161   2.190   5.939  0.9564  2.8050  0.2462
 7957SOL     OW35329   0.289   1.235  12.283  0.1307  0.0751 -0.1570
 7957SOL    HW135330   0.372   1.268  12.248  0.4626  0.8033  1.3269
 7957SOL    HW235331   0.315   1.210  12.372  1.2775 -2.4475 -1.1936
 7958SOL     OW35332   4.488   3.012   4.238 -0.9798 -0.2706  0.0672
 7958SOL    HW135333   4.497   3.101   4.203 -0.9763 -0.6875 -0.9762
 7958SOL    HW235334   4.472   3.035   4.330 -1.6986  0.1089 -0.1506
 7959SOL     OW35335   2.672   2.582   2.799  0.1736 -0.5994 -0.1622
 7959SOL    HW135336   2.621   2.564   2.878 -0.0847 -0.7783 -0.3700
 7959SOL    HW235337   2.617   2.528   2.744  1.7586 -1.1978 -1.1305
 7960SOL     OW35338   2.589   1.749   9.330 -0.2389  0.2298 -0.0609
 7960SOL    HW135339   2.583   1.654   9.338 -1.5357  0.3349  0.2987
 7960SOL    HW235340   2.520   1.778   9.270 -0.1218  1.9222  0.6331
 7961SOL     OW35341   3.463   2.673   9.653 -0.0553 -0.3177 -0.0687
 7961SOL    HW135342   3.503   2.598   9.699 -0.0356 -0.6279 -0.5949
 7961SOL    HW235343   3.499   2.747   9.703 -1.2622  1.3314 -1.6390
 7962SOL     OW35344   0.762   3.032  17.476 -0.0992 -0.1402  0.9223
 7962SOL    HW135345   0.782   2.964  17.411 -2.5430  1.4252 -1.4681
 7962SOL    HW235346   0.667   3.042  17.471  0.0254 -0.4889 -2.2106
 7963SOL     OW35347   2.493   0.300   9.697  0.2782  0.0179 -0.2801
 7963SOL    HW135348   2.441   0.298   9.777  2.6880 -1.2829  1.2481
 7963SOL    HW235349   2.566   0.247   9.728  0.6721 -0.1166 -1.4476
 7964SOL     OW35350   4.406   0.694   4.486 -0.4941 -0.0232  0.0965
 7964SOL    HW135351   4.321   0.652   4.498  0.1300 -1.8630 -1.9665
 7964SOL    HW235352   4.378   0.781   4.459  1.5081  0.3733 -0.6718
 7965SOL     OW35353   0.859   1.814   5.876  0.2619 -0.0874  0.6803
 7965SOL    HW135354   0.884   1.883   5.938  1.6949 -0.7416  0.8315
 7965SOL    HW235355   0.763   1.813   5.875  0.2723  1.8527 -1.7209
 7966SOL     OW35356   4.498   2.167   8.571  0.2496  0.1023 -0.6040
 7966SOL    HW135357   4.586   2.200   8.590  0.2183 -0.8890  1.3408
 7966SOL    HW235358   4.481   2.101   8.639 -0.6014  0.3600 -0.5734
 7967SOL     OW35359   2.734   2.368   5.627 -0.5010  0.1683  0.1323
 7967SOL    HW135360   2.662   2.320   5.586 -0.2944 -0.2072  0.2093
 7967SOL    HW235361   2.796   2.297   5.646 -1.3979 -0.3898  1.0202
 7968SOL     OW35362   1.928   0.220  14.399  0.2192  0.5111 -0.0271
 7968SOL    HW135363   2.002   0.221  14.460  0.7013  1.6350 -0.6229
 7968SOL    HW235364   1.860   0.235  14.464  0.1559 -2.8503  0.6979
 7969SOL     OW35365   4.222   3.470  12.350 -0.0081 -1.1830 -0.6302
 7969SOL    HW135366   4.304   3.519  12.340  0.2021 -1.6935 -1.3688
 7969SOL    HW235367   4.168   3.538  12.391 -0.3877 -1.4223 -0.7392
 7970SOL     OW35368   3.778   2.970   8.832  0.2562 -0.6626 -0.0005
 7970SOL    HW135369   3.850   3.021   8.870 -0.7718  0.4939  0.3920
 7970SOL    HW235370   3.728   2.945   8.910 -0.5252  1.5049  0.1835
 7971SOL     OW35371   3.792   2.168   7.843 -0.0395 -0.2895  0.1367
 7971SOL    HW135372   3.746   2.166   7.759 -2.4919 -0.4436  1.5083
 7971SOL    HW235373   3.744   2.232   7.896  0.9761  0.8256 -0.2812
 7972SOL     OW35374   4.340   1.211   4.623 -0.3408 -0.0182  1.2130
 7972SOL    HW135375   4.423   1.258   4.632  0.2465 -0.6742 -0.9661
 7972SOL    HW235376   4.273   1.278   4.612  0.5493  0.7814  0.6780
 7973SOL     OW35377   3.176   2.302  12.478  0.3447  0.5716  0.2390
 7973SOL    HW135378   3.104   2.289  12.539  1.5779  1.6247  1.9040
 7973SOL    HW235379   3.231   2.368  12.520  1.8295  0.4661 -1.5275
 7974SOL     OW35380   3.286   1.672  14.688 -0.1579  0.1208  0.7312
 7974SOL    HW135381   3.323   1.633  14.609 -3.0401  0.1968 -0.6632
 7974SOL    HW235382   3.222   1.606  14.715  2.5044 -1.9751  1.8481
 7975SOL     OW35383   0.035   1.401   5.398  0.2880  0.6386  0.6336
 7975SOL    HW135384   0.068   1.322   5.440  1.4970  2.2927  2.7775
 7975SOL    HW235385   0.112   1.444   5.362  0.7227 -0.6941  0.0025
 7976SOL     OW35386   2.811   4.497   4.324 -0.5330 -0.0543  0.4532
 7976SOL    HW135387   2.833   4.423   4.381 -1.3300 -1.2626 -0.7883
 7976SOL    HW235388   2.886   4.550   4.352  0.5758 -0.4790 -1.7345
 7977SOL     OW35389   2.843   2.558  10.865  0.0466  0.4892 -0.0098
 7977SOL    HW135390   2.939   2.553  10.872 -0.0889 -2.7925 -0.5179
 7977SOL    HW235391   2.822   2.647  10.891  1.1123  0.8315 -0.2854
 7978SOL     OW35392   3.728   3.132   6.682  0.2710  0.2856 -0.2615
 7978SOL    HW135393   3.726   3.068   6.753  1.5717 -0.6394 -1.0556
 7978SOL    HW235394   3.660   3.194   6.706 -0.3990  0.1796 -1.8892
 7979SOL     OW35395   3.228   2.173   6.218  0.0840 -0.4307 -0.4140
 7979SOL    HW135396   3.147   2.219   6.197 -0.6012 -1.1353  0.7427
 7979SOL    HW235397   3.222   2.202   6.308 -0.6194  0.0531 -0.6168
 7980SOL     OW35398   2.859   2.086  10.516 -0.4536 -0.1027  0.4938
 7980SOL    HW135399   2.794   2.024  10.547 -0.1698 -0.2710  0.7485
 7980SOL    HW235400   2.861   2.067  10.422  1.7790 -0.5572  0.6247
 7981SOL     OW35401   0.347   0.985  17.195  0.6820  0.7956 -0.4962
 7981SOL    HW135402   0.368   0.915  17.257 -1.8239  0.3178 -0.2224
 7981SOL    HW235403   0.428   1.004  17.147  0.9982  0.6251 -0.0354
 7982SOL     OW35404   4.048   2.472   7.258 -0.4203  0.5071 -0.0905
 7982SOL    HW135405   4.012   2.402   7.313  1.4334  1.0190  1.7460
 7982SOL    HW235406   4.056   2.431   7.171 -1.5575  1.6239 -0.7261
 7983SOL     OW35407   1.140   2.936   8.067  0.0889 -0.1971  0.0355
 7983SOL    HW135408   1.054   2.896   8.076  0.7458 -1.3199  1.3283
 7983SOL    HW235409   1.192   2.863   8.032  1.2806  1.1945 -1.0974
 7984SOL     OW35410   0.393   3.588   6.579 -0.3128 -0.1970  0.6480
 7984SOL    HW135411   0.407   3.681   6.596  0.4326 -0.0774 -0.6261
 7984SOL    HW235412   0.401   3.553   6.667  2.5430  1.8906  1.2253
 7985SOL     OW35413   4.221   0.985   9.836  0.1959  0.4578 -0.1592
 7985SOL    HW135414   4.150   1.003   9.898 -0.2973 -2.3712  0.1352
 7985SOL    HW235415   4.185   1.024   9.757  1.4349  1.2037 -0.3547
 7986SOL     OW35416   1.972   4.260  13.438 -0.1844  0.0243 -0.7791
 7986SOL    HW135417   2.016   4.307  13.508 -1.2831  0.8459 -0.6492
 7986SOL    HW235418   2.035   4.189  13.419  0.0467 -0.4750  1.8985
 7987SOL     OW35419   4.048   2.802   5.416 -0.2670 -0.0341 -0.2712
 7987SOL    HW135420   4.107   2.835   5.349  0.9635 -0.7146  0.4752
 7987SOL    HW235421   3.968   2.781   5.369  0.3256  1.8347 -2.0982
 7988SOL     OW35422   2.689   2.840   2.695 -0.0307 -0.0907  0.3498
 7988SOL    HW135423   2.610   2.888   2.720  0.2300 -0.3908  1.7234
 7988SOL    HW235424   2.670   2.753   2.729 -0.0124  0.1841  1.0665
 7989SOL     OW35425   4.415   0.851  10.593 -0.5144 -0.3088  0.1037
 7989SOL    HW135426   4.422   0.833  10.499  0.5821 -1.7260  0.4607
 7989SOL    HW235427   4.418   0.764  10.633  1.9898 -0.8855 -1.3490
 7990SOL     OW35428   0.969   4.026  10.423 -0.5135  0.0976 -0.4556
 7990SOL    HW135429   0.892   4.082  10.431 -0.6619 -0.0105 -1.1293
 7990SOL    HW235430   1.033   4.086  10.387 -0.6698 -0.0089 -0.9068
 7991SOL     OW35431   0.814   2.868  11.133 -0.4390 -0.2248  0.1360
 7991SOL    HW135432   0.816   2.784  11.087  2.5417 -0.0500 -0.0306
 7991SOL    HW235433   0.818   2.935  11.065  0.3835  0.8269  1.2455
 7992SOL     OW35434   2.859   2.495   4.061  0.1203  0.2692 -0.0677
 7992SOL    HW135435   2.870   2.465   4.151 -2.6509  1.7956  0.8010
 7992SOL    HW235436   2.771   2.459   4.047  0.4234 -1.1645  1.7602
 7993SOL     OW35437   4.714   0.582   6.676  0.5445 -0.4519 -0.2497
 7993SOL    HW135438   0.045   0.504   6.697  0.8689 -0.3557 -0.6997
 7993SOL    HW235439   0.032   0.620   6.598 -0.2596 -0.2178 -0.5288
 7994SOL     OW35440   0.007   2.885   9.351  0.6738  0.4482  0.4002
 7994SOL    HW135441   0.007   2.927   9.437 -1.4969  1.3965 -0.0607
 7994SOL    HW235442   0.006   2.791   9.373  0.2247  0.3136 -0.2096
 7995SOL     OW35443   1.772   0.818   7.059 -1.0639  0.0052  0.6283
 7995SOL    HW135444   1.843   0.829   6.995 -1.2794  0.2222  0.4204
 7995SOL    HW235445   1.813   0.840   7.143 -0.9197 -1.1752  0.8637
 7996SOL     OW35446   2.253   4.692   5.919  0.3563 -0.0206  0.0591
 7996SOL    HW135447   2.159   4.707   5.921  0.4090  0.5436 -2.5565
 7996SOL    HW235448   2.299   0.052   5.944 -0.5340  0.4438  0.1800
 7997SOL     OW35449   2.625   1.891   3.668  0.2230  0.2451  0.2608
 7997SOL    HW135450   2.700   1.849   3.711 -0.3263  1.1813  2.1388
 7997SOL    HW235451   2.666   1.959   3.615  1.0316 -1.3126 -1.1545
 7998SOL     OW35452   2.783   1.763   6.834  0.7383 -0.2976 -0.3187
 7998SOL    HW135453   2.872   1.788   6.811  1.0748 -1.5307 -0.3239
 7998SOL    HW235454   2.742   1.849   6.845  1.1266  0.1588 -2.5313
 7999SOL     OW35455   1.383   1.001   0.985 -0.3754  0.0334 -0.2011
 7999SOL    HW135456   1.385   1.082   1.037  1.5859  0.4483 -0.9518
 7999SOL    HW235457   1.296   0.972   1.012 -0.0270 -2.0283 -1.3645
 8000SOL     OW35458   2.899   3.064  11.678 -0.0455 -0.0525  0.1946
 8000SOL    HW135459   2.933   2.983  11.641 -0.0946 -0.3499  0.8019
 8000SOL    HW235460   2.869   3.035  11.764  0.9794  0.1016  0.6142
 8001SOL     OW35461   3.720   4.304   0.527 -0.0411 -0.6976  0.1233
 8001SOL    HW135462   3.780   4.376   0.543  1.1072 -1.8389  0.9134
 8001SOL    HW235463   3.638   4.343   0.561  1.0760  1.5692  0.2320
 8002SOL     OW35464   3.110   2.686  11.811 -0.5409  0.2831  0.8296
 8002SOL    HW135465   3.096   2.756  11.748  0.3072 -0.8670 -0.6576
 8002SOL    HW235466   3.120   2.729  11.895 -1.7829 -1.2847  1.7721
 8003SOL     OW35467   2.095   4.380  15.728 -0.3115 -0.1784 -0.3992
 8003SOL    HW135468   2.098   4.355  15.821  2.1509 -0.8566 -0.6621
 8003SOL    HW235469   2.099   4.294  15.686  0.0079 -0.5438  0.3667
 8004SOL     OW35470   3.805   4.381   9.316  0.0072 -0.2923  0.0200
 8004SOL    HW135471   3.866   4.342   9.254  0.4369  0.6112 -0.1146
 8004SOL    HW235472   3.862   4.451   9.347 -1.4801 -0.1798  2.4795
 8005SOL     OW35473   0.756   1.482  10.110  0.4678  0.7317  0.2395
 8005SOL    HW135474   0.777   1.430  10.032 -0.8506 -0.8165  0.9257
 8005SOL    HW235475   0.731   1.424  10.182  2.7527  1.6886  1.7824
 8006SOL     OW35476   0.146   0.542  10.323  0.8418 -0.8067  0.1382
 8006SOL    HW135477   0.233   0.549  10.363  1.6936 -1.5620 -1.5790
 8006SOL    HW235478   0.152   0.465  10.266 -0.9445  0.7172 -2.0750
 8007SOL     OW35479   1.542   0.283   0.905 -0.3347  0.0113  0.8517
 8007SOL    HW135480   1.625   0.253   0.942 -0.4875 -0.2106  1.0161
 8007SOL    HW235481   1.511   0.358   0.955 -1.3364 -0.1240  0.4320
 8008SOL     OW35482   0.928   2.566   6.156 -0.1147 -0.1610 -0.3345
 8008SOL    HW135483   1.006   2.518   6.127 -0.4528  0.3869 -2.1256
 8008SOL    HW235484   0.871   2.576   6.080 -0.6398 -0.4135  0.0248
 8009SOL     OW35485   2.595   0.497   6.366 -0.7281 -0.1772  0.6298
 8009SOL    HW135486   2.619   0.577   6.412 -0.9348  0.2183  0.0481
 8009SOL    HW235487   2.681   0.458   6.351 -1.3008 -0.4471 -1.9648
 8010SOL     OW35488   2.051   0.919   2.048 -0.3958  0.1627 -0.4587
 8010SOL    HW135489   1.975   0.977   2.054 -0.6398 -0.2158  0.0592
 8010SOL    HW235490   2.031   0.843   2.103  1.4878  0.8706  1.1751
 8011SOL     OW35491   0.470   3.357   3.186  0.1090 -0.6709  0.0602
 8011SOL    HW135492   0.466   3.291   3.255  2.4096 -0.7513  0.1340
 8011SOL    HW235493   0.382   3.393   3.182  0.9953  1.4319 -0.6225
 8012SOL     OW35494   1.433   2.452   8.484 -0.1721  0.3723 -0.3579
 8012SOL    HW135495   1.378   2.375   8.493  2.6528 -1.4263  1.4275
 8012SOL    HW235496   1.391   2.482   8.403  0.0297 -1.7632 -1.2312
 8013SOL     OW35497   0.172   1.418  16.241  0.9442  0.3333  0.1888
 8013SOL    HW135498   0.117   1.465  16.303  2.6533 -0.1298  2.0804
 8013SOL    HW235499   0.122   1.338  16.228  2.0126 -0.1142 -1.1072
 8014SOL     OW35500   0.090   3.003   7.626  0.2516  0.2226 -0.6584
 8014SOL    HW135501   0.051   3.059   7.558  1.4184 -0.0642 -1.5559
 8014SOL    HW235502   0.063   3.054   7.703 -0.8744 -3.1994  1.2317
 8015SOL     OW35503   0.527   3.079   1.245 -0.2046  0.1821 -0.2136
 8015SOL    HW135504   0.613   3.097   1.283  0.5455 -1.3706 -1.1832
 8015SOL    HW235505   0.535   3.118   1.158 -0.8424  0.5792 -0.0964
 8016SOL     OW35506   3.744   4.493  10.435  0.4215  0.6645  0.0595
 8016SOL    HW135507   3.671   4.466  10.491  0.6734  1.1110  0.5997
 8016SOL    HW235508   3.718   4.585  10.440  0.5129  0.6515  0.8396
 8017SOL     OW35509   1.057   2.007  10.097 -0.1968  0.1024  0.2357
 8017SOL    HW135510   0.994   2.079  10.108 -0.7068  0.0105 -2.1507
 8017SOL    HW235511   1.130   2.021  10.158  0.7457 -4.4849  0.1229
 8018SOL     OW35512   3.881   2.052   8.785  0.2532  0.2127 -0.0293
 8018SOL    HW135513   3.861   2.126   8.728  0.4520 -0.4259 -0.9301
 8018SOL    HW235514   3.809   1.991   8.768  0.0820  0.6391 -0.8376
 8019SOL     OW35515   4.307   0.544  14.742 -0.6828  0.4283 -0.1678
 8019SOL    HW135516   4.271   0.466  14.782 -3.9755  2.0762  0.0418
 8019SOL    HW235517   4.375   0.563  14.806 -0.6740 -0.6929  0.1359
 8020SOL     OW35518   2.644   1.222  10.378 -0.2945  0.2392  0.1891
 8020SOL    HW135519   2.569   1.271  10.347 -1.0962  0.2484  2.1597
 8020SOL    HW235520   2.709   1.285  10.409 -1.2100  2.0145 -1.5859
 8021SOL     OW35521   2.042   2.189   5.213  0.3931 -0.1019  0.4550
 8021SOL    HW135522   2.011   2.099   5.204  1.8507 -0.6236  0.6358
 8021SOL    HW235523   2.123   2.170   5.166 -0.9260  0.4030 -2.0544
 8022SOL     OW35524   3.290   0.341   4.645  0.0328  0.6425  0.4198
 8022SOL    HW135525   3.225   0.327   4.577 -0.9982 -0.6242  1.6824
 8022SOL    HW235526   3.307   0.432   4.620 -1.0734  1.1682  1.5694
 8023SOL     OW35527   3.963   4.045  17.109 -0.3482 -0.5266  0.2923
 8023SOL    HW135528   3.984   3.952  17.102 -0.8925 -0.8268  2.6962
 8023SOL    HW235529   3.944   4.065  17.200 -1.0385 -0.3592  0.1093
 8024SOL     OW35530   1.255   3.934   9.320  0.5410  0.0222 -0.0953
 8024SOL    HW135531   1.306   3.857   9.341  0.9341  0.0609 -0.9342
 8024SOL    HW235532   1.265   3.953   9.227 -1.5939 -1.8473 -0.7150
 8025SOL     OW35533   3.683   4.469   4.707  0.9439 -0.0576 -0.8579
 8025SOL    HW135534   3.747   4.466   4.636  2.4407  1.2020  0.4130
 8025SOL    HW235535   3.654   4.378   4.706 -3.1795  1.2762 -0.0372
 8026SOL     OW35536   4.134   0.080   8.992 -0.0226 -0.3584  1.3410
 8026SOL    HW135537   4.046   0.067   9.028 -0.7904 -1.6393 -0.9645
 8026SOL    HW235538   4.143   0.012   8.926 -2.5067 -2.3495  3.0683
 8027SOL     OW35539   4.034   1.121   0.129  0.0263 -0.0636 -0.1484
 8027SOL    HW135540   4.036   1.136   0.034 -0.6596  0.6746 -0.0366
 8027SOL    HW235541   4.033   1.207   0.169 -1.0267 -0.5347  0.8239
 8028SOL     OW35542   0.910   2.587   4.691  0.1048 -0.1594  0.1316
 8028SOL    HW135543   0.937   2.511   4.742 -2.3222 -1.5831 -0.7301
 8028SOL    HW235544   0.993   2.615   4.653  0.1964 -1.4955 -0.6538
 8029SOL     OW35545   0.279   0.849   2.457 -0.1917  0.2031 -0.4795
 8029SOL    HW135546   0.281   0.771   2.513  0.9050 -1.0410 -2.2729
 8029SOL    HW235547   0.367   0.859   2.423 -0.1629 -0.2151 -0.5247
 8030SOL     OW35548   0.210   4.511  15.851 -0.0352 -0.3465  0.4859
 8030SOL    HW135549   0.241   4.601  15.853  1.9742 -1.0742  2.7573
 8030SOL    HW235550   0.202   4.500  15.756  0.2217 -2.1365  0.6625
 8031SOL     OW35551   1.781   4.107   4.088 -0.2418  0.0004  0.2495
 8031SOL    HW135552   1.694   4.145   4.104  0.0763  0.9035 -0.1711
 8031SOL    HW235553   1.760   4.043   4.020 -0.7276 -0.1442  0.5323
 8032SOL     OW35554   2.227   0.528  10.096  0.2161  0.2913 -0.0548
 8032SOL    HW135555   2.233   0.514  10.001 -0.4021  1.3042 -0.2380
 8032SOL    HW235556   2.157   0.592  10.096 -0.0445  0.0064  0.0208
 8033SOL     OW35557   0.824   2.657   3.432 -0.1644 -0.3870  0.3966
 8033SOL    HW135558   0.786   2.699   3.355  0.3770  1.5273  1.1547
 8033SOL    HW235559   0.810   2.729   3.493  1.5450  0.7227 -0.5154
 8034SOL     OW35560   4.682   2.782   2.731 -0.2606  0.1097  0.1855
 8034SOL    HW135561   4.683   2.738   2.646  2.6821 -0.2200  0.3991
 8034SOL    HW235562   4.601   2.832   2.726 -0.5040 -0.3985 -0.8808
 8035SOL     OW35563   3.888   3.869  10.534 -0.0128 -0.1995  0.1301
 8035SOL    HW135564   3.964   3.836  10.583 -0.0221 -0.1723  0.1625
 8035SOL    HW235565   3.887   3.959  10.566 -2.4398  0.1433 -0.9600
 8036SOL     OW35566   3.982   3.457   6.433 -0.4673  0.1766 -0.1398
 8036SOL    HW135567   3.908   3.404   6.463 -0.3226 -0.3605 -0.7348
 8036SOL    HW235568   4.023   3.400   6.368  1.0816  0.2715  0.7628
 8037SOL     OW35569   4.295   2.849   3.307 -0.0627 -0.3510  0.7038
 8037SOL    HW135570   4.261   2.889   3.387 -1.1867  0.8137 -0.3540
 8037SOL    HW235571   4.373   2.800   3.331 -0.4222 -1.2545  0.0328
 8038SOL     OW35572   2.178   2.483   7.283 -0.7171 -0.4647  0.2190
 8038SOL    HW135573   2.160   2.550   7.349 -0.8272 -0.1017 -0.1820
 8038SOL    HW235574   2.096   2.437   7.265 -0.6933  0.0500 -1.2640
 8039SOL     OW35575   0.685   2.051   2.894 -0.5180  0.3135 -0.0945
 8039SOL    HW135576   0.650   2.052   2.805 -1.0489  0.9549  0.1173
 8039SOL    HW235577   0.770   2.094   2.884  0.3803 -0.8160  2.6294
 8040SOL     OW35578   0.728   2.292   8.034  0.2922 -0.1149 -0.3041
 8040SOL    HW135579   0.807   2.256   7.993  0.3958  1.5194 -1.5361
 8040SOL    HW235580   0.674   2.213   8.038 -0.2277  0.2413 -0.3154
 8041SOL     OW35581   0.168   3.531   6.430  0.1282  0.5727  0.2221
 8041SOL    HW135582   0.119   3.516   6.511 -1.1173  2.1232 -0.2444
 8041SOL    HW235583   0.238   3.589   6.461 -0.5349  1.1349  0.6791
 8042SOL     OW35584   0.403   0.758   3.868  0.2377  0.2714  0.8817
 8042SOL    HW135585   0.471   0.710   3.821  0.4446  2.1180 -0.6771
 8042SOL    HW235586   0.374   0.695   3.934 -1.5694  0.0902 -0.1099
 8043SOL     OW35587   1.967   1.899  13.344 -0.0743 -0.1859 -0.0829
 8043SOL    HW135588   1.906   1.957  13.298 -2.0984 -0.4733  2.2507
 8043SOL    HW235589   1.981   1.951  13.423 -2.5895 -0.0234  0.2476
 8044SOL     OW35590   2.973   0.389  16.514  0.8192  0.5565 -0.6076
 8044SOL    HW135591   2.994   0.348  16.597 -3.7289  1.4039  0.9412
 8044SOL    HW235592   3.006   0.318  16.459 -0.7202 -0.7883  0.1938
 8045SOL     OW35593   2.285   3.923   4.603 -0.2090  0.0852  0.4557
 8045SOL    HW135594   2.283   4.013   4.635 -1.8733 -0.2313  1.2501
 8045SOL    HW235595   2.349   3.882   4.661  1.0591 -0.6209 -1.4610
 8046SOL     OW35596   1.053   1.841  11.240  0.0639 -0.2152 -0.2036
 8046SOL    HW135597   1.060   1.916  11.182  1.9706 -0.2356 -0.0033
 8046SOL    HW235598   0.998   1.780  11.191 -3.0421  0.0803  2.9806
 8047SOL     OW35599   0.788   1.258   6.909 -0.6292  0.7747 -0.2398
 8047SOL    HW135600   0.733   1.181   6.922  0.8238 -0.2442 -0.1607
 8047SOL    HW235601   0.724   1.320   6.874 -0.4723  0.4491 -1.1044
 8048SOL     OW35602   2.790   2.629  15.021 -0.7129  0.4619 -0.4702
 8048SOL    HW135603   2.731   2.612  14.947 -1.8030  1.7666  0.1038
 8048SOL    HW235604   2.865   2.577  14.993 -0.5367 -0.6724  2.1123
 8049SOL     OW35605   0.786   0.176   8.945 -0.2441 -0.5226 -0.4217
 8049SOL    HW135606   0.832   0.210   9.022 -1.1914 -0.1535 -0.0304
 8049SOL    HW235607   0.839   0.096   8.943  0.1356 -0.2713 -0.5886
 8050SOL     OW35608   2.010   0.415  16.562 -0.0013  0.1021 -1.2364
 8050SOL    HW135609   1.917   0.411  16.587 -0.4326  0.8539 -2.7542
 8050SOL    HW235610   2.022   0.423  16.468  1.3366  2.4491 -0.8705
 8051SOL     OW35611   3.188   0.633  13.355  0.0638  0.1012 -0.1310
 8051SOL    HW135612   3.207   0.718  13.395  0.1976 -0.8941  1.9145
 8051SOL    HW235613   3.275   0.604  13.328  0.3757  0.5263  0.4086
 8052SOL     OW35614   0.049   3.095  10.356 -0.0782  0.3942  0.1104
 8052SOL    HW135615   0.015   3.057  10.437 -0.1517  2.7576  1.1984
 8052SOL    HW235616   4.690   3.133  10.317 -1.1093 -2.4649 -0.5930
 8053SOL     OW35617   1.941   0.530   5.401  0.2542 -0.1599 -0.5868
 8053SOL    HW135618   1.921   0.493   5.487 -2.2150 -2.5022 -2.1878
 8053SOL    HW235619   1.899   0.469   5.340  0.3018 -2.0505  1.2557
 8054SOL     OW35620   0.485   0.351   3.808 -0.7145  0.1611  0.0910
 8054SOL    HW135621   0.509   0.258   3.808  0.3706  0.4246  1.3734
 8054SOL    HW235622   0.415   0.354   3.743 -1.1103 -0.3018  0.4922
 8055SOL     OW35623   3.205   1.659   0.409 -0.3540  0.2392  0.1488
 8055SOL    HW135624   3.155   1.583   0.377 -2.1731  0.3033  2.8956
 8055SOL    HW235625   3.143   1.710   0.461 -1.0173  0.2456 -0.6439
 8056SOL     OW35626   2.055   1.468   9.164 -0.0952  0.5294  0.4680
 8056SOL    HW135627   1.983   1.462   9.102  0.0031  1.3021  0.2890
 8056SOL    HW235628   2.026   1.391   9.214  0.5660  0.5532  0.8955
 8057SOL     OW35629   3.702   1.911   8.213 -0.8366 -0.4188  0.9272
 8057SOL    HW135630   3.749   1.889   8.294  3.0262  0.3458 -1.1177
 8057SOL    HW235631   3.714   2.006   8.210  0.1251 -0.5938 -0.6639
 8058SOL     OW35632   4.559   3.826  14.150 -0.0375  0.1544 -0.0822
 8058SOL    HW135633   4.575   3.906  14.100  2.1094  0.7524  1.5780
 8058SOL    HW235634   4.480   3.786  14.113  1.1910 -1.2196 -1.1998
 8059SOL     OW35635   1.664   2.234   4.946 -0.2256  0.3726 -0.2197
 8059SOL    HW135636   1.700   2.323   4.944 -0.2555  0.4072  0.8731
 8059SOL    HW235637   1.681   2.212   5.038 -0.1679  0.3412 -0.2381
 8060SOL     OW35638   2.152   1.132   7.540  0.3857  0.4653  0.1264
 8060SOL    HW135639   2.117   1.047   7.513  1.7199 -0.3677  0.9988
 8060SOL    HW235640   2.243   1.107   7.525  0.7581  1.6278  0.4371
 8061SOL     OW35641   1.657   3.465   3.898  0.5106 -0.5623 -0.0671
 8061SOL    HW135642   1.745   3.462   3.934  0.9327  0.1271 -1.0327
 8061SOL    HW235643   1.616   3.491   3.980 -0.0271 -0.1152 -0.4824
 8062SOL     OW35644   3.081   3.750   1.685 -0.3033  0.4120 -0.0364
 8062SOL    HW135645   3.116   3.772   1.598 -1.5989  0.6443 -0.5006
 8062SOL    HW235646   2.990   3.761   1.658 -0.7910 -1.6220  0.7979
 8063SOL     OW35647   3.258   0.356   6.645 -0.2737 -0.8950  0.0504
 8063SOL    HW135648   3.331   0.414   6.626 -1.0002  0.1117  0.3566
 8063SOL    HW235649   3.275   0.283   6.585 -1.5943 -0.0894 -1.3092
 8064SOL     OW35650   1.123   4.506   2.019 -0.2145  0.1267 -1.0023
 8064SOL    HW135651   1.138   4.443   2.089  3.8857  1.0047 -1.1194
 8064SOL    HW235652   1.209   4.533   1.988  0.4982 -0.9643  0.0497
 8065SOL     OW35653   4.514   1.696   0.720 -0.0201  0.6725 -0.5567
 8065SOL    HW135654   4.513   1.687   0.625  0.8305  0.2748 -0.5278
 8065SOL    HW235655   4.608   1.699   0.740  0.3449  3.3144 -2.6796
 8066SOL     OW35656   0.948   0.216  12.670 -0.4551  0.8732  0.0527
 8066SOL    HW135657   0.899   0.283  12.624 -1.7226  0.7695  1.2710
 8066SOL    HW235658   0.882   0.192  12.734 -0.0737  0.4226  0.2835
 8067SOL     OW35659   3.619   0.226  14.103  0.1669 -0.8985 -0.4182
 8067SOL    HW135660   3.710   0.197  14.101  0.2039 -1.1636  5.2793
 8067SOL    HW235661   3.621   0.313  14.143  0.3341 -0.9818 -0.2501
 8068SOL     OW35662   4.576   3.882  17.063  0.2665  0.3059 -0.0295
 8068SOL    HW135663   4.616   3.967  17.042 -0.5159  0.2879 -1.6043
 8068SOL    HW235664   4.486   3.901  17.090 -0.4694 -2.6358 -0.4445
 8069SOL     OW35665   1.308   3.448  17.179  0.4225  0.5607  0.0169
 8069SOL    HW135666   1.383   3.486  17.224  0.1260  0.2127  0.8010
 8069SOL    HW235667   1.323   3.476  17.088  0.4385  0.6847  0.0584
 8070SOL     OW35668   2.893   1.891   6.436  0.6330  0.0038  0.5170
 8070SOL    HW135669   2.806   1.858   6.459 -0.7616  0.6371 -3.9488
 8070SOL    HW235670   2.875   1.959   6.371 -3.3267 -0.2815  1.3378
 8071SOL     OW35671   0.368   4.650   1.854  0.9771 -0.4886  0.6880
 8071SOL    HW135672   0.365   4.554   1.852  1.4649 -0.4459 -1.8732
 8071SOL    HW235673   0.402   4.661   1.942  0.8475 -1.5292  0.8704
 8072SOL     OW35674   4.249   1.921   7.108  0.2649 -0.0114 -0.3628
 8072SOL    HW135675   4.291   1.873   7.179 -0.5600 -0.0294  0.1170
 8072SOL    HW235676   4.318   1.983   7.083 -0.7853  1.2388 -0.1635
 8073SOL     OW35677   1.777   0.870   2.773  0.3512 -0.1874  0.5175
 8073SOL    HW135678   1.821   0.793   2.738  0.5692  0.4313 -0.5612
 8073SOL    HW235679   1.701   0.875   2.716  1.1748  1.1801 -0.4505
 8074SOL     OW35680   4.505   1.533   4.787  0.0792  0.1501 -0.2861
 8074SOL    HW135681   4.423   1.567   4.753 -0.1593 -0.9352 -0.8066
 8074SOL    HW235682   4.520   1.592   4.861  1.3335 -1.5217  0.8032
 8075SOL     OW35683   1.674   1.171   5.643 -0.0881 -0.7575  0.0903
 8075SOL    HW135684   1.626   1.119   5.578  0.2437 -1.6770  0.5891
 8075SOL    HW235685   1.694   1.241   5.581  0.7380 -3.8295 -3.0973
 8076SOL     OW35686   0.712   2.908   4.017  0.0364  0.9786  0.0627
 8076SOL    HW135687   0.797   2.876   3.987  0.0364  0.9950  0.0448
 8076SOL    HW235688   0.727   3.003   4.014  3.3257  0.4522 -0.3338
 8077SOL     OW35689   3.014   2.435   6.648 -0.1419 -0.1372 -0.2978
 8077SOL    HW135690   3.081   2.454   6.714 -1.0414  0.3419  0.4583
 8077SOL    HW235691   2.952   2.506   6.661 -0.2242 -0.1626 -0.5449
 8078SOL     OW35692   1.633   0.739   9.176  0.1628  0.1976  0.1163
 8078SOL    HW135693   1.576   0.723   9.250  2.2951  0.4673  1.8105
 8078SOL    HW235694   1.680   0.656   9.173 -0.6969 -0.2345 -1.4035
 8079SOL     OW35695   0.591   3.167  11.214  0.2559  0.0533 -0.0583
 8079SOL    HW135696   0.557   3.108  11.146  1.1662  0.8622 -1.2113
 8079SOL    HW235697   0.647   3.104  11.260  0.0080  0.1839  0.4185
 8080SOL     OW35698   3.440   0.385  14.342  0.3135 -0.0835 -0.0498
 8080SOL    HW135699   3.430   0.298  14.304  1.7633 -0.0781 -0.4577
 8080SOL    HW235700   3.393   0.370  14.423 -1.5579  0.4072 -1.0360
 8081SOL     OW35701   4.692   0.884   3.300 -0.1609  0.1265 -0.4979
 8081SOL    HW135702   4.696   0.881   3.205 -0.3303  3.6255 -0.6124
 8081SOL    HW235703   0.033   0.819   3.335 -0.8772  0.3758  1.2532
 8082SOL     OW35704   2.129   1.290   7.163 -0.3279 -0.2380  0.2420
 8082SOL    HW135705   2.112   1.197   7.178  0.1670 -0.5787 -1.3083
 8082SOL    HW235706   2.217   1.291   7.126 -0.6523  4.3214 -0.3240
 8083SOL     OW35707   4.678   1.453   1.590 -0.4263  0.1649 -0.0350
 8083SOL    HW135708   4.668   1.536   1.544  0.2032 -0.3812 -1.1555
 8083SOL    HW235709   4.668   1.487   1.679  0.2427 -0.5494  0.3156
 8084SOL     OW35710   2.364   2.726   4.091  0.2176 -0.9611 -0.1967
 8084SOL    HW135711   2.271   2.706   4.081 -0.8192  2.2092  3.2412
 8084SOL    HW235712   2.384   2.659   4.158  1.9834  0.9785  1.2096
 8085SOL     OW35713   1.439   3.071  15.413 -0.5545 -0.5567 -0.3647
 8085SOL    HW135714   1.426   3.142  15.477  1.1174  0.1954 -0.8392
 8085SOL    HW235715   1.532   3.081  15.393 -0.4311 -3.3909 -1.1500
 8086SOL     OW35716   2.159   0.268  14.520 -0.2749  0.3091 -0.1596
 8086SOL    HW135717   2.221   0.224  14.578 -0.0835 -0.2945 -0.8344
 8086SOL    HW235718   2.226   0.309  14.466 -1.1197 -0.1467 -1.5528
 8087SOL     OW35719   0.415   2.418  11.412  0.3653  0.5043 -0.2674
 8087SOL    HW135720   0.352   2.484  11.382 -1.7324  0.1923  3.3552
 8087SOL    HW235721   0.491   2.447  11.362  0.0337 -1.0682 -1.6584
 8088SOL     OW35722   1.058   4.363  11.973  0.4949  0.9323 -0.1645
 8088SOL    HW135723   1.149   4.387  11.987  0.1641  1.9085  0.3931
 8088SOL    HW235724   1.026   4.428  11.910 -1.8532  1.2400  1.3088
 8089SOL     OW35725   1.354   1.740   4.000 -0.2783 -0.2074 -0.3933
 8089SOL    HW135726   1.375   1.800   3.928  0.9635  0.4216  0.4967
 8089SOL    HW235727   1.350   1.658   3.952  0.9223 -0.6252  0.2103
 8090SOL     OW35728   1.088   1.868  15.613  0.0960  0.5652 -0.4150
 8090SOL    HW135729   1.177   1.898  15.598 -0.6109  2.9149  0.0233
 8090SOL    HW235730   1.043   1.922  15.548 -3.0329 -0.4209  0.8890
 8091SOL     OW35731   0.723   4.166   2.500  0.2370 -0.4477  0.4600
 8091SOL    HW135732   0.760   4.225   2.565 -0.1145  2.0019 -1.5772
 8091SOL    HW235733   0.667   4.111   2.554  1.0057  0.1586  1.8602
 8092SOL     OW35734   2.293   4.424   0.553  0.4122 -0.3690 -0.0754
 8092SOL    HW135735   2.370   4.377   0.582  1.0695  0.8129  0.1055
 8092SOL    HW235736   2.259   4.386   0.472 -0.7509 -1.1065  0.7541
 8093SOL     OW35737   1.497   1.568   5.609 -0.2788 -0.4458  0.2751
 8093SOL    HW135738   1.462   1.584   5.521 -1.7254 -1.4849  0.6563
 8093SOL    HW235739   1.590   1.593   5.613 -0.4379  0.7279 -3.5649
 8094SOL     OW35740   3.161   3.895   8.429 -0.5122  0.0039  0.0414
 8094SOL    HW135741   3.091   3.939   8.382  0.3506 -0.4939 -1.7513
 8094SOL    HW235742   3.189   3.820   8.376 -0.6365 -1.4737  2.0456
 8095SOL     OW35743   3.267   1.797  13.033  0.2371  0.5403 -0.3146
 8095SOL    HW135744   3.259   1.714  13.080 -0.5237  0.7059 -0.1596
 8095SOL    HW235745   3.175   1.823  13.038 -0.2394 -1.6031  2.0944
 8096SOL     OW35746   4.366   2.048   4.351 -0.0399  0.0940  0.2166
 8096SOL    HW135747   4.378   2.088   4.265 -2.8582 -2.9812 -1.5949
 8096SOL    HW235748   4.456   2.023   4.371 -0.3344 -0.7462  0.4893
 8097SOL     OW35749   4.197   1.217  13.658 -0.3167 -0.2267  0.6429
 8097SOL    HW135750   4.290   1.228  13.678  0.2563 -0.3372 -2.0640
 8097SOL    HW235751   4.205   1.180  13.570 -0.0834  1.2875  0.0293
 8098SOL     OW35752   0.899   3.912  13.135 -0.3267 -0.2461 -0.3111
 8098SOL    HW135753   0.922   4.001  13.108 -1.1101  0.1050  0.1632
 8098SOL    HW235754   0.813   3.897  13.096 -0.1855  3.0672 -1.9272
 8099SOL     OW35755   0.622   2.085  14.996 -0.0306  0.2113  0.3575
 8099SOL    HW135756   0.673   2.013  14.961  0.6835 -1.4906  4.8902
 8099SOL    HW235757   0.553   2.094  14.930  0.0207 -1.7112  0.0390
 8100SOL     OW35758   4.318   0.809   4.084  0.3711 -0.2629 -0.0959
 8100SOL    HW135759   4.377   0.739   4.111 -1.8611 -1.7542  0.8731
 8100SOL    HW235760   4.248   0.753   4.049 -1.4280  1.1619  1.2141
 8101SOL     OW35761   1.567   4.290   4.102  0.7781  0.1520  0.2974
 8101SOL    HW135762   1.568   4.368   4.046 -0.7314  1.2301  1.7509
 8101SOL    HW235763   1.592   4.332   4.184  2.5162  0.6169 -0.4754
 8102SOL     OW35764   3.736   2.350  11.157 -0.7115  0.1580 -0.2970
 8102SOL    HW135765   3.687   2.430  11.136  1.2372  0.9912 -1.6356
 8102SOL    HW235766   3.727   2.315  11.069  2.6099  1.1077 -0.9832
 8103SOL     OW35767   0.995   1.433   1.802 -0.1991  0.1630 -0.1910
 8103SOL    HW135768   1.009   1.347   1.840  0.2772  1.7699  3.3061
 8103SOL    HW235769   0.914   1.462   1.844 -1.0633 -1.7093 -0.5598
 8104SOL     OW35770   1.668   3.042  12.007 -0.0103  0.0812 -0.0165
 8104SOL    HW135771   1.612   3.112  12.040 -1.6361 -0.6861 -1.1158
 8104SOL    HW235772   1.647   3.034  11.914 -0.3453  0.7308  0.0054
 8105SOL     OW35773   3.049   1.364   6.999 -0.3113  0.4526  0.0040
 8105SOL    HW135774   2.972   1.416   6.974 -0.8750  0.4425  1.7119
 8105SOL    HW235775   3.018   1.302   7.066  0.2958  1.9149  1.6599
 8106SOL     OW35776   1.799   0.412   8.837  0.2300 -0.0465 -0.2995
 8106SOL    HW135777   1.762   0.480   8.893  0.3598 -0.1806 -0.0500
 8106SOL    HW235778   1.721   0.357   8.829 -0.8295  1.1749  1.5094
 8107SOL     OW35779   2.750   1.065   4.625 -0.2101  0.2920  0.3118
 8107SOL    HW135780   2.688   0.993   4.639 -0.4185  0.2708 -0.7017
 8107SOL    HW235781   2.740   1.079   4.530 -0.5334  2.1612  0.6250
 8108SOL     OW35782   0.720   3.584   9.283 -0.1073  0.7694  0.5981
 8108SOL    HW135783   0.659   3.512   9.268  0.2979  0.6877 -0.6556
 8108SOL    HW235784   0.697   3.640   9.209  0.3278 -0.9420 -0.8472
 8109SOL     OW35785   1.771   2.211  14.887  0.0592 -0.0120  0.0851
 8109SOL    HW135786   1.822   2.156  14.947 -1.0167  1.1619  2.0830
 8109SOL    HW235787   1.845   2.240  14.835  3.7413 -0.5671  4.9734
 8110SOL     OW35788   0.250   1.427   1.528 -0.1534 -0.2089  0.4927
 8110SOL    HW135789   0.167   1.474   1.528 -0.0743  0.0059 -3.5308
 8110SOL    HW235790   0.221   1.346   1.569 -2.1826  0.2421 -0.0537
 8111SOL     OW35791   3.266   1.142   9.817 -0.2488  0.2929  0.4910
 8111SOL    HW135792   3.302   1.198   9.747  0.0263  1.2789  1.4170
 8111SOL    HW235793   3.288   1.194   9.895 -2.7930  1.9314  0.1020
 8112SOL     OW35794   3.126   1.257   5.197  0.0100  0.2122 -0.2065
 8112SOL    HW135795   3.118   1.287   5.288 -1.8690  4.2881 -1.7259
 8112SOL    HW235796   3.051   1.196   5.194 -0.5272  0.9136 -0.9465
 8113SOL     OW35797   4.188   4.643   4.630  0.9138 -0.3184 -0.5105
 8113SOL    HW135798   4.111   4.696   4.651 -0.2357 -1.5434 -1.5984
 8113SOL    HW235799   4.138   4.562   4.622  0.5036 -0.2703  1.5124
 8114SOL     OW35800   3.120   1.866  13.856 -0.2754 -0.1593  0.9102
 8114SOL    HW135801   3.046   1.927  13.848 -0.2808 -0.2283  0.4248
 8114SOL    HW235802   3.130   1.833  13.766  0.4278 -0.6737  1.1762
 8115SOL     OW35803   4.446   3.815   9.790 -0.3253  0.6519  0.4256
 8115SOL    HW135804   4.440   3.793   9.883  4.5771 -3.1766 -0.1455
 8115SOL    HW235805   4.358   3.786   9.769 -1.5342  2.4031  3.0135
 8116SOL     OW35806   4.157   4.555   7.587  0.2157  0.8423 -0.2280
 8116SOL    HW135807   4.096   4.539   7.515  0.1823 -0.2701  0.0565
 8116SOL    HW235808   4.086   4.551   7.651 -0.1960  1.1823 -0.6668
 8117SOL     OW35809   1.600   3.986  14.421 -0.9531  0.5309 -0.8239
 8117SOL    HW135810   1.678   4.023  14.461 -1.3096  1.7943 -1.3103
 8117SOL    HW235811   1.591   4.038  14.341  0.7316 -0.6071 -1.7584
 8118SOL     OW35812   0.368   0.165   2.438 -0.7278 -0.5057  0.1947
 8118SOL    HW135813   0.283   0.195   2.406 -0.1906  0.0412 -0.7012
 8118SOL    HW235814   0.359   0.191   2.530  0.2771 -3.5103  1.1672
 8119SOL     OW35815   4.150   2.064  12.400  0.3544  0.0353  0.3265
 8119SOL    HW135816   4.126   2.101  12.315  0.8293  0.0228  0.1871
 8119SOL    HW235817   4.174   2.134  12.459  1.2744  1.1584 -1.3771
 8120SOL     OW35818   0.545   1.710   2.271 -0.7254 -0.1097  0.6181
 8120SOL    HW135819   0.507   1.710   2.183 -0.7897 -1.0195  0.6481
 8120SOL    HW235820   0.474   1.697   2.333 -2.3311 -0.0531 -1.2124
 8121SOL     OW35821   0.346   3.616  15.369 -0.6256  0.0026 -0.4549
 8121SOL    HW135822   0.282   3.597  15.300 -1.2815 -1.0767  0.4366
 8121SOL    HW235823   0.286   3.671  15.420  0.0657  0.5283 -0.2201
 8122SOL     OW35824   1.018   4.462   5.581 -0.9993 -0.2431  0.1532
 8122SOL    HW135825   0.972   4.423   5.507  0.7613 -0.5061 -0.8105
 8122SOL    HW235826   0.988   4.553   5.581  0.8086  0.3658  0.4513
 8123SOL     OW35827   0.215   3.791   6.718  0.3276 -0.0443  0.3941
 8123SOL    HW135828   0.127   3.770   6.749 -0.2727  0.8198 -0.7008
 8123SOL    HW235829   0.203   3.868   6.662  1.3562  0.7931  1.3353
 8124SOL     OW35830   1.864   4.560   2.286 -0.0274 -0.1441  0.3963
 8124SOL    HW135831   1.854   4.650   2.256  3.3073 -0.0993 -0.5248
 8124SOL    HW235832   1.894   4.527   2.202 -1.8059  0.9516 -0.6766
 8125SOL     OW35833   0.574   1.799  13.829 -0.2402  0.0308 -0.9630
 8125SOL    HW135834   0.503   1.748  13.868 -0.7381  1.2437 -0.3010
 8125SOL    HW235835   0.554   1.890  13.848 -0.6676  0.0464 -1.5084
 8126SOL     OW35836   3.846   4.306   5.971 -0.1780 -0.1171  0.3639
 8126SOL    HW135837   3.893   4.225   5.990  1.0195 -0.1061 -2.4414
 8126SOL    HW235838   3.817   4.282   5.883  0.7179 -0.4068  0.1496
 8127SOL     OW35839   0.143   1.471  12.140  0.4241 -0.0738  0.5816
 8127SOL    HW135840   0.201   1.451  12.066 -0.2349 -1.0280  0.3151
 8127SOL    HW235841   0.156   1.400  12.203 -0.4682  1.2300  2.2498
 8128SOL     OW35842   1.156   1.919   3.450  0.1297 -1.4742 -0.3889
 8128SOL    HW135843   1.092   1.883   3.511  0.4298  0.3849  1.0001
 8128SOL    HW235844   1.233   1.862   3.445  1.6819  0.7161 -1.5574
 8129SOL     OW35845   2.686   0.338   7.680  0.1845 -0.2253  0.0410
 8129SOL    HW135846   2.657   0.247   7.685 -0.0695 -0.2611 -1.9392
 8129SOL    HW235847   2.780   0.323   7.684  0.0827 -0.5886  1.0324
 8130SOL     OW35848   2.446   0.000   8.638 -0.2117 -0.1620  0.0051
 8130SOL    HW135849   2.540   0.010   8.653 -0.2139  1.3265 -1.0088
 8130SOL    HW235850   2.412   0.078   8.682 -0.9565 -0.1402 -0.6082
 8131SOL     OW35851   2.872   0.569  11.804 -0.6502  0.0562 -0.0174
 8131SOL    HW135852   2.854   0.583  11.897  0.0486 -0.2552  0.1612
 8131SOL    HW235853   2.935   0.498  11.812 -0.1129  0.6099  0.6156
 8132SOL     OW35854   3.388   2.269   7.652  0.4583 -0.6295  0.7583
 8132SOL    HW135855   3.314   2.327   7.634  0.3694 -1.0909 -0.3107
 8132SOL    HW235856   3.351   2.221   7.726 -1.4034  2.1670  1.6606
 8133SOL     OW35857   0.186   0.435   3.906  0.0980  0.1779 -0.2547
 8133SOL    HW135858   0.168   0.348   3.943  2.4308 -0.3134 -0.2732
 8133SOL    HW235859   0.277   0.454   3.927  0.0462  0.5812 -0.4011
 8134SOL     OW35860   2.773   2.671   3.674  0.3031  0.4901  0.6953
 8134SOL    HW135861   2.741   2.686   3.585 -0.2968  2.2161  1.2012
 8134SOL    HW235862   2.771   2.751   3.726 -0.9822  0.6629  0.3943
 8135SOL     OW35863   1.322   3.123  12.561  0.4994  0.2972 -0.0508
 8135SOL    HW135864   1.309   3.032  12.535  0.0905  0.4597 -0.4220
 8135SOL    HW235865   1.318   3.156  12.471  1.0894 -1.3103 -0.6693
 8136SOL     OW35866   2.521   0.295   0.651 -0.4191 -0.1790 -0.4786
 8136SOL    HW135867   2.568   0.247   0.583  0.2060 -1.4141  0.8132
 8136SOL    HW235868   2.468   0.354   0.598 -2.3509 -1.4480  0.0096
 8137SOL     OW35869   1.374   4.213   5.233  0.2516  0.8176 -0.2645
 8137SOL    HW135870   1.294   4.236   5.280  0.2471  1.0285 -0.3758
 8137SOL    HW235871   1.342   4.138   5.183 -2.3553  0.7467  1.5158
 8138SOL     OW35872   3.800   1.523   3.829  0.0654  0.0128 -0.5760
 8138SOL    HW135873   3.715   1.545   3.867  0.0853  0.8313 -0.9916
 8138SOL    HW235874   3.787   1.439   3.786  2.6788  0.7760 -2.8447
 8139SOL     OW35875   2.746   2.330   0.319  0.0300  0.1692  0.2850
 8139SOL    HW135876   2.835   2.302   0.296 -0.2810  0.6110 -1.5085
 8139SOL    HW235877   2.740   2.286   0.404 -2.7318  1.4084  0.7124
 8140SOL     OW35878   1.479   0.840   2.287 -0.1702  0.5562 -0.4078
 8140SOL    HW135879   1.491   0.921   2.236  2.6857  0.8208  0.6726
 8140SOL    HW235880   1.568   0.805   2.276 -0.5539 -0.3167 -0.7168
 8141SOL     OW35881   2.600   4.458  15.038 -0.4127  0.2566 -0.5376
 8141SOL    HW135882   2.641   4.545  15.041  2.8066 -1.3146  0.1375
 8141SOL    HW235883   2.566   4.456  14.948 -0.6743  1.2568 -0.4714
 8142SOL     OW35884   4.164   3.015   4.887 -0.7801 -0.2674  0.3410
 8142SOL    HW135885   4.161   2.929   4.843 -0.7393 -0.2540  0.3113
 8142SOL    HW235886   4.258   3.028   4.873 -0.6222  0.4493  2.2021
 8143SOL     OW35887   0.802   2.558  13.864  0.5856 -0.6545 -0.0095
 8143SOL    HW135888   0.806   2.546  13.958  1.2621 -1.0808 -0.0930
 8143SOL    HW235889   0.895   2.571  13.848  0.6394  1.4865  2.0822
 8144SOL     OW35890   0.418   3.102  13.810  0.2862 -0.2283  0.0630
 8144SOL    HW135891   0.345   3.060  13.765  0.2428  2.0520 -2.0174
 8144SOL    HW235892   0.367   3.170  13.856 -0.5463 -0.1548 -0.9574
 8145SOL     OW35893   2.218   3.858   8.746  0.4988 -0.1028 -0.0497
 8145SOL    HW135894   2.147   3.797   8.767  1.1253 -1.3053 -1.4434
 8145SOL    HW235895   2.278   3.857   8.821 -0.6443 -1.2961  0.8669
 8146SOL     OW35896   4.618   4.212   9.990  0.8869  0.0920 -0.3725
 8146SOL    HW135897   4.567   4.166   9.923  0.4855 -0.4965  0.3452
 8146SOL    HW235898   4.634   4.301   9.958 -1.2742  0.4398 -0.4770
 8147SOL     OW35899   3.892   0.207  14.826  0.0620 -0.1680  0.6879
 8147SOL    HW135900   3.988   0.211  14.822 -0.0243  1.8950  1.1250
 8147SOL    HW235901   3.880   0.227  14.919  0.6230  2.0683  0.2759
 8148SOL     OW35902   3.260   4.064   4.895 -0.3129 -0.5106  0.1640
 8148SOL    HW135903   3.317   4.036   4.824  0.3134  0.1275  0.4079
 8148SOL    HW235904   3.205   4.127   4.848 -1.3368 -2.3134 -1.0576
 8149SOL     OW35905   4.586   0.455   7.022 -0.2360 -0.2616  0.2455
 8149SOL    HW135906   4.540   0.371   7.017 -0.2581 -0.3266  1.6484
 8149SOL    HW235907   4.535   0.513   7.077  0.9151  2.1687 -1.2564
 8150SOL     OW35908   2.522   1.615  17.563 -0.2114  0.4846 -0.0309
 8150SOL    HW135909   2.515   1.638  17.656  3.0392 -0.7047  0.4797
 8150SOL    HW235910   2.461   1.542  17.574 -2.2949  2.4959  1.9175
 8151SOL     OW35911   0.779   2.322   2.223 -0.4932  0.0698  0.2386
 8151SOL    HW135912   0.807   2.232   2.241 -1.2693  0.0994  1.5793
 8151SOL    HW235913   0.689   2.300   2.198  1.0999  0.7468 -6.0729
 8152SOL     OW35914   2.405   2.343   5.073  0.3389 -0.3185 -0.1684
 8152SOL    HW135915   2.376   2.258   5.106 -1.5522 -0.0312 -1.1060
 8152SOL    HW235916   2.478   2.346   5.135  2.0116 -4.3075 -1.9329
 8153SOL     OW35917   4.589   0.875   6.300  0.2072  0.2595  0.5275
 8153SOL    HW135918   4.682   0.854   6.309 -0.8266 -3.2979  2.6475
 8153SOL    HW235919   4.592   0.969   6.321  2.6546  0.7586 -2.0352
 8154SOL     OW35920   2.779   1.085   2.822 -0.0157 -0.5984  0.0783
 8154SOL    HW135921   2.751   1.054   2.908  1.0414  3.2070  1.7793
 8154SOL    HW235922   2.872   1.088   2.847 -0.5772  0.0235  2.0654
 8155SOL     OW35923   1.231   3.954   9.034 -0.6946 -0.3537 -0.2814
 8155SOL    HW135924   1.142   3.972   9.003 -1.3366 -1.9574  0.6311
 8155SOL    HW235925   1.211   3.866   9.064  0.7035 -0.2506  0.9492
 8156SOL     OW35926   1.575   2.632  13.517  0.3534 -0.3158  0.0823
 8156SOL    HW135927   1.576   2.703  13.453 -4.2120 -0.4833 -0.1960
 8156SOL    HW235928   1.661   2.641  13.558  0.3457  3.0122 -0.6179
 8157SOL     OW35929   0.402   4.006   9.515 -0.3113 -0.0029  0.1389
 8157SOL    HW135930   0.326   3.970   9.560 -1.2697  2.4233  0.4693
 8157SOL    HW235931   0.367   4.085   9.475 -1.2381 -0.6298 -0.2596
 8158SOL     OW35932   3.524   1.607   4.784  0.0976  0.1139  0.1724
 8158SOL    HW135933   3.532   1.635   4.693  2.3172  1.3703  0.7737
 8158SOL    HW235934   3.432   1.631   4.799  0.6264  1.2019  1.7513
 8159SOL     OW35935   4.718   2.229  10.399  0.1012  0.1646 -0.3499
 8159SOL    HW135936   0.089   2.238  10.426  0.1221 -0.0046 -0.3655
 8159SOL    HW235937   0.008   2.154  10.340 -1.0555  0.5103 -0.9950
 8160SOL     OW35938   1.181   4.522   8.787 -0.0641 -0.0330  0.1996
 8160SOL    HW135939   1.121   4.453   8.759 -1.9483  1.9158 -0.5048
 8160SOL    HW235940   1.260   4.485   8.748 -0.7765  0.7823 -1.9770
 8161SOL     OW35941   3.895   2.872   9.579  0.4157 -0.1966  0.4224
 8161SOL    HW135942   3.861   2.819   9.651  0.6769 -1.4523 -0.3744
 8161SOL    HW235943   3.971   2.918   9.616  0.8099  1.9607 -3.1756
 8162SOL     OW35944   1.518   0.717   9.827 -0.2352 -0.4187 -0.1262
 8162SOL    HW135945   1.561   0.742   9.745 -0.7988  4.1753  1.0058
 8162SOL    HW235946   1.431   0.749   9.806  1.2733  2.5875 -1.8257
 8163SOL     OW35947   1.639   3.138   3.614  0.0502 -0.0795  0.1922
 8163SOL    HW135948   1.559   3.124   3.665 -0.0114  0.1982  0.1682
 8163SOL    HW235949   1.629   3.229   3.587 -2.7844 -0.1510  0.9883
 8164SOL     OW35950   0.912   3.699  16.283  0.9780 -0.2640 -0.4945
 8164SOL    HW135951   0.868   3.660  16.359 -0.4788 -0.0944 -1.2521
 8164SOL    HW235952   0.889   3.645  16.207  0.9646  1.5934 -1.8052
 8165SOL     OW35953   4.035   4.275  11.666  0.1601  0.1604  0.0939
 8165SOL    HW135954   3.947   4.252  11.697  0.5166 -1.4966 -0.1000
 8165SOL    HW235955   4.093   4.249  11.737 -0.1144 -0.1982  0.1886
 8166SOL     OW35956   1.840   2.088   9.966  0.3520  0.3312 -0.1839
 8166SOL    HW135957   1.915   2.119  10.017 -0.0455 -1.5194  1.5120
 8166SOL    HW235958   1.870   2.009   9.922 -1.1996 -0.8831  0.9772
 8167SOL     OW35959   3.368   4.701   2.595 -0.1644 -0.2582  0.0197
 8167SOL    HW135960   3.436   0.044   2.573 -1.9242  1.3612 -0.7256
 8167SOL    HW235961   3.413   4.616   2.598 -0.9100 -0.6932 -1.1167
 8168SOL     OW35962   2.622   2.458  16.463 -0.7602 -0.9326  0.2610
 8168SOL    HW135963   2.689   2.418  16.406  1.8953 -0.3754  2.9749
 8168SOL    HW235964   2.663   2.544  16.470  1.4266 -1.9007 -0.5060
 8169SOL     OW35965   3.548   1.142   4.546 -0.1400 -0.5859  0.4118
 8169SOL    HW135966   3.590   1.175   4.625 -2.0171  1.6622  0.4672
 8169SOL    HW235967   3.535   1.051   4.574  0.2786 -0.7910 -0.0720
 8170SOL     OW35968   0.851   3.456   8.394 -0.5310 -0.1497 -0.8724
 8170SOL    HW135969   0.863   3.415   8.480 -2.4765  2.4148  0.6350
 8170SOL    HW235970   0.835   3.547   8.418  3.6647  0.5287 -0.6434
 8171SOL     OW35971   4.363   2.618   7.009 -0.8370  0.1228  0.2687
 8171SOL    HW135972   4.297   2.687   6.999 -1.4659 -0.5555 -0.1978
 8171SOL    HW235973   4.431   2.674   7.047  0.9778 -0.6459 -1.8873
 8172SOL     OW35974   3.270   0.088   6.518 -0.3795  0.2003  0.4805
 8172SOL    HW135975   3.227   0.023   6.463  1.2117 -2.2071  2.1068
 8172SOL    HW235976   3.358   0.053   6.510 -1.0423 -1.7086  1.5261
 8173SOL     OW35977   1.344   2.129   4.849  0.1203 -0.7550  0.2157
 8173SOL    HW135978   1.335   2.034   4.839  1.1219 -1.0608  2.2443
 8173SOL    HW235979   1.254   2.154   4.829  0.4607  0.4080  0.1269
 8174SOL     OW35980   2.880   1.605   6.095 -0.8762 -0.0651  0.2526
 8174SOL    HW135981   2.904   1.605   6.188 -3.1911 -1.3730  0.8676
 8174SOL    HW235982   2.933   1.674   6.055  0.8610 -0.2467  2.2756
 8175SOL     OW35983   3.805   2.990  13.111  0.4071  0.4826 -0.1633
 8175SOL    HW135984   3.872   2.931  13.076 -2.4776 -2.0888 -1.4118
 8175SOL    HW235985   3.818   2.969  13.203  0.6889 -1.5032 -0.6613
 8176SOL     OW35986   4.078   0.945   0.848  0.0210  0.3351 -0.1090
 8176SOL    HW135987   4.023   0.980   0.778 -0.3990 -1.5624 -0.7557
 8176SOL    HW235988   4.072   1.019   0.907 -0.5885  0.3422 -0.1780
 8177SOL     OW35989   4.089   3.424   2.728  0.3791  0.0162  0.7611
 8177SOL    HW135990   4.009   3.417   2.675 -0.2206 -1.3723  1.8240
 8177SOL    HW235991   4.128   3.494   2.676 -0.2899 -0.5804 -0.5473
 8178SOL     OW35992   1.492   0.553  14.085 -0.8106 -0.1558 -0.0910
 8178SOL    HW135993   1.493   0.458  14.099  1.7279 -0.5084 -2.5919
 8178SOL    HW235994   1.586   0.569  14.088 -1.1029  1.8516 -2.1469
 8179SOL     OW35995   1.003   4.357   8.674  0.4078  0.2610 -0.3053
 8179SOL    HW135996   1.088   4.325   8.646 -0.1130 -1.8732  0.5628
 8179SOL    HW235997   0.935   4.321   8.617  0.5199 -0.7482  0.1912
 8180SOL     OW35998   4.121   1.638   9.639 -0.2183 -0.2188 -0.5423
 8180SOL    HW135999   4.133   1.683   9.556 -2.0389  0.5759 -0.3629
 8180SOL    HW236000   4.028   1.615   9.635  0.1707 -2.3284  1.9391
 8181SOL     OW36001   3.537   4.123   5.067 -0.0824 -0.1023 -0.0438
 8181SOL    HW136002   3.519   4.054   5.002  3.2996 -0.5658 -0.5142
 8181SOL    HW236003   3.601   4.179   5.023  0.4681 -2.6043 -2.4567
 8182SOL     OW36004   2.978   0.322   6.640 -0.0954  0.0387 -0.4310
 8182SOL    HW136005   2.969   0.416   6.629  2.9753  0.3380 -0.1746
 8182SOL    HW236006   3.064   0.310   6.679 -1.3427  0.2395  2.4072
 8183SOL     OW36007   1.069   2.331   5.094 -0.4616  0.2672  0.2228
 8183SOL    HW136008   1.041   2.361   5.007  0.0877 -2.0282 -0.7389
 8183SOL    HW236009   1.000   2.350   5.158 -1.4733  1.1147 -1.1043
 8184SOL     OW36010   4.460   0.525   5.468 -0.2180 -0.6433 -0.5217
 8184SOL    HW136011   4.389   0.581   5.436 -0.3735 -1.5745 -1.8345
 8184SOL    HW236012   4.409   0.444   5.471  2.5158 -2.3678 -0.8734
 8185SOL     OW36013   1.043   0.589   7.822  0.2012  0.7110  0.0970
 8185SOL    HW136014   1.004   0.502   7.835 -0.4578  0.8850 -0.7359
 8185SOL    HW236015   1.013   0.631   7.902 -0.0835 -0.4094  0.5695
 8186SOL     OW36016   3.661   2.167  14.951 -0.0363 -0.3045 -0.5573
 8186SOL    HW136017   3.608   2.124  15.017  0.7462 -0.7151 -0.1984
 8186SOL    HW236018   3.751   2.156  14.981 -1.0304 -2.8022  1.4957
 8187SOL     OW36019   0.964   2.554  10.410  0.6397 -0.0252 -0.9006
 8187SOL    HW136020   0.973   2.551  10.505  0.1440  0.2733 -0.8472
 8187SOL    HW236021   0.885   2.507  10.384  0.9452 -0.3242 -1.2792
 8188SOL     OW36022   4.368   0.971   4.473  0.1049  0.3200  0.0578
 8188SOL    HW136023   4.372   1.046   4.532 -1.3836  0.1607  0.3626
 8188SOL    HW236024   4.289   0.990   4.423 -1.1050 -2.5811  0.8439
 8189SOL     OW36025   4.355   4.413   3.996  0.1234  0.2731  0.2189
 8189SOL    HW136026   4.447   4.429   4.018  0.5254 -0.8960 -0.6086
 8189SOL    HW236027   4.304   4.459   4.063 -1.4418  1.9937 -2.1757
 8190SOL     OW36028   3.276   0.841   3.710  0.1156  0.5063  0.4899
 8190SOL    HW136029   3.297   0.777   3.643 -3.0406 -1.1849  1.1000
 8190SOL    HW236030   3.203   0.882   3.663  0.9939 -0.5393 -1.7448
 8191SOL     OW36031   0.440   0.037  11.888  0.3548  0.4891 -0.1752
 8191SOL    HW136032   0.424   4.677  11.840  1.6149  0.2738 -0.2283
 8191SOL    HW236033   0.532   0.035  11.913 -0.4367  0.6299  2.7946
 8192SOL     OW36034   3.798   4.214  10.335 -0.2780  0.0245 -0.1704
 8192SOL    HW136035   3.787   4.307  10.316  2.1976  0.0723 -1.3603
 8192SOL    HW236036   3.791   4.207  10.431  3.2124  1.6019  0.1825
 8193SOL     OW36037   1.475   0.571   8.336 -0.5535  0.0698  0.4913
 8193SOL    HW136038   1.551   0.587   8.280 -2.3114  1.8043 -1.4026
 8193SOL    HW236039   1.490   0.492   8.388  0.8258 -1.0886 -1.7242
 8194SOL     OW36040   0.450   3.145  14.566 -0.2323  0.2641  0.1639
 8194SOL    HW136041   0.365   3.111  14.540  0.1637  0.8018 -1.8248
 8194SOL    HW236042   0.508   3.068  14.560 -1.3284 -0.6203  1.1422
 8195SOL     OW36043   1.962   3.320   3.185  0.0275  0.6761 -0.3342
 8195SOL    HW136044   2.056   3.318   3.167 -0.0613 -1.6897 -0.5691
 8195SOL    HW236045   1.952   3.403   3.231  0.8090  0.1368  0.8180
 8196SOL     OW36046   0.541   0.973   0.754  0.6571 -0.1544 -0.1799
 8196SOL    HW136047   0.487   0.933   0.823 -0.6034 -0.5187 -1.3751
 8196SOL    HW236048   0.628   0.973   0.795  0.4071 -0.9654  0.3638
 8197SOL     OW36049   1.178   0.062   4.743 -0.6716 -0.1684 -0.1400
 8197SOL    HW136050   1.188   0.104   4.657  4.1547 -1.2037 -0.0832
 8197SOL    HW236051   1.103   0.007   4.718 -0.8937 -0.1378  0.4587
 8198SOL     OW36052   4.510   1.131   1.612  0.4340 -0.1089 -0.2289
 8198SOL    HW136053   4.460   1.162   1.537  2.7335 -1.1951 -2.2357
 8198SOL    HW236054   4.489   1.206   1.666  1.3289 -0.6457  0.8722
 8199SOL     OW36055   2.758   0.903   6.780 -0.0789 -0.2672  0.2819
 8199SOL    HW136056   2.750   0.989   6.740  1.4039 -1.0095 -1.6048
 8199SOL    HW236057   2.849   0.903   6.809 -0.0980 -2.8730  0.3612
 8200SOL     OW36058   4.597   4.455   4.261  0.2667  0.5682  0.3866
 8200SOL    HW136059   4.632   4.458   4.171  4.3682 -0.0607  1.9383
 8200SOL    HW236060   4.528   4.521   4.264  0.7486  1.0738  0.4125
 8201SOL     OW36061   2.366   2.890  15.850 -0.1257 -0.2087 -0.2242
 8201SOL    HW136062   2.395   2.804  15.879  0.3667 -0.6209 -1.9532
 8201SOL    HW236063   2.347   2.882  15.756  3.1798 -1.1466 -0.8207
 8202SOL     OW36064   4.525   3.574   5.642 -0.7594  0.1855 -0.0571
 8202SOL    HW136065   4.586   3.565   5.569  1.1477 -2.5523  1.8790
 8202SOL    HW236066   4.548   3.661   5.673 -0.8486 -0.2325  1.1848
 8203SOL     OW36067   3.659   2.204   3.586  0.1492  0.2516  0.1631
 8203SOL    HW136068   3.738   2.255   3.604 -0.6942  0.7965  2.2575
 8203SOL    HW236069   3.608   2.265   3.532  0.5968  0.0783 -0.4474
 8204SOL     OW36070   2.486   2.957   7.467 -0.0945 -0.1973 -0.0960
 8204SOL    HW136071   2.456   2.980   7.555  0.8993 -1.9085  0.7036
 8204SOL    HW236072   2.582   2.955   7.476  0.1519  0.9332 -2.4146
 8205SOL     OW36073   2.108   1.038   1.801 -0.1254  0.2728  0.0711
 8205SOL    HW136074   2.164   1.114   1.817 -0.5378  0.5973  0.0017
 8205SOL    HW236075   2.104   1.007   1.891  1.3588  0.1395  0.0849
 8206SOL     OW36076   0.869   0.467   0.147 -0.5139  0.4923  0.4870
 8206SOL    HW136077   0.775   0.450   0.142 -0.4959  0.3765  0.5445
 8206SOL    HW236078   0.881   0.474   0.242 -0.1939  1.5830  0.3654
 8207SOL     OW36079   3.369   4.584   9.122  0.8476 -0.3422  0.0480
 8207SOL    HW136080   3.448   4.546   9.161  0.8146 -1.6352 -1.1519
 8207SOL    HW236081   3.336   4.642   9.191 -0.5740  1.3622 -2.0682
 8208SOL     OW36082   3.530   3.030   7.654 -0.4353  0.0741 -0.1135
 8208SOL    HW136083   3.570   2.954   7.612 -2.6060 -0.8862 -0.4804
 8208SOL    HW236084   3.574   3.097   7.602 -1.8479 -0.4983 -2.0746
 8209SOL     OW36085   2.301   2.511   4.898 -0.6665  0.3494  0.2360
 8209SOL    HW136086   2.302   2.452   4.823  2.5643  0.4793  0.2084
 8209SOL    HW236087   2.338   2.465   4.973  0.2679  0.9993  0.1810
 8210SOL     OW36088   2.660   1.289   2.680 -0.2252 -0.1480  0.3924
 8210SOL    HW136089   2.731   1.243   2.726  1.4284  0.5872 -1.4488
 8210SOL    HW236090   2.587   1.278   2.741  0.6183 -0.8038  1.2897
 8211SOL     OW36091   0.928   3.669   6.310 -0.0542  0.2272  0.0428
 8211SOL    HW136092   0.896   3.692   6.397 -1.1783 -0.3446 -0.2177
 8211SOL    HW236093   0.992   3.740   6.304  0.9042 -0.5057  1.5314
 8212SOL     OW36094   2.165   3.825   5.686 -0.5449  0.2539  0.2088
 8212SOL    HW136095   2.253   3.791   5.703 -0.7960 -0.5836 -0.1503
 8212SOL    HW236096   2.179   3.877   5.608 -0.4083 -0.6590 -0.3810
 8213SOL     OW36097   0.307   1.898  11.883 -0.3987  0.1437  0.3700
 8213SOL    HW136098   0.325   1.990  11.865 -0.1629  0.5377  2.5622
 8213SOL    HW236099   0.213   1.907  11.898 -0.4899 -0.1525 -0.0280
 8214SOL     OW36100   3.134   2.508  10.930 -0.2780  0.4007 -0.2704
 8214SOL    HW136101   3.192   2.553  10.991  0.6219 -0.7706 -0.2559
 8214SOL    HW236102   3.182   2.426  10.914  0.5981  0.7185  0.7311
 8215SOL     OW36103   1.681   1.010   9.987  0.1868  0.0897  0.4153
 8215SOL    HW136104   1.683   1.081   9.923 -1.9075  1.1460  1.5231
 8215SOL    HW236105   1.668   0.929   9.937  1.2795  0.5568 -0.6033
 8216SOL     OW36106   4.160   1.473   5.782  0.3956 -0.7439  0.1638
 8216SOL    HW136107   4.217   1.467   5.706 -4.3280 -1.3037 -3.3644
 8216SOL    HW236108   4.225   1.494   5.850 -1.4440 -0.0693  1.7273
 8217SOL     OW36109   3.016   3.904   8.857 -0.1943 -0.8686  0.4588
 8217SOL    HW136110   3.069   3.830   8.888  0.4598 -0.0985  1.1907
 8217SOL    HW236111   2.959   3.855   8.799  0.0749 -1.5395  0.7566
 8218SOL     OW36112   2.756   3.502   5.798 -1.1598 -0.3223  0.8253
 8218SOL    HW136113   2.772   3.511   5.892  2.8227 -1.7552  0.2874
 8218SOL    HW236114   2.686   3.436   5.793 -2.1002  0.7183  0.1885
 8219SOL     OW36115   1.116   0.633   3.202 -0.5290  0.3168  0.0329
 8219SOL    HW136116   1.047   0.569   3.220  1.6098 -1.7268  0.8427
 8219SOL    HW236117   1.056   0.706   3.183  0.6073  1.6105  1.3856
 8220SOL     OW36118   0.414   2.792   9.301  0.0699 -0.0861 -0.1210
 8220SOL    HW136119   0.359   2.841   9.362 -0.6941 -1.5182  0.3548
 8220SOL    HW236120   0.447   2.734   9.370 -1.1576  1.3054  1.6558
 8221SOL     OW36121   3.758   4.227  10.939 -0.8405  0.1230 -0.6575
 8221SOL    HW136122   3.759   4.316  10.975  0.9752 -0.7819  1.4617
 8221SOL    HW236123   3.667   4.199  10.953 -0.8049  1.1014  1.4747
 8222SOL     OW36124   0.330   3.097   4.473 -0.0652 -0.3576  0.2609
 8222SOL    HW136125   0.254   3.042   4.455 -0.5838 -0.6587  3.3020
 8222SOL    HW236126   0.393   3.043   4.426 -0.4015 -1.4082  1.0051
 8223SOL     OW36127   2.241   0.822   5.307  0.0607 -0.4473  0.5958
 8223SOL    HW136128   2.331   0.805   5.280 -0.1025  2.2479 -1.6635
 8223SOL    HW236129   2.189   0.806   5.228  1.0684  2.1918 -0.6052
 8224SOL     OW36130   2.201   0.457   9.836  0.0498 -0.5075  0.3854
 8224SOL    HW136131   2.233   0.368   9.849  0.8337 -0.4015 -0.8155
 8224SOL    HW236132   2.107   0.445   9.849 -0.3667  1.4128 -0.9186
 8225SOL     OW36133   3.147   1.927   6.542  0.1566  0.1714  0.5770
 8225SOL    HW136134   3.151   2.023   6.551  1.5375  0.0722  0.9894
 8225SOL    HW236135   3.068   1.915   6.489 -0.7135  0.8253  1.7313
 8226SOL     OW36136   3.076   4.539  16.983 -0.4591 -0.1876 -0.4658
 8226SOL    HW136137   3.060   4.518  17.075  2.7946  1.4142  0.4625
 8226SOL    HW236138   3.124   4.622  16.990 -3.4719  1.5623 -0.4723
 8227SOL     OW36139   3.457   2.508   7.494 -0.0087 -0.4255  0.2343
 8227SOL    HW136140   3.375   2.512   7.446  0.1128  1.9345  0.2458
 8227SOL    HW236141   3.436   2.430   7.546 -1.9606 -1.2551 -1.8153
 8228SOL     OW36142   0.427   1.243  16.465  0.5065 -0.2508 -0.0633
 8228SOL    HW136143   0.461   1.320  16.419  2.6708 -1.4341 -0.4375
 8228SOL    HW236144   0.390   1.194  16.391 -0.4532 -2.5141  1.9318
 8229SOL     OW36145   1.869   2.430   2.530 -0.5436 -0.3657  0.4045
 8229SOL    HW136146   1.917   2.406   2.451 -1.8146  0.1144 -0.5138
 8229SOL    HW236147   1.908   2.508   2.570  1.1682 -0.3743 -1.2496
 8230SOL     OW36148   3.551   1.315  15.819  0.4485 -0.0980  0.5653
 8230SOL    HW136149   3.595   1.359  15.892  0.6664 -1.4091  1.2357
 8230SOL    HW236150   3.469   1.364  15.817  1.9542  2.3734  0.1572
 8231SOL     OW36151   1.937   4.191   0.815 -0.5600  0.8231  0.6639
 8231SOL    HW136152   1.873   4.181   0.745 -0.4796 -1.1772  0.8937
 8231SOL    HW236153   2.004   4.127   0.791 -2.0058 -0.4035 -0.0513
 8232SOL     OW36154   4.043   4.644  13.884 -0.4954  0.2706 -0.1851
 8232SOL    HW136155   4.069   4.616  13.971  0.6672 -2.6627 -1.4775
 8232SOL    HW236156   4.126   4.635  13.838  0.2704  0.9877  1.0724
 8233SOL     OW36157   3.485   0.104   3.003  0.3417 -0.5277 -0.3044
 8233SOL    HW136158   3.530   0.082   2.921  1.1712  0.2247 -0.0427
 8233SOL    HW236159   3.460   0.013   3.023 -1.0738  0.1014  0.8188
 8234SOL     OW36160   1.804   0.547  15.066 -0.0736 -0.5984  0.2129
 8234SOL    HW136161   1.758   0.517  15.145 -1.6208  2.5964  0.5052
 8234SOL    HW236162   1.795   0.473  15.006 -0.3522  1.3081 -2.0690
 8235SOL     OW36163   0.422   3.947   3.811  0.0550  0.2999 -0.3586
 8235SOL    HW136164   0.481   3.872   3.803 -1.3061 -0.7709 -0.4318
 8235SOL    HW236165   0.482   4.016   3.784  0.2542  1.3399  2.6874
 8236SOL     OW36166   0.611   2.441   6.550 -0.2500  0.1980  1.0620
 8236SOL    HW136167   0.592   2.381   6.622 -0.8979  1.6770  2.1077
 8236SOL    HW236168   0.706   2.443   6.548 -0.2451 -1.5418 -0.5881
 8237SOL     OW36169   3.766   4.223  10.607  0.3123 -0.8823  0.2198
 8237SOL    HW136170   3.719   4.148  10.643  0.6707 -1.1838  0.0582
 8237SOL    HW236171   3.850   4.207  10.650  0.5422  0.3127  0.2215
 8238SOL     OW36172   1.406   0.892   5.156 -0.3978 -0.0112 -0.1312
 8238SOL    HW136173   1.326   0.942   5.144  0.3932  0.9163 -1.5467
 8238SOL    HW236174   1.402   0.852   5.243  1.3050 -0.5993 -0.3246
 8239SOL     OW36175   1.795   2.729   8.851 -0.1553  0.5416 -0.3210
 8239SOL    HW136176   1.761   2.809   8.890 -0.0932  1.3306 -1.9011
 8239SOL    HW236177   1.728   2.715   8.784 -1.1448  1.0436  0.5594
 8240SOL     OW36178   1.247   4.677   7.424  0.2749 -0.2865  0.0678
 8240SOL    HW136179   1.173   0.017   7.419 -0.2452 -0.7509  1.9358
 8240SOL    HW236180   1.200   4.602   7.461 -0.9355  0.0743 -0.7537
 8241SOL     OW36181   4.594   3.796  14.711  0.4324 -0.7438  0.5127
 8241SOL    HW136182   4.610   3.796  14.616  2.5359  4.0844  0.8917
 8241SOL    HW236183   4.517   3.740  14.718 -0.3528 -0.0122 -2.2220
 8242SOL     OW36184   2.171   0.568   1.874  0.2226 -0.2433 -0.7147
 8242SOL    HW136185   2.187   0.602   1.786  0.4789 -1.3202 -1.0872
 8242SOL    HW236186   2.111   0.497   1.849  1.0052 -1.5771  1.2064
 8243SOL     OW36187   0.226   1.188   1.041  0.3845 -0.0855 -0.2676
 8243SOL    HW136188   0.143   1.220   1.007 -0.4582 -1.4776  0.4783
 8243SOL    HW236189   0.206   1.206   1.133  0.5033  0.3512 -0.3284
 8244SOL     OW36190   1.458   1.503   7.398 -0.1535 -0.5803 -0.1700
 8244SOL    HW136191   1.527   1.469   7.342 -0.6573  1.3929 -1.9719
 8244SOL    HW236192   1.461   1.599   7.395 -0.6494 -0.6248 -1.8884
 8245SOL     OW36193   4.333   2.234  10.003 -0.7339  0.5278 -0.0857
 8245SOL    HW136194   4.394   2.234  10.076 -0.5077 -0.4229 -0.2751
 8245SOL    HW236195   4.265   2.289  10.043 -0.6369  0.0956  0.6861
 8246SOL     OW36196   0.971   2.462  17.429 -0.2327 -0.3071  0.7114
 8246SOL    HW136197   1.024   2.409  17.489  2.4687 -1.2620 -2.5058
 8246SOL    HW236198   0.919   2.520  17.484  0.6357  0.7870  0.3730
 8247SOL     OW36199   2.089   0.888  17.067  0.5558 -0.4542 -0.4979
 8247SOL    HW136200   2.062   0.973  17.033  2.3573 -0.2378 -1.3816
 8247SOL    HW236201   2.003   0.858  17.097  1.5910 -3.1123 -0.1778
 8248SOL     OW36202   0.262   0.026   6.101  0.1390  0.0383 -0.5711
 8248SOL    HW136203   0.252   0.063   6.189 -1.8433 -0.7128 -0.4736
 8248SOL    HW236204   0.174   0.034   6.062 -1.0482 -1.3825  1.8334
 8249SOL     OW36205   1.164   2.281   2.829 -0.4052  0.1050  0.4941
 8249SOL    HW136206   1.251   2.282   2.790 -1.7607  1.2743 -2.4457
 8249SOL    HW236207   1.162   2.363   2.880 -0.3500 -1.8615  3.6769
 8250SOL     OW36208   1.262   0.097   0.152  0.4117  0.5726  0.5001
 8250SOL    HW136209   1.190   0.109   0.215 -1.3194 -2.7790 -0.8479
 8250SOL    HW236210   1.238   0.047   0.074  0.6474  1.5447 -0.1899
 8251SOL     OW36211   2.097   4.687  10.815  0.1251  0.2402 -0.0744
 8251SOL    HW136212   2.151   4.620  10.774 -2.6765 -2.3003  0.3839
 8251SOL    HW236213   2.147   4.689  10.897 -2.5591  0.9341  1.5654
 8252SOL     OW36214   1.259   3.327   5.957  0.1566 -0.4298 -0.3338
 8252SOL    HW136215   1.170   3.305   5.982 -0.4395  2.2614 -0.1137
 8252SOL    HW236216   1.308   3.247   5.979 -1.1461 -1.4351 -1.1020
 8253SOL     OW36217   2.265   3.323   3.472 -0.5658 -0.0061  0.3943
 8253SOL    HW136218   2.189   3.265   3.477 -0.7594  0.2245  0.1192
 8253SOL    HW236219   2.225   3.406   3.448  0.3383 -0.0602 -1.2652
 8254SOL     OW36220   0.702   0.279  14.839  0.1909 -0.3765  0.4291
 8254SOL    HW136221   0.746   0.204  14.880  2.5227  0.1091 -1.1538
 8254SOL    HW236222   0.750   0.353  14.878  0.2119 -0.4286  0.5021
 8255SOL     OW36223   0.587   0.060   5.112 -0.3976 -0.8327 -0.1425
 8255SOL    HW136224   0.596   0.154   5.097 -0.3810 -0.9256 -0.6885
 8255SOL    HW236225   0.643   0.051   5.189 -2.0827 -0.6891  1.1149
 8256SOL     OW36226   2.257   0.317   0.506  0.5338 -0.1904  0.1386
 8256SOL    HW136227   2.209   0.238   0.528  1.1737 -0.2132  1.4046
 8256SOL    HW236228   2.226   0.369   0.580 -1.2607 -1.3180  0.1774
 8257SOL     OW36229   2.334   2.602  10.363  0.0847  0.5670  0.0472
 8257SOL    HW136230   2.251   2.630  10.402 -0.8723 -0.8341 -0.9850
 8257SOL    HW236231   2.308   2.590  10.272  1.1347  1.3224 -0.3444
 8258SOL     OW36232   2.127   0.480   0.036 -0.1846  0.7177 -0.1209
 8258SOL    HW136233   2.176   0.434   0.104 -0.6023  1.6951  0.8399
 8258SOL    HW236234   2.157   0.570   0.050  1.1831  0.0404  1.2762
 8259SOL     OW36235   0.979   1.451   4.917 -0.2196 -0.3444  0.4395
 8259SOL    HW136236   0.941   1.478   4.833 -0.8075 -0.6377  0.6147
 8259SOL    HW236237   0.903   1.422   4.968  0.8034  1.7085  3.1153
 8260SOL     OW36238   0.352   1.431   7.308  0.3248  0.7967  0.3851
 8260SOL    HW136239   0.438   1.471   7.301 -0.7110  3.0102  0.2296
 8260SOL    HW236240   0.362   1.338   7.326  3.4260  1.3447  1.4310
 8261SOL     OW36241   0.625   1.013  17.026 -0.0066  0.3114  0.6353
 8261SOL    HW136242   0.587   1.098  17.004 -0.9524  0.0856  1.3552
 8261SOL    HW236243   0.715   1.027  16.998  0.0465  0.6206  0.9624
 8262SOL     OW36244   1.829   2.351  11.424 -0.1586  0.1280  0.1541
 8262SOL    HW136245   1.762   2.331  11.489 -0.2907  0.1729  0.0308
 8262SOL    HW236246   1.883   2.411  11.476 -0.4852 -0.3861  1.0774
 8263SOL     OW36247   2.128   3.806   0.285  0.1460 -0.7223  0.1445
 8263SOL    HW136248   2.071   3.857   0.342  1.1567  1.2364 -0.5869
 8263SOL    HW236249   2.170   3.757   0.355 -1.4669  0.6617  2.0595
 8264SOL     OW36250   0.573   3.551   7.200  0.0788 -0.0654  0.1416
 8264SOL    HW136251   0.571   3.531   7.107 -0.6689  1.2247 -0.1112
 8264SOL    HW236252   0.566   3.646   7.205  1.7469 -0.0015  1.3095
 8265SOL     OW36253   3.219   0.522   2.840  0.6930 -0.2308  0.0024
 8265SOL    HW136254   3.160   0.598   2.836 -0.6568 -1.0994  3.7962
 8265SOL    HW236255   3.230   0.494   2.749 -2.1335 -0.0362 -0.3861
 8266SOL     OW36256   2.850   3.767   2.403  0.0400  0.3363 -0.2324
 8266SOL    HW136257   2.756   3.778   2.419 -0.5423 -3.3624 -1.1208
 8266SOL    HW236258   2.872   3.707   2.474 -0.6313 -1.8105 -1.8350
 8267SOL     OW36259   1.569   1.900   5.515  0.3778  0.2580 -0.3656
 8267SOL    HW136260   1.627   1.974   5.502  0.3772  0.5685  1.3272
 8267SOL    HW236261   1.636   1.838   5.544 -0.9244 -0.5358  1.0094
 8268SOL     OW36262   1.168   3.407  14.624  0.2269  0.0845 -0.5758
 8268SOL    HW136263   1.191   3.410  14.531 -0.7268 -1.9920 -0.8704
 8268SOL    HW236264   1.233   3.348  14.663 -0.2792  0.1098  0.3062
 8269SOL     OW36265   1.381   1.051   7.782  0.1528  0.4778 -0.0865
 8269SOL    HW136266   1.419   1.137   7.800  0.3433  0.0961  1.3354
 8269SOL    HW236267   1.336   1.061   7.698 -2.0106  0.0193  1.0345
 8270SOL     OW36268   0.292   1.838  15.773  0.4474 -0.2621 -0.0955
 8270SOL    HW136269   0.233   1.773  15.735  1.2568 -2.0135  1.6346
 8270SOL    HW236270   0.273   1.918  15.725 -0.5397  0.5211  1.6035
 8271SOL     OW36271   0.867   1.653  15.649 -0.5852 -0.0206 -0.9786
 8271SOL    HW136272   0.914   1.681  15.571  1.4730 -1.3908 -0.2128
 8271SOL    HW236273   0.783   1.700  15.644  0.4309  1.9356  0.4068
 8272SOL     OW36274   1.035   1.898   5.356 -0.3756 -0.4108  0.2018
 8272SOL    HW136275   1.060   1.806   5.355  1.3094  0.0828 -2.8923
 8272SOL    HW236276   1.108   1.936   5.306  0.7079 -1.3505  1.0811
 8273SOL     OW36277   3.709   3.538   6.614  0.1451 -0.8256  0.4146
 8273SOL    HW136278   3.639   3.569   6.671  0.4004  2.1947 -0.9014
 8273SOL    HW236279   3.665   3.494   6.541 -0.1961  0.6901 -0.3010
 8274SOL     OW36280   1.082   0.923   1.013 -0.4447  0.1395  0.3548
 8274SOL    HW136281   1.034   1.003   1.033  0.0801  0.2706  1.0619
 8274SOL    HW236282   1.015   0.855   0.998 -0.4464  0.0205  0.9109
 8275SOL     OW36283   1.519   4.091   3.761 -0.4786 -0.0165 -0.1311
 8275SOL    HW136284   1.445   4.095   3.821  1.0883 -2.2681  1.9537
 8275SOL    HW236285   1.484   4.129   3.680  0.5565 -3.3603 -2.1818
 8276SOL     OW36286   1.792   0.428   5.194 -0.1486 -0.0850  0.1559
 8276SOL    HW136287   1.759   0.369   5.127  1.4477 -0.6404 -0.1486
 8276SOL    HW236288   1.819   0.492   5.127  1.5515  0.4887  1.4008
 8277SOL     OW36289   1.380   1.457   4.974  0.0165 -0.0391 -0.2696
 8277SOL    HW136290   1.350   1.537   4.931 -2.1100 -0.4253  0.5134
 8277SOL    HW236291   1.475   1.468   4.976 -0.4721  3.4384  2.8957
 8278SOL     OW36292   3.367   1.221  12.147  0.5813  1.1694  0.4209
 8278SOL    HW136293   3.321   1.209  12.230  1.1379  0.4281  0.6113
 8278SOL    HW236294   3.294   1.233  12.086 -0.5343  1.2285  1.7728
 8279SOL     OW36295   0.712   0.326   1.958  0.0619  0.1116  0.1209
 8279SOL    HW136296   0.735   0.351   1.869  1.5885 -3.5322 -0.4716
 8279SOL    HW236297   0.629   0.373   1.968  0.1674  0.0180  1.4127
 8280SOL     OW36298   2.278   1.553   5.333  0.2396  0.1029  0.0198
 8280SOL    HW136299   2.329   1.617   5.382 -0.3481  0.6682 -0.1022
 8280SOL    HW236300   2.281   1.484   5.399  1.2114  1.5444  1.4663
 8281SOL     OW36301   3.764   3.959   8.161  0.3401  0.6200  0.4801
 8281SOL    HW136302   3.808   4.038   8.191  1.0139  0.1887  0.6300
 8281SOL    HW236303   3.705   3.942   8.235 -0.0226  0.6410  0.1938
 8282SOL     OW36304   2.182   4.392   4.144  0.5220  0.8121 -0.0749
 8282SOL    HW136305   2.156   4.328   4.077 -0.5302  2.5260 -1.3150
 8282SOL    HW236306   2.110   4.454   4.154 -0.5907 -0.4149 -0.4819
 8283SOL     OW36307   1.192   1.404   6.569 -0.5697  0.3558 -0.7146
 8283SOL    HW136308   1.221   1.346   6.640 -1.4236 -1.0439 -1.4959
 8283SOL    HW236309   1.164   1.341   6.502 -1.2579  0.1023 -0.1812
 8284SOL     OW36310   1.392   3.946   8.753  1.0313  0.1812  0.3639
 8284SOL    HW136311   1.428   3.894   8.681 -0.7186  0.0689 -0.4274
 8284SOL    HW236312   1.308   3.900   8.754  0.2334  1.5032 -4.7718
 8285SOL     OW36313   2.397   3.194   5.258  0.0108  0.4160 -0.2594
 8285SOL    HW136314   2.463   3.145   5.306 -0.4539 -1.0095 -1.0860
 8285SOL    HW236315   2.448   3.274   5.242 -1.1586  0.5255 -3.5098
 8286SOL     OW36316   1.031   2.115   9.763 -0.4336 -0.9655  0.1685
 8286SOL    HW136317   0.994   2.185   9.818  0.2466  0.0119 -0.6043
 8286SOL    HW236318   1.081   2.163   9.697  1.5133 -1.0172  1.6158
 8287SOL     OW36319   4.155   1.779   4.941 -0.0247 -0.2869  0.4609
 8287SOL    HW136320   4.102   1.720   4.888 -0.3919  0.3708  0.0995
 8287SOL    HW236321   4.201   1.822   4.869 -1.1128  0.9229  0.4955
 8288SOL     OW36322   0.027   0.655   0.293 -0.7849 -0.1093  0.4014
 8288SOL    HW136323   0.112   0.626   0.260 -0.1409  2.3280 -0.0211
 8288SOL    HW236324   4.692   0.613   0.227  0.7460 -0.5125 -0.6202
 8289SOL     OW36325   4.418   0.253   7.005  0.2368  0.2983  0.2184
 8289SOL    HW136326   4.352   0.185   7.017 -0.4231  0.6146 -1.6426
 8289SOL    HW236327   4.401   0.266   6.912  2.4942 -1.5037 -0.4600
 8290SOL     OW36328   4.301   1.492  10.532 -0.2274 -0.2514  0.2006
 8290SOL    HW136329   4.247   1.566  10.504  1.1502  1.9477  3.3850
 8290SOL    HW236330   4.388   1.522  10.505  0.0023 -0.6162  0.5307
 8291SOL     OW36331   4.106   3.305   2.437 -0.1038  0.3138  0.5899
 8291SOL    HW136332   4.034   3.367   2.447  0.0115  0.2272  1.9909
 8291SOL    HW236333   4.055   3.226   2.417  0.0216  0.4819 -0.3823
 8292SOL     OW36334   0.114   0.224   8.291  0.0106 -0.1649  0.4808
 8292SOL    HW136335   0.064   0.303   8.270  1.3872  0.9491  1.3661
 8292SOL    HW236336   0.141   0.249   8.379 -0.1088  1.5783  0.0304
 8293SOL     OW36337   0.863   4.116   2.966 -1.0132  0.2320 -0.2325
 8293SOL    HW136338   0.930   4.184   2.978  0.2031 -1.2091  1.1096
 8293SOL    HW236339   0.787   4.170   2.990 -2.0752 -1.3065 -0.1673
 8294SOL     OW36340   0.102   3.311   4.211 -0.0988 -0.1981  0.9530
 8294SOL    HW136341   0.116   3.244   4.144 -0.4542  0.5735  0.1043
 8294SOL    HW236342   0.023   3.349   4.174  0.0998 -1.5069 -0.8200
 8295SOL     OW36343   3.022   2.073   7.240 -0.1714  0.0128 -0.1845
 8295SOL    HW136344   3.028   2.114   7.153  0.3325 -0.7586 -0.5200
 8295SOL    HW236345   3.115   2.054   7.244 -0.0270  1.0981  1.3974
 8296SOL     OW36346   4.103   4.255   9.793 -0.1596  0.2618  0.6741
 8296SOL    HW136347   4.023   4.281   9.747  0.7825  1.2946 -0.3833
 8296SOL    HW236348   4.095   4.161   9.804  2.8986 -0.0291  0.4204
 8297SOL     OW36349   0.997   2.172   8.534  0.3041 -0.1767 -0.3439
 8297SOL    HW136350   0.929   2.219   8.486 -0.0705 -0.4744 -0.1035
 8297SOL    HW236351   0.960   2.084   8.542  1.3490 -0.3114  2.9200
 8298SOL     OW36352   1.190   1.977   6.710  0.2103 -0.2460  0.2147
 8298SOL    HW136353   1.190   1.958   6.804  1.6420  1.1194  0.4918
 8298SOL    HW236354   1.231   2.064   6.712 -0.6362  0.1423  0.7453
 8299SOL     OW36355   0.336   0.990   3.762  0.1157  0.0364 -0.7172
 8299SOL    HW136356   0.380   1.053   3.819 -0.2481  1.1203 -1.6230
 8299SOL    HW236357   0.364   0.904   3.792 -1.5018 -0.1588  0.2159
 8300SOL     OW36358   2.903   2.436   9.645  0.0263  0.2923  0.3871
 8300SOL    HW136359   2.911   2.344   9.620 -0.3620  0.5364 -0.6472
 8300SOL    HW236360   2.996   2.461   9.645 -0.1097  0.8135 -1.5781
 8301SOL     OW36361   2.242   0.050  13.747  0.3125  0.4558 -0.2976
 8301SOL    HW136362   2.282   0.108  13.683  0.5693 -0.0921 -0.6324
 8301SOL    HW236363   2.162   0.016  13.706 -0.7077  0.3903  1.7174
 8302SOL     OW36364   1.976   4.042  13.904 -0.9535  0.0869  0.1714
 8302SOL    HW136365   1.949   4.050  13.996  3.1748 -1.8204  1.5609
 8302SOL    HW236366   2.064   4.009  13.921 -2.6716 -3.7708  1.7906
 8303SOL     OW36367   0.994   3.748   5.111  0.2972 -0.0659 -0.2724
 8303SOL    HW136368   1.018   3.774   5.200  0.3491 -1.3318  0.0941
 8303SOL    HW236369   0.923   3.685   5.123 -1.0846  1.3245 -1.1705
 8304SOL     OW36370   1.830   0.112   1.276 -0.6026  0.4108  0.1919
 8304SOL    HW136371   1.870   0.156   1.350  2.7868  0.3037 -1.5981
 8304SOL    HW236372   1.810   0.028   1.318 -0.7230  0.7935  0.8894
 8305SOL     OW36373   0.351   1.910   3.764 -0.0261  0.2131  0.0383
 8305SOL    HW136374   0.336   1.989   3.713  0.8324  0.3270 -0.0402
 8305SOL    HW236375   0.271   1.898   3.816  0.1637 -2.4688 -0.2995
 8306SOL     OW36376   0.838   3.561   5.263  0.1923  0.5713 -0.0504
 8306SOL    HW136377   0.745   3.545   5.248 -0.5275  2.1557  2.5946
 8306SOL    HW236378   0.816   3.604   5.346 -2.5957  0.5073 -0.7637
 8307SOL     OW36379   2.570   2.741  17.010  0.1271 -0.1166 -0.2818
 8307SOL    HW136380   2.613   2.811  17.059  1.0299 -0.5624 -0.4396
 8307SOL    HW236381   2.641   2.704  16.958  1.3191  0.6968  0.7644
 8308SOL     OW36382   1.084   4.014   9.504 -0.0991  0.6151 -0.4715
 8308SOL    HW136383   1.093   3.935   9.557  0.6904  0.7109 -0.4499
 8308SOL    HW236384   1.141   3.984   9.433  0.7404 -2.5012  1.5071
 8309SOL     OW36385   2.789   2.180   6.815 -0.5639  0.2924  0.0996
 8309SOL    HW136386   2.813   2.260   6.860 -0.2001 -0.1761  0.7457
 8309SOL    HW236387   2.763   2.130   6.893  1.2866 -0.8350 -0.0035
 8310SOL     OW36388   0.377   1.751   3.356 -0.3202 -0.7593  0.0195
 8310SOL    HW136389   0.405   1.704   3.278 -0.4555 -0.1385 -0.4066
 8310SOL    HW236390   0.282   1.734   3.357 -0.1930 -1.5036 -1.1208
 8311SOL     OW36391   2.693   2.400  12.622 -0.0797 -0.5506  0.6375
 8311SOL    HW136392   2.626   2.453  12.579  0.4215  0.1183  0.6877
 8311SOL    HW236393   2.648   2.321  12.651  0.3554 -1.9690 -2.6013
 8312SOL     OW36394   3.836   1.248   6.802 -0.1755 -0.1312 -0.4341
 8312SOL    HW136395   3.836   1.327   6.856  1.3702  1.3460 -2.5490
 8312SOL    HW236396   3.742   1.241   6.787 -0.0027  1.0046 -2.0790
 8313SOL     OW36397   1.490   2.673   6.904  0.5754  0.0299 -0.2452
 8313SOL    HW136398   1.508   2.741   6.969 -2.9552  1.0253 -0.3405
 8313SOL    HW236399   1.547   2.603   6.937 -1.2888 -0.9624  0.9024
 8314SOL     OW36400   4.402   2.470   6.358  0.2518  0.5344 -0.3928
 8314SOL    HW136401   4.403   2.376   6.341 -2.5390  0.3319  0.5541
 8314SOL    HW236402   4.480   2.503   6.313 -0.9928  1.1938 -2.0846
 8315SOL     OW36403   0.709   1.331   0.646 -0.1367 -0.0874  0.5625
 8315SOL    HW136404   0.688   1.382   0.725  2.4790 -0.1792  1.3457
 8315SOL    HW236405   0.782   1.388   0.620 -0.8733  0.7682  0.3830
 8316SOL     OW36406   2.697   0.269  15.060  0.7121 -0.0354 -0.2843
 8316SOL    HW136407   2.680   0.345  15.005  1.1664  0.9451  0.9342
 8316SOL    HW236408   2.679   0.303  15.148  0.7077 -0.0593 -0.2758
 8317SOL     OW36409   2.792   0.535  15.020 -0.2852 -0.5765 -0.0478
 8317SOL    HW136410   2.737   0.551  15.097 -2.8445  1.6073 -2.3162
 8317SOL    HW236411   2.873   0.548  15.070  0.5951  0.7691 -1.8239
 8318SOL     OW36412   0.215   1.496   5.128  0.7978  0.2851  0.1139
 8318SOL    HW136413   0.164   1.534   5.055 -0.0829 -1.5737 -0.2379
 8318SOL    HW236414   0.195   1.563   5.193  1.1403 -0.8273  1.3393
 8319SOL     OW36415   0.310   0.574  15.993 -0.8383  0.0097 -0.0534
 8319SOL    HW136416   0.316   0.493  16.043 -2.9230 -1.0189 -1.4503
 8319SOL    HW236417   0.310   0.535  15.905 -1.2697  0.3186 -0.1911
 8320SOL     OW36418   0.751   2.342  11.679  0.1234 -0.9390  0.1739
 8320SOL    HW136419   0.777   2.408  11.615  1.5062 -1.1590  0.4933
 8320SOL    HW236420   0.675   2.301  11.639 -1.3639  0.7585  1.2604
 8321SOL     OW36421   0.579   1.747   2.838 -0.6269 -0.0430 -0.2008
 8321SOL    HW136422   0.590   1.841   2.853 -0.0089 -0.3394  1.2043
 8321SOL    HW236423   0.666   1.717   2.864 -0.4535  2.4204  2.0131
 8322SOL     OW36424   1.679   3.014  15.696  0.0299  0.3385  0.7538
 8322SOL    HW136425   1.773   3.026  15.683 -0.2161 -1.6694 -2.8605
 8322SOL    HW236426   1.649   3.090  15.746  0.8240  0.2615  1.3492
 8323SOL     OW36427   3.771   2.517   6.819  0.0838 -0.0251 -0.1602
 8323SOL    HW136428   3.783   2.486   6.729  0.6540  0.3319 -0.2040
 8323SOL    HW236429   3.745   2.441   6.872  1.7147  0.6667  1.6234
 8324SOL     OW36430   4.693   1.732  16.195 -0.3537  0.4326  0.0918
 8324SOL    HW136431   4.602   1.714  16.217 -0.4347  0.6871 -0.0435
 8324SOL    HW236432   4.708   1.685  16.113  4.3439 -0.0178  1.1748
 8325SOL     OW36433   1.444   3.920   6.739  0.3925  0.4448  0.1318
 8325SOL    HW136434   1.423   3.955   6.653  0.3258 -2.5995 -1.0762
 8325SOL    HW236435   1.459   3.995   6.797  0.2076 -0.6894  1.6399
 8326SOL     OW36436   3.893   3.493   7.403  0.3941 -0.2193 -0.1097
 8326SOL    HW136437   3.971   3.540   7.372 -0.0883 -0.0476 -1.0808
 8326SOL    HW236438   3.843   3.503   7.322 -0.8502 -0.2443  0.6549
 8327SOL     OW36439   0.395   1.379   1.805 -0.0494 -0.0069 -0.1405
 8327SOL    HW136440   0.336   1.453   1.792 -1.0248 -0.4632  1.7368
 8327SOL    HW236441   0.433   1.395   1.891  0.2941  0.4192 -0.3669
 8328SOL     OW36442   0.117   3.565  15.770 -0.3827  0.2820 -0.3638
 8328SOL    HW136443   0.180   3.629  15.803 -0.8585  1.1762 -1.1721
 8328SOL    HW236444   0.083   3.608  15.691 -0.1670 -2.2465 -1.8445
 8329SOL     OW36445   3.584   2.811  14.017 -0.7695 -0.2256  0.2289
 8329SOL    HW136446   3.651   2.758  14.060  0.2608  1.3089  0.5412
 8329SOL    HW236447   3.504   2.771  14.051 -1.2092  0.5028  0.0435
 8330SOL     OW36448   3.968   0.226   9.372 -0.2681  0.6503 -0.1563
 8330SOL    HW136449   4.037   0.245   9.309  1.1052  2.6961  1.9385
 8330SOL    HW236450   3.944   0.315   9.400 -0.8878 -0.1157  1.7653
 8331SOL     OW36451   1.634   0.389   8.212 -0.5456 -0.4087 -0.2292
 8331SOL    HW136452   1.693   0.339   8.268 -0.9088 -0.8119 -0.2022
 8331SOL    HW236453   1.552   0.348   8.241 -0.0201 -0.1497  1.6235
 8332SOL     OW36454   3.755   4.108  15.490 -0.9976  0.1424 -0.2928
 8332SOL    HW136455   3.723   4.018  15.499  1.8935 -0.7826  0.7771
 8332SOL    HW236456   3.675   4.159  15.498 -1.3727 -0.3198 -1.0808
 8333SOL     OW36457   1.618   0.822  14.354  0.2927 -0.1640 -0.6450
 8333SOL    HW136458   1.675   0.789  14.284  1.1068 -1.6907  0.7590
 8333SOL    HW236459   1.617   0.916  14.333  2.0271 -0.1818 -0.7895
 8334SOL     OW36460   4.569   4.368   3.310  0.5884  0.9122  0.7920
 8334SOL    HW136461   4.522   4.396   3.232  1.0543  0.3758  0.3113
 8334SOL    HW236462   4.631   4.305   3.272  0.7074  2.4783 -1.6310
 8335SOL     OW36463   2.733   0.054   8.706 -0.5549 -0.0275  0.3711
 8335SOL    HW136464   2.815   0.015   8.676 -1.7672 -1.2680 -1.3049
 8335SOL    HW236465   2.768   0.142   8.719 -0.2474 -0.0800 -0.1366
 8336SOL     OW36466   1.006   2.570   8.742 -0.6268 -0.2709 -0.4410
 8336SOL    HW136467   0.918   2.607   8.744 -0.8584 -0.9050  0.8951
 8336SOL    HW236468   0.981   2.480   8.758  1.5104 -1.0793 -1.6017
 8337SOL     OW36469   1.611   0.236   9.132  0.2698 -0.0064  0.0189
 8337SOL    HW136470   1.564   0.258   9.052  0.7551  0.5964 -0.1039
 8337SOL    HW236471   1.554   0.190   9.193 -0.2460  3.1065  1.8751
 8338SOL     OW36472   3.483   1.334   3.030  0.0602  0.3462  0.2311
 8338SOL    HW136473   3.427   1.381   3.092 -1.4871 -1.2668  0.0552
 8338SOL    HW236474   3.552   1.320   3.095  0.6947 -2.7908 -1.1224
 8339SOL     OW36475   4.282   0.201   4.333 -0.7848  0.4178  0.4897
 8339SOL    HW136476   4.244   0.265   4.394 -0.5952  1.0264 -0.0334
 8339SOL    HW236477   4.371   0.202   4.366 -0.2686  0.7648 -0.9366
 8340SOL     OW36478   2.218   1.013  11.935  0.2154 -0.2409 -0.5436
 8340SOL    HW136479   2.264   0.995  11.853  0.2774 -3.3552  0.1760
 8340SOL    HW236480   2.150   0.945  11.936 -0.1009  0.0794  0.6604
 8341SOL     OW36481   1.411   0.217   8.934  0.4127 -0.4992 -0.3955
 8341SOL    HW136482   1.340   0.159   8.905  0.1531 -0.6399  0.5201
 8341SOL    HW236483   1.362   0.299   8.940  1.7074  0.1494  1.2909
 8342SOL     OW36484   0.100   4.169   4.116  0.1446 -0.0689 -0.2091
 8342SOL    HW136485   0.159   4.192   4.188  1.1087  0.4187 -1.1497
 8342SOL    HW236486   0.166   4.142   4.053  1.2286 -1.7640  1.6616
 8343SOL     OW36487   0.246   3.058   8.411 -0.1632 -0.8564 -0.2494
 8343SOL    HW136488   0.230   3.142   8.452  0.2415 -0.7699 -0.2626
 8343SOL    HW236489   0.253   3.079   8.318 -0.3723 -1.4235 -0.3934
 8344SOL     OW36490   1.906   2.648  13.419  0.6110  0.0528  0.0432
 8344SOL    HW136491   1.862   2.594  13.485  0.7370 -1.9859 -1.5177
 8344SOL    HW236492   1.981   2.684  13.466 -1.1055  2.4770  0.8810
 8345SOL     OW36493   1.337   1.104   6.311 -0.0094  0.3445  0.1909
 8345SOL    HW136494   1.343   1.040   6.381  0.0024  0.0848 -0.0494
 8345SOL    HW236495   1.401   1.067   6.250 -0.9818  0.8686 -1.1680
 8346SOL     OW36496   0.740   0.077   4.546  1.2412 -0.3083 -0.2519
 8346SOL    HW136497   0.738   0.161   4.591 -0.4628 -1.4439  1.8182
 8346SOL    HW236498   0.654   0.040   4.567  1.4590 -1.6214 -1.6813
 8347SOL     OW36499   1.839   3.972   6.692 -0.2459 -0.0025  0.1994
 8347SOL    HW136500   1.790   4.052   6.672  1.4940  0.3448 -2.6896
 8347SOL    HW236501   1.775   3.923   6.743 -0.6221  0.5767  0.2817
 8348SOL     OW36502   0.431   3.351   2.693 -0.5368 -0.3637  0.1539
 8348SOL    HW136503   0.385   3.269   2.711  1.3455 -1.5831 -0.6372
 8348SOL    HW236504   0.493   3.323   2.626  2.1582  3.5135  0.9699
 8349SOL     OW36505   0.763   4.281   8.538 -0.1532 -0.1126 -0.4580
 8349SOL    HW136506   0.761   4.236   8.453 -1.5172 -1.4209  0.2894
 8349SOL    HW236507   0.772   4.197   8.583 -1.5851  0.2571  0.5038
 8350SOL     OW36508   1.839   0.082   7.371 -0.3773 -0.2863 -0.3161
 8350SOL    HW136509   1.921   0.037   7.351 -0.5688 -0.6027 -0.3948
 8350SOL    HW236510   1.782   0.005   7.376  0.3676 -0.8765 -0.9072
 8351SOL     OW36511   0.785   3.209   5.257 -0.0887 -0.1623 -0.5883
 8351SOL    HW136512   0.754   3.294   5.223 -0.6299  0.2896  1.0452
 8351SOL    HW236513   0.874   3.195   5.225  0.8012  2.0689  0.9507
 8352SOL     OW36514   4.068   4.701   4.374  0.4764  0.4528 -0.1837
 8352SOL    HW136515   4.121   0.057   4.353 -1.2854  1.5212 -0.7975
 8352SOL    HW236516   4.108   4.660   4.450  1.0678  1.7087  0.1754
 8353SOL     OW36517   0.990   0.149   7.098  0.2293  0.5102 -0.1198
 8353SOL    HW136518   1.045   0.225   7.081 -1.4303  0.9446 -3.6407
 8353SOL    HW236519   0.914   0.189   7.140 -0.9484  1.8060 -3.4270
 8354SOL     OW36520   0.129   2.428   5.955 -0.5582  0.3237  0.2894
 8354SOL    HW136521   0.200   2.364   5.967 -0.6847  0.3277  1.0514
 8354SOL    HW236522   0.155   2.501   6.011 -1.5457 -0.1091  1.3111
 8355SOL     OW36523   3.456   3.588  15.608  0.8843  0.0576 -0.1453
 8355SOL    HW136524   3.494   3.569  15.522 -0.5629  0.4066 -0.8642
 8355SOL    HW236525   3.445   3.683  15.610  1.6258  0.1056  1.9052
 8356SOL     OW36526   3.230   2.269   8.620 -0.0506 -0.3044  0.2894
 8356SOL    HW136527   3.256   2.332   8.552 -0.4514 -1.6404 -1.1030
 8356SOL    HW236528   3.275   2.302   8.697 -0.4898  1.7421 -0.3320
 8357SOL     OW36529   4.706   3.149   5.408  0.1363  0.2440 -0.1169
 8357SOL    HW136530   0.052   3.167   5.341  0.3297 -2.4380 -0.6249
 8357SOL    HW236531   4.668   3.066   5.381 -0.4034  0.0457  1.2417
 8358SOL     OW36532   0.306   0.791   7.636  0.5667  0.2889  0.5437
 8358SOL    HW136533   0.248   0.742   7.693 -2.3987  0.6384 -2.1726
 8358SOL    HW236534   0.255   0.782   7.555  1.3152  2.6207 -0.1983
 8359SOL     OW36535   2.265   1.421  16.183  0.4301 -0.0021 -0.1055
 8359SOL    HW136536   2.191   1.405  16.124 -1.3123  1.1410  1.7650
 8359SOL    HW236537   2.302   1.496  16.136  2.4153  0.1555  1.6984
 8360SOL     OW36538   0.886   3.536   8.836  0.1302 -0.0488  0.0027
 8360SOL    HW136539   0.888   3.507   8.927  0.3632  0.1782  0.0698
 8360SOL    HW236540   0.902   3.458   8.782 -1.0583 -1.2519  1.4251
 8361SOL     OW36541   4.329   4.197  12.977  0.4448  0.1594 -0.3698
 8361SOL    HW136542   4.276   4.120  12.994  0.8590 -0.0760 -0.1455
 8361SOL    HW236543   4.268   4.271  12.978 -1.1701 -1.1641  0.2697
 8362SOL     OW36544   2.385   0.945   7.216  0.3177 -0.4401  0.6076
 8362SOL    HW136545   2.474   0.981   7.211  0.0443  0.0451 -0.6922
 8362SOL    HW236546   2.380   0.913   7.306  0.7537 -1.3737  0.3075
 8363SOL     OW36547   4.567   4.584   5.485  0.0087  0.1418 -0.1962
 8363SOL    HW136548   4.496   4.556   5.543  0.1387 -2.0203 -1.0680
 8363SOL    HW236549   4.522   4.636   5.419 -1.0077 -0.0252  0.3613
 8364SOL     OW36550   0.478   3.914  14.586  0.0244 -0.2225 -0.0529
 8364SOL    HW136551   0.558   3.880  14.627  0.0637  0.5935  0.5437
 8364SOL    HW236552   0.442   3.834  14.548 -0.5633 -0.1980  0.4438
 8365SOL     OW36553   1.134   2.854   3.221 -0.2154  0.6835 -0.3418
 8365SOL    HW136554   1.158   2.772   3.264  1.2070  0.2731 -1.8973
 8365SOL    HW236555   1.164   2.831   3.133  1.5515  1.1619  0.1386
 8366SOL     OW36556   3.059   1.035   0.517 -0.1950  0.4385  0.1600
 8366SOL    HW136557   3.073   0.982   0.595 -0.4152 -1.6888 -1.2449
 8366SOL    HW236558   2.966   1.053   0.531 -0.5466 -0.9249 -0.4661
 8367SOL     OW36559   1.271   0.557  11.971  0.2932 -0.4586 -0.7796
 8367SOL    HW136560   1.201   0.520  11.918  1.7687 -3.1007 -0.9020
 8367SOL    HW236561   1.233   0.644  11.986  0.4395 -0.6259  0.5264
 8368SOL     OW36562   2.271   1.216   5.783  0.5251  0.7124 -0.3036
 8368SOL    HW136563   2.362   1.215   5.814  0.1258  0.1333  0.8479
 8368SOL    HW236564   2.285   1.246   5.693 -0.2567  1.9971  0.0058
 8369SOL     OW36565   0.583   1.291   1.086  0.2598  0.1777 -0.6558
 8369SOL    HW136566   0.555   1.278   1.176 -0.4007  2.0270 -0.5924
 8369SOL    HW236567   0.674   1.264   1.078  0.5280  0.6210  0.8902
 8370SOL     OW36568   1.954   3.465   3.978  0.0751  0.2522  0.3458
 8370SOL    HW136569   1.949   3.497   4.068  0.8162  2.0437 -0.2594
 8370SOL    HW236570   2.047   3.462   3.956  0.3343  0.1460  1.4437
 8371SOL     OW36571   0.522   2.750   1.725  0.6722  0.2733  0.0188
 8371SOL    HW136572   0.469   2.830   1.733 -1.7316 -1.5466  2.0748
 8371SOL    HW236573   0.575   2.781   1.651  0.3648 -2.0035 -1.1538
 8372SOL     OW36574   1.958   0.023  12.998 -0.0560  0.0784  0.1774
 8372SOL    HW136575   2.033   0.073  12.965  1.0797 -1.4695  0.3824
 8372SOL    HW236576   1.896   0.095  13.006  1.4376  1.2496  1.4362
 8373SOL     OW36577   4.409   2.186   9.255  0.4898 -0.1537  0.1985
 8373SOL    HW136578   4.440   2.271   9.222 -0.4121  0.4647  0.9442
 8373SOL    HW236579   4.384   2.208   9.344 -1.1917  0.4446 -0.4218
 8374SOL     OW36580   1.644   0.778   8.241  0.1377  0.4845 -0.4293
 8374SOL    HW136581   1.728   0.812   8.209  1.2574 -1.4034  0.4865
 8374SOL    HW236582   1.579   0.818   8.184 -0.2514  1.1200  0.4483
 8375SOL     OW36583   2.097   1.898   7.266  0.3470  0.5190  0.2714
 8375SOL    HW136584   2.121   1.957   7.194 -3.2056  1.9789  0.2897
 8375SOL    HW236585   2.105   1.954   7.343  0.6564 -1.8928  1.9713
 8376SOL     OW36586   2.934   0.617   8.400  0.4352  0.5586 -0.2442
 8376SOL    HW136587   2.912   0.681   8.468 -2.0557 -1.0171  0.4168
 8376SOL    HW236588   3.010   0.579   8.444 -0.2201 -0.8358 -0.3481
 8377SOL     OW36589   2.206   0.190   5.173 -0.2601 -0.3015 -0.3533
 8377SOL    HW136590   2.144   0.157   5.108  0.3277 -0.5669 -0.7768
 8377SOL    HW236591   2.190   0.139   5.252 -0.0359 -0.4799 -0.4242
 8378SOL     OW36592   0.878   3.278   2.539  0.0264 -0.2151  0.4914
 8378SOL    HW136593   0.932   3.213   2.584 -1.0731  0.1483  2.3425
 8378SOL    HW236594   0.934   3.304   2.466 -0.2396 -0.3953  0.2205
 8379SOL     OW36595   1.715   0.863   0.686  0.0911 -0.1049 -0.0179
 8379SOL    HW136596   1.698   0.903   0.771 -0.0468  1.5933 -0.8307
 8379SOL    HW236597   1.636   0.818   0.656 -0.5494  1.2900 -0.4398
 8380SOL     OW36598   0.014   2.602   6.998 -0.7671  0.2925  0.4913
 8380SOL    HW136599   4.679   2.658   7.052 -1.2026 -1.3969  1.7786
 8380SOL    HW236600   0.102   2.620   7.034 -0.0108 -0.5322 -0.9542
 8381SOL     OW36601   3.109   1.892   2.361  0.3380 -0.2986 -0.3580
 8381SOL    HW136602   3.166   1.823   2.398 -1.1953 -1.1165  0.4663
 8381SOL    HW236603   3.027   1.843   2.369 -0.0318  0.5408  0.9423
 8382SOL     OW36604   1.943   1.799   6.986  0.2925  0.5496  0.8428
 8382SOL    HW136605   2.011   1.827   6.925 -0.9565 -0.3538 -0.9743
 8382SOL    HW236606   1.865   1.790   6.930  1.6305 -0.1141 -0.9164
 8383SOL     OW36607   2.475   2.684  12.286  0.4196 -0.0374  0.0315
 8383SOL    HW136608   2.380   2.669  12.283  0.7207 -1.9754  0.2623
 8383SOL    HW236609   2.510   2.607  12.331 -0.0360 -1.4019 -1.9667
 8384SOL     OW36610   2.427   2.505  12.540 -0.1488  0.4209 -0.1076
 8384SOL    HW136611   2.418   2.552  12.623 -0.0358  1.5204 -0.7189
 8384SOL    HW236612   2.371   2.428  12.548 -0.0424  0.4666  1.1362
 8385SOL     OW36613   1.493   3.646   2.477 -0.0154  0.5140 -0.3332
 8385SOL    HW136614   1.562   3.709   2.499 -0.8811  1.2729  0.2423
 8385SOL    HW236615   1.527   3.560   2.501 -3.0996 -0.6661 -0.2163
 8386SOL     OW36616   0.928   2.972  10.902 -0.0705  0.4251 -0.0526
 8386SOL    HW136617   0.864   3.000  10.837 -0.6837 -0.3560  0.2146
 8386SOL    HW236618   0.950   2.882  10.877  0.4175  1.0282 -1.8017
 8387SOL     OW36619   0.319   3.480  14.915 -0.7684 -0.2456  0.6421
 8387SOL    HW136620   0.294   3.403  14.864  4.4111 -1.6941  0.2748
 8387SOL    HW236621   0.284   3.551  14.861  0.8872 -1.0408 -1.5000
 8388SOL     OW36622   4.692   0.150   3.095  0.0943 -0.3968 -0.9254
 8388SOL    HW136623   4.631   0.222   3.081  1.7514  0.9329 -1.2675
 8388SOL    HW236624   0.003   0.148   3.005  1.2280 -1.6081 -0.4945
 8389SOL     OW36625   1.260   0.152   3.937  1.1803  0.6672  0.6755
 8389SOL    HW136626   1.188   0.167   3.875 -0.2239 -2.4110  1.5417
 8389SOL    HW236627   1.242   0.063   3.968  0.2046 -0.1174 -2.0857
 8390SOL     OW36628   4.335   0.510   9.756  0.1597 -0.5495  0.6299
 8390SOL    HW136629   4.404   0.577   9.761  0.1366 -0.4004 -0.9438
 8390SOL    HW236630   4.320   0.529   9.663 -0.6421 -1.4764  0.5709
 8391SOL     OW36631   3.256   0.676  11.774 -0.4296  0.2510 -0.1675
 8391SOL    HW136632   3.191   0.739  11.808 -1.9657 -1.6878  0.5061
 8391SOL    HW236633   3.335   0.704  11.820 -0.4155 -0.8638  0.4703
 8392SOL     OW36634   4.077   4.346  10.052  0.5747  0.3981  0.1801
 8392SOL    HW136635   4.089   4.325   9.959 -0.8863  1.1779 -0.1837
 8392SOL    HW236636   4.035   4.431  10.044 -0.1117  0.2825  2.7636
 8393SOL     OW36637   4.263   1.833   7.741 -0.1406  0.0267  0.3717
 8393SOL    HW136638   4.317   1.764   7.704 -2.0699 -0.4851 -1.4748
 8393SOL    HW236639   4.323   1.907   7.743 -0.8804  0.6661 -0.9049
 8394SOL     OW36640   3.329   0.899  12.405 -0.2813  0.6514  0.1899
 8394SOL    HW136641   3.257   0.951  12.369  1.2617  1.0854 -2.2433
 8394SOL    HW236642   3.300   0.816  12.368  0.8886  0.6639 -0.7477
 8395SOL     OW36643   2.321   4.550   4.515 -0.2470 -0.6388  0.0355
 8395SOL    HW136644   2.273   4.546   4.598  1.1606 -4.2039  0.6910
 8395SOL    HW236645   2.302   4.638   4.484  0.7697 -1.2503 -2.3107
 8396SOL     OW36646   3.503   2.895   6.218 -0.1280 -0.0898  0.2046
 8396SOL    HW136647   3.501   2.812   6.171 -1.7160 -0.8281  1.5798
 8396SOL    HW236648   3.463   2.949   6.150 -0.2822  1.1162  1.2355
 8397SOL     OW36649   1.600   1.154   1.534  0.2219  0.0608  0.4851
 8397SOL    HW136650   1.558   1.093   1.594  0.3829  1.0619  1.6350
 8397SOL    HW236651   1.691   1.147   1.565  0.8210 -0.1456 -1.3041
 8398SOL     OW36652   1.844   2.972   5.050  0.0957  0.1796  0.2990
 8398SOL    HW136653   1.852   2.953   4.957  0.1931  0.4062  0.2602
 8398SOL    HW236654   1.845   3.068   5.051 -2.4996  0.2009 -1.2363
 8399SOL     OW36655   0.274   0.182   7.242  0.7663  0.6565  0.0012
 8399SOL    HW136656   0.187   0.164   7.276 -0.0217  1.3795 -1.6609
 8399SOL    HW236657   0.286   0.134   7.160 -0.4465 -0.6609  0.5864
 8400SOL     OW36658   2.741   1.516  12.205  0.5747  0.1236 -0.6624
 8400SOL    HW136659   2.818   1.529  12.259 -1.0558  2.5486  1.0503
 8400SOL    HW236660   2.781   1.536  12.120  1.6352  1.1814  0.0962
 8401SOL     OW36661   1.037   2.121   7.561  0.2529 -0.3912  0.3671
 8401SOL    HW136662   1.067   2.153   7.647 -0.0072  0.8272 -0.0039
 8401SOL    HW236663   0.979   2.050   7.588 -0.4843  0.3462  0.7247
 8402SOL     OW36664   3.561   1.309   5.345  0.2327 -0.0162  0.1061
 8402SOL    HW136665   3.506   1.233   5.326  0.7841  0.1116 -1.9437
 8402SOL    HW236666   3.639   1.279   5.297 -0.8578  0.2258 -1.8127
 8403SOL     OW36667   4.506   1.962   8.783 -0.2740 -0.3219  0.0636
 8403SOL    HW136668   4.486   1.918   8.865 -0.9702  0.4482  0.3094
 8403SOL    HW236669   4.598   1.943   8.762 -0.7063 -0.1148 -1.9733
 8404SOL     OW36670   2.289   0.294   6.560 -0.2873  0.4101 -0.1285
 8404SOL    HW136671   2.243   0.225   6.513 -2.2823  1.5671  0.1304
 8404SOL    HW236672   2.335   0.247   6.630 -0.0532  1.9853  0.7879
 8405SOL     OW36673   1.073   3.717  13.139 -0.1035  0.3317  0.2481
 8405SOL    HW136674   1.005   3.783  13.129 -1.9667 -1.7164 -0.4478
 8405SOL    HW236675   1.022   3.665  13.201 -3.0385  1.3619 -1.3447
 8406SOL     OW36676   3.157   1.979  16.702 -0.7495  0.1783 -0.6598
 8406SOL    HW136677   3.067   1.972  16.732 -0.2152 -1.7748  0.4852
 8406SOL    HW236678   3.193   1.916  16.765 -0.5846  0.3328 -0.5978
 8407SOL     OW36679   3.478   1.978   8.911  0.1070 -0.4334 -0.4205
 8407SOL    HW136680   3.407   1.919   8.937 -0.9110  0.8133 -0.4306
 8407SOL    HW236681   3.432   2.061   8.918 -0.5498 -0.7214 -1.3819
 8408SOL     OW36682   2.478   2.507   6.083  0.3496 -0.2150  0.0211
 8408SOL    HW136683   2.479   2.420   6.124 -0.7124 -0.9099 -1.4264
 8408SOL    HW236684   2.502   2.486   5.993 -0.5010  0.2923 -0.3190
 8409SOL     OW36685   3.611   0.355   6.391  0.6280  0.2866 -0.3752
 8409SOL    HW136686   3.588   0.391   6.305  1.0374 -0.6312 -0.8686
 8409SOL    HW236687   3.668   0.283   6.366  0.3528  0.6808 -2.1808
 8410SOL     OW36688   1.442   4.598   4.496 -0.0603 -0.2603 -0.4038
 8410SOL    HW136689   1.480   4.685   4.490 -2.7327  0.8991 -0.3628
 8410SOL    HW236690   1.485   4.568   4.576 -0.4682  0.7345  0.1833
 8411SOL     OW36691   3.234   4.125   3.803  0.1159 -0.2890 -0.7357
 8411SOL    HW136692   3.261   4.155   3.717 -0.1427 -0.0996 -0.7529
 8411SOL    HW236693   3.277   4.186   3.864  1.2224  0.3855 -2.2108
 8412SOL     OW36694   0.717   3.739   8.750  0.4936  0.8312  0.2734
 8412SOL    HW136695   0.779   3.671   8.772  0.8248  0.8294 -0.6765
 8412SOL    HW236696   0.782   3.808   8.763  1.8272 -0.1600 -1.2872
 8413SOL     OW36697   1.438   2.579   0.616  0.0088 -0.5423  0.2882
 8413SOL    HW136698   1.510   2.521   0.642 -2.1458 -2.5252  1.7389
 8413SOL    HW236699   1.485   2.660   0.635 -3.3734  1.7722 -1.2269
 8414SOL     OW36700   0.233   1.901   5.180 -0.1195  0.0079 -0.3463
 8414SOL    HW136701   0.225   1.899   5.275  1.3910 -0.8919 -0.2271
 8414SOL    HW236702   0.149   1.917   5.137 -0.2751 -0.5446 -0.2391
 8415SOL     OW36703   1.285   0.336   2.502 -0.1288  0.4498 -0.5119
 8415SOL    HW136704   1.373   0.303   2.522 -0.6005 -0.6743 -0.2635
 8415SOL    HW236705   1.243   0.261   2.459  2.8784 -0.7794 -1.3027
 8416SOL     OW36706   3.092   2.099   9.168 -0.6159  0.3633  0.7301
 8416SOL    HW136707   3.120   2.027   9.112  0.6198 -0.2800  2.1678
 8416SOL    HW236708   3.153   2.078   9.238 -0.0823 -1.5497 -0.3304
 8417SOL     OW36709   0.849   1.453   4.680 -0.1700 -0.0687  0.7041
 8417SOL    HW136710   0.844   1.423   4.589 -1.1520 -3.9187  2.0352
 8417SOL    HW236711   0.768   1.422   4.721 -0.9623 -1.5901 -2.0066
 8418SOL     OW36712   2.071   0.935  14.221 -0.0028  0.2243  0.2158
 8418SOL    HW136713   2.115   0.933  14.136 -1.5356 -0.0340 -0.5585
 8418SOL    HW236714   2.007   1.004  14.205  0.6868  0.8974  0.3534
 8419SOL     OW36715   4.301   2.772   3.713 -0.0620  0.2961  0.2550
 8419SOL    HW136716   4.233   2.705   3.701 -1.3669  1.5394  0.6738
 8419SOL    HW236717   4.274   2.839   3.649 -1.5136  1.0212  1.6107
 8420SOL     OW36718   2.724   4.006   4.411 -0.1594  0.0450 -0.2593
 8420SOL    HW136719   2.741   4.098   4.393  1.0731 -0.4355 -1.5959
 8420SOL    HW236720   2.655   4.010   4.477 -1.1608 -0.9542 -1.2372
 8421SOL     OW36721   1.808   0.217   1.807 -0.2562 -0.3644  0.3406
 8421SOL    HW136722   1.755   0.140   1.782  0.4024 -1.1766  1.4625
 8421SOL    HW236723   1.853   0.191   1.887  1.5581  2.2208  0.1586
 8422SOL     OW36724   2.167   0.030  14.014 -0.4915  0.3764  0.1876
 8422SOL    HW136725   2.122   4.666  14.008 -0.2924  0.2454  0.5480
 8422SOL    HW236726   2.188   0.043  13.922  0.5887 -0.0304  0.3773
 8423SOL     OW36727   3.687   2.382   3.244  0.7725 -0.3921  0.1581
 8423SOL    HW136728   3.667   2.315   3.179 -0.6152  1.2814 -1.1141
 8423SOL    HW236729   3.778   2.400   3.217  0.6705  0.3396  0.3166
 8424SOL     OW36730   1.489   2.769   8.260  0.0040  0.0987 -0.3028
 8424SOL    HW136731   1.470   2.781   8.353 -0.5370 -1.5984 -0.1843
 8424SOL    HW236732   1.422   2.705   8.234  3.2294 -3.0440 -0.9348
 8425SOL     OW36733   2.283   4.034   7.496 -0.4325  0.5532  0.2783
 8425SOL    HW136734   2.262   3.950   7.456 -1.5494  1.3018 -0.7139
 8425SOL    HW236735   2.340   4.003   7.566  0.1056 -0.9558 -0.8288
 8426SOL     OW36736   2.763   0.154   0.412  0.1124  0.6155  0.1109
 8426SOL    HW136737   2.823   0.225   0.388  1.7988 -0.7920  0.1425
 8426SOL    HW236738   2.780   0.089   0.344  1.7941 -1.7066  2.7663
 8427SOL     OW36739   0.714   2.613   9.469  0.1071  0.0213 -0.0547
 8427SOL    HW136740   0.743   2.532   9.511 -2.2234 -0.5257  0.5090
 8427SOL    HW236741   0.660   2.644   9.542 -0.5973  0.5919 -0.8103
 8428SOL     OW36742   1.808   0.733   0.177  0.2197 -0.1106 -0.4507
 8428SOL    HW136743   1.841   0.645   0.159 -2.7277 -1.2457 -0.2830
 8428SOL    HW236744   1.854   0.750   0.260 -0.7876  1.0625 -0.1209
 8429SOL     OW36745   3.711   1.041   5.031  0.5649 -0.3360  0.2063
 8429SOL    HW136746   3.784   1.066   5.089  0.6490 -1.5444  0.6183
 8429SOL    HW236747   3.752   1.029   4.945  3.3672  2.7175  1.0799
 8430SOL     OW36748   1.055   1.268   2.337 -0.1793 -0.5636  0.4207
 8430SOL    HW136749   1.070   1.311   2.421 -1.1685  0.2326  0.1899
 8430SOL    HW236750   0.960   1.263   2.327 -0.4432  2.7455  1.2690
 8431SOL     OW36751   0.980   2.785   5.969  0.1882  0.5259 -0.2073
 8431SOL    HW136752   0.944   2.852   6.028  0.5705 -0.2603  0.9085
 8431SOL    HW236753   0.927   2.708   5.988  0.4440  0.4679  0.2747
 8432SOL     OW36754   3.123   2.207   6.517  0.0556  0.8589  0.2131
 8432SOL    HW136755   3.191   2.251   6.569  2.2444 -0.4212 -1.5497
 8432SOL    HW236756   3.058   2.270   6.548 -0.3708 -0.1696  1.3838
 8433SOL     OW36757   4.186   4.563   7.224 -0.1415  0.2991 -0.2774
 8433SOL    HW136758   4.128   4.496   7.260  2.7544 -1.6490  0.7487
 8433SOL    HW236759   4.126   4.619   7.175 -2.2789  0.0389  2.0565
 8434SOL     OW36760   2.677   1.714   5.419  0.2445  0.2752  0.9811
 8434SOL    HW136761   2.767   1.737   5.444  0.7956  0.9869 -1.7317
 8434SOL    HW236762   2.672   1.620   5.436 -1.2227  0.5412  2.0647
 8435SOL     OW36763   3.528   0.536   1.443  0.0090 -0.3053  0.0382
 8435SOL    HW136764   3.478   0.495   1.513  0.6418 -0.9940  0.0867
 8435SOL    HW236765   3.585   0.595   1.492 -1.6322  2.3319 -1.1921
 8436SOL     OW36766   4.064   4.165   7.582  0.4415 -0.2711  0.0869
 8436SOL    HW136767   4.050   4.084   7.533  2.7840  0.5286 -1.8811
 8436SOL    HW236768   4.014   4.230   7.534 -0.1951 -0.8815 -0.0792
 8437SOL     OW36769   2.381   3.270  10.785 -0.1616  0.2588  0.6426
 8437SOL    HW136770   2.294   3.277  10.823 -0.6432 -0.3491 -0.3434
 8437SOL    HW236771   2.431   3.255  10.866  2.0936 -3.7701 -1.4641
 8438SOL     OW36772   0.582   3.646   5.969 -0.1935 -0.2188  0.3541
 8438SOL    HW136773   0.660   3.689   5.934 -1.1116  0.3633 -0.9784
 8438SOL    HW236774   0.578   3.570   5.911  1.5056  0.3227 -0.4753
 8439SOL     OW36775   0.356   4.269   2.986  0.8977  0.2189 -0.6139
 8439SOL    HW136776   0.324   4.226   2.907  2.6641  0.6009 -1.5455
 8439SOL    HW236777   0.324   4.358   2.974 -0.4749 -0.2970 -0.7561
 8440SOL     OW36778   1.040   1.728   0.360 -0.2739 -0.1229 -0.3816
 8440SOL    HW136779   1.027   1.640   0.326  0.4992  0.0116 -1.0258
 8440SOL    HW236780   0.975   1.781   0.313  1.0955  3.0064  1.2716
 8441SOL     OW36781   1.287   3.124   4.987 -0.1208 -0.1026  0.2248
 8441SOL    HW136782   1.353   3.185   4.955  0.3374 -1.4175 -1.3415
 8441SOL    HW236783   1.257   3.082   4.907  0.4007 -1.6685  0.8461
 8442SOL     OW36784   2.619   4.327   6.546 -0.2735  0.1908  0.4298
 8442SOL    HW136785   2.615   4.357   6.455  0.8614 -2.4675 -0.5028
 8442SOL    HW236786   2.686   4.386   6.581  0.3343  0.2752 -0.8964
 8443SOL     OW36787   0.715   2.289   7.319 -0.7457 -1.1475 -0.4815
 8443SOL    HW136788   0.699   2.230   7.392  1.1474 -1.6415 -0.4655
 8443SOL    HW236789   0.775   2.232   7.271 -0.3390 -1.6996  0.7027
 8444SOL     OW36790   0.007   3.609  14.948  0.4200 -0.1487 -0.0771
 8444SOL    HW136791   4.710   3.593  14.855  0.3089 -0.8818  0.0717
 8444SOL    HW236792   4.694   3.697  14.967 -1.0061 -0.4548 -1.1765
 8445SOL     OW36793   0.525   2.500   5.787  0.3241 -0.3565  0.2803
 8445SOL    HW136794   0.476   2.426   5.822 -1.5371 -0.0074 -1.5232
 8445SOL    HW236795   0.466   2.571   5.814  1.8952  0.1946  2.2156
 8446SOL     OW36796   2.800   2.015   0.796  0.0619  0.2619  0.1711
 8446SOL    HW136797   2.875   1.963   0.827  0.3331  1.1533  1.0033
 8446SOL    HW236798   2.808   2.095   0.849  2.8246  0.1987 -0.1436
 8447SOL     OW36799   4.560   1.023  15.036  0.1194 -0.4380  0.3431
 8447SOL    HW136800   4.627   0.956  15.048  0.4532 -0.2319 -0.3777
 8447SOL    HW236801   4.589   1.077  14.963 -1.7602 -0.4901 -0.4533
 8448SOL     OW36802   1.793   0.400  13.087  0.0121 -0.0146  0.1641
 8448SOL    HW136803   1.844   0.478  13.067 -1.9927  1.1327 -0.5858
 8448SOL    HW236804   1.775   0.360  13.001  1.8710  0.1093 -0.2747
 8449SOL     OW36805   2.811   2.922   7.398 -0.5884 -0.3105 -0.1656
 8449SOL    HW136806   2.831   2.905   7.490  2.3738 -0.5678 -0.8384
 8449SOL    HW236807   2.897   2.912   7.357 -0.3798 -0.0350  0.2009
 8450SOL     OW36808   0.715   3.669  14.427 -0.6495 -0.4318  0.7314
 8450SOL    HW136809   0.764   3.587  14.430  0.4056  0.0984 -2.4223
 8450SOL    HW236810   0.687   3.660  14.519 -2.7577  0.0008  0.1367
 8451SOL     OW36811   1.667   3.672   9.243  0.0939  0.5432 -0.0043
 8451SOL    HW136812   1.581   3.690   9.280 -0.5570  0.7630 -1.6243
 8451SOL    HW236813   1.638   3.642   9.157  2.6542  1.4518 -1.1826
 8452SOL     OW36814   4.580   4.404   4.650 -0.6286  0.2207  0.2637
 8452SOL    HW136815   4.546   4.474   4.595  0.0019  0.4238  0.1346
 8452SOL    HW236816   4.507   4.342   4.651 -0.0230 -0.5034 -0.0428
 8453SOL     OW36817   1.432   3.074   9.123  0.0387  0.7305  0.3467
 8453SOL    HW136818   1.431   3.101   9.215  0.0229 -1.6932  1.0497
 8453SOL    HW236819   1.365   3.006   9.116  0.1590  0.2648  3.4703
 8454SOL     OW36820   0.167   4.410  10.633  0.5609 -0.0203  0.1456
 8454SOL    HW136821   0.126   4.455  10.707  1.2609  0.2267  0.3855
 8454SOL    HW236822   0.177   4.329  10.683  0.5826  0.5017  0.9879
 8455SOL     OW36823   1.428   3.598   6.958  0.2767  0.5783  0.1282
 8455SOL    HW136824   1.469   3.624   7.040 -1.1220  1.0883  0.6575
 8455SOL    HW236825   1.335   3.617   6.967 -0.0366 -0.1319 -1.5138
 8456SOL     OW36826   0.076   3.093  11.660 -0.1225  0.1983  0.0195
 8456SOL    HW136827   0.099   3.062  11.748 -0.4929  0.2155  0.1217
 8456SOL    HW236828   0.136   3.042  11.606  1.1599  2.7398 -0.9692
 8457SOL     OW36829   0.522   3.817   7.560 -0.1995  0.0177  0.0375
 8457SOL    HW136830   0.511   3.881   7.630 -0.7103 -0.0261 -0.0087
 8457SOL    HW236831   0.431   3.816   7.531  0.3745  3.2025 -1.8548
 8458SOL     OW36832   1.578   3.188   0.175 -0.5733 -0.6935 -0.1200
 8458SOL    HW136833   1.582   3.136   0.255  2.2178  2.6656  1.9076
 8458SOL    HW236834   1.658   3.157   0.133  0.0004  0.4048  0.1646
 8459SOL     OW36835   0.529   2.070   5.728 -0.2286 -0.0816 -0.7061
 8459SOL    HW136836   0.439   2.098   5.709 -1.4437 -3.0098  0.8829
 8459SOL    HW236837   0.525   2.046   5.820 -1.1688  0.7229 -0.5428
 8460SOL     OW36838   3.938   1.567  13.967 -0.4933 -0.0990 -0.0052
 8460SOL    HW136839   3.963   1.653  14.003  0.1264  0.6702 -2.2813
 8460SOL    HW236840   3.896   1.524  14.041  1.3601  0.3065  1.2768
 8461SOL     OW36841   4.610   1.723   6.187 -0.1425  0.0348  0.2917
 8461SOL    HW136842   4.547   1.792   6.165  0.9899  0.8594 -0.3464
 8461SOL    HW236843   4.691   1.772   6.198 -1.1305  1.8212 -0.3344
 8462SOL     OW36844   1.601   3.547   6.398  0.2447 -0.2598  0.4418
 8462SOL    HW136845   1.585   3.490   6.323 -2.1013 -0.5542  1.1483
 8462SOL    HW236846   1.571   3.629   6.358  2.3559 -0.8732 -2.3639
 8463SOL     OW36847   2.794   3.780   9.277 -0.0049 -0.0419 -0.2622
 8463SOL    HW136848   2.758   3.777   9.189  0.3567 -1.9451 -0.3490
 8463SOL    HW236849   2.760   3.865   9.302  0.8191 -0.3190  1.7909
 8464SOL     OW36850   3.464   2.553   6.274 -0.2596 -0.3317 -0.6105
 8464SOL    HW136851   3.416   2.604   6.340 -0.0882 -0.5652 -0.3080
 8464SOL    HW236852   3.458   2.609   6.196  1.2517 -1.2223 -1.3683
 8465SOL     OW36853   1.512   0.397  10.196 -0.4522 -0.5287  0.1526
 8465SOL    HW136854   1.547   0.455  10.129  0.2274 -2.8477 -1.5059
 8465SOL    HW236855   1.497   0.463  10.263 -0.6816 -0.8023  0.3746
 8466SOL     OW36856   1.596   2.705   7.906  0.0278  0.2929  0.2331
 8466SOL    HW136857   1.571   2.796   7.927  0.3311 -0.4504  3.9365
 8466SOL    HW236858   1.691   2.713   7.908 -0.1289  2.2234  0.6027
 8467SOL     OW36859   4.131   1.066  11.192  0.5176 -0.1778  0.4341
 8467SOL    HW136860   4.186   1.032  11.262  1.0192 -1.2392 -0.4703
 8467SOL    HW236861   4.045   1.032  11.216  0.2911  1.0241  1.2778
 8468SOL     OW36862   2.092   1.137   4.888  0.1374  0.2060 -0.1113
 8468SOL    HW136863   2.080   1.224   4.849 -0.8160  0.0800 -0.0955
 8468SOL    HW236864   2.008   1.127   4.932  0.4565 -0.6027  0.3060
 8469SOL     OW36865   4.341   2.197   4.588  0.0187 -0.0235  0.2115
 8469SOL    HW136866   4.425   2.179   4.630  0.0436  0.4021  0.3395
 8469SOL    HW236867   4.355   2.164   4.499 -0.3183  0.7357 -0.1188
 8470SOL     OW36868   3.153   1.655  10.633 -0.0671  0.7915 -0.3515
 8470SOL    HW136869   3.130   1.610  10.714 -1.3687  2.3843  0.1612
 8470SOL    HW236870   3.113   1.741  10.644  1.1255  1.2047  0.6601
 8471SOL     OW36871   3.074   0.016   4.140 -0.5795  0.4071  0.0135
 8471SOL    HW136872   3.029   0.091   4.102  0.1280 -0.2997 -2.2132
 8471SOL    HW236873   3.021   4.717   4.217  0.2596 -2.5617 -0.1646
 8472SOL     OW36874   3.640   1.127   9.406  0.2052  0.1478  0.4881
 8472SOL    HW136875   3.636   1.045   9.454  0.3413 -0.4230 -0.4691
 8472SOL    HW236876   3.732   1.130   9.379 -0.5660  0.8907 -2.0694
 8473SOL     OW36877   3.921   3.159   4.863  0.0173 -0.8857  0.0740
 8473SOL    HW136878   4.012   3.132   4.858 -0.0848 -1.3985  0.8932
 8473SOL    HW236879   3.926   3.221   4.935 -0.0858 -3.8429  2.6468
 8474SOL     OW36880   3.689   0.886   8.882  0.3959  0.6112 -0.4767
 8474SOL    HW136881   3.684   0.962   8.940  0.1206  1.6100 -1.8082
 8474SOL    HW236882   3.598   0.872   8.855  0.0555 -3.0718  2.6645
 8475SOL     OW36883   3.256   1.277   3.878 -0.2228  0.4099  0.0011
 8475SOL    HW136884   3.345   1.309   3.858  0.3066 -0.1820  1.4345
 8475SOL    HW236885   3.260   1.327   3.959 -0.4910  0.9054 -0.2899
 8476SOL     OW36886   3.925   0.029   8.783 -0.3513 -1.2995  0.1162
 8476SOL    HW136887   3.894   0.029   8.873 -1.1922  3.1293 -0.2028
 8476SOL    HW236888   3.918   4.655   8.765 -2.9508 -1.4353  1.7822
 8477SOL     OW36889   1.501   2.188   5.575 -0.0781  0.2492  0.0575
 8477SOL    HW136890   1.450   2.258   5.616 -1.8705 -0.4149 -1.0571
 8477SOL    HW236891   1.578   2.224   5.530 -0.2855  1.3485  0.5797
 8478SOL     OW36892   4.202   0.797   6.214 -0.0930  1.2192 -0.1970
 8478SOL    HW136893   4.205   0.766   6.305 -2.4953  0.4691 -0.3772
 8478SOL    HW236894   4.269   0.865   6.210  1.1936  0.0650  1.3534
 8479SOL     OW36895   2.583   0.226   3.513 -0.3544 -0.3988 -0.2899
 8479SOL    HW136896   2.493   0.256   3.511 -0.8244 -1.7047  1.4569
 8479SOL    HW236897   2.599   0.200   3.422 -3.7274 -0.8620 -0.7632
 8480SOL     OW36898   3.440   4.712   5.385 -0.3372  0.0510  0.1248
 8480SOL    HW136899   3.383   0.009   5.310 -1.0851 -0.4010  0.5939
 8480SOL    HW236900   3.502   0.063   5.373 -1.9655  1.3072 -0.7085
 8481SOL     OW36901   4.085   2.420  10.567  0.2539 -0.1395 -0.1663
 8481SOL    HW136902   4.026   2.382  10.502 -2.2990  1.2260  1.3597
 8481SOL    HW236903   4.081   2.353  10.634  0.0677  0.3815  0.3394
 8482SOL     OW36904   4.138   3.222   6.559 -0.2274 -0.3217 -0.6218
 8482SOL    HW136905   4.230   3.224   6.531 -0.0198  0.4062  0.1059
 8482SOL    HW236906   4.090   3.154   6.513  3.3508 -1.2695 -2.9510
 8483SOL     OW36907   1.625   3.693   5.126 -0.1948  0.1833  0.1703
 8483SOL    HW136908   1.571   3.743   5.187 -0.2991 -1.2279  1.2259
 8483SOL    HW236909   1.614   3.750   5.050 -0.6581 -1.1022 -0.7219
 8484SOL     OW36910   2.520   4.282   0.567 -1.1458  0.0453  0.0999
 8484SOL    HW136911   2.529   4.295   0.661  0.0256  0.3764 -0.0642
 8484SOL    HW236912   2.528   4.187   0.553  1.5547 -0.1928  3.1773
 8485SOL     OW36913   1.517   1.053  15.370 -0.4155 -0.4401  0.1095
 8485SOL    HW136914   1.594   1.105  15.349 -1.0043  0.1390 -0.6141
 8485SOL    HW236915   1.552   0.966  15.391  0.0028 -0.2983 -0.0115
 8486SOL     OW36916   0.683   2.957  14.620  0.0271  0.2282  0.2621
 8486SOL    HW136917   0.764   2.950  14.569 -1.2673 -0.7340 -1.6274
 8486SOL    HW236918   0.645   2.874  14.591  0.7242 -0.0340  0.1057
 8487SOL     OW36919   0.058   1.278   0.371  0.3099 -0.3691  0.5751
 8487SOL    HW136920   0.106   1.359   0.387 -0.3832  0.0599  0.4621
 8487SOL    HW236921   0.133   1.219   0.385 -0.3114 -1.1991  0.4269
 8488SOL     OW36922   2.881   2.118   6.295 -0.1927  0.4754  0.0942
 8488SOL    HW136923   2.919   2.162   6.219 -1.9651 -1.1618 -1.7101
 8488SOL    HW236924   2.950   2.130   6.360  0.5754  2.2070 -1.0398
 8489SOL     OW36925   4.064   2.583   1.098  0.7111 -1.0335 -0.3407
 8489SOL    HW136926   4.037   2.595   1.189 -1.4677  0.4402 -1.1711
 8489SOL    HW236927   4.004   2.650   1.063  0.9726 -1.6898 -2.0527
 8490SOL     OW36928   3.213   4.109  17.341 -0.2514 -0.1692 -0.2886
 8490SOL    HW136929   3.219   4.143  17.251  1.3192  2.0804  0.6752
 8490SOL    HW236930   3.130   4.149  17.368  0.7793  0.9052  1.2641
 8491SOL     OW36931   3.756   2.547   4.279 -0.5312 -0.4252 -0.2471
 8491SOL    HW136932   3.748   2.486   4.205  0.5031 -0.0463 -0.6743
 8491SOL    HW236933   3.702   2.502   4.344  0.2733  0.5571  1.1080
 8492SOL     OW36934   4.164   4.288  13.522  0.1037  0.4087 -0.5727
 8492SOL    HW136935   4.252   4.321  13.506 -0.3059  0.8150 -1.9876
 8492SOL    HW236936   4.176   4.215  13.462  1.7066  1.3207 -1.3466
 8493SOL     OW36937   2.873   0.110  16.068 -0.5197 -0.0839 -0.3177
 8493SOL    HW136938   2.846   0.174  16.134  3.6548  1.2781  0.0467
 8493SOL    HW236939   2.790   0.088  16.025 -0.6859  0.5500 -0.3204
 8494SOL     OW36940   3.251   2.708   3.982  0.3862 -0.5758  0.1629
 8494SOL    HW136941   3.233   2.616   4.001 -2.1431 -0.3901 -1.3648
 8494SOL    HW236942   3.281   2.699   3.892  1.5138  1.5110  0.3241
 8495SOL     OW36943   2.837   4.295   5.666 -0.0061  0.2640 -0.3446
 8495SOL    HW136944   2.784   4.294   5.586 -0.2649 -2.8378 -0.1568
 8495SOL    HW236945   2.836   4.389   5.685 -1.9198  0.5328 -1.8498
 8496SOL     OW36946   3.625   3.823   6.486 -0.6053  0.2549 -0.2056
 8496SOL    HW136947   3.575   3.749   6.452 -1.2096 -0.2367  1.7303
 8496SOL    HW236948   3.593   3.892   6.428  0.8879 -0.9176 -2.4325
 8497SOL     OW36949   0.005   2.556   5.355  0.2429  0.1248 -0.1199
 8497SOL    HW136950   0.001   2.562   5.260 -0.3570  0.4976 -0.0666
 8497SOL    HW236951   0.093   2.591   5.374  0.1226  1.0166 -1.1873
 8498SOL     OW36952   3.452   0.959   7.368 -0.0495 -0.3263 -0.3224
 8498SOL    HW136953   3.502   0.901   7.310  2.7669  0.5417  1.2761
 8498SOL    HW236954   3.415   0.895   7.429  2.1744 -2.2304 -0.9631
 8499SOL     OW36955   1.455   0.312   4.973 -0.1292 -0.3027  0.3565
 8499SOL    HW136956   1.496   0.399   4.978  0.2118 -0.5190  1.3905
 8499SOL    HW236957   1.528   0.250   4.970  0.3235  0.3508 -1.8128
 8500SOL     OW36958   4.186   2.379   2.257  0.1747  0.5283  0.0480
 8500SOL    HW136959   4.246   2.450   2.232  1.6071  0.1340  2.3535
 8500SOL    HW236960   4.099   2.400   2.225  1.0314  0.6675 -2.2295
 8501SOL     OW36961   4.180   3.286   7.609  0.6484 -0.1364  0.6304
 8501SOL    HW136962   4.177   3.246   7.523  0.6626 -2.0584  1.5197
 8501SOL    HW236963   4.090   3.299   7.640  0.3923 -1.4551  0.4490
 8502SOL     OW36964   1.381   2.686   5.505 -0.7762 -0.0878  0.3811
 8502SOL    HW136965   1.310   2.751   5.497 -1.1608 -0.2117  2.9312
 8502SOL    HW236966   1.404   2.653   5.418 -2.2155  1.6864 -0.6953
 8503SOL     OW36967   3.903   2.467   8.820 -0.2268 -0.0254 -0.1920
 8503SOL    HW136968   3.813   2.497   8.808 -0.0431 -0.0407 -1.5625
 8503SOL    HW236969   3.947   2.530   8.878  2.4313 -1.2182 -0.9259
 8504SOL     OW36970   2.959   2.507   8.529 -0.1144 -0.7534  0.4882
 8504SOL    HW136971   2.938   2.456   8.607  1.1437 -1.0525  0.6315
 8504SOL    HW236972   2.916   2.454   8.461  0.4139  1.4317 -1.5479
 8505SOL     OW36973   1.073   3.685   4.780  0.0430 -0.3154 -0.9606
 8505SOL    HW136974   1.014   3.625   4.825 -0.3769  0.4745 -0.4540
 8505SOL    HW236975   1.138   3.623   4.745  0.8814 -1.5514  2.7742
 8506SOL     OW36976   0.136   0.664   6.479 -0.1936 -0.2466 -0.2338
 8506SOL    HW136977   0.218   0.627   6.447  1.2319  1.3163  1.5580
 8506SOL    HW236978   0.148   0.754   6.448  0.4390 -0.1421  0.3105
 8507SOL     OW36979   2.457   1.910   4.459  0.6408 -0.2901 -0.3288
 8507SOL    HW136980   2.522   1.872   4.400 -1.7511 -2.6637 -1.4438
 8507SOL    HW236981   2.391   1.841   4.459 -0.9153  1.1992  2.0997
 8508SOL     OW36982   0.770   1.376   6.531  0.4482 -0.0547  0.5624
 8508SOL    HW136983   0.754   1.442   6.598  1.8507 -0.4339  1.2905
 8508SOL    HW236984   0.799   1.305   6.589 -0.2488 -1.1025 -0.3591
 8509SOL     OW36985   1.385   4.182   3.542  0.5999 -0.3674  0.0294
 8509SOL    HW136986   1.290   4.184   3.531  0.9079  1.5069 -2.1254
 8509SOL    HW236987   1.420   4.155   3.457  0.9020 -3.8711  1.2727
 8510SOL     OW36988   1.685   3.326   7.835  0.7757 -0.9027 -0.3448
 8510SOL    HW136989   1.609   3.301   7.888  0.5380  0.4143 -0.0409
 8510SOL    HW236990   1.741   3.369   7.899 -0.3000 -0.9059  0.6003
 8511SOL     OW36991   4.334   3.507   3.673 -0.6084  0.4433 -0.3079
 8511SOL    HW136992   4.255   3.527   3.622 -0.9070 -2.5389 -1.0024
 8511SOL    HW236993   4.344   3.586   3.727 -0.6272 -0.6692  1.3385
 8512SOL     OW36994   3.505   3.818  13.770 -0.3076 -0.2913  0.0757
 8512SOL    HW136995   3.420   3.779  13.747 -0.3594 -0.3042  0.2906
 8512SOL    HW236996   3.495   3.825  13.864  2.2642 -0.6889  0.3796
 8513SOL     OW36997   0.154   4.586   5.386  0.5750  0.2324 -0.0338
 8513SOL    HW136998   0.059   4.576   5.391  0.7091 -0.8282  0.5344
 8513SOL    HW236999   0.152   4.676   5.353 -1.2833  0.5684  0.9779
 8514SOL     OW37000   0.468   4.375  17.001  0.5154  0.1188 -0.5841
 8514SOL    HW137001   0.380   4.409  16.986 -0.0632 -0.6580  1.0600
 8514SOL    HW237002   0.469   4.374  17.097 -0.5497  2.0777 -0.5585
 8515SOL     OW37003   2.561   2.844   9.102  0.1866  0.1013 -0.5316
 8515SOL    HW137004   2.587   2.752   9.102 -0.1854 -0.0028 -0.6647
 8515SOL    HW237005   2.491   2.851   9.167  1.0738 -1.0540  0.5676
 8516SOL     OW37006   0.054   2.617  17.681  0.0166 -0.0358 -0.2048
 8516SOL    HW137007   0.068   2.628  17.587  1.1032 -0.9220 -0.1344
 8516SOL    HW237008   4.693   2.566  17.680 -0.5637  0.8695  0.7980
 8517SOL     OW37009   2.447   1.019  12.085 -0.3395  0.7508  0.0071
 8517SOL    HW137010   2.370   1.000  12.030  0.5254  0.0165 -0.9379
 8517SOL    HW237011   2.499   1.092  12.050  1.3071  0.7367  2.4517
 8518SOL     OW37012   3.411   1.019   8.294 -0.7602  0.0010 -0.5226
 8518SOL    HW137013   3.326   1.062   8.302  0.6525  3.0647 -1.6233
 8518SOL    HW237014   3.448   1.033   8.381 -0.1084  1.8848 -1.1029
 8519SOL     OW37015   0.983   0.205  15.968  0.0624  0.1124 -0.0010
 8519SOL    HW137016   1.077   0.188  15.969 -0.4751 -2.8667 -2.4372
 8519SOL    HW237017   0.964   0.195  15.875  0.8048 -1.3643  0.0084
 8520SOL     OW37018   0.856   3.460   6.761 -0.3640 -0.2297  0.2108
 8520SOL    HW137019   0.848   3.513   6.682 -1.4438  1.2839  1.3378
 8520SOL    HW237020   0.946   3.428   6.753 -0.3395 -0.2630  0.6220
 8521SOL     OW37021   1.797   1.942   5.895 -0.1116 -0.3468  0.7777
 8521SOL    HW137022   1.794   2.037   5.888  1.8383 -0.2969  0.4542
 8521SOL    HW237023   1.734   1.927   5.965  0.7322  1.1057  1.8505
 8522SOL     OW37024   2.529   0.790  12.790 -0.2798  0.2500  0.1294
 8522SOL    HW137025   2.557   0.713  12.839 -0.6472 -0.1781 -0.3329
 8522SOL    HW237026   2.433   0.783  12.792 -0.2809  0.0683 -0.4032
 8523SOL     OW37027   4.641   2.278  15.272  0.3488  0.2721 -0.4161
 8523SOL    HW137028   4.718   2.286  15.328 -0.0395 -2.7601  0.5491
 8523SOL    HW237029   4.654   2.361  15.226  0.6983  1.7768  2.3709
 8524SOL     OW37030   2.641   1.811   2.380 -0.3783 -0.4140  0.2367
 8524SOL    HW137031   2.735   1.800   2.397 -0.0057 -0.7579 -2.0685
 8524SOL    HW237032   2.646   1.851   2.293  1.0811 -0.0041  0.5015
 8525SOL     OW37033   3.484   3.390   9.145 -0.7570 -0.1895  0.1285
 8525SOL    HW137034   3.431   3.390   9.225 -0.3564 -0.2709  0.3962
 8525SOL    HW237035   3.432   3.330   9.091 -3.1291  1.7449  0.2568
 8526SOL     OW37036   0.896   0.529  11.180  0.2276  0.4121  0.3019
 8526SOL    HW137037   0.985   0.553  11.205  0.1363  1.0752 -0.0231
 8526SOL    HW237038   0.845   0.561  11.255 -0.1851 -2.5098  1.2757
 8527SOL     OW37039   3.902   0.731   0.709  0.3362  0.3064 -0.9204
 8527SOL    HW137040   3.944   0.716   0.793 -0.0532  2.5689 -0.3163
 8527SOL    HW237041   3.974   0.756   0.652  1.5929 -1.4133 -0.0720
 8528SOL     OW37042   1.515   0.003   2.548 -0.3314 -0.3183  0.4260
 8528SOL    HW137043   1.440   0.006   2.607  0.6831 -0.4279  1.7122
 8528SOL    HW237044   1.581   0.032   2.611 -0.3968  0.0287  0.3353
 8529SOL     OW37045   2.874   1.533   4.504 -0.2755  0.5482 -0.1256
 8529SOL    HW137046   2.831   1.483   4.436 -0.2248 -1.2997  1.2115
 8529SOL    HW237047   2.921   1.462   4.548 -0.8768  0.5330  0.4858
 8530SOL     OW37048   2.444   2.061   7.165  0.5397 -0.4575 -0.1880
 8530SOL    HW137049   2.353   2.081   7.142  0.5351  2.8549  2.7762
 8530SOL    HW237050   2.476   2.146   7.195 -0.3848 -0.1493 -0.0774
 8531SOL     OW37051   4.719   2.251  15.958 -0.4526  0.7630  0.2244
 8531SOL    HW137052   4.693   2.247  16.050  0.0354 -0.9551  0.2807
 8531SOL    HW237053   4.704   2.161  15.929 -0.5084  0.7957  0.1512
 8532SOL     OW37054   4.118   2.190   1.797  0.2480 -0.1578  0.6305
 8532SOL    HW137055   4.208   2.179   1.829  0.2449  0.7508  0.9616
 8532SOL    HW237056   4.067   2.190   1.878  2.1284  1.3291  1.8216
 8533SOL     OW37057   0.250   0.317  12.454 -0.0171 -0.1817 -0.0667
 8533SOL    HW137058   0.259   0.346  12.545 -2.2039 -0.1197  0.1231
 8533SOL    HW237059   0.217   0.227  12.462 -0.9287 -0.0267 -2.1825
 8534SOL     OW37060   2.718   1.472  11.765 -0.5636  0.0058 -0.0140
 8534SOL    HW137061   2.658   1.418  11.817 -1.5216  0.1817 -0.9345
 8534SOL    HW237062   2.769   1.518  11.831  1.5592 -0.5242 -1.2867
 8535SOL     OW37063   1.989   0.889   9.008 -0.3327 -0.1906 -0.1451
 8535SOL    HW137064   2.026   0.969   8.972 -1.1789 -0.1839 -0.9983
 8535SOL    HW237065   2.045   0.829   8.959  1.5170  0.4142  1.1960
 8536SOL     OW37066   2.276   1.931   8.494  0.0982  0.1210 -0.3060
 8536SOL    HW137067   2.349   1.953   8.436 -0.7889 -0.6456 -1.7174
 8536SOL    HW237068   2.324   1.916   8.576  0.0544 -0.3800 -0.3709
 8537SOL     OW37069   2.014   3.628   1.886  0.3086 -0.3523 -0.0967
 8537SOL    HW137070   1.964   3.666   1.958  0.1078 -0.4584 -0.1808
 8537SOL    HW237071   2.002   3.688   1.812  0.4280 -0.2486 -0.0312
 8538SOL     OW37072   2.699   2.291  10.966  0.1692  0.0256 -0.4066
 8538SOL    HW137073   2.758   2.355  10.925 -0.9247  1.8399  0.8052
 8538SOL    HW237074   2.750   2.278  11.047 -1.0075  0.9474  0.4913
 8539SOL     OW37075   4.497   1.733  11.922 -0.2041 -0.2410 -0.3485
 8539SOL    HW137076   4.442   1.656  11.936 -1.7188  0.7778 -0.6265
 8539SOL    HW237077   4.588   1.720  11.948 -0.2747 -2.0852 -1.0679
 8540SOL     OW37078   2.023   2.702   7.739  0.3460  0.3382 -0.2873
 8540SOL    HW137079   1.941   2.690   7.786 -0.7634 -1.0986 -2.5893
 8540SOL    HW237080   2.093   2.681   7.801 -1.3835 -1.4475  1.0442
 8541SOL     OW37081   1.237   4.650   0.485 -0.3899 -0.0043  0.0394
 8541SOL    HW137082   1.254   0.022   0.504 -0.0736  0.0405 -0.4602
 8541SOL    HW237083   1.152   4.637   0.527  0.8337 -1.9204  1.8876
 8542SOL     OW37084   2.602   4.531   4.578 -0.0874 -0.3626 -0.1298
 8542SOL    HW137085   2.629   4.621   4.558 -0.9020 -0.0387  0.2465
 8542SOL    HW237086   2.508   4.537   4.563 -0.3861 -1.9416  1.2081
 8543SOL     OW37087   0.034   2.034   5.098  0.4828  0.3707  0.0174
 8543SOL    HW137088   0.001   2.123   5.098  1.7241  0.8423  2.8832
 8543SOL    HW237089   0.060   2.034   5.006 -2.4273  2.7047 -0.7685
 8544SOL     OW37090   2.949   3.210   5.001  0.5277  0.1486 -0.5854
 8544SOL    HW137091   2.932   3.218   4.907 -0.8119  0.5539 -0.3121
 8544SOL    HW237092   2.885   3.269   5.040 -1.5571 -0.8600 -2.5278
 8545SOL     OW37093   2.951   2.725   8.377  0.0617  0.0387  0.1064
 8545SOL    HW137094   3.040   2.742   8.347 -0.8917 -0.0563 -2.8245
 8545SOL    HW237095   2.962   2.650   8.435  1.6920  0.7993  0.7691
 8546SOL     OW37096   1.552   1.310   7.782  0.3629 -0.1000  0.3665
 8546SOL    HW137097   1.622   1.362   7.744  1.0459 -0.4470  1.1382
 8546SOL    HW237098   1.550   1.250   7.707 -0.8990  0.6540 -0.1969
 8547SOL     OW37099   1.092   1.838   4.137 -0.2581  0.8142  0.6941
 8547SOL    HW137100   1.087   1.802   4.225  1.1378 -1.5488 -0.1836
 8547SOL    HW237101   1.187   1.827   4.125 -0.3487 -0.0390  0.7829
 8548SOL     OW37102   2.195   0.458  12.909 -0.0321 -0.3496 -0.4193
 8548SOL    HW137103   2.173   0.504  12.990 -0.2413 -1.3042  0.0660
 8548SOL    HW237104   2.150   0.516  12.847 -1.4348 -0.2515  0.6858
 8549SOL     OW37105   1.350   3.935   7.796  0.0003 -0.3706 -0.1640
 8549SOL    HW137106   1.321   3.980   7.875  1.6705  1.5961 -0.6636
 8549SOL    HW237107   1.421   3.886   7.836  0.3979  0.2505 -0.0970
 8550SOL     OW37108   2.148   0.799   8.034 -0.2898 -0.4224  0.0506
 8550SOL    HW137109   2.223   0.846   8.000 -0.9647  0.9298  0.4345
 8550SOL    HW237110   2.133   0.745   7.957  1.3578 -1.6659  0.5977
 8551SOL     OW37111   1.057   4.618  16.140  0.1398  0.1570 -0.6948
 8551SOL    HW137112   1.022   4.591  16.056  0.7342  1.1818 -1.2650
 8551SOL    HW237113   0.980   4.631  16.195 -0.6941 -0.4633 -1.7238
 8552SOL     OW37114   1.463   2.369   4.786 -0.2118  0.0332 -0.0808
 8552SOL    HW137115   1.554   2.342   4.795  0.3030  2.2623  1.4649
 8552SOL    HW237116   1.417   2.286   4.804  0.2386  0.3385  2.5199
 8553SOL     OW37117   3.328   4.491  16.133  0.4246  0.2523  0.2389
 8553SOL    HW137118   3.351   4.568  16.184 -0.6513 -0.6249  2.0490
 8553SOL    HW237119   3.412   4.446  16.122 -0.4924 -1.3120 -0.4597
 8554SOL     OW37120   3.770   0.399  15.915  0.1332 -0.0462 -0.6073
 8554SOL    HW137121   3.702   0.467  15.924  0.0637 -0.6151  2.9264
 8554SOL    HW237122   3.772   0.376  15.822  0.2472  0.9374 -0.8437
 8555SOL     OW37123   2.767   1.283  11.390  0.0703 -0.4222 -0.6686
 8555SOL    HW137124   2.805   1.197  11.413 -0.7132 -0.2874  1.1515
 8555SOL    HW237125   2.682   1.260  11.353  0.1658 -0.3542 -0.9296
 8556SOL     OW37126   2.746   0.162   6.210  0.6323 -0.0185 -0.3613
 8556SOL    HW137127   2.831   0.179   6.252 -0.6385  1.0277  1.8009
 8556SOL    HW237128   2.718   0.248   6.179 -1.7379 -0.8057 -0.3828
 8557SOL     OW37129   1.564   0.579   8.895 -0.2401 -0.3876 -0.2490
 8557SOL    HW137130   1.574   0.670   8.924  1.2398 -0.2033 -1.3011
 8557SOL    HW237131   1.496   0.544   8.953 -1.3630  1.3992 -0.4928
 8558SOL     OW37132   2.718   0.775   6.518 -0.2526 -0.3663  0.2237
 8558SOL    HW137133   2.766   0.829   6.581 -1.8164  3.6742 -2.0760
 8558SOL    HW237134   2.647   0.831   6.487 -1.4072 -0.9660  1.7838
 8559SOL     OW37135   1.988   2.529  16.694  0.2567 -0.2596 -0.0932
 8559SOL    HW137136   2.017   2.550  16.782  0.9366 -2.1675  0.1197
 8559SOL    HW237137   1.899   2.494  16.697  0.1090 -0.0557 -1.6223
 8560SOL     OW37138   4.060   4.394   4.631 -0.3157 -0.3582 -0.0161
 8560SOL    HW137139   3.990   4.424   4.574 -1.0277 -0.3268  0.8824
 8560SOL    HW237140   4.012   4.332   4.686  3.3130 -0.2270  3.3437
 8561SOL     OW37141   2.625   1.827   7.869 -0.0948  0.2455  0.5095
 8561SOL    HW137142   2.628   1.732   7.865  0.9508  0.3930 -2.5764
 8561SOL    HW237143   2.706   1.857   7.910 -0.1970 -0.3549  1.1469
 8562SOL     OW37144   2.724   3.407  15.377  0.7308  0.0313  0.6333
 8562SOL    HW137145   2.635   3.373  15.387  1.5565 -2.0758  0.9686
 8562SOL    HW237146   2.725   3.443  15.288 -3.5691 -0.0593  0.5436
 8563SOL     OW37147   2.272   3.978   3.659 -0.0172 -0.7245  0.3807
 8563SOL    HW137148   2.218   4.056   3.654  1.6787  0.2710 -3.0533
 8563SOL    HW237149   2.292   3.977   3.752 -1.5745 -1.5079  0.6950
 8564SOL     OW37150   2.305   4.504  17.532  0.5521  0.1862  0.0624
 8564SOL    HW137151   2.319   4.428  17.475  0.6933 -0.1548  0.5420
 8564SOL    HW237152   2.384   4.487  17.584 -0.5314 -3.4897  0.4999
 8565SOL     OW37153   0.100   0.585  13.344  0.2736 -0.5878 -0.3100
 8565SOL    HW137154   0.058   0.500  13.354  0.7581 -0.7353  0.5057
 8565SOL    HW237155   0.083   0.609  13.253 -3.7820 -4.8418 -0.6706
 8566SOL     OW37156   2.499   2.382  13.737 -0.2109  0.0929 -0.0939
 8566SOL    HW137157   2.475   2.290  13.735 -0.5570  0.1701  0.5037
 8566SOL    HW237158   2.595   2.377  13.746 -0.1127  2.5282  0.3261
 8567SOL     OW37159   0.485   3.561   4.586 -0.5551 -0.0302 -0.0544
 8567SOL    HW137160   0.462   3.648   4.553  2.5719  0.4794 -0.8433
 8567SOL    HW237161   0.398   3.534   4.615 -0.5755  0.4555  0.3293
 8568SOL     OW37162   1.369   0.824   4.361  0.7666 -0.9399 -0.4262
 8568SOL    HW137163   1.456   0.832   4.320  0.4362 -0.7408 -1.0987
 8568SOL    HW237164   1.316   0.846   4.284 -0.2131  0.1409  0.5612
 8569SOL     OW37165   1.987   2.380   5.405  0.2495  1.1470 -0.3258
 8569SOL    HW137166   2.014   2.317   5.338  0.9607  1.4313 -0.2990
 8569SOL    HW237167   1.935   2.433   5.343 -0.8696  1.5297  0.9389
 8570SOL     OW37168   0.469   1.594   1.497  0.2899  0.2789  0.1286
 8570SOL    HW137169   0.416   1.515   1.510  0.3738 -0.1960 -2.4473
 8570SOL    HW237170   0.429   1.652   1.432  0.6637  0.2644 -0.1139
 8571SOL     OW37171   0.242   1.563   1.250  0.4270  0.3300 -0.1158
 8571SOL    HW137172   0.255   1.651   1.285  0.9435 -0.0237  0.5747
 8571SOL    HW237173   0.229   1.517   1.333 -1.2112  1.1075  0.0649
 8572SOL     OW37174   1.471   3.569  10.092 -0.3284 -0.1325 -0.0207
 8572SOL    HW137175   1.424   3.500  10.045  0.4343 -2.0770  2.0289
 8572SOL    HW237176   1.561   3.539  10.075 -0.2750 -0.0998  0.1915
 8573SOL     OW37177   3.795   0.976   2.507  0.1203 -0.1815 -0.1865
 8573SOL    HW137178   3.790   0.893   2.460  0.3699  1.0199 -2.3208
 8573SOL    HW237179   3.791   1.036   2.433 -0.0271  0.2967  0.2075
 8574SOL     OW37180   0.379   4.570   3.036  0.5014 -0.1594 -0.4088
 8574SOL    HW137181   0.297   4.535   3.002 -0.0107 -0.2572  0.9298
 8574SOL    HW237182   0.372   4.563   3.131  0.0070 -0.5050 -0.4677
 8575SOL     OW37183   2.793   2.289   0.908 -0.3023 -0.4259  0.6868
 8575SOL    HW137184   2.701   2.296   0.934 -0.1120  0.5575  1.1052
 8575SOL    HW237185   2.837   2.254   0.986  0.3458  0.5026  0.7392
 8576SOL     OW37186   1.483   2.796   4.485 -0.2200 -0.0871 -0.0653
 8576SOL    HW137187   1.470   2.884   4.520 -0.6703 -0.5996  1.0753
 8576SOL    HW237188   1.517   2.742   4.556  1.0702 -0.5205 -1.0076
 8577SOL     OW37189   2.395   1.845   2.467 -0.2741 -0.5858 -0.2919
 8577SOL    HW137190   2.487   1.842   2.443 -1.0560 -0.3138 -3.2917
 8577SOL    HW237191   2.381   1.751   2.455  1.5072 -1.1183  1.8579
 8578SOL     OW37192   2.617   1.232  17.096 -0.4058 -0.3274 -0.1438
 8578SOL    HW137193   2.622   1.252  17.190  0.1988 -1.9666  0.1750
 8578SOL    HW237194   2.709   1.221  17.072 -0.5371 -0.3151 -0.6413
 8579SOL     OW37195   0.345   4.176   3.994  0.2235  0.1968  0.1487
 8579SOL    HW137196   0.357   4.108   3.927 -0.4950  0.4364 -0.2310
 8579SOL    HW237197   0.398   4.137   4.063 -0.3278  0.6604  0.8359
 8580SOL     OW37198   1.525   3.197   9.548  0.2027  0.1698  1.0794
 8580SOL    HW137199   1.575   3.137   9.493 -0.7976  0.6502 -0.3579
 8580SOL    HW237200   1.487   3.246   9.475 -2.4714 -1.8007  1.1443
 8581SOL     OW37201   1.582   3.714   4.136 -0.1507 -0.1541 -0.5666
 8581SOL    HW137202   1.501   3.761   4.156 -0.2518  0.0393 -1.4482
 8581SOL    HW237203   1.617   3.783   4.079  0.1548  1.0524  1.0717
 8582SOL     OW37204   0.283   1.272   3.223 -0.3673 -0.2971 -0.4496
 8582SOL    HW137205   0.367   1.231   3.205 -0.3112 -0.2741 -0.2480
 8582SOL    HW237206   0.225   1.207   3.262  0.8682 -1.9823 -1.4429
 8583SOL     OW37207   1.878   0.037   6.080 -0.2792 -0.5260 -0.7305
 8583SOL    HW137208   1.939   0.079   6.141 -0.9056  1.9504 -1.8245
 8583SOL    HW237209   1.923   0.052   5.997  0.3056  1.1571 -0.1024
 8584SOL     OW37210   3.847   3.427   0.701 -0.4792 -0.1092 -0.1328
 8584SOL    HW137211   3.899   3.500   0.667 -2.4376  1.2971 -0.1486
 8584SOL    HW237212   3.908   3.382   0.759  0.7126  0.1186 -1.2128
 8585SOL     OW37213   0.356   4.435   8.779 -0.5428  0.1336  0.9657
 8585SOL    HW137214   0.289   4.473   8.836 -0.8308  0.6418  0.2837
 8585SOL    HW237215   0.295   4.385   8.726  1.6536 -0.4306 -1.0294
 8586SOL     OW37216   0.560   0.880  10.945 -0.5224  0.4618 -0.1818
 8586SOL    HW137217   0.473   0.895  10.983 -1.0649  1.5350 -1.8640
 8586SOL    HW237218   0.548   0.790  10.914  0.0543 -1.0847  4.0925
 8587SOL     OW37219   2.261   0.038   6.242 -0.4392  0.2368  0.0983
 8587SOL    HW137220   2.275   0.047   6.147 -0.4756  0.4159  0.1088
 8587SOL    HW237221   2.345   0.060   6.282  1.2819 -4.9560 -0.6681
 8588SOL     OW37222   1.175   3.123  15.285 -0.5436 -0.0544  0.5006
 8588SOL    HW137223   1.113   3.052  15.301 -2.1992  1.2559 -0.0804
 8588SOL    HW237224   1.248   3.078  15.328  0.4456  1.6206  0.5842
 8589SOL     OW37225   1.344   1.257   9.835  0.2632 -0.2816  0.8022
 8589SOL    HW137226   1.369   1.281   9.924  1.4858 -0.8529  0.6098
 8589SOL    HW237227   1.262   1.209   9.853  0.2756  0.0639  1.8058
 8590SOL     OW37228   0.366   1.098   1.355 -0.4859 -0.4686  0.4635
 8590SOL    HW137229   0.338   1.180   1.314  0.0286 -1.2535 -1.4694
 8590SOL    HW237230   0.462   1.100   1.361 -0.5467  1.6464  0.6382
 8591SOL     OW37231   0.603   0.613   3.706 -0.1800  0.5576 -0.4621
 8591SOL    HW137232   0.630   0.533   3.752 -1.3144  1.4982  1.8390
 8591SOL    HW237233   0.686   0.661   3.700 -1.4358  2.9026  0.7289
 8592SOL     OW37234   4.086   1.446   3.189  0.1505  0.2077 -0.6018
 8592SOL    HW137235   4.044   1.362   3.172  0.4406 -0.2208  0.8594
 8592SOL    HW237236   4.145   1.420   3.260  0.2079  4.8437  1.0505
 8593SOL     OW37237   2.005   0.895   6.169  0.3094 -0.7961 -0.0291
 8593SOL    HW137238   1.923   0.855   6.138 -0.7966  0.6105  1.0774
 8593SOL    HW237239   2.025   0.948   6.091  3.8905 -1.4004  0.4798
 8594SOL     OW37240   1.207   4.719   8.064 -0.0366 -0.0676  0.5480
 8594SOL    HW137241   1.259   0.077   8.078 -0.0970  0.2281 -0.9002
 8594SOL    HW237242   1.267   4.674   8.004  0.9138  0.2877  1.2255
 8595SOL     OW37243   0.867   1.796   2.626  0.0139  0.3513  0.1773
 8595SOL    HW137244   0.958   1.781   2.652  0.0571  2.4388  1.2290
 8595SOL    HW237245   0.850   1.886   2.654 -1.0055  0.1464  0.2457
 8596SOL     OW37246   3.580   2.208  17.229 -0.4058  0.3142 -0.0619
 8596SOL    HW137247   3.633   2.205  17.309 -0.6729 -3.4826  0.0045
 8596SOL    HW237248   3.494   2.194  17.268  0.1199  0.2007  1.0727
 8597SOL     OW37249   2.116   0.374  16.928 -0.1223 -0.3230  0.2008
 8597SOL    HW137250   2.101   0.431  17.003 -1.8191  1.7369 -1.7355
 8597SOL    HW237251   2.026   0.342  16.924  0.1222 -0.9814 -0.0028
 8598SOL     OW37252   3.718   1.685   6.409 -0.1151  0.0350 -0.1127
 8598SOL    HW137253   3.732   1.594   6.382 -0.3599  0.1570 -0.6505
 8598SOL    HW237254   3.630   1.691   6.373 -0.5842  1.2342  1.3064
 8599SOL     OW37255   1.837   0.248  12.415 -0.2862  0.2717 -0.3311
 8599SOL    HW137256   1.853   0.229  12.508 -0.7903  1.8517  0.0667
 8599SOL    HW237257   1.763   0.308  12.416 -1.7799 -1.5864  1.2327
 8600SOL     OW37258   2.234   3.712  13.170  0.2043 -0.2291  0.6256
 8600SOL    HW137259   2.308   3.661  13.138 -1.5411 -0.8263 -2.4816
 8600SOL    HW237260   2.196   3.654  13.236 -0.7275  0.8495  1.0511
 8601SOL     OW37261   2.225   2.457   2.571  0.1079 -0.1254 -0.2058
 8601SOL    HW137262   2.245   2.540   2.527  0.1568  0.8699  1.6791
 8601SOL    HW237263   2.130   2.471   2.561 -0.0197 -0.5466  0.4026
 8602SOL     OW37264   1.053   3.092   2.910 -0.3833  0.7449 -0.1063
 8602SOL    HW137265   1.105   3.060   2.837  0.7816 -0.7513  1.3865
 8602SOL    HW237266   1.116   3.140   2.964 -0.3797 -0.2251  0.7424
 8603SOL     OW37267   2.736   0.969  10.839 -0.0154 -0.0933  0.1042
 8603SOL    HW137268   2.817   1.018  10.826 -0.9756  1.1344 -1.1628
 8603SOL    HW237269   2.678   1.042  10.820 -0.5021 -0.8099 -1.1604
 8604SOL     OW37270   2.808   4.576   1.597  0.0867 -0.3452 -0.5670
 8604SOL    HW137271   2.764   4.639   1.653  1.1386 -0.3234  0.2482
 8604SOL    HW237272   2.843   4.519   1.666  0.9153  1.9101  0.8745
 8605SOL     OW37273   0.101   0.240   8.583  0.6368  0.1002  0.0603
 8605SOL    HW137274   0.012   0.206   8.589 -0.5177  2.6632 -2.6168
 8605SOL    HW237275   0.147   0.195   8.654  1.6043  2.2308  0.7816
 8606SOL     OW37276   0.423   2.225  15.269 -0.5468 -0.3045 -0.1921
 8606SOL    HW137277   0.472   2.306  15.259  0.6398 -1.0109 -0.1291
 8606SOL    HW237278   0.483   2.180  15.329 -0.4745 -0.0300 -0.0573
 8607SOL     OW37279   1.678   0.536   7.432  0.1505  0.0416 -0.4329
 8607SOL    HW137280   1.695   0.460   7.488 -1.8493  0.2575  0.4650
 8607SOL    HW237281   1.587   0.550   7.458  0.3119 -0.3950  0.3778
 8608SOL     OW37282   3.685   3.553   2.318  0.9294 -0.2907 -0.3667
 8608SOL    HW137283   3.590   3.548   2.311  0.8098  0.4119  0.6789
 8608SOL    HW237284   3.704   3.598   2.236  1.4336  0.5798  0.2239
 8609SOL     OW37285   1.870   3.794  14.789  0.1225 -0.0729 -0.1586
 8609SOL    HW137286   1.960   3.801  14.759 -0.3874  1.5915 -1.3102
 8609SOL    HW237287   1.886   3.727  14.856  0.3948  2.3191  2.1605
 8610SOL     OW37288   3.543   1.609   0.019 -0.1750  0.4302  0.2268
 8610SOL    HW137289   3.638   1.599   0.028 -0.0572  0.8092 -0.5674
 8610SOL    HW237290   3.520   1.537   0.077  0.1189 -0.1881 -0.4202
 8611SOL     OW37291   4.665   1.410   3.459  0.6257 -0.0757  0.4668
 8611SOL    HW137292   4.613   1.485   3.431  0.7378  0.3492  1.3744
 8611SOL    HW237293   4.597   1.347   3.481  0.3942  0.1933  0.5173
 8612SOL     OW37294   3.902   0.007   7.167  0.1198  0.2776 -0.4003
 8612SOL    HW137295   3.960   0.081   7.150 -0.2319  0.2990 -1.4746
 8612SOL    HW237296   3.872   4.709   7.079  2.4791  0.8606 -1.3323
 8613SOL     OW37297   2.133   1.939   6.119  0.2903  0.6006 -0.6514
 8613SOL    HW137298   2.087   1.899   6.193 -1.0033 -0.6256 -2.1198
 8613SOL    HW237299   2.226   1.932   6.140 -0.0330  1.4439  1.0993
 8614SOL     OW37300   4.040   1.454  13.568 -0.0240 -0.1833  0.3211
 8614SOL    HW137301   4.060   1.456  13.662  0.5510  0.5693  0.1883
 8614SOL    HW237302   4.031   1.548  13.552  0.2048 -0.3474 -0.7468
 8615SOL     OW37303   1.008   4.213  16.723  0.0395  0.1003 -0.9033
 8615SOL    HW137304   0.994   4.305  16.747 -2.7239  0.0395 -2.2654
 8615SOL    HW237305   1.049   4.218  16.637 -0.1168 -0.4180 -1.0055
 8616SOL     OW37306   1.602   1.209   2.632  0.2428  0.0986  0.2428
 8616SOL    HW137307   1.616   1.304   2.637  1.6419 -0.1557  1.1331
 8616SOL    HW237308   1.681   1.188   2.681  0.5415  1.7652  0.4835
 8617SOL     OW37309   1.325   1.418   5.778  0.4718 -0.0886  0.1805
 8617SOL    HW137310   1.388   1.355   5.813  0.6920 -0.8009 -1.5354
 8617SOL    HW237311   1.390   1.461   5.724  0.7469  1.1760  1.5171
 8618SOL     OW37312   4.014   3.715   5.006  0.0795  0.2022 -0.3024
 8618SOL    HW137313   3.983   3.746   5.091 -1.0949  2.5001 -1.5736
 8618SOL    HW237314   4.067   3.637   5.023  0.5171  0.9049  1.5766
 8619SOL     OW37315   4.217   1.802   0.098 -0.3010  0.0188  0.0163
 8619SOL    HW137316   4.257   1.877   0.141 -0.6085  0.4829 -0.5028
 8619SOL    HW237317   4.186   1.857   0.025  1.2972  1.1183  0.1612
 8620SOL     OW37318   2.427   0.092  12.771 -0.0133  0.2578  0.1526
 8620SOL    HW137319   2.405   0.050  12.688  0.9618  1.5946 -0.7637
 8620SOL    HW237320   2.490   0.033  12.813  1.2219  0.9847 -0.7060
 8621SOL     OW37321   3.203   3.731   5.965  0.1234  0.1594  0.1444
 8621SOL    HW137322   3.245   3.735   6.051 -0.7642  0.3194  0.5678
 8621SOL    HW237323   3.284   3.716   5.915 -1.1480 -1.1372 -1.5288
 8622SOL     OW37324   0.040   0.458  16.347  0.1543  0.7140  0.9148
 8622SOL    HW137325   4.690   0.431  16.288 -0.8263  2.4524  1.2854
 8622SOL    HW237326   0.102   0.457  16.274  0.3872 -1.6662  1.1600
 8623SOL     OW37327   4.452   1.235   3.535  0.1364 -0.2363  0.2734
 8623SOL    HW137328   4.480   1.151   3.497  0.3250 -0.4158  0.8046
 8623SOL    HW237329   4.469   1.225   3.629  1.1933 -1.2891 -0.0256
 8624SOL     OW37330   2.316   2.684   8.237  0.1057  0.0235  0.4589
 8624SOL    HW137331   2.302   2.591   8.256  0.3104 -0.3862 -1.4546
 8624SOL    HW237332   2.290   2.727   8.319 -0.0904  0.0347  0.3900
 8625SOL     OW37333   1.831   2.939  14.536 -0.3090  0.1759 -0.4963
 8625SOL    HW137334   1.877   2.873  14.484 -0.9365 -1.1829  0.6770
 8625SOL    HW237335   1.793   2.873  14.594 -2.7857  0.6740 -1.5590
 8626SOL     OW37336   2.143   1.465  10.658 -0.3617 -0.5968 -0.1496
 8626SOL    HW137337   2.233   1.499  10.663 -0.6313  0.1076 -0.0422
 8626SOL    HW237338   2.140   1.439  10.750  0.8204  1.3682  0.4604
 8627SOL     OW37339   1.059   4.435   4.278 -0.6308  0.3298 -0.6895
 8627SOL    HW137340   1.051   4.433   4.373 -0.8144 -1.2064 -0.7478
 8627SOL    HW237341   1.119   4.364   4.258 -1.1243 -0.4923  0.7671
 8628SOL     OW37342   0.081   1.508   8.470 -0.0401  0.6738  0.6036
 8628SOL    HW137343   0.019   1.581   8.479  0.5296  1.1480  0.7072
 8628SOL    HW237344   0.095   1.473   8.558  0.6132  1.0692  0.6558
 8629SOL     OW37345   3.407   2.369   3.019 -0.4849  0.0435 -0.6042
 8629SOL    HW137346   3.312   2.367   3.034  0.0116 -2.8315  2.1117
 8629SOL    HW237347   3.428   2.459   3.043  1.9846 -0.2700 -1.5833
 8630SOL     OW37348   0.497   1.735   5.361  0.4457  0.0332  0.8261
 8630SOL    HW137349   0.533   1.780   5.437 -1.0450  0.4094  1.2986
 8630SOL    HW237350   0.550   1.758   5.285  0.9512  2.1573  1.8212
 8631SOL     OW37351   3.776   0.740  11.490  0.6237 -0.2399 -0.2558
 8631SOL    HW137352   3.832   0.665  11.512  0.0237 -0.3708  0.8374
 8631SOL    HW237353   3.792   0.802  11.561  0.3147 -1.4336  0.8795
 8632SOL     OW37354   2.955   3.966  12.180 -0.4537  0.1441 -0.4134
 8632SOL    HW137355   3.041   3.964  12.221  0.1291 -1.1511 -1.7141
 8632SOL    HW237356   2.966   3.900  12.111  1.5597  0.5091 -0.4505
 8633SOL     OW37357   1.400   2.579  15.796  0.4803 -0.4382  0.4834
 8633SOL    HW137358   1.459   2.632  15.849 -1.0512 -1.7218  3.4508
 8633SOL    HW237359   1.389   2.633  15.718 -2.4153 -0.2378  1.0199
 8634SOL     OW37360   0.396   4.078   6.270 -0.1245 -0.7466 -0.0818
 8634SOL    HW137361   0.482   4.121   6.265 -0.5742  0.4262  2.1226
 8634SOL    HW237362   0.401   4.006   6.207  0.6531  0.6483 -1.5995
 8635SOL     OW37363   2.089   3.476   7.523  0.0350 -0.1159  0.0526
 8635SOL    HW137364   2.014   3.535   7.525  1.3581  1.5983 -1.5404
 8635SOL    HW237365   2.079   3.438   7.436  0.3303  1.0057 -0.4765
 8636SOL     OW37366   4.309   0.249   4.927 -0.3519 -0.3172 -0.7735
 8636SOL    HW137367   4.359   0.244   4.846 -0.6825  1.0140 -1.0698
 8636SOL    HW237368   4.250   0.323   4.910  1.5138  0.8625 -2.0789
 8637SOL     OW37369   2.973   0.603   3.572  0.0903 -0.1219  0.0758
 8637SOL    HW137370   2.948   0.535   3.509  1.7618 -0.9860  0.3636
 8637SOL    HW237371   2.897   0.659   3.587  1.8631  1.8287  1.7058
 8638SOL     OW37372   3.384   3.742   8.288 -0.2375 -0.6463  0.0689
 8638SOL    HW137373   3.436   3.708   8.215 -0.2026 -1.5333  0.4993
 8638SOL    HW237374   3.401   3.834   8.272  0.6865 -0.7583  0.4245
 8639SOL     OW37375   2.305   0.675  17.469 -0.0681  0.4253  0.1774
 8639SOL    HW137376   2.285   0.692  17.561 -0.0172 -1.0043  0.4518
 8639SOL    HW237377   2.250   0.740  17.427 -0.9667 -0.1745  0.4419
 8640SOL     OW37378   1.802   4.341   8.837  0.3152  0.0612  0.1032
 8640SOL    HW137379   1.779   4.434   8.844 -0.5953  0.0789 -3.2536
 8640SOL    HW237380   1.732   4.298   8.886  1.7255 -0.8958  1.2792
 8641SOL     OW37381   1.642   1.486   6.724  0.6004 -0.1682 -0.6756
 8641SOL    HW137382   1.599   1.568   6.750 -1.4296 -1.4978  0.0897
 8641SOL    HW237383   1.590   1.465   6.647  1.0288  1.5034 -1.4312
 8642SOL     OW37384   4.382   0.076   9.127 -0.5109 -0.4796 -0.4015
 8642SOL    HW137385   4.295   0.067   9.088 -0.7345 -0.6692  0.1336
 8642SOL    HW237386   4.383   4.713   9.174  0.6962  0.0298  0.4849
 8643SOL     OW37387   0.632   4.276   3.061  0.3039 -0.1725  0.3252
 8643SOL    HW137388   0.635   4.214   3.133 -2.1230 -1.1739 -0.4346
 8643SOL    HW237389   0.539   4.274   3.035 -0.0225  0.1311  1.4790
 8644SOL     OW37390   2.265   2.750   4.922 -0.0098  0.4172 -0.4842
 8644SOL    HW137391   2.332   2.775   4.858 -0.3163 -0.7799 -1.2651
 8644SOL    HW237392   2.279   2.656   4.927  0.9128  0.6305  0.7900
 8645SOL     OW37393   2.646   4.271   7.270 -0.0385  0.4878  0.8140
 8645SOL    HW137394   2.588   4.275   7.194  0.3992  0.8595  0.4998
 8645SOL    HW237395   2.728   4.247   7.226 -0.1054  0.7322  0.5571
 8646SOL     OW37396   2.490   0.635   4.921 -0.1873  0.1365 -0.1737
 8646SOL    HW137397   2.409   0.602   4.961  0.5685 -0.5058  0.8136
 8646SOL    HW237398   2.450   0.683   4.848 -1.5144 -1.4706 -0.5012
 8647SOL     OW37399   0.160   0.017   1.279  0.0293 -0.5391  0.2384
 8647SOL    HW137400   0.190   4.677   1.346 -1.2452 -1.7117 -0.2473
 8647SOL    HW237401   0.158   4.674   1.208 -1.3977 -1.3621  1.0045
 8648SOL     OW37402   1.247   0.624   3.453 -0.3264  0.4463  0.3277
 8648SOL    HW137403   1.212   0.663   3.373 -2.8128 -1.6907  0.4086
 8648SOL    HW237404   1.176   0.562   3.466  0.1736 -0.2676 -0.2983
 8649SOL     OW37405   1.690   2.216   9.795  0.1403  0.5419 -0.7630
 8649SOL    HW137406   1.692   2.160   9.718 -1.9141 -0.7373  0.1338
 8649SOL    HW237407   1.742   2.163   9.856  2.1048  1.0621 -1.9656
 8650SOL     OW37408   3.491   2.138   0.066  0.7845  0.3599  0.1412
 8650SOL    HW137409   3.539   2.092   0.135 -0.3387 -0.7266  0.1993
 8650SOL    HW237410   3.422   2.190   0.109  0.4525  0.2318 -0.2393
 8651SOL     OW37411   0.661   1.747  12.823 -0.2149  0.3613 -0.2708
 8651SOL    HW137412   0.732   1.688  12.849  0.8566  2.1988  0.9895
 8651SOL    HW237413   0.671   1.804  12.900 -2.0143  0.0026  0.2378
 8652SOL     OW37414   1.414   3.542   6.052  0.7367  0.1113 -0.3122
 8652SOL    HW137415   1.370   3.480   5.994  0.3767 -0.3812  0.4772
 8652SOL    HW237416   1.332   3.581   6.082  0.6261 -0.5068  0.1843
 8653SOL     OW37417   0.089   3.370   6.209  0.1391  0.1559 -0.0561
 8653SOL    HW137418   0.119   3.285   6.242  1.1916  0.0206 -1.3658
 8653SOL    HW237419   0.115   3.427   6.281  1.8635 -1.4987  0.6356
 8654SOL     OW37420   3.074   3.206   9.303 -0.2637 -0.1236 -0.1013
 8654SOL    HW137421   3.129   3.281   9.328 -0.2942 -0.6934  1.6739
 8654SOL    HW237422   3.145   3.142   9.300 -0.1393  0.0130 -0.0664
 8655SOL     OW37423   1.975   3.229  12.820  0.7311  0.0518  0.1457
 8655SOL    HW137424   1.946   3.315  12.789 -0.3268 -0.1671  0.5195
 8655SOL    HW237425   1.965   3.182  12.738  1.4974  0.3758 -0.1313
 8656SOL     OW37426   2.019   2.462  11.558 -0.0685  0.3452  0.7197
 8656SOL    HW137427   1.999   2.519  11.632 -0.6314  0.4209  0.5104
 8656SOL    HW237428   2.069   2.390  11.596 -0.2751 -0.7831 -1.1049
 8657SOL     OW37429   3.912   3.754   6.549 -0.0771 -0.3441  0.2978
 8657SOL    HW137430   3.853   3.704   6.606  2.3170 -0.6986  2.5049
 8657SOL    HW237431   3.845   3.784   6.488 -0.4703 -3.1288 -0.6660
 8658SOL     OW37432   2.574   1.464   5.528  0.7795  0.0826  0.0306
 8658SOL    HW137433   2.624   1.383   5.519 -1.4115 -1.4345  1.5938
 8658SOL    HW237434   2.488   1.428   5.547  0.4091  0.1972 -1.4469
 8659SOL     OW37435   1.655   0.287   4.612 -0.0189 -0.1223  0.3416
 8659SOL    HW137436   1.684   0.362   4.663 -0.8600  0.6388 -0.3066
 8659SOL    HW237437   1.602   0.325   4.542 -2.9367 -0.5591  2.3064
 8660SOL     OW37438   3.005   2.495   6.358  0.2088  0.1270 -0.7292
 8660SOL    HW137439   3.057   2.473   6.435 -0.0732 -0.8790 -0.8343
 8660SOL    HW237440   2.939   2.543   6.408  2.0481  0.8799  0.9672
 8661SOL     OW37441   2.450   1.249   2.874  0.2404  0.0321 -0.1432
 8661SOL    HW137442   2.358   1.274   2.866  0.8709  2.6773  0.6030
 8661SOL    HW237443   2.456   1.206   2.960 -1.2857 -0.9826 -0.5602
 8662SOL     OW37444   1.485   0.252  11.682 -0.0444 -0.3968  0.2403
 8662SOL    HW137445   1.521   0.268  11.770  0.4176  1.3037 -0.2567
 8662SOL    HW237446   1.447   0.337  11.658  0.2000 -0.5542 -0.6930
 8663SOL     OW37447   2.124   3.195   1.865  0.2883  0.7856  0.4411
 8663SOL    HW137448   2.099   3.220   1.776  1.0352  2.2447  0.6373
 8663SOL    HW237449   2.101   3.102   1.870 -1.3859  1.1649 -0.2974
 8664SOL     OW37450   2.893   0.432   4.162 -0.1546  0.3862 -0.0330
 8664SOL    HW137451   2.919   0.360   4.105  1.0610  0.6842  0.1515
 8664SOL    HW237452   2.979   0.472   4.177 -0.9045  1.8145  0.4666
 8665SOL     OW37453   3.787   1.913   5.479  0.7457  0.3030 -0.4973
 8665SOL    HW137454   3.813   1.996   5.519  0.3024  0.9116 -1.4735
 8665SOL    HW237455   3.755   1.856   5.549  0.3007  0.5332 -0.5171
 8666SOL     OW37456   2.910   4.100   2.566 -0.4074  0.5475 -0.1666
 8666SOL    HW137457   2.886   4.025   2.620  0.1720  1.3210  1.1466
 8666SOL    HW237458   2.868   4.086   2.481 -0.2626 -1.0785  0.0320
 8667SOL     OW37459   0.198   3.030  14.533 -0.1890  0.4523  0.0693
 8667SOL    HW137460   0.233   3.022  14.445  1.8443  1.1742  0.8124
 8667SOL    HW237461   0.168   2.944  14.562  1.2060 -0.1322 -0.1958
 8668SOL     OW37462   1.359   2.223  17.405  0.0953  0.1272 -0.5406
 8668SOL    HW137463   1.374   2.142  17.454 -0.7792  0.0750 -0.3588
 8668SOL    HW237464   1.446   2.264  17.405 -0.6169  1.6380 -0.7756
 8669SOL     OW37465   2.677   2.858   6.929 -0.7408  0.2097  0.0615
 8669SOL    HW137466   2.667   2.840   7.023  1.9440  0.4834  0.4132
 8669SOL    HW237467   2.766   2.894   6.923 -1.0404  1.2027  1.5513
 8670SOL     OW37468   1.676   0.045  14.521  0.1306  0.6825 -0.3556
 8670SOL    HW137469   1.697   0.000  14.439  1.0934 -1.3507  0.9992
 8670SOL    HW237470   1.590   0.008  14.541  1.0298 -0.0342  2.1778
 8671SOL     OW37471   1.702   0.463  11.664 -0.3245  0.4584  0.0272
 8671SOL    HW137472   1.639   0.529  11.692  1.5844  1.7737  1.2507
 8671SOL    HW237473   1.648   0.410  11.606  1.0253 -1.8268  0.8537
 8672SOL     OW37474   3.979   1.028   5.138 -0.6531  0.3021  0.4444
 8672SOL    HW137475   4.048   1.094   5.140  0.8101 -1.2113 -0.4321
 8672SOL    HW237476   4.029   0.947   5.152 -2.0449 -0.5295  0.6471
 8673SOL     OW37477   4.593   2.956  15.683 -0.1119  0.8296 -0.0672
 8673SOL    HW137478   4.546   2.958  15.600 -0.8708 -0.9847  0.3357
 8673SOL    HW237479   4.676   2.921  15.651  0.2620  1.2033  0.4985
 8674SOL     OW37480   0.519   2.410   7.531 -0.1448 -0.1024 -0.1375
 8674SOL    HW137481   0.610   2.426   7.556 -0.0083 -1.0754 -0.0054
 8674SOL    HW237482   0.540   2.402   7.438  1.7897 -2.3844  0.4864
 8675SOL     OW37483   4.012   3.106  10.708 -0.8544 -0.3943 -0.7897
 8675SOL    HW137484   3.961   3.055  10.646 -0.0342 -0.7197 -1.2050
 8675SOL    HW237485   4.040   3.187  10.666 -0.5117  0.9246  1.9737
 8676SOL     OW37486   3.657   4.663   8.629  0.2483  0.5090 -0.0862
 8676SOL    HW137487   3.699   4.695   8.549  1.6811  0.0470  0.4892
 8676SOL    HW237488   3.563   4.657   8.609 -0.2010 -1.7807  2.7852
 8677SOL     OW37489   0.235   2.586   7.137 -0.6137  0.2947 -0.3601
 8677SOL    HW137490   0.267   2.612   7.223  2.4250 -0.6194 -1.2023
 8677SOL    HW237491   0.317   2.560   7.094 -0.9312  0.3122 -0.9828
 8678SOL     OW37492   4.573   1.388  11.912  0.0290 -0.2873  0.1134
 8678SOL    HW137493   4.493   1.435  11.889 -0.9557 -1.7487  0.5412
 8678SOL    HW237494   4.627   1.395  11.833 -0.1835  1.9551  0.1796
 8679SOL     OW37495   1.509   2.171  12.009 -0.1623  0.3580  0.5048
 8679SOL    HW137496   1.436   2.197  11.952 -0.5302 -2.8890 -0.5094
 8679SOL    HW237497   1.468   2.131  12.086  2.1325 -0.5879  1.2251
 8680SOL     OW37498   0.462   2.886   3.391  0.2876  0.2911 -0.6545
 8680SOL    HW137499   0.499   2.876   3.303 -1.5325  0.2935 -1.4277
 8680SOL    HW237500   0.461   2.793   3.415  1.2525  0.0758 -1.4516
 8681SOL     OW37501   0.754   0.009   8.092 -0.3142 -0.4898  0.0009
 8681SOL    HW137502   0.818   4.709   8.160 -1.9534 -1.2081  1.3258
 8681SOL    HW237503   0.680   4.673   8.114 -1.6228  1.4281  0.4648
 8682SOL     OW37504   4.517   0.986   3.453  0.2686 -0.0782  0.1746
 8682SOL    HW137505   4.573   0.922   3.410  1.4393 -0.1429  1.7607
 8682SOL    HW237506   4.431   0.978   3.413 -1.1783 -0.2908  3.3509
 8683SOL     OW37507   4.442   1.136  15.260  0.2334 -0.4823 -0.2520
 8683SOL    HW137508   4.463   1.091  15.179  0.1867  0.2480 -0.6676
 8683SOL    HW237509   4.521   1.189  15.273  0.3493 -0.4709 -1.0177
 8684SOL     OW37510   2.782   3.473   2.197  0.9062  0.2669  0.3610
 8684SOL    HW137511   2.724   3.544   2.225  0.8650  0.0124  0.9177
 8684SOL    HW237512   2.828   3.469   2.281 -0.1323 -0.6871  0.8950
 8685SOL     OW37513   1.281   1.356   7.559 -0.2854  0.2593 -0.2578
 8685SOL    HW137514   1.301   1.423   7.624  0.4045 -0.7462  0.5657
 8685SOL    HW237515   1.335   1.383   7.485  1.5396 -1.3232  0.5205
 8686SOL     OW37516   0.178   2.820  16.656  0.0585 -0.0798 -0.4205
 8686SOL    HW137517   0.190   2.756  16.726 -0.9994  2.8060  2.3917
 8686SOL    HW237518   0.207   2.893  16.710 -1.3184  1.4296 -1.7410
 8687SOL     OW37519   4.452   1.395   6.565  0.1112 -0.2211 -0.9341
 8687SOL    HW137520   4.544   1.375   6.584  0.1880 -0.1045 -1.1816
 8687SOL    HW237521   4.434   1.476   6.614  2.2721  0.1775 -0.8027
 8688SOL     OW37522   2.492   1.433   9.047 -0.3237  0.3538  0.2472
 8688SOL    HW137523   2.405   1.472   9.053 -1.0927 -1.1015 -1.3041
 8688SOL    HW237524   2.460   1.348   9.016  1.8069 -0.9654  1.6570
 8689SOL     OW37525   1.667   3.852   4.364  0.3671  0.4708  0.0540
 8689SOL    HW137526   1.734   3.811   4.309 -0.2655  0.3587 -0.6442
 8689SOL    HW237527   1.668   3.777   4.423  2.0998  0.5650  0.1347
 8690SOL     OW37528   2.452   0.376  10.123 -0.1309 -0.7295  0.1982
 8690SOL    HW137529   2.381   0.435  10.100  0.5447  0.3301  0.8431
 8690SOL    HW237530   2.517   0.443  10.141 -1.1008  1.0477 -2.9051
 8691SOL     OW37531   1.990   2.152  13.461 -0.0394 -0.1533  0.6609
 8691SOL    HW137532   1.907   2.163  13.507  0.2451 -1.6267  1.4941
 8691SOL    HW237533   2.048   2.205  13.517 -0.1878  0.9556 -0.2353
 8692SOL     OW37534   0.622   3.190  12.833  0.1861 -0.6206  0.4583
 8692SOL    HW137535   0.689   3.215  12.769  0.8683 -0.3592  1.2854
 8692SOL    HW237536   0.556   3.256  12.813  0.9091  0.1363  0.5875
 8693SOL     OW37537   4.089   0.480   5.503  0.0015 -0.2358 -0.8895
 8693SOL    HW137538   4.118   0.514   5.418  1.2083  1.0559  0.0322
 8693SOL    HW237539   4.100   0.558   5.558  0.7877 -1.5854  0.8313
 8694SOL     OW37540   2.591   2.084   7.566 -0.4708  0.4576  0.0900
 8694SOL    HW137541   2.502   2.050   7.570  0.0722 -1.1096 -1.0474
 8694SOL    HW237542   2.573   2.169   7.526 -0.3910  1.5382  2.3662
 8695SOL     OW37543   0.412   0.140   2.860 -0.0463 -0.1946  0.2020
 8695SOL    HW137544   0.377   0.072   2.918 -0.0262  0.7767  1.3352
 8695SOL    HW237545   0.385   0.217   2.910  2.8618  0.8276  0.2222
 8696SOL     OW37546   4.121   3.202   6.109 -0.3357 -0.8906  1.1212
 8696SOL    HW137547   4.078   3.202   6.023  1.0349  0.6482  0.4437
 8696SOL    HW237548   4.141   3.295   6.124 -1.0499 -0.6633  0.6971
 8697SOL     OW37549   3.201   1.164   3.172 -0.1826  0.3713 -0.5653
 8697SOL    HW137550   3.256   1.239   3.149 -1.2504  1.2357 -0.3483
 8697SOL    HW237551   3.237   1.133   3.255 -0.0095  0.8773 -0.4523
 8698SOL     OW37552   3.018   2.330   6.147 -0.2165  0.2116 -0.0564
 8698SOL    HW137553   3.001   2.366   6.060  1.9071 -0.2390 -0.6632
 8698SOL    HW237554   3.004   2.402   6.208  0.9453  0.3679  0.0290
 8699SOL     OW37555   3.660   2.306   6.956 -0.0177 -0.0437  0.1766
 8699SOL    HW137556   3.709   2.225   6.945 -0.5070 -0.1924 -0.9191
 8699SOL    HW237557   3.580   2.267   6.991  0.3909 -0.2526  0.8802
 8700SOL     OW37558   2.388   1.706  13.014  0.3156  0.3949 -0.0332
 8700SOL    HW137559   2.455   1.719  13.081  0.6130 -1.7904  0.0848
 8700SOL    HW237560   2.312   1.740  13.061 -0.5872 -0.5975 -0.7622
 8701SOL     OW37561   0.410   0.101   6.833  0.3301  0.1578 -0.1293
 8701SOL    HW137562   0.436   0.009   6.844 -2.5401 -0.6159  0.3215
 8701SOL    HW237563   0.315   0.099   6.821  0.3719 -0.8591 -0.3452
 8702SOL     OW37564   2.920   1.839   5.468  0.2604 -0.2870  0.1589
 8702SOL    HW137565   2.877   1.904   5.524  0.4038 -0.3827  0.3809
 8702SOL    HW237566   2.957   1.901   5.405 -3.2192  2.6308  0.9938
 8703SOL     OW37567   2.099   4.620  15.116  0.1484 -0.3097 -0.4240
 8703SOL    HW137568   2.177   4.571  15.141  0.0773  0.4805  1.3746
 8703SOL    HW237569   2.039   4.546  15.106 -1.2153  0.6089  0.9114
 8704SOL     OW37570   2.748   4.399   3.824 -0.5788 -0.1002  0.0998
 8704SOL    HW137571   2.655   4.420   3.814 -0.9861 -2.1197 -0.5136
 8704SOL    HW237572   2.751   4.350   3.741  2.5406  0.7411 -0.2772
 8705SOL     OW37573   4.436   2.334   2.763 -0.1822 -0.3352 -0.4550
 8705SOL    HW137574   4.353   2.378   2.745 -0.2195  0.2045  0.9925
 8705SOL    HW237575   4.470   2.344   2.674  2.1418 -1.9421  0.2477
 8706SOL     OW37576   0.863   2.399   7.092  0.3504  0.0401 -0.6867
 8706SOL    HW137577   0.954   2.372   7.104 -0.6731 -2.0410  2.2853
 8706SOL    HW237578   0.843   2.441   7.175  2.1983 -1.1777  0.3743
 8707SOL     OW37579   4.294   0.841   5.819 -0.3812 -0.2091  0.0070
 8707SOL    HW137580   4.233   0.885   5.878 -0.0500  2.2749 -1.4906
 8707SOL    HW237581   4.364   0.814   5.878 -1.3598  1.7225  2.0333
 8708SOL     OW37582   4.702   4.471  14.157  0.0901  0.7246  0.3843
 8708SOL    HW137583   4.645   4.543  14.184  1.3505  1.6531  0.5663
 8708SOL    HW237584   0.001   4.427  14.239 -0.1368  0.3729  0.2518
 8709SOL     OW37585   0.808   4.420  11.106  0.9629 -0.5529  0.1162
 8709SOL    HW137586   0.795   4.424  11.011 -1.2736 -0.4645  0.4200
 8709SOL    HW237587   0.853   4.336  11.115  1.9617 -0.0002  0.2554
 8710SOL     OW37588   3.468   1.469  13.191 -0.0729 -0.0761 -0.1809
 8710SOL    HW137589   3.400   1.531  13.215  0.7756  0.5447  0.6161
 8710SOL    HW237590   3.440   1.455  13.101  0.7390 -1.1691 -0.2678
 8711SOL     OW37591   1.257   0.731   0.865 -0.0005  0.6038  0.0418
 8711SOL    HW137592   1.171   0.700   0.838 -0.6021  2.1555  0.1488
 8711SOL    HW237593   1.230   0.798   0.928 -1.3022  0.0405  0.0858
 8712SOL     OW37594   0.885   1.690   3.510 -0.0666 -0.1925 -0.5367
 8712SOL    HW137595   0.802   1.732   3.532  0.2977  0.6424 -0.7517
 8712SOL    HW237596   0.942   1.749   3.560 -0.9890 -1.1039  1.5627
 8713SOL     OW37597   1.510   3.317   7.456 -0.3717  0.3763  0.2075
 8713SOL    HW137598   1.430   3.294   7.410 -0.7499  1.8523  0.1292
 8713SOL    HW237599   1.480   3.377   7.525  1.3278  1.8100 -0.2936
 8714SOL     OW37600   1.044   0.691  11.672 -0.2386  0.4185  0.0330
 8714SOL    HW137601   1.056   0.610  11.723  0.4940  0.1741 -0.5305
 8714SOL    HW237602   1.131   0.712  11.639 -1.0958  0.7103 -2.0156
 8715SOL     OW37603   2.901   2.674   0.821  0.0077 -0.1373 -0.2868
 8715SOL    HW137604   2.823   2.644   0.773 -0.2932  1.9705 -1.1210
 8715SOL    HW237605   2.875   2.766   0.824 -0.1651 -0.0910 -3.3025
 8716SOL     OW37606   3.025   0.942   1.680 -1.2199 -0.1111  0.2438
 8716SOL    HW137607   3.065   1.029   1.678 -0.9236 -0.2926 -1.2016
 8716SOL    HW237608   3.078   0.889   1.740  3.2629  2.8536 -1.0692
 8717SOL     OW37609   1.068   0.196   1.616 -0.0424  0.8423 -0.4862
 8717SOL    HW137610   1.019   0.137   1.558  0.2705  0.6054 -0.5147
 8717SOL    HW237611   1.109   0.130   1.673 -0.6089  1.3503  0.5033
 8718SOL     OW37612   3.245   3.734   1.940  0.3230  0.2350  0.1114
 8718SOL    HW137613   3.249   3.645   1.906 -1.7631 -0.0165  0.5357
 8718SOL    HW237614   3.244   3.789   1.862  1.6022 -1.1619 -0.8992
 8719SOL     OW37615   1.649   3.781   4.863  0.6966 -0.1034  0.3825
 8719SOL    HW137616   1.736   3.819   4.847  1.2931 -1.4926  0.3234
 8719SOL    HW237617   1.595   3.827   4.799  1.0889 -0.6851 -0.3683
 8720SOL     OW37618   4.700   1.796   1.091  0.1535  0.1138 -0.6185
 8720SOL    HW137619   0.026   1.730   1.040  0.1483  0.7705 -1.4598
 8720SOL    HW237620   0.001   1.773   1.182  0.2215 -1.0109 -0.9182
 8721SOL     OW37621   0.037   1.024   4.482  0.0822  0.1652 -0.1329
 8721SOL    HW137622   0.099   1.069   4.424 -0.6179 -0.5781 -1.4585
 8721SOL    HW237623   4.684   1.003   4.424 -1.0048 -2.8170  2.3567
 8722SOL     OW37624   4.426   3.301  14.511 -0.1524  0.2107  0.1381
 8722SOL    HW137625   4.497   3.237  14.509 -0.6288 -0.3526  1.3037
 8722SOL    HW237626   4.371   3.260  14.577 -0.3744 -0.8804 -0.7289
 8723SOL     OW37627   0.306   2.439   3.551 -0.4279 -0.0735  0.2424
 8723SOL    HW137628   0.336   2.383   3.623  2.2121  3.4477  1.9194
 8723SOL    HW237629   0.228   2.388   3.529  0.2374 -1.9540  2.2995
 8724SOL     OW37630   1.760   1.020  12.583 -0.1394  0.9361  0.1469
 8724SOL    HW137631   1.756   1.078  12.659 -1.2349  1.8616 -0.6060
 8724SOL    HW237632   1.725   1.079  12.515  0.8358  0.2809 -0.9202
 8725SOL     OW37633   1.036   1.666   2.271  0.1169  0.2476 -0.0503
 8725SOL    HW137634   0.987   1.586   2.291  1.9734 -1.3447 -1.9025
 8725SOL    HW237635   1.110   1.671   2.331  0.4339  0.3034 -0.4433
 8726SOL     OW37636   2.809   1.231   8.003 -0.7735  0.3917 -0.1273
 8726SOL    HW137637   2.738   1.185   7.957  0.2983 -0.3549 -1.0416
 8726SOL    HW237638   2.892   1.192   7.974 -0.0488  1.8870 -0.0491
 8727SOL     OW37639   3.989   4.355   3.717  0.2711  0.0108  0.7859
 8727SOL    HW137640   3.990   4.330   3.809 -0.4073 -0.3706  0.6960
 8727SOL    HW237641   4.068   4.403   3.696  0.8490 -1.6160 -0.7654
 8728SOL     OW37642   0.444   0.972   8.653 -0.2176 -0.0781 -0.1689
 8728SOL    HW137643   0.429   0.888   8.697  1.1739 -0.8870 -1.2411
 8728SOL    HW237644   0.530   0.954   8.616 -0.9884 -0.6942 -1.6510
 8729SOL     OW37645   1.489   3.520  12.020 -0.6078  0.5080  0.2776
 8729SOL    HW137646   1.428   3.575  11.971 -1.2481  0.3178  0.8738
 8729SOL    HW237647   1.569   3.517  11.967 -1.1468  2.6708 -0.6827
 8730SOL     OW37648   2.371   2.215  10.551 -0.1563 -0.2037 -0.1045
 8730SOL    HW137649   2.292   2.264  10.529 -0.8603 -0.7478  1.2418
 8730SOL    HW237650   2.436   2.276  10.516  1.2477 -1.9984 -0.6350
 8731SOL     OW37651   3.358   0.557   5.240 -0.1545  0.2006 -0.2771
 8731SOL    HW137652   3.316   0.602   5.313  1.2535  0.1193  0.5851
 8731SOL    HW237653   3.331   0.467   5.256  1.1362  0.2765  2.3058
 8732SOL     OW37654   2.820   3.876   7.982 -0.2801  0.0133  0.0667
 8732SOL    HW137655   2.761   3.911   8.048  0.1111  0.8730 -0.0390
 8732SOL    HW237656   2.788   3.788   7.962 -2.2715  0.1538  2.7638
 8733SOL     OW37657   1.888   0.200  13.246  0.0403 -0.4312 -0.2998
 8733SOL    HW137658   1.856   0.282  13.211  1.3445 -0.0554 -0.6177
 8733SOL    HW237659   1.974   0.208  13.205  0.0448 -0.4604 -0.2958
 8734SOL     OW37660   0.491   3.688   3.088  0.1608 -0.0470 -0.0155
 8734SOL    HW137661   0.528   3.690   3.176 -0.6712  1.0996  0.3003
 8734SOL    HW237662   0.541   3.625   3.036 -1.9028 -1.8941  0.2065
 8735SOL     OW37663   0.365   0.348   3.020  0.6469 -0.2840  0.7247
 8735SOL    HW137664   0.314   0.428   3.008  1.1654 -0.2393 -1.2057
 8735SOL    HW237665   0.328   0.309   3.100  1.3744  1.0224  1.6806
 8736SOL     OW37666   0.846   2.435   5.232  0.2621 -0.1303 -0.1387
 8736SOL    HW137667   0.889   2.460   5.314 -0.0743  2.1135 -0.6671
 8736SOL    HW237668   0.823   2.520   5.196  0.2229 -0.4865 -0.9447
 8737SOL     OW37669   0.513   4.429  10.747 -0.6474  0.2308  0.5958
 8737SOL    HW137670   0.460   4.349  10.749 -1.9718  1.0370 -2.3792
 8737SOL    HW237671   0.500   4.470  10.832  1.6411  0.4181  0.8506
 8738SOL     OW37672   3.720   3.378   8.704 -0.7081  0.6227  0.0378
 8738SOL    HW137673   3.640   3.347   8.746  0.9003 -0.8726  1.9401
 8738SOL    HW237674   3.779   3.389   8.779 -0.8093  1.0318  0.0602
 8739SOL     OW37675   2.183   0.366  10.323  0.4074 -0.1525  0.4827
 8739SOL    HW137676   2.186   0.429  10.251 -0.2789 -0.3639  0.2640
 8739SOL    HW237677   2.246   0.297  10.301 -1.0626 -0.9798 -1.1251
 8740SOL     OW37678   0.736   1.051   1.880  0.5107  0.0580  0.5433
 8740SOL    HW137679   0.718   1.059   1.974 -0.4411  1.6288  0.2276
 8740SOL    HW237680   0.651   1.079   1.846  1.6869  0.7422 -1.8188
 8741SOL     OW37681   4.602   1.498   5.666  0.1987  0.0097 -0.0984
 8741SOL    HW137682   4.641   1.411   5.668 -1.4830 -0.7515 -0.1450
 8741SOL    HW237683   4.509   1.476   5.673  0.3753 -0.0602  1.9567
 8742SOL     OW37684   4.419   0.074  13.383  0.0860 -0.2086 -0.1967
 8742SOL    HW137685   4.501   0.026  13.397  0.8363  0.7709 -1.1664
 8742SOL    HW237686   4.346   0.017  13.405 -0.4191  0.1647 -0.9106
 8743SOL     OW37687   4.138   0.345   8.640  0.1368 -0.7851  0.5391
 8743SOL    HW137688   4.160   0.377   8.553 -2.2375 -1.0782 -0.1574
 8743SOL    HW237689   4.076   0.410   8.672  0.6988 -0.6033  1.2514
 8744SOL     OW37690   3.377   2.045  10.723 -0.8009 -0.1061 -0.0403
 8744SOL    HW137691   3.312   2.017  10.658  0.2679  0.4932 -1.3734
 8744SOL    HW237692   3.418   1.962  10.747  0.6643  1.1573  1.7573
 8745SOL     OW37693   2.075   2.672   4.040 -0.6245  0.1332  0.1692
 8745SOL    HW137694   2.067   2.740   4.108  1.7429  2.1238 -1.5601
 8745SOL    HW237695   1.983   2.658   4.019 -0.5364 -1.9061  1.1848
 8746SOL     OW37696   3.600   3.526   1.649  0.0242  0.1902  0.1485
 8746SOL    HW137697   3.693   3.514   1.634  0.1451  2.5541 -0.9386
 8746SOL    HW237698   3.571   3.577   1.574 -0.7443  0.1009  0.3792
 8747SOL     OW37699   4.554   3.019   9.193  0.1818 -0.2906  0.6325
 8747SOL    HW137700   4.496   2.945   9.176 -0.2193  0.0422  0.5456
 8747SOL    HW237701   4.610   2.975   9.257 -0.2839  0.9645  1.9021
 8748SOL     OW37702   0.792   3.178  15.115  0.1175  0.3157 -0.2131
 8748SOL    HW137703   0.775   3.119  15.041 -1.9926  0.1343  0.4135
 8748SOL    HW237704   0.800   3.261  15.069  0.4349 -0.3034 -1.2733
 8749SOL     OW37705   2.929   2.685   4.419 -0.2683 -0.4669 -0.1327
 8749SOL    HW137706   3.012   2.650   4.386 -0.1876 -0.7234  0.3481
 8749SOL    HW237707   2.940   2.780   4.416 -0.4832 -0.3766  1.6141
 8750SOL     OW37708   4.652   4.266   8.242 -0.0092 -0.2070 -0.1010
 8750SOL    HW137709   4.601   4.343   8.265  2.3129  1.2787  0.0359
 8750SOL    HW237710   4.653   4.214   8.322  2.7537 -0.9339 -0.6020
 8751SOL     OW37711   2.300   0.253   4.128 -0.0021 -0.1646  0.0411
 8751SOL    HW137712   2.216   0.228   4.090  0.3434  0.4095 -1.0848
 8751SOL    HW237713   2.350   0.273   4.049  0.7081  0.6986  0.7116
 8752SOL     OW37714   0.463   0.488   0.384  0.0543 -0.0643  0.2188
 8752SOL    HW137715   0.487   0.396   0.370  1.6982  0.3493  0.3311
 8752SOL    HW237716   0.425   0.475   0.471  1.3588  1.0222  0.9523
 8753SOL     OW37717   3.543   2.920   6.479 -0.4185 -0.1480 -0.3987
 8753SOL    HW137718   3.537   2.909   6.384  0.1675  1.7798 -0.6618
 8753SOL    HW237719   3.470   2.983   6.478 -0.8614 -0.6690 -1.1762
 8754SOL     OW37720   4.681   3.631  10.328  0.0769 -0.0273 -0.8795
 8754SOL    HW137721   4.591   3.605  10.309  0.0291 -1.6072  1.5877
 8754SOL    HW237722   4.696   3.699  10.262 -0.6164 -0.5184 -1.5540
 8755SOL     OW37723   1.211   1.752   8.239 -0.4984  0.9502  0.0375
 8755SOL    HW137724   1.184   1.663   8.215 -1.4664  0.2240  3.8495
 8755SOL    HW237725   1.139   1.788   8.289  0.3671  0.4499  1.6252
 8756SOL     OW37726   3.594   4.188   4.074 -0.3034  0.7724 -0.4431
 8756SOL    HW137727   3.604   4.266   4.019  0.9934  1.3214  0.5639
 8756SOL    HW237728   3.591   4.119   4.008 -0.0153  0.3369 -0.0060
 8757SOL     OW37729   0.723   2.993   2.621  0.4195  0.3755  0.8570
 8757SOL    HW137730   0.790   2.926   2.605 -0.2410 -0.6768  2.4453
 8757SOL    HW237731   0.747   3.027   2.708  0.1580  2.3586  0.1551
 8758SOL     OW37732   0.904   3.874   9.338  0.1143 -0.4167 -0.4983
 8758SOL    HW137733   0.839   3.838   9.399  0.5399  0.4299  0.4503
 8758SOL    HW237734   0.946   3.935   9.399 -2.1327  0.5194  0.0900
 8759SOL     OW37735   0.940   4.270  11.566 -0.6229  0.2137  0.0949
 8759SOL    HW137736   0.996   4.331  11.614  0.4964 -2.0962  1.6689
 8759SOL    HW237737   0.980   4.283  11.480 -0.7613 -1.7470 -0.2608
 8760SOL     OW37738   2.221   2.942   5.303 -0.0645 -0.1041 -0.0006
 8760SOL    HW137739   2.184   2.899   5.225 -0.4733 -0.0715  0.1790
 8760SOL    HW237740   2.302   2.983   5.273  1.3642 -2.3872  0.7014
 8761SOL     OW37741   2.417   3.442   8.567 -0.0962 -0.3185 -0.1390
 8761SOL    HW137742   2.393   3.398   8.649 -0.9331  0.6662  0.1474
 8761SOL    HW237743   2.359   3.390   8.511 -0.8655 -0.5620  0.8798
 8762SOL     OW37744   1.654   0.029  13.213  0.1750  0.2097  0.2374
 8762SOL    HW137745   1.632   0.037  13.306 -1.4386  0.7742 -0.1927
 8762SOL    HW237746   1.741   0.069  13.215  0.7263 -0.9572 -0.7692
 8763SOL     OW37747   2.267   1.412   5.056 -0.8025 -0.4706  0.1998
 8763SOL    HW137748   2.195   1.451   5.007 -0.6787 -0.5157 -0.0180
 8763SOL    HW237749   2.280   1.471   5.130  0.6921  0.2516 -0.6381
 8764SOL     OW37750   1.396   1.526  15.107  0.0724 -0.0070 -0.4452
 8764SOL    HW137751   1.394   1.485  15.193 -1.0114  1.7876  0.3776
 8764SOL    HW237752   1.374   1.617  15.128 -1.5334 -0.5950  0.3653
 8765SOL     OW37753   4.626   3.785   5.767  0.2517 -0.2057 -0.1513
 8765SOL    HW137754   4.720   3.806   5.773  0.1622  0.7918 -2.2318
 8765SOL    HW237755   4.585   3.872   5.766 -0.6675 -0.6369  0.5679
 8766SOL     OW37756   0.308   3.751   8.257  0.0880  0.5217 -0.6740
 8766SOL    HW137757   0.302   3.657   8.238 -0.3112  0.4806 -0.3418
 8766SOL    HW237758   0.375   3.768   8.323 -0.5542  0.3750  0.0183
 8767SOL     OW37759   0.065   2.533   7.897  0.7899 -0.4757 -0.2209
 8767SOL    HW137760   4.699   2.569   7.917 -0.3820 -2.0508 -2.4901
 8767SOL    HW237761   0.099   2.611   7.854  1.5606 -1.2733 -1.0402
 8768SOL     OW37762   2.641   0.478   5.374  0.5360  0.2614  0.5269
 8768SOL    HW137763   2.637   0.536   5.298  0.0600  1.7212  1.6792
 8768SOL    HW237764   2.550   0.481   5.402  0.8378  0.7077  1.4406
 8769SOL     OW37765   4.126   1.584  13.779 -0.5118  0.4659  0.4375
 8769SOL    HW137766   4.200   1.538  13.818 -0.6424 -0.4465 -0.3924
 8769SOL    HW237767   4.065   1.583  13.853 -1.4522  1.4048 -0.3341
 8770SOL     OW37768   2.590   1.988  12.975  0.2381 -0.1436 -0.2038
 8770SOL    HW137769   2.616   2.052  13.041  2.0865 -2.1594  1.0123
 8770SOL    HW237770   2.494   1.989  12.975  0.2541  2.4404 -1.7680
 8771SOL     OW37771   3.551   4.718   6.176 -0.0345  0.1267  0.3541
 8771SOL    HW137772   3.606   0.074   6.162  1.8888 -1.0130  1.5824
 8771SOL    HW237773   3.579   4.693   6.265 -1.5308  1.0823  1.0822
 8772SOL     OW37774   3.134   1.262   7.555  0.0895  0.0405 -0.4755
 8772SOL    HW137775   3.187   1.189   7.586  0.2828  1.1064  1.7259
 8772SOL    HW237776   3.048   1.247   7.594  0.2433 -2.0986 -0.9549
 8773SOL     OW37777   1.866   3.827   8.425  0.0083  0.0208 -0.1055
 8773SOL    HW137778   1.875   3.920   8.402 -2.0425  0.7312  1.8556
 8773SOL    HW237779   1.956   3.798   8.416 -0.1592 -0.3073 -0.6720
 8774SOL     OW37780   3.899   3.546   8.116 -0.4349  0.0486  0.2257
 8774SOL    HW137781   3.864   3.529   8.029 -1.3011  0.4421  0.4855
 8774SOL    HW237782   3.819   3.551   8.170  0.1330  0.2307  1.0531
 8775SOL     OW37783   1.613   4.657   0.594  0.2554 -0.6204  0.2339
 8775SOL    HW137784   1.696   4.642   0.638 -0.2222  0.2921  1.4393
 8775SOL    HW237785   1.580   0.012   0.643  0.7339  0.0739 -0.5095
 8776SOL     OW37786   4.625   3.932   3.305 -0.0757 -0.1762  0.7403
 8776SOL    HW137787   4.631   3.985   3.385  0.8854 -0.1025  0.6251
 8776SOL    HW237788   4.587   3.998   3.248  2.9440  0.8256 -0.0896
 8777SOL     OW37789   4.186   2.438   4.306  0.2045 -0.3382 -0.5905
 8777SOL    HW137790   4.134   2.371   4.352  1.7660 -0.3405  1.1926
 8777SOL    HW237791   4.152   2.432   4.217  1.2313 -1.2633 -0.9175
 8778SOL     OW37792   4.353   2.434  11.486 -0.1935  0.4876  0.4731
 8778SOL    HW137793   4.427   2.375  11.501 -0.1226  0.9818  2.1356
 8778SOL    HW237794   4.324   2.453  11.575  0.3401 -0.0383  0.7627
 8779SOL     OW37795   2.450   4.059   7.121  0.2123 -0.3001 -0.3516
 8779SOL    HW137796   2.490   4.131   7.071  1.3882 -0.1482  0.7909
 8779SOL    HW237797   2.520   3.994   7.120 -0.1183 -0.6536 -0.5940
 8780SOL     OW37798   0.184   1.592  16.022  0.3216  0.3139 -0.0805
 8780SOL    HW137799   0.205   1.526  16.088 -0.4719 -0.0075 -0.1524
 8780SOL    HW237800   0.187   1.540  15.942 -1.4290 -0.2924  0.2470
 8781SOL     OW37801   0.389   0.272   3.565 -0.0542  0.0894 -0.9823
 8781SOL    HW137802   0.333   0.304   3.495 -0.2040 -1.5436 -1.6089
 8781SOL    HW237803   0.448   0.215   3.515  1.8244 -1.1380  2.5979
 8782SOL     OW37804   2.827   2.103   5.657 -0.4018 -0.9286 -0.5304
 8782SOL    HW137805   2.739   2.088   5.691  0.1282  0.5807  1.4710
 8782SOL    HW237806   2.876   2.033   5.700 -1.8626 -2.4537 -1.3629
 8783SOL     OW37807   0.745   1.477   6.224  0.0748  0.0988  0.2711
 8783SOL    HW137808   0.700   1.398   6.192  0.1277  0.8539 -1.6258
 8783SOL    HW237809   0.779   1.450   6.310 -0.8887 -0.8415  0.3724
 8784SOL     OW37810   4.668   0.380  14.772 -0.2486 -0.3253 -0.5429
 8784SOL    HW137811   4.628   0.311  14.720  2.5110 -1.5194 -1.1027
 8784SOL    HW237812   0.027   0.344  14.811 -0.3163  1.4210  1.2094
 8785SOL     OW37813   3.152   4.319  16.808  0.1611  0.5921 -0.0183
 8785SOL    HW137814   3.147   4.411  16.834  1.8304  0.5604  0.4722
 8785SOL    HW237815   3.156   4.276  16.894  2.5113 -0.9457 -0.8858
 8786SOL     OW37816   3.761   0.043   6.383 -0.3764 -0.0500 -0.0380
 8786SOL    HW137817   3.710   4.688   6.414 -0.4159 -0.0136 -0.0146
 8786SOL    HW237818   3.812   0.073   6.458  0.8822  2.9443 -2.0789
 8787SOL     OW37819   3.728   1.596   9.067 -0.4013 -0.2095  0.4796
 8787SOL    HW137820   3.683   1.681   9.070  1.4895  0.7521  1.6914
 8787SOL    HW237821   3.820   1.614   9.088 -1.0276  0.7598  2.4037
 8788SOL     OW37822   4.343   0.704   4.987 -0.3582 -0.5988 -0.0290
 8788SOL    HW137823   4.413   0.680   5.047  0.0723  0.8743  0.0472
 8788SOL    HW237824   4.328   0.794   5.016 -0.3257 -0.4987 -0.3236
 8789SOL     OW37825   4.615   0.634  10.247 -0.4393  0.1985  0.3725
 8789SOL    HW137826   4.611   0.586  10.165  0.8641  0.9285 -0.1182
 8789SOL    HW237827   4.706   0.615  10.269 -0.6456 -1.4300 -0.2214
 8790SOL     OW37828   4.326   4.669   8.174  0.0791 -0.0678  0.6530
 8790SOL    HW137829   4.399   4.661   8.113  0.7388 -1.4748  1.6190
 8790SOL    HW237830   4.249   4.656   8.119  0.0733  0.4986  0.5231
 8791SOL     OW37831   2.256   0.788  12.804 -0.4892  0.3761 -0.1240
 8791SOL    HW137832   2.235   0.804  12.896 -0.2156  1.4204 -0.2467
 8791SOL    HW237833   2.184   0.740  12.763  1.4752  0.7208 -3.9171
 8792SOL     OW37834   2.951   0.168   4.562 -0.0376 -0.2537  0.2744
 8792SOL    HW137835   2.957   0.105   4.634 -1.2925 -0.3560  0.3054
 8792SOL    HW237836   2.914   0.248   4.600  0.1236 -1.3234  2.7299
 8793SOL     OW37837   2.082   4.149  17.402 -0.4346  0.2339  0.3136
 8793SOL    HW137838   2.167   4.132  17.444 -1.0029  0.5178  1.5801
 8793SOL    HW237839   2.022   4.168  17.474  1.6168  1.4223  1.6884
 8794SOL     OW37840   1.891   0.898   8.107 -0.1374  0.0203 -0.0648
 8794SOL    HW137841   1.982   0.869   8.098  0.0749  0.2549  1.3537
 8794SOL    HW237842   1.904   0.986   8.142 -0.7958  0.8874 -1.9473
 8795SOL     OW37843   3.936   2.543  12.032 -0.5956  0.8185  0.4134
 8795SOL    HW137844   4.026   2.510  12.029 -0.3971  1.4672 -0.9040
 8795SOL    HW237845   3.941   2.620  12.088 -2.3363  1.5121 -0.3971
 8796SOL     OW37846   0.833   4.144  15.883  0.5272  0.4243 -0.2499
 8796SOL    HW137847   0.804   4.200  15.810  0.6816  0.1349 -0.5326
 8796SOL    HW237848   0.807   4.206  15.951  1.4117  1.1082 -0.5321
 8797SOL     OW37849   0.085   0.450  14.147 -0.2659  0.3086 -0.2322
 8797SOL    HW137850   0.046   0.468  14.061  0.3250 -1.9411 -0.9664
 8797SOL    HW237851   0.077   0.535  14.190 -2.1605  0.9156 -1.7821
 8798SOL     OW37852   1.680   0.057   2.800  0.4614  0.0328 -0.1521
 8798SOL    HW137853   1.766   0.041   2.760 -0.4761 -0.3264 -2.0270
 8798SOL    HW237854   1.693   0.120   2.871 -2.2857  0.7136 -0.2724
 8799SOL     OW37855   1.058   1.591   6.973 -0.4351  0.3935  0.0639
 8799SOL    HW137856   1.034   1.570   6.883 -0.0127  0.9571 -0.1763
 8799SOL    HW237857   1.151   1.569   6.977  0.0475  2.0950 -1.9641
 8800SOL     OW37858   3.400   2.660   3.029  0.0441  0.0535  0.3619
 8800SOL    HW137859   3.368   2.749   3.013  0.9857  0.3074 -0.1233
 8800SOL    HW237860   3.495   2.673   3.037  0.0265  0.2036  0.3212
 8801SOL     OW37861   2.865   3.924   1.569 -0.0018  0.4418 -0.3683
 8801SOL    HW137862   2.856   4.018   1.551  0.6146  0.8443  1.3664
 8801SOL    HW237863   2.805   3.920   1.644 -1.1662 -0.0507 -1.3324
 8802SOL     OW37864   1.232   0.005   6.829 -0.2140 -0.3647 -0.0430
 8802SOL    HW137865   1.298   4.656   6.834  0.1198 -0.0811 -0.5199
 8802SOL    HW237866   1.276   0.082   6.865  0.2066 -1.2499  1.3382
 8803SOL     OW37867   0.720   4.349   4.514 -0.5840 -0.1643  0.6169
 8803SOL    HW137868   0.708   4.257   4.491  1.3389 -0.3071  0.1850
 8803SOL    HW237869   0.643   4.364   4.570 -2.9176 -1.0683 -2.3980
 8804SOL     OW37870   3.773   0.127   7.679  0.3824  0.1676 -0.2593
 8804SOL    HW137871   3.805   0.113   7.590  1.2693 -0.8761  0.2274
 8804SOL    HW237872   3.807   0.215   7.694 -0.0348 -0.1566  2.5767
 8805SOL     OW37873   1.512   2.487   6.712  0.2471  0.1369  0.0864
 8805SOL    HW137874   1.451   2.497   6.640 -0.4596 -2.2678  0.3539
 8805SOL    HW237875   1.492   2.570   6.756 -1.0701 -0.0481 -0.1798
 8806SOL     OW37876   3.936   2.184   0.774 -0.2453  0.0943  0.1001
 8806SOL    HW137877   3.847   2.178   0.739  0.0723 -2.2129 -0.3387
 8806SOL    HW237878   3.947   2.279   0.774 -0.7615  0.1588 -0.2055
 8807SOL     OW37879   0.655   1.206   9.865 -0.4907 -0.0178 -0.5921
 8807SOL    HW137880   0.668   1.175   9.775  1.6367 -0.0016 -0.3004
 8807SOL    HW237881   0.729   1.267   9.870 -0.0428 -0.6549  0.6514
 8808SOL     OW37882   4.032   2.986   6.422 -0.0549  0.2088  0.2023
 8808SOL    HW137883   4.002   2.900   6.450  0.1522  0.6231  1.7142
 8808SOL    HW237884   4.094   2.954   6.356 -0.9916 -1.0783 -0.0406
 8809SOL     OW37885   1.930   3.865   9.507  0.0150  0.5181 -0.1911
 8809SOL    HW137886   1.999   3.908   9.558 -0.6919  1.2541  0.1473
 8809SOL    HW237887   1.921   3.781   9.554  3.3174  0.4440  0.3655
 8810SOL     OW37888   4.185   0.301   9.257  0.4098  0.9371  0.3611
 8810SOL    HW137889   4.213   0.390   9.235  0.8138  0.1873 -2.2686
 8810SOL    HW237890   4.267   0.268   9.293 -0.0399 -0.2471  0.2756
 8811SOL     OW37891   3.003   2.187   3.716  0.1825 -0.0275  0.7555
 8811SOL    HW137892   2.998   2.282   3.729 -1.8479 -0.2095  1.3168
 8811SOL    HW237893   3.029   2.200   3.625 -3.1488 -3.9576 -0.7543
 8812SOL     OW37894   3.544   3.641   7.343  0.2109 -0.5932  0.1157
 8812SOL    HW137895   3.603   3.610   7.411  1.2732  3.0401  0.8537
 8812SOL    HW237896   3.556   3.575   7.275  0.7693 -2.0019  1.5987
 8813SOL     OW37897   0.504   1.415   4.813  0.2571 -0.0032 -0.1130
 8813SOL    HW137898   0.542   1.408   4.901  0.9548 -1.7397 -0.5539
 8813SOL    HW237899   0.430   1.355   4.817 -0.4137  0.7920 -0.5518
 8814SOL     OW37900   1.450   0.971   4.634 -0.4852  0.4881  1.2580
 8814SOL    HW137901   1.438   0.894   4.689  0.1353 -0.1659  0.4672
 8814SOL    HW237902   1.399   0.948   4.557  2.0651  0.0018 -0.2935
 8815SOL     OW37903   1.087   1.721   4.400  0.9556 -0.3515 -0.0790
 8815SOL    HW137904   1.081   1.804   4.448 -0.7183 -0.0845 -0.7277
 8815SOL    HW237905   1.109   1.661   4.470  0.2514  0.8429  1.1701
 8816SOL     OW37906   4.385   0.643   6.799 -0.1109  0.8569 -0.6634
 8816SOL    HW137907   4.470   0.656   6.841 -0.1232 -2.0009  0.2010
 8816SOL    HW237908   4.408   0.669   6.709 -2.2214  0.4568 -1.3272
 8817SOL     OW37909   1.554   3.283   9.292  0.0113 -0.3258 -0.7271
 8817SOL    HW137910   1.608   3.262   9.215 -0.8302 -0.8685 -1.1576
 8817SOL    HW237911   1.606   3.356   9.327 -0.9776 -2.5985  5.3160
 8818SOL     OW37912   4.002   4.100  10.845  0.0345 -0.4654 -0.2631
 8818SOL    HW137913   3.924   4.140  10.884  1.6226  2.7476 -0.3647
 8818SOL    HW237914   4.061   4.118  10.918  0.2171  2.0325 -1.0066
 8819SOL     OW37915   3.329   1.524   7.822 -0.1550  0.0797  0.3954
 8819SOL    HW137916   3.284   1.456   7.872  1.7040 -0.7319  0.9640
 8819SOL    HW237917   3.314   1.606   7.868 -1.1961  1.0909 -1.7582
 8820SOL     OW37918   3.049   2.847   7.774  0.4983 -0.5498 -0.1109
 8820SOL    HW137919   3.039   2.914   7.842  0.7375  0.6649 -1.2709
 8820SOL    HW237920   3.109   2.888   7.712 -2.6270  3.9163 -0.1635
 8821SOL     OW37921   3.538   2.294   2.407  0.4125  0.1686  0.2548
 8821SOL    HW137922   3.532   2.333   2.495  1.3554  0.3899  0.2301
 8821SOL    HW237923   3.467   2.230   2.413  0.0314  0.3763 -2.3164
 8822SOL     OW37924   0.520   3.244   9.876  0.2232  0.2478 -0.6348
 8822SOL    HW137925   0.508   3.330   9.836 -2.2527 -0.1577 -0.7934
 8822SOL    HW237926   0.528   3.195   9.794  0.1457  0.1385 -0.5770
 8823SOL     OW37927   4.402   3.324  13.688 -0.4691  0.8098  0.3005
 8823SOL    HW137928   4.475   3.358  13.741  0.9463 -0.8901 -0.5531
 8823SOL    HW237929   4.445   3.305  13.605 -2.0046 -0.5118 -0.1780
 8824SOL     OW37930   0.210   2.626   6.122  0.0121  0.4993 -0.0379
 8824SOL    HW137931   0.276   2.694   6.124  1.8252 -1.1410 -3.0989
 8824SOL    HW237932   0.170   2.628   6.209 -0.8287  0.9194 -0.4374
 8825SOL     OW37933   1.253   3.628   7.356 -0.4516  0.3293  0.0113
 8825SOL    HW137934   1.226   3.716   7.329 -0.7172  0.2475  0.0126
 8825SOL    HW237935   1.182   3.580   7.314  0.8207  0.2398 -2.0461
 8826SOL     OW37936   0.495   1.633   7.501 -0.1940  0.0185 -0.3102
 8826SOL    HW137937   0.530   1.544   7.505  0.1641  0.1826  0.3749
 8826SOL    HW237938   0.566   1.680   7.459 -0.2830 -0.0512 -0.5358
 8827SOL     OW37939   0.049   3.742   7.283 -0.0973  1.0177  0.2650
 8827SOL    HW137940   0.141   3.721   7.264 -0.6982 -1.1979 -0.2700
 8827SOL    HW237941   0.047   3.835   7.261 -0.4912  0.5854 -1.5548
 8828SOL     OW37942   2.118   3.475  16.366 -0.1931  0.1909 -0.3254
 8828SOL    HW137943   2.104   3.439  16.453  0.3475  1.0098  0.1010
 8828SOL    HW237944   2.047   3.539  16.367 -0.2823  0.1235 -2.0108
 8829SOL     OW37945   2.434   2.548  14.334  0.5838 -0.6278  0.1335
 8829SOL    HW137946   2.342   2.526  14.345  0.1613  1.2072  0.2783
 8829SOL    HW237947   2.449   2.516  14.245  1.1708 -1.5665  0.5675
 8830SOL     OW37948   1.710   3.868   1.760 -0.0132  0.1918 -0.0115
 8830SOL    HW137949   1.720   3.778   1.730  0.8124  0.5858 -0.9414
 8830SOL    HW237950   1.730   3.910   1.676  0.6224 -0.4638 -0.1861
 8831SOL     OW37951   4.566   3.590   4.820 -0.3725  1.0988  0.2347
 8831SOL    HW137952   4.568   3.577   4.725  0.5989  0.8133  0.2966
 8831SOL    HW237953   4.631   3.528   4.851 -1.9251 -1.1385 -0.9893
 8832SOL     OW37954   0.591   4.509   0.920 -0.1008  0.6013  0.1053
 8832SOL    HW137955   0.532   4.573   0.961 -3.7884 -1.7725 -1.5657
 8832SOL    HW237956   0.580   4.535   0.829 -0.4429 -2.1551 -0.6266
 8833SOL     OW37957   2.028   2.405  15.032 -0.4765  0.2155 -0.3775
 8833SOL    HW137958   2.043   2.433  14.942 -0.0414  0.1224 -0.3340
 8833SOL    HW237959   1.995   2.316  15.021  0.1085 -0.2344  1.5260
 8834SOL     OW37960   0.070   2.705   0.263  0.0249  0.1265  0.0920
 8834SOL    HW137961   0.077   2.673   0.173  0.3174 -0.6739  0.3996
 8834SOL    HW237962   0.013   2.779   0.242 -0.1512  0.1057  0.5026
 8835SOL     OW37963   3.648   2.246   7.598  0.2611 -0.8271 -0.3073
 8835SOL    HW137964   3.560   2.220   7.625 -0.4242  1.6604 -0.1620
 8835SOL    HW237965   3.656   2.204   7.513 -1.0635  0.3347 -1.0117
 8836SOL     OW37966   2.760   1.555   7.733  0.0780  0.2301  0.1595
 8836SOL    HW137967   2.743   1.606   7.653 -0.7925  3.3660  2.3466
 8836SOL    HW237968   2.846   1.588   7.759  0.7617 -0.9004 -0.6772
 8837SOL     OW37969   4.403   0.825   9.049  0.3763  0.2044 -0.7252
 8837SOL    HW137970   4.322   0.873   9.027 -0.3429 -1.4048 -1.5933
 8837SOL    HW237971   4.464   0.898   9.054  1.2098 -0.3941 -2.1556
 8838SOL     OW37972   1.802   4.311   3.424 -0.1439 -0.3424  0.5994
 8838SOL    HW137973   1.887   4.306   3.382 -0.4339  2.0418 -0.2706
 8838SOL    HW237974   1.759   4.388   3.388  0.4093 -0.7284 -0.8791
 8839SOL     OW37975   2.739   2.237  17.237  0.3861  0.1922 -0.4849
 8839SOL    HW137976   2.662   2.233  17.181 -0.1797  1.9396  0.1702
 8839SOL    HW237977   2.701   2.209  17.320  3.0683  0.2493  0.7772
 8840SOL     OW37978   4.095   3.176   1.107  0.4264  0.2199  0.1090
 8840SOL    HW137979   4.088   3.113   1.178  0.6858 -0.3338 -0.3631
 8840SOL    HW237980   4.004   3.205   1.109  0.4317  0.2481 -0.0248
 8841SOL     OW37981   0.891   1.049   7.313 -0.2318 -0.0663  0.0265
 8841SOL    HW137982   0.930   1.000   7.240 -0.2887 -0.5916  0.3499
 8841SOL    HW237983   0.971   1.083   7.351 -1.1280  1.7647  0.2890
 8842SOL     OW37984   3.796   2.139   5.156  0.2113 -0.5395 -0.7616
 8842SOL    HW137985   3.835   2.060   5.117 -0.5925 -0.7275 -1.1874
 8842SOL    HW237986   3.821   2.209   5.095 -2.0325 -0.6136 -1.7483
 8843SOL     OW37987   4.447   0.253  17.533  0.3488  0.0190 -0.7349
 8843SOL    HW137988   4.362   0.284  17.564 -1.0491 -3.5493 -1.0317
 8843SOL    HW237989   4.451   0.313  17.458 -0.2283  0.6946 -0.2189
 8844SOL     OW37990   0.783   1.740  16.904 -0.2151 -0.1056  0.2083
 8844SOL    HW137991   0.871   1.713  16.933 -0.4351 -1.1614 -0.1182
 8844SOL    HW237992   0.762   1.800  16.976  0.9876  0.9806 -0.3371
 8845SOL     OW37993   3.260   0.650  12.252 -0.0550 -0.3730 -0.0499
 8845SOL    HW137994   3.167   0.668  12.238  0.1162 -1.3525 -2.5076
 8845SOL    HW237995   3.292   0.703  12.179  2.1038  0.6866  1.6690
 8846SOL     OW37996   0.552   0.453  12.422 -0.8395 -0.6821 -0.0349
 8846SOL    HW137997   0.633   0.412  12.452 -0.2115  0.1851 -0.5358
 8846SOL    HW237998   0.545   0.505  12.502 -2.1233 -1.3315  0.2660
 8847SOL     OW37999   1.855   1.874   3.431 -0.1166 -0.0687 -0.0792
 8847SOL    HW138000   1.925   1.929   3.466  1.5746 -0.5137 -2.7492
 8847SOL    HW238001   1.797   1.942   3.398  0.5399  1.0314  1.0269
 8848SOL     OW38002   2.021   0.432   6.633  0.7130  0.2062  0.0952
 8848SOL    HW138003   2.030   0.346   6.593 -1.8155 -0.9119  1.8979
 8848SOL    HW238004   2.111   0.454   6.658  0.6089  1.3118 -0.5265
 8849SOL     OW38005   2.291   2.440   9.264  0.2216  0.6056 -0.4181
 8849SOL    HW138006   2.232   2.505   9.225  1.7724  1.2658 -1.6419
 8849SOL    HW238007   2.370   2.485   9.291  0.3128 -0.8724  1.7967
 8850SOL     OW38008   0.747   3.496   2.676 -0.1036  0.2814 -0.1123
 8850SOL    HW138009   0.705   3.529   2.597  3.3768  0.5442 -1.8639
 8850SOL    HW238010   0.804   3.430   2.636  0.4440  0.3443  0.5618
 8851SOL     OW38011   1.409   2.799  15.525 -0.1833  0.5422  0.1657
 8851SOL    HW138012   1.327   2.775  15.481  0.7687 -0.9845 -0.7794
 8851SOL    HW238013   1.428   2.887  15.492  0.5452 -0.0229 -0.9056
 8852SOL     OW38014   4.542   4.203   5.319  0.0710 -0.0563 -0.2673
 8852SOL    HW138015   4.608   4.244   5.264  0.1178 -1.6201 -1.3947
 8852SOL    HW238016   4.496   4.155   5.249 -1.2454 -0.6323  0.9809
 8853SOL     OW38017   4.225   3.827   5.791 -0.2971  0.4174  0.4179
 8853SOL    HW138018   4.142   3.800   5.752 -0.4646 -0.8637  1.6626
 8853SOL    HW238019   4.271   3.854   5.711  1.4366  0.6610  1.4850
 8854SOL     OW38020   4.676   1.025   6.692 -0.0047 -0.2300  0.1441
 8854SOL    HW138021   4.632   1.099   6.733  2.0542  1.6644 -1.0727
 8854SOL    HW238022   4.615   0.996   6.624 -0.7657  1.3040  0.1764
 8855SOL     OW38023   0.021   0.732   4.284 -0.2044 -0.1161 -0.0289
 8855SOL    HW138024   4.684   0.808   4.275 -0.2089 -0.1806 -0.5857
 8855SOL    HW238025   0.076   0.751   4.208  1.4832 -1.9799  0.7254
 8856SOL     OW38026   3.490   3.670  14.394 -0.2052 -0.3636 -0.3322
 8856SOL    HW138027   3.407   3.710  14.367  0.2972  1.1009  0.2782
 8856SOL    HW238028   3.547   3.747  14.395  0.6012 -0.9631 -1.6227
 8857SOL     OW38029   4.418   3.278   3.798  0.1986 -0.5638 -0.8533
 8857SOL    HW138030   4.377   3.326   3.870  1.3564 -0.7812 -0.0516
 8857SOL    HW238031   4.418   3.350   3.735 -2.5251  0.5987  0.5157
 8858SOL     OW38032   1.312   3.223   3.536  0.0161  0.2323 -0.4345
 8858SOL    HW138033   1.300   3.213   3.441  1.1262  0.0152 -0.5446
 8858SOL    HW238034   1.286   3.135   3.565  0.9714 -0.0496 -0.4487
 8859SOL     OW38035   2.453   0.076   7.735  0.4962  0.1619  0.1350
 8859SOL    HW138036   2.392   0.143   7.705 -0.2056  0.5041  2.3086
 8859SOL    HW238037   2.497   0.052   7.653  1.1613  2.0828 -0.0702
 8860SOL     OW38038   4.655   3.162   7.476 -0.6019 -0.0051  0.6719
 8860SOL    HW138039   4.573   3.119   7.451 -1.1349  0.1633  2.1103
 8860SOL    HW238040   4.641   3.245   7.430  1.8092  0.4684  0.8062
 8861SOL     OW38041   1.180   3.795   8.646 -0.0649 -0.2498  0.2427
 8861SOL    HW138042   1.173   3.717   8.591 -3.8658 -0.6421  1.2865
 8861SOL    HW238043   1.137   3.760   8.724 -0.7500  0.0804  0.0067
 8862SOL     OW38044   3.035   0.516   3.120 -0.6014  0.0800  0.1203
 8862SOL    HW138045   3.022   0.585   3.054  3.1043 -0.2728 -0.9672
 8862SOL    HW238046   2.983   0.448   3.077 -0.1926  1.0630 -1.9492
 8863SOL     OW38047   1.542   1.252  10.826 -0.1859 -0.0210  0.2129
 8863SOL    HW138048   1.531   1.228  10.918  0.3281  0.1331  0.3127
 8863SOL    HW238049   1.483   1.327  10.831  0.1742  0.1648  1.6258
 8864SOL     OW38050   0.522   4.609  12.514  0.5148 -0.3469 -0.1596
 8864SOL    HW138051   0.532   4.610  12.419 -1.1584  0.9879 -0.3127
 8864SOL    HW238052   0.608   4.626  12.554  0.2379  1.5959 -0.4217
 8865SOL     OW38053   0.733   2.629   7.545 -0.4563  0.5048  0.4991
 8865SOL    HW138054   0.772   2.688   7.481 -0.1929  0.1602  0.3440
 8865SOL    HW238055   0.716   2.686   7.620 -1.8993  1.6339 -0.6780
 8866SOL     OW38056   1.183   1.217   3.468  0.2107  0.5550 -0.0892
 8866SOL    HW138057   1.206   1.126   3.448 -1.0465 -0.3123  2.4626
 8866SOL    HW238058   1.112   1.221   3.404  0.7147  0.1582 -0.6776
 8867SOL     OW38059   0.008   2.305   8.579  0.1604  0.2916 -0.1650
 8867SOL    HW138060   4.713   2.393   8.543 -0.3529  0.5546  0.6891
 8867SOL    HW238061   0.062   2.330   8.654  0.5461  0.3429 -0.4592
 8868SOL     OW38062   2.430   1.632  10.782 -0.3472  0.2742 -0.4993
 8868SOL    HW138063   2.450   1.676  10.865  0.6791 -2.3272  0.6451
 8868SOL    HW238064   2.482   1.552  10.770  0.4235  0.6485  0.2964
 8869SOL     OW38065   1.605   0.221   8.757  0.2168  0.1791  0.5429
 8869SOL    HW138066   1.537   0.195   8.819  0.6037  0.3769  1.0602
 8869SOL    HW238067   1.573   0.262   8.677  0.0339  0.4963  0.7793
 8870SOL     OW38068   3.880   4.459   3.086  0.0346  0.0634 -0.3043
 8870SOL    HW138069   3.924   4.538   3.115  2.1383 -0.8050 -1.1326
 8870SOL    HW238070   3.862   4.428   3.175  1.0999 -1.3483 -0.5639
 8871SOL     OW38071   1.330   2.300  16.833  0.3439 -0.2981 -0.2263
 8871SOL    HW138072   1.272   2.299  16.756  2.8332  1.7477 -2.1343
 8871SOL    HW238073   1.350   2.394  16.837 -2.6847  0.4088 -1.3452
 8872SOL     OW38074   4.442   1.188   2.312  0.0478  0.2736 -0.3831
 8872SOL    HW138075   4.432   1.137   2.393  0.6422 -0.7236 -0.9320
 8872SOL    HW238076   4.387   1.265   2.326  1.3270  0.9944  0.6872
 8873SOL     OW38077   4.040   1.578   4.702  0.4739  0.1537  0.0432
 8873SOL    HW138078   3.957   1.615   4.733  0.0588  0.6295 -1.6131
 8873SOL    HW238079   4.007   1.526   4.629 -0.4497 -2.4489  2.3135
 8874SOL     OW38080   4.142   4.328  10.646  0.3512 -0.0441 -0.2367
 8874SOL    HW138081   4.234   4.331  10.622  0.0822 -0.5159 -1.3390
 8874SOL    HW238082   4.136   4.233  10.661  0.5858 -0.5876 -3.5840
 8875SOL     OW38083   4.367   4.395   8.013  0.1525 -0.1762  0.1261
 8875SOL    HW138084   4.310   4.472   8.017 -1.2479 -1.3154  1.9206
 8875SOL    HW238085   4.426   4.429   7.946 -1.5624 -0.6106 -1.6022
 8876SOL     OW38086   3.025   1.307   2.705  0.1180 -0.4996 -0.4002
 8876SOL    HW138087   3.110   1.269   2.729 -0.1842  0.0611  1.4886
 8876SOL    HW238088   2.981   1.297   2.789 -0.1337  3.6605 -0.0512
 8877SOL     OW38089   0.895   1.677  13.957  0.3622 -0.1644 -0.2873
 8877SOL    HW138090   0.872   1.667  13.865 -0.2241 -0.6328 -0.0934
 8877SOL    HW238091   0.881   1.772  13.958 -3.0334 -0.6509 -0.5179
 8878SOL     OW38092   0.492   2.627   4.621 -0.6042  0.0649  0.1601
 8878SOL    HW138093   0.477   2.552   4.679  5.0792 -0.0215  1.5977
 8878SOL    HW238094   0.425   2.627   4.553 -1.2152 -0.3560  0.7601
 8879SOL     OW38095   4.080   4.119  15.631 -0.1693 -0.4297 -0.7499
 8879SOL    HW138096   4.070   4.058  15.704  2.9144  1.1999  1.0497
 8879SOL    HW238097   4.176   4.120  15.623 -0.1747 -0.3113 -0.8108
 8880SOL     OW38098   1.080   1.172   9.966  0.1905  0.1832  0.0410
 8880SOL    HW138099   1.019   1.101   9.987 -0.3859  0.6866  0.0557
 8880SOL    HW238100   1.064   1.230  10.040 -2.0399  0.2693 -0.5123
 8881SOL     OW38101   1.277   3.524   5.686  0.1667 -0.1574 -0.2824
 8881SOL    HW138102   1.351   3.476   5.649 -0.3083  0.9727 -2.6865
 8881SOL    HW238103   1.218   3.452   5.710  0.7822 -0.2470  0.9802
 8882SOL     OW38104   1.391   4.460  12.536 -0.3607  0.0747  0.2065
 8882SOL    HW138105   1.414   4.535  12.480 -0.4175 -0.4611 -0.5405
 8882SOL    HW238106   1.452   4.478  12.608  0.5686 -0.3760 -0.4636
 8883SOL     OW38107   2.477   3.294   3.028 -0.3551 -0.1576  0.1015
 8883SOL    HW138108   2.506   3.374   2.985 -3.3900  1.0565  0.2675
 8883SOL    HW238109   2.539   3.223   3.015  0.3781  0.4515  0.3006
 8884SOL     OW38110   2.367   3.465  15.990  0.1164 -0.1517  0.1384
 8884SOL    HW138111   2.281   3.507  15.998  0.8054  1.3448 -0.1136
 8884SOL    HW238112   2.414   3.512  16.059  1.4105 -0.3702 -0.6032
 8885SOL     OW38113   2.621   1.377   6.735  1.4590  0.2113 -0.2888
 8885SOL    HW138114   2.626   1.431   6.656 -1.3530  2.3826  0.9876
 8885SOL    HW238115   2.634   1.286   6.709 -0.5435 -0.6497  1.6773
 8886SOL     OW38116   0.415   2.249   6.750  0.0644  0.1999 -0.0089
 8886SOL    HW138117   0.507   2.249   6.777  0.3745 -1.5730 -1.0578
 8886SOL    HW238118   0.384   2.295   6.828 -1.4133 -2.1527  0.7700
 8887SOL     OW38119   1.044   0.166   9.613  0.0913  0.2406 -0.2868
 8887SOL    HW138120   0.953   0.144   9.633 -0.3783 -0.2870 -2.9044
 8887SOL    HW238121   1.089   0.089   9.649 -0.7309 -0.6575 -1.1482
 8888SOL     OW38122   2.995   3.706   4.865 -0.4729 -0.7246 -0.1817
 8888SOL    HW138123   2.944   3.765   4.809  1.3492 -0.4566 -1.5843
 8888SOL    HW238124   2.950   3.726   4.947 -1.2966 -0.0968 -0.7863
 8889SOL     OW38125   3.861   3.014  16.286  0.1408  0.2024  0.8779
 8889SOL    HW138126   3.810   2.937  16.262  2.2077 -1.3312  1.5111
 8889SOL    HW238127   3.799   3.063  16.341 -0.9688 -1.2624  0.9349
 8890SOL     OW38128   1.853   4.164   2.601 -0.0077 -0.0571  0.2079
 8890SOL    HW138129   1.805   4.106   2.541  2.4445 -0.0777 -1.7524
 8890SOL    HW238130   1.942   4.137   2.577 -0.4807 -0.3338 -1.2178
 8891SOL     OW38131   3.869   2.345  15.425  0.2332 -0.1349  0.1101
 8891SOL    HW138132   3.782   2.326  15.459  0.1513 -0.6036 -0.3586
 8891SOL    HW238133   3.905   2.256  15.423 -1.0876 -0.6510 -0.6134
 8892SOL     OW38134   3.594   4.205   4.690 -0.1942  0.0489  0.4644
 8892SOL    HW138135   3.645   4.133   4.727  2.1706  1.3900 -0.1653
 8892SOL    HW238136   3.516   4.154   4.668  0.7253 -0.3324 -1.8955
 8893SOL     OW38137   3.836   1.593  15.402  0.2936 -0.0848  0.3740
 8893SOL    HW138138   3.827   1.687  15.415  0.6556  0.3749 -2.7780
 8893SOL    HW238139   3.804   1.555  15.485 -1.5178 -2.0932 -1.2262
 8894SOL     OW38140   1.400   0.811   3.872  0.1357  0.1694  0.4175
 8894SOL    HW138141   1.494   0.829   3.879  0.2154 -0.2485  0.3990
 8894SOL    HW238142   1.411   0.747   3.802 -1.0770  1.5264 -1.0261
 8895SOL     OW38143   3.390   0.002  17.296  0.3246 -0.7100  0.5134
 8895SOL    HW138144   3.407   0.093  17.270 -1.5492 -0.4257  0.2458
 8895SOL    HW238145   3.380   0.008  17.392 -3.3795  0.3243  0.0639
 8896SOL     OW38146   0.276   2.043   7.545 -0.2430 -0.1096 -0.4189
 8896SOL    HW138147   0.190   2.058   7.506  0.4704  1.2035 -1.4975
 8896SOL    HW238148   0.300   2.127   7.584 -0.0201  0.1716 -1.1540
 8897SOL     OW38149   2.921   1.587  12.394  0.2828  0.1025  0.7258
 8897SOL    HW138150   2.887   1.633  12.470 -0.2354  1.5205 -0.3541
 8897SOL    HW238151   2.899   1.499  12.425  0.4952 -1.1100 -2.5686
 8898SOL     OW38152   2.159   4.712   6.674 -0.9881 -0.4928 -0.3748
 8898SOL    HW138153   2.123   4.689   6.760  2.3547 -0.8104  0.9565
 8898SOL    HW238154   2.196   4.628   6.646  0.2493  0.0394 -0.3732
 8899SOL     OW38155   3.443   0.896  15.239  0.0524 -0.0835  0.3410
 8899SOL    HW138156   3.472   0.928  15.153 -1.1959 -0.8833 -0.3741
 8899SOL    HW238157   3.524   0.856  15.271  0.1336 -1.4961 -1.6564
 8900SOL     OW38158   3.016   3.330  14.659  0.2158 -0.5996  0.1820
 8900SOL    HW138159   3.043   3.398  14.598 -0.0215 -1.3864 -0.8112
 8900SOL    HW238160   3.104   3.293  14.668  0.6464  0.7817  1.6483
 8901SOL     OW38161   1.268   4.342  10.451  0.2892 -0.0542 -0.4376
 8901SOL    HW138162   1.341   4.328  10.391 -1.3356 -2.3010 -1.8966
 8901SOL    HW238163   1.190   4.332  10.396 -0.0506 -1.7475  0.3585
 8902SOL     OW38164   2.763   1.799  13.046 -0.3911  0.2722  0.6936
 8902SOL    HW138165   2.708   1.852  12.988  0.4215  2.3937  1.8775
 8902SOL    HW238166   2.769   1.847  13.128 -0.0848 -0.9588  1.4050
 8903SOL     OW38167   1.235   3.913   0.227 -0.2481 -0.3836 -0.0971
 8903SOL    HW138168   1.319   3.930   0.183 -0.1100  2.3521  1.2420
 8903SOL    HW238169   1.203   3.834   0.183  0.4079 -0.9327  0.3907
 8904SOL     OW38170   2.183   2.103   7.100 -0.6369 -0.4155  0.3683
 8904SOL    HW138171   2.177   2.185   7.051  0.9619  1.0709  2.6677
 8904SOL    HW238172   2.106   2.137   7.146 -1.1833  0.1863 -0.9716
 8905SOL     OW38173   1.967   2.485  12.474 -0.1466  0.3952 -0.1755
 8905SOL    HW138174   1.972   2.423  12.402  2.4966 -0.0558  0.4118
 8905SOL    HW238175   1.908   2.446  12.540 -0.3400  0.1629 -0.4854
 8906SOL     OW38176   1.689   3.829  15.088  0.1486 -0.1754  0.1728
 8906SOL    HW138177   1.644   3.745  15.079 -0.5039  0.1294  0.6423
 8906SOL    HW238178   1.721   3.843  14.999  0.9680  0.9995  0.6524
 8907SOL     OW38179   1.687   0.380   7.932 -0.1574 -0.1456 -0.4231
 8907SOL    HW138180   1.673   0.390   8.026 -2.6272  0.4205 -0.8509
 8907SOL    HW238181   1.600   0.344   7.912 -1.6675  1.5809  3.0841
 8908SOL     OW38182   1.964   3.260   4.962 -0.0714  0.3414  0.2073
 8908SOL    HW138183   2.036   3.290   5.017  0.0263  1.1987 -0.3895
 8908SOL    HW238184   1.982   3.320   4.889  1.3211 -0.7675 -0.3410
 8909SOL     OW38185   0.346   2.137  11.523  0.1176 -0.6030  0.1664
 8909SOL    HW138186   0.434   2.171  11.508 -0.2902 -0.2626 -1.4389
 8909SOL    HW238187   0.299   2.220  11.514  2.7425  0.4130 -3.7112
 8910SOL     OW38188   1.228   4.465  14.925  0.3198  0.2766 -0.3466
 8910SOL    HW138189   1.197   4.495  14.839  1.5822  0.8186 -0.6117
 8910SOL    HW238190   1.252   4.374  14.906 -0.9013 -0.3601  1.1644
 8911SOL     OW38191   3.942   2.227  13.755  0.0713 -0.0794  0.5824
 8911SOL    HW138192   3.869   2.196  13.701 -0.4148  0.3870  0.9660
 8911SOL    HW238193   4.013   2.186  13.705  0.1529 -0.3544  0.9232
 8912SOL     OW38194   3.560   4.436  15.360  0.2389 -0.3369  0.4476
 8912SOL    HW138195   3.614   4.505  15.400  1.2455 -1.6915  1.4227
 8912SOL    HW238196   3.503   4.492  15.307  0.8117  0.6982  0.9402
 8913SOL     OW38197   4.315   4.630  10.045  0.0040  0.3984 -0.5470
 8913SOL    HW138198   4.316   4.644   9.950  2.3578 -1.6015 -0.8234
 8913SOL    HW238199   4.378   4.559  10.060  0.4435  1.0147  0.5198
 8914SOL     OW38200   3.201   0.312   3.439 -0.2433  0.1933  0.6664
 8914SOL    HW138201   3.273   0.251   3.423  0.0638  1.1614 -1.6206
 8914SOL    HW238202   3.191   0.360   3.357  2.8116  0.5715  0.4945
 8915SOL     OW38203   3.866   2.237   5.419  0.1688  0.3744 -0.0361
 8915SOL    HW138204   3.827   2.322   5.397 -1.6205 -0.6727 -1.0073
 8915SOL    HW238205   3.862   2.199   5.331  2.1067  1.5860 -0.6381
 8916SOL     OW38206   2.899   2.943   6.656  0.3089 -0.3908  1.4150
 8916SOL    HW138207   2.882   2.996   6.734  1.9515  0.9826  0.8535
 8916SOL    HW238208   2.854   3.000   6.594 -0.3152 -2.4577 -0.0115
 8917SOL     OW38209   3.956   1.070   9.946 -0.3348  0.0183  0.4770
 8917SOL    HW138210   3.997   1.153   9.969  0.3355 -0.1682 -0.0425
 8917SOL    HW238211   3.900   1.100   9.874 -2.7451  1.6504  3.0364
 8918SOL     OW38212   1.230   2.527   9.561  0.1152  0.5678 -0.1280
 8918SOL    HW138213   1.180   2.477   9.626 -0.5290  0.6167 -0.5858
 8918SOL    HW238214   1.253   2.600   9.619  0.0674  0.9114 -0.5397
 8919SOL     OW38215   2.875   3.760  13.867  0.1406  0.0839 -0.4607
 8919SOL    HW138216   2.914   3.816  13.934 -1.1375  0.2186  0.1566
 8919SOL    HW238217   2.821   3.820  13.816  1.6147 -0.6110 -2.8569
 8920SOL     OW38218   2.453   3.309  11.042  0.0740  0.2365  0.1930
 8920SOL    HW138219   2.492   3.310  11.129 -1.8089 -0.6908  1.0530
 8920SOL    HW238220   2.362   3.313  11.071  0.1406 -3.7920  0.9066
 8921SOL     OW38221   1.229   0.394   2.142 -0.1726 -0.2664 -0.1875
 8921SOL    HW138222   1.142   0.414   2.108 -1.3693 -2.2848  1.7206
 8921SOL    HW238223   1.199   0.355   2.224 -3.3754 -0.2035 -1.3491
 8922SOL     OW38224   1.431   2.942  16.779 -0.5756 -0.0377 -0.2335
 8922SOL    HW138225   1.370   3.008  16.749 -0.2121  0.6585  0.5367
 8922SOL    HW238226   1.405   2.857  16.744  3.2198  0.0382 -3.2231
 8923SOL     OW38227   0.428   4.364   1.834 -0.1123 -0.2381  0.0374
 8923SOL    HW138228   0.408   4.347   1.926  2.3351  1.3868  0.8783
 8923SOL    HW238229   0.521   4.387   1.829 -0.2237  0.2569  0.2847
 8924SOL     OW38230   4.346   0.937   5.257  0.0859 -0.3267  0.4554
 8924SOL    HW138231   4.351   1.001   5.186 -1.0111 -3.0197 -2.0199
 8924SOL    HW238232   4.402   0.987   5.317  0.3318 -0.1244  0.0502
 8925SOL     OW38233   4.475   1.106  10.310  0.6656  0.1766  0.3771
 8925SOL    HW138234   4.433   1.128  10.226 -0.4398 -0.1826  0.8330
 8925SOL    HW238235   4.450   1.013  10.315  0.0516  0.2094 -1.7721
 8926SOL     OW38236   3.111   2.395   5.867  0.0210  0.0565 -0.0498
 8926SOL    HW138237   3.081   2.418   5.778  0.2392  0.1785 -0.0910
 8926SOL    HW238238   3.179   2.460   5.882 -0.5552  1.0863 -1.8602
 8927SOL     OW38239   0.323   1.691   2.429 -0.7415  0.0086 -0.5283
 8927SOL    HW138240   0.261   1.619   2.417  0.1631 -0.9830  0.6382
 8927SOL    HW238241   0.315   1.709   2.523 -1.8292  1.5941 -0.9336
 8928SOL     OW38242   0.643   0.271   0.196 -0.2454 -0.2440  0.4353
 8928SOL    HW138243   0.567   0.234   0.152 -0.1236  0.1084 -0.0622
 8928SOL    HW238244   0.710   0.204   0.182 -1.5912 -1.1481 -1.5744
 8929SOL     OW38245   2.918   4.179   6.191  0.1477  0.4167 -0.0739
 8929SOL    HW138246   2.882   4.189   6.103 -1.1765 -0.5172  0.3607
 8929SOL    HW238247   2.981   4.108   6.177  0.2818  0.1225  1.9380
 8930SOL     OW38248   2.058   2.625  14.185 -0.2990  0.6037  0.3789
 8930SOL    HW138249   2.106   2.554  14.141 -0.7146  1.0073 -0.7271
 8930SOL    HW238250   1.980   2.613  14.130  0.9626  1.2945 -1.5570
 8931SOL     OW38251   2.824   3.563   6.046 -0.0015  0.2263  0.0738
 8931SOL    HW138252   2.870   3.553   6.129 -1.7576 -0.0519  1.0225
 8931SOL    HW238253   2.842   3.655   6.031  0.3058  0.1118 -0.2737
 8932SOL     OW38254   2.190   2.057   6.426 -0.4060  0.1841 -0.4241
 8932SOL    HW138255   2.244   2.118   6.376  1.7802 -3.7210 -2.9015
 8932SOL    HW238256   2.164   2.109   6.502  0.3268  1.3610 -0.9737
 8933SOL     OW38257   3.029   4.461   3.589 -0.1333  0.0602 -0.0547
 8933SOL    HW138258   2.991   4.501   3.667 -0.4283 -1.5892  0.6458
 8933SOL    HW238259   3.040   4.542   3.539  0.2656 -0.0894 -0.2090
 8934SOL     OW38260   1.092   1.780   2.787 -0.0135 -0.2572 -0.3355
 8934SOL    HW138261   1.076   1.854   2.846  0.3782  0.0875 -0.6580
 8934SOL    HW238262   1.185   1.767   2.802  0.0573 -0.2512 -0.7590
 8935SOL     OW38263   3.014   2.755  14.814 -0.7244 -0.1576  0.7097
 8935SOL    HW138264   3.100   2.782  14.784 -1.4569  0.8627 -0.4950
 8935SOL    HW238265   3.012   2.662  14.837  0.5490  0.2595  2.4244
 8936SOL     OW38266   2.967   1.007  13.708  0.2855 -0.1194  1.0079
 8936SOL    HW138267   2.914   0.935  13.744  0.7981 -0.7490  0.4957
 8936SOL    HW238268   2.903   1.074  13.681 -0.5728 -2.3354 -2.5018
 8937SOL     OW38269   3.240   3.042   7.653  0.7051 -0.1481 -0.2603
 8937SOL    HW138270   3.235   3.112   7.588 -1.7518 -0.1618 -0.1095
 8937SOL    HW238271   3.335   3.032   7.660  0.7375  0.2315 -0.1437
 8938SOL     OW38272   4.715   1.218   0.920  0.6188 -0.0867 -0.2734
 8938SOL    HW138273   4.718   1.292   0.861  0.1206  0.0498 -0.1297
 8938SOL    HW238274   4.621   1.210   0.940  0.4787  0.6611 -0.6431
 8939SOL     OW38275   1.474   3.746   8.593 -0.2841  0.0854  0.4528
 8939SOL    HW138276   1.448   3.673   8.649  0.1746 -0.3157  0.1413
 8939SOL    HW238277   1.568   3.735   8.580 -0.5456 -2.4036  0.7093
 8940SOL     OW38278   3.694   1.272   3.212  0.1193 -0.2329  0.3355
 8940SOL    HW138279   3.695   1.303   3.302 -1.4015  2.8280 -0.7079
 8940SOL    HW238280   3.787   1.270   3.188  1.2175  1.4919  4.5050
 8941SOL     OW38281   1.032   2.866   8.530 -0.3081 -0.2119 -0.3955
 8941SOL    HW138282   0.982   2.789   8.556 -3.0469  0.8419 -2.6276
 8941SOL    HW238283   1.117   2.829   8.506 -0.3092 -0.3301 -0.2218
 8942SOL     OW38284   3.485   2.926  15.000 -0.0553  0.3528 -0.2637
 8942SOL    HW138285   3.533   2.865  15.057  2.7174  0.1882 -2.7902
 8942SOL    HW238286   3.399   2.928  15.042 -0.1842  1.1004 -0.5696
 8943SOL     OW38287   1.453   3.056   9.989  0.6966  0.4505  0.1209
 8943SOL    HW138288   1.395   2.996  10.036 -0.5911  2.9138  1.6390
 8943SOL    HW238289   1.494   3.096  10.065  0.8865 -1.3173  0.9518
 8944SOL     OW38290   1.780   3.656  15.418  0.9085 -0.1408  0.1331
 8944SOL    HW138291   1.870   3.622  15.417  2.1344  3.1758 -1.3079
 8944SOL    HW238292   1.800   3.747  15.396  0.1212  0.0977  0.3870
 8945SOL     OW38293   0.131   1.472  11.689  0.0629 -0.5388  0.1310
 8945SOL    HW138294   0.061   1.517  11.643 -0.2574  0.9868  2.1094
 8945SOL    HW238295   0.108   1.382  11.665  0.6035 -1.3081  2.4098
 8946SOL     OW38296   2.510   3.609  10.953  0.1521  0.2366  0.2849
 8946SOL    HW138297   2.425   3.646  10.976  0.1052  0.4786 -0.2721
 8946SOL    HW238298   2.532   3.544  11.020 -0.9908 -0.8474 -0.3910
 8947SOL     OW38299   3.621   1.483   5.568 -0.4741 -0.2589  0.1853
 8947SOL    HW138300   3.598   1.416   5.504  0.2825  0.4148 -0.7748
 8947SOL    HW238301   3.605   1.559   5.512  0.0091 -1.9194 -2.1966
 8948SOL     OW38302   0.764   4.575   6.307 -0.1860  0.0506  0.5246
 8948SOL    HW138303   0.738   4.666   6.324 -0.9324 -0.2563  1.0327
 8948SOL    HW238304   0.741   4.559   6.215  2.4395  3.8346 -0.7977
 8949SOL     OW38305   4.526   1.659  14.775  0.0721 -0.1018  0.1484
 8949SOL    HW138306   4.568   1.634  14.857  1.3683  0.8728 -0.2149
 8949SOL    HW238307   4.574   1.602  14.714  0.6413 -2.3094  2.6838
 8950SOL     OW38308   4.212   0.451  10.430  1.2383  0.0896 -0.0408
 8950SOL    HW138309   4.119   0.461  10.450  1.0852  1.0712 -1.2492
 8950SOL    HW238310   4.225   0.522  10.366 -0.2559  0.9750  0.6534
 8951SOL     OW38311   1.438   1.968   4.604  0.3496  0.2706 -0.5547
 8951SOL    HW138312   1.471   2.034   4.665  1.1677 -0.0123 -0.6865
 8951SOL    HW238313   1.493   1.976   4.527  2.1627 -1.3874  0.5720
 8952SOL     OW38314   2.482   2.128   3.488 -0.4972 -0.0659 -0.2154
 8952SOL    HW138315   2.566   2.165   3.458 -1.9985  1.0945 -3.0172
 8952SOL    HW238316   2.455   2.187   3.558 -1.9194 -1.9991  0.8404
 8953SOL     OW38317   3.606   0.733   6.090  0.9265 -0.3311 -0.1004
 8953SOL    HW138318   3.630   0.825   6.082 -1.7626  0.2838 -1.2179
 8953SOL    HW238319   3.644   0.717   6.176 -1.5142 -1.7672  0.6962
 8954SOL     OW38320   4.434   3.233   6.830  0.4600  0.0222  0.2355
 8954SOL    HW138321   4.393   3.147   6.822  0.2927  0.1777 -0.5702
 8954SOL    HW238322   4.445   3.257   6.738 -1.2884  1.5209  0.4192
 8955SOL     OW38323   1.762   3.339  15.559  0.0829 -0.8851  0.1561
 8955SOL    HW138324   1.737   3.367  15.471 -1.5076  2.5761  1.7296
 8955SOL    HW238325   1.696   3.387  15.610 -2.2788 -1.9873 -1.8417
 8956SOL     OW38326   1.169   0.336   6.967 -0.0756 -0.4604  0.0359
 8956SOL    HW138327   1.254   0.297   6.984 -0.5754 -0.7076  1.9894
 8956SOL    HW238328   1.200   0.426   6.981  0.9900 -0.4947 -2.1047
 8957SOL     OW38329   2.908   0.761   5.139 -0.4961 -0.0107 -0.0579
 8957SOL    HW138330   2.922   0.731   5.229 -2.7620 -0.7258  0.0517
 8957SOL    HW238331   2.881   0.677   5.102  2.3673 -0.1662 -1.8023
 8958SOL     OW38332   2.982   3.208   4.402 -0.3915  0.3888  0.2031
 8958SOL    HW138333   3.064   3.248   4.373  0.8646 -0.7492  2.1690
 8958SOL    HW238334   2.918   3.253   4.346  2.0389 -0.4792 -3.2629
 8959SOL     OW38335   3.860   4.315  17.053  0.0608  0.4581  0.0118
 8959SOL    HW138336   3.766   4.321  17.036  0.0542  1.5090  0.4371
 8959SOL    HW238337   3.887   4.232  17.013  0.3433  0.6361 -0.1650
 8960SOL     OW38338   3.837   2.374   1.034  0.7087 -0.3168 -0.4567
 8960SOL    HW138339   3.924   2.411   1.015  0.0340  2.2717  1.3860
 8960SOL    HW238340   3.793   2.443   1.085  1.7153 -0.2868  0.3824
 8961SOL     OW38341   4.052   0.710   3.686  0.3818  0.1893  0.1367
 8961SOL    HW138342   4.129   0.735   3.635 -0.5925 -0.0648 -1.4524
 8961SOL    HW238343   4.000   0.657   3.626  1.9148  1.1402 -2.0102
 8962SOL     OW38344   4.569   0.135   8.932 -0.6948 -0.3254 -0.4737
 8962SOL    HW138345   4.552   0.060   8.874  1.1025 -1.9889  1.1761
 8962SOL    HW238346   4.514   0.111   9.006  0.9197 -0.6674  0.6049
 8963SOL     OW38347   4.475   1.667  17.147  0.1165 -0.1217  0.2167
 8963SOL    HW138348   4.501   1.654  17.056  0.5000 -2.0493  0.6016
 8963SOL    HW238349   4.387   1.700  17.129 -0.0734 -2.1473 -2.6444
 8964SOL     OW38350   0.126   4.489   2.936 -0.0599 -0.3558 -0.4657
 8964SOL    HW138351   0.032   4.487   2.953 -0.0379 -1.8528 -0.4895
 8964SOL    HW238352   0.131   4.545   2.859 -0.4447  2.4616  1.5791
 8965SOL     OW38353   4.125   1.893   4.696 -0.0222  0.4395  0.4833
 8965SOL    HW138354   4.130   1.910   4.602 -1.3788  4.2902  1.0998
 8965SOL    HW238355   4.035   1.926   4.706  0.2786  0.9635  1.4894
 8966SOL     OW38356   0.592   2.961   8.199 -0.4912  0.1354 -0.6203
 8966SOL    HW138357   0.564   2.883   8.152  1.4891 -0.6169 -0.5646
 8966SOL    HW238358   0.513   3.015   8.192 -0.3567  0.5516  0.9630
 8967SOL     OW38359   3.950   1.748  15.662  0.0444 -0.7604 -0.6293
 8967SOL    HW138360   3.989   1.834  15.675 -2.4862  0.2512  0.4085
 8967SOL    HW238361   4.027   1.707  15.622  1.2117 -0.0677  0.9222
 8968SOL     OW38362   2.103   1.529   7.316 -0.3185 -1.0679  0.3791
 8968SOL    HW138363   2.125   1.450   7.266  0.2707 -1.1082  0.7013
 8968SOL    HW238364   2.074   1.496   7.402  0.0230 -1.2326  0.4294
 8969SOL     OW38365   3.032   1.139   1.054 -0.1890  0.3393 -0.3475
 8969SOL    HW138366   2.984   1.142   1.137 -1.0054  1.2779 -0.8448
 8969SOL    HW238367   2.997   1.057   1.020 -1.8791  0.4721  1.1062
 8970SOL     OW38368   4.325   2.832  17.439 -0.2810 -0.1155 -0.1735
 8970SOL    HW138369   4.339   2.799  17.351 -0.9131  2.6306 -1.3155
 8970SOL    HW238370   4.230   2.823  17.450 -0.5013 -0.1430 -2.1178
 8971SOL     OW38371   1.249   4.375   6.297 -0.0205  0.8020  0.3093
 8971SOL    HW138372   1.231   4.371   6.204 -0.1094  1.5489  0.2882
 8971SOL    HW238373   1.160   4.368   6.330  0.0981 -0.4066  0.3551
 8972SOL     OW38374   4.309   2.751   4.954 -0.0565 -0.3248 -0.5709
 8972SOL    HW138375   4.311   2.766   4.860 -1.3582 -2.0654 -0.8604
 8972SOL    HW238376   4.222   2.777   4.985  0.2791  0.4682 -0.2927
 8973SOL     OW38377   1.527   0.158   3.400 -0.1270 -1.1407 -0.2257
 8973SOL    HW138378   1.559   0.159   3.310 -2.1618  0.2399 -0.9376
 8973SOL    HW238379   1.608   0.124   3.439 -0.0426  0.6619  1.1746
 8974SOL     OW38380   0.521   0.967   8.318  0.0250  0.0400  0.9677
 8974SOL    HW138381   0.514   0.879   8.280 -0.6796 -0.2707  1.8265
 8974SOL    HW238382   0.582   0.944   8.388  0.4675  1.8686  1.1702
 8975SOL     OW38383   1.200   1.080   8.821  0.0453  0.5227 -0.2096
 8975SOL    HW138384   1.171   1.128   8.899  2.3152  0.6527  0.5488
 8975SOL    HW238385   1.116   1.060   8.780  1.2935  1.0983 -3.0383
 8976SOL     OW38386   0.246   0.908   1.194 -0.4573  0.3353 -0.8283
 8976SOL    HW138387   0.236   0.989   1.244  1.3249 -0.5993  1.0944
 8976SOL    HW238388   0.332   0.880   1.228 -0.6755 -0.5663 -1.0204
 8977SOL     OW38389   2.840   2.473  16.295 -0.7645  0.0511 -0.2212
 8977SOL    HW138390   2.808   2.556  16.329 -0.2049 -0.3120  1.1978
 8977SOL    HW238391   2.900   2.456  16.368 -1.5450 -0.1897  0.3687
 8978SOL     OW38392   3.343   3.356   9.368  0.3973 -0.2383  0.3862
 8978SOL    HW138393   3.382   3.285   9.420 -0.0484  0.1638  1.2706
 8978SOL    HW238394   3.292   3.412   9.427  2.2221  3.9831 -2.0872
 8979SOL     OW38395   3.976   3.427  17.491  0.1041 -0.0735 -0.3727
 8979SOL    HW138396   3.996   3.450  17.581  0.0195  1.2424 -0.6943
 8979SOL    HW238397   3.994   3.333  17.489  2.2439  0.2917  2.0048
 8980SOL     OW38398   3.875   3.278   1.567 -0.8479 -0.4539 -0.2407
 8980SOL    HW138399   3.875   3.241   1.655 -0.1183  1.8366  0.7195
 8980SOL    HW238400   3.912   3.365   1.580  0.8894 -1.4306  1.3906
 8981SOL     OW38401   2.500   2.784  11.753  0.6490 -0.6027 -0.9486
 8981SOL    HW138402   2.481   2.742  11.669 -1.3029 -1.7046  0.0746
 8981SOL    HW238403   2.440   2.749  11.819  0.3867  3.0139  0.7090
 8982SOL     OW38404   4.710   4.098  16.279  0.2675  0.2959  0.3462
 8982SOL    HW138405   4.706   4.112  16.373 -0.3909 -1.2819  0.5564
 8982SOL    HW238406   0.081   4.075  16.266 -0.2394 -1.5799  0.0815
 8983SOL     OW38407   0.870   2.136   1.937  0.2488  0.1625  0.0472
 8983SOL    HW138408   0.928   2.192   1.886  0.8743 -3.0123 -2.6520
 8983SOL    HW238409   0.820   2.096   1.866  1.7049 -1.5250 -0.0233
 8984SOL     OW38410   1.333   2.979   5.256  0.2036  0.6169 -0.2332
 8984SOL    HW138411   1.428   2.974   5.255  0.2342  1.6425 -1.6930
 8984SOL    HW238412   1.316   3.027   5.175 -1.8735 -0.7047 -0.5655
 8985SOL     OW38413   2.807   3.920   5.301 -0.1301 -0.7503  0.4111
 8985SOL    HW138414   2.716   3.949   5.300  0.9712  2.5429 -2.5536
 8985SOL    HW238415   2.834   3.940   5.391 -1.9366  0.8240  0.6130
 8986SOL     OW38416   4.447   2.187   7.276  0.2864  0.0677 -0.6546
 8986SOL    HW138417   4.397   2.153   7.351 -0.0947  2.3687  0.1301
 8986SOL    HW238418   4.427   2.280   7.273  2.3390  0.6022  1.2366
 8987SOL     OW38419   1.805   4.125   5.685 -0.2992 -0.3463  0.2707
 8987SOL    HW138420   1.886   4.149   5.730  1.1705 -1.3175 -1.8862
 8987SOL    HW238421   1.848   4.067   5.622 -1.2605 -0.3098 -0.4120
 8988SOL     OW38422   3.646   2.439   0.816  0.3325 -0.0038  0.3794
 8988SOL    HW138423   3.650   2.359   0.763 -1.2601  0.5408 -0.5564
 8988SOL    HW238424   3.673   2.408   0.902 -1.6664 -1.2131  0.5486
 8989SOL     OW38425   0.540   3.077   9.067  0.1607 -0.1909 -0.2682
 8989SOL    HW138426   0.570   3.041   8.983  1.3810  2.5038 -0.9974
 8989SOL    HW238427   0.502   3.160   9.037 -0.7909 -0.8518 -0.8986
 8990SOL     OW38428   1.453   1.419   1.752  0.0844 -0.2546 -0.4231
 8990SOL    HW138429   1.381   1.362   1.723  0.0389  0.4072 -1.6248
 8990SOL    HW238430   1.420   1.462   1.831  1.5764  2.1658 -1.1257
 8991SOL     OW38431   4.492   2.118   3.141 -0.1045 -0.1729  0.3440
 8991SOL    HW138432   4.561   2.066   3.100 -1.7048 -1.8562 -0.1976
 8991SOL    HW238433   4.507   2.080   3.228 -1.5716 -0.4682  0.4673
 8992SOL     OW38434   1.566   4.620  11.920 -0.4352  0.2707  0.2954
 8992SOL    HW138435   1.587   4.606  12.012  0.7617 -0.1653 -0.0395
 8992SOL    HW238436   1.516   4.702  11.927 -2.3275 -0.8193 -0.3841
 8993SOL     OW38437   0.260   0.852   1.504  0.4746  0.5429  0.0647
 8993SOL    HW138438   0.307   0.915   1.449  0.4165  1.1758  0.7392
 8993SOL    HW238439   0.303   0.849   1.589 -1.6376 -1.6941  1.0389
 8994SOL     OW38440   4.224   3.381   2.963  0.1235  0.2188  0.0006
 8994SOL    HW138441   4.283   3.306   2.962 -1.0166 -0.7099  1.6984
 8994SOL    HW238442   4.187   3.379   2.875 -0.6194  1.0873  0.2917
 8995SOL     OW38443   0.809   4.187   4.854 -0.8507  0.2901 -0.3730
 8995SOL    HW138444   0.810   4.126   4.780  0.1357 -0.4284  0.2367
 8995SOL    HW238445   0.732   4.153   4.899  0.4324  1.0207  2.3770
 8996SOL     OW38446   0.849   0.082  14.288  0.4138  0.2463  0.1007
 8996SOL    HW138447   0.846   0.007  14.229  0.6632 -0.9965  1.6652
 8996SOL    HW238448   0.788   0.147  14.253  1.5019  0.2138 -1.8523
 8997SOL     OW38449   0.603   2.663   2.657  0.4547 -0.1397  0.2968
 8997SOL    HW138450   0.570   2.574   2.653  1.6574 -0.6056  0.5209
 8997SOL    HW238451   0.645   2.647   2.742  0.6237  0.2886  0.2941
 8998SOL     OW38452   0.092   1.549   2.424  0.5097  0.0256 -0.1622
 8998SOL    HW138453   0.066   1.457   2.423 -0.1431  0.1965  0.9927
 8998SOL    HW238454   0.005   1.587   2.415  0.4683  0.1535  0.8441
 8999SOL     OW38455   4.551   1.851   9.323 -0.2330  0.2965  0.1921
 8999SOL    HW138456   4.500   1.907   9.381 -1.9776 -1.3915  0.2967
 8999SOL    HW238457   4.554   1.910   9.247 -1.0832  0.5117  0.3295
 9000SOL     OW38458   0.439   3.166   9.293 -0.1936 -0.5467  0.9059
 9000SOL    HW138459   0.475   3.125   9.214  0.3286  0.9060  0.3908
 9000SOL    HW238460   0.353   3.124   9.292 -1.7869  2.6944  2.0830
 9001SOL     OW38461   3.257   3.175   1.233  0.0595 -0.2666 -0.1285
 9001SOL    HW138462   3.201   3.186   1.310  0.9530 -1.3949  0.6756
 9001SOL    HW238463   3.325   3.242   1.238  1.2870 -1.6071  0.9048
 9002SOL     OW38464   2.139   0.248   8.065  0.3139 -0.0917  0.0924
 9002SOL    HW138465   2.141   0.162   8.023 -3.7197 -0.0830 -0.0977
 9002SOL    HW238466   2.080   0.308   8.019 -0.5180 -2.3729 -1.8094
 9003SOL     OW38467   1.001   0.687   2.606  0.2789  0.1606  0.2414
 9003SOL    HW138468   1.011   0.669   2.513 -1.8956 -2.8930  0.6018
 9003SOL    HW238469   1.061   0.618   2.636  0.7431  0.4623  0.0045
 9004SOL     OW38470   4.096   3.152   3.208 -0.0326  0.4472  0.4834
 9004SOL    HW138471   4.107   3.108   3.292  0.6998 -0.7649 -0.2351
 9004SOL    HW238472   4.053   3.095   3.144  0.4180  2.3706 -1.5535
 9005SOL     OW38473   1.985   2.584   4.882 -0.5971  0.3884  0.5096
 9005SOL    HW138474   1.966   2.668   4.841 -1.1979 -0.7697 -1.5943
 9005SOL    HW238475   2.076   2.599   4.907 -0.2636 -1.7011  0.5586
 9006SOL     OW38476   3.941   0.196   1.991 -0.2324  0.6825  0.0173
 9006SOL    HW138477   3.929   0.161   2.079 -1.3326 -2.1812 -1.2728
 9006SOL    HW238478   4.013   0.140   1.962  1.1079  0.9714  2.8792
 9007SOL     OW38479   0.384   4.259  11.413 -0.5955  0.7809 -0.1754
 9007SOL    HW138480   0.478   4.272  11.420 -0.6860  1.8135 -0.9058
 9007SOL    HW238481   0.351   4.325  11.351 -0.4173 -0.5207 -1.6666
 9008SOL     OW38482   3.964   1.763  13.607 -0.2865  0.4478 -0.0974
 9008SOL    HW138483   4.019   1.722  13.674  0.8293 -0.2100 -1.4258
 9008SOL    HW238484   3.914   1.827  13.658  1.2529  0.8272  0.9304
 9009SOL     OW38485   3.961   1.231   4.576  0.0048  0.3250 -0.1929
 9009SOL    HW138486   4.052   1.248   4.602 -0.3566  2.7476 -0.5500
 9009SOL    HW238487   3.933   1.320   4.554  2.5976  1.0871 -0.4630
 9010SOL     OW38488   4.430   4.359   5.012 -0.2729 -0.0749 -0.4825
 9010SOL    HW138489   4.338   4.335   5.014  0.1917 -1.7592  0.5788
 9010SOL    HW238490   4.477   4.297   5.068  0.0603  1.8923  1.4326
 9011SOL     OW38491   3.506   2.535   2.231 -0.0051  0.1639  0.3283
 9011SOL    HW138492   3.430   2.565   2.281  0.4961 -0.3326  1.4012
 9011SOL    HW238493   3.525   2.453   2.278 -1.0502  0.4387  1.2298
 9012SOL     OW38494   3.694   2.354   8.022  0.0331 -0.3606  0.2935
 9012SOL    HW138495   3.656   2.440   8.036  0.7836  0.2579 -1.4248
 9012SOL    HW238496   3.650   2.305   8.092 -0.8351  1.5386  1.0542
 9013SOL     OW38497   3.673   3.194   9.198 -0.4806  0.4492  0.3158
 9013SOL    HW138498   3.673   3.198   9.294  4.5809  1.1540  0.2806
 9013SOL    HW238499   3.608   3.260   9.172 -0.7787 -0.2996 -0.8468
 9014SOL     OW38500   0.247   3.839   3.995 -0.0190 -0.0606  0.1526
 9014SOL    HW138501   0.310   3.872   3.932 -0.3595  0.7853  0.2603
 9014SOL    HW238502   0.237   3.747   3.968 -0.2170  0.0434 -0.1233
 9015SOL     OW38503   1.402   3.407  10.950  0.2968  0.0980 -0.2475
 9015SOL    HW138504   1.372   3.317  10.964 -1.6103  0.5337 -1.5510
 9015SOL    HW238505   1.342   3.427  10.878 -0.3460  1.6624  0.7156
 9016SOL     OW38506   2.438   0.875  14.652  0.1840 -0.2732  0.2729
 9016SOL    HW138507   2.351   0.897  14.687  1.3906  2.1757  1.6940
 9016SOL    HW238508   2.415   0.852  14.562  1.3647  0.9700 -0.3352
 9017SOL     OW38509   3.195   4.007   9.980  0.2904 -0.0385  0.2305
 9017SOL    HW138510   3.127   3.988  10.045 -2.4235 -0.3170 -2.6892
 9017SOL    HW238511   3.138   4.017   9.904  2.8456 -0.2273 -1.7149
 9018SOL     OW38512   3.797   2.806   9.305 -0.2347  0.0801 -0.0942
 9018SOL    HW138513   3.812   2.827   9.397  1.4419  1.2953 -0.6426
 9018SOL    HW238514   3.809   2.712   9.319  2.0886  0.5213  0.7859
 9019SOL     OW38515   3.632   4.352  11.411  0.0559 -0.0492 -0.3260
 9019SOL    HW138516   3.602   4.348  11.502  1.6927 -1.0696  0.1807
 9019SOL    HW238517   3.557   4.376  11.357  0.5109 -0.8604 -1.3292
 9020SOL     OW38518   2.680   3.306  16.230 -0.0817  0.6671 -0.2098
 9020SOL    HW138519   2.589   3.277  16.227 -0.2470  1.2534 -0.8643
 9020SOL    HW238520   2.679   3.341  16.319 -1.2599 -1.9224  0.8073
 9021SOL     OW38521   0.201   0.520   0.772  0.2509  0.7338 -0.0368
 9021SOL    HW138522   0.131   0.550   0.714 -0.5813 -0.8186  0.1428
 9021SOL    HW238523   0.177   0.559   0.856  0.9912 -0.3698  0.6897
 9022SOL     OW38524   3.364   1.941   4.365  0.7345 -0.1351 -0.3127
 9022SOL    HW138525   3.270   1.924   4.362  0.5905  0.2031  2.0806
 9022SOL    HW238526   3.382   1.994   4.287 -0.5201  0.0454 -0.4790
 9023SOL     OW38527   0.401   3.865   6.889 -0.1373  0.1088  0.1251
 9023SOL    HW138528   0.329   3.925   6.908 -1.5084 -0.6827 -2.6463
 9023SOL    HW238529   0.362   3.826   6.811 -1.1735 -0.3949  0.8914
 9024SOL     OW38530   4.585   3.133   4.474 -0.8583  0.3110  0.7050
 9024SOL    HW138531   4.649   3.205   4.478  0.4193 -0.7821 -0.2196
 9024SOL    HW238532   4.529   3.156   4.548  2.4206 -0.2574  3.3661
 9025SOL     OW38533   4.671   2.259  15.592 -0.2248 -0.0155 -0.0145
 9025SOL    HW138534   4.648   2.315  15.666  1.5136 -2.4840  2.4241
 9025SOL    HW238535   4.677   2.326  15.524  0.0132 -0.0938 -0.0735
 9026SOL     OW38536   1.130   1.208   7.044 -0.0127  0.4784  0.7043
 9026SOL    HW138537   1.193   1.162   7.101  0.6373  1.7779  1.0210
 9026SOL    HW238538   1.071   1.255   7.103 -0.1977  0.1467  0.7857
 9027SOL     OW38539   4.203   0.557  10.181 -0.0397 -0.6321 -0.1728
 9027SOL    HW138540   4.197   0.541  10.087 -2.4463 -1.6909  0.1477
 9027SOL    HW238541   4.292   0.590  10.191 -0.0062 -0.4006 -1.3029
 9028SOL     OW38542   3.038   1.434   0.327  0.3971  0.5105 -0.1016
 9028SOL    HW138543   3.097   1.361   0.349  0.3022  0.0574 -1.3436
 9028SOL    HW238544   2.962   1.396   0.283  0.4071 -0.4599  0.6994
 9029SOL     OW38545   1.193   0.851   2.262  0.0565 -0.5292  0.1763
 9029SOL    HW138546   1.122   0.795   2.293 -1.1353  0.1984 -1.1892
 9029SOL    HW238547   1.269   0.794   2.270 -0.1184 -1.0698 -1.9936
 9030SOL     OW38548   4.272   0.239   4.063 -0.1664  0.3051 -0.1768
 9030SOL    HW138549   4.345   0.299   4.049  0.8439 -1.2599 -1.5230
 9030SOL    HW238550   4.278   0.231   4.158 -0.8677 -3.5745 -0.4601
 9031SOL     OW38551   0.965   4.474   7.361 -0.5311  0.3948  0.2833
 9031SOL    HW138552   0.987   4.564   7.337  2.1631 -0.4428 -0.3897
 9031SOL    HW238553   0.964   4.430   7.276 -2.1936  2.4303 -0.7626
 9032SOL     OW38554   1.000   3.784  12.484  0.1003 -0.0764  0.4026
 9032SOL    HW138555   0.917   3.767  12.529  0.1075 -1.6084 -0.1652
 9032SOL    HW238556   1.031   3.699  12.452  2.1621  0.5047  0.8284
 9033SOL     OW38557   4.379   0.856  10.068  0.0032 -0.2078 -0.1076
 9033SOL    HW138558   4.439   0.822  10.001 -2.0054 -1.4554 -1.2735
 9033SOL    HW238559   4.307   0.896  10.018  0.3739  1.6277  0.8016
 9034SOL     OW38560   2.487   1.021  12.368 -0.2480  0.0902 -0.2626
 9034SOL    HW138561   2.488   1.057  12.279  0.2336  1.0230  0.1136
 9034SOL    HW238562   2.436   0.942  12.353  0.4622 -1.1009  3.6921
 9035SOL     OW38563   3.541   4.332  16.561  0.1781  0.3488 -0.1893
 9035SOL    HW138564   3.626   4.316  16.602  0.1366 -2.0066 -1.0065
 9035SOL    HW238565   3.576   4.394  16.498 -0.1414  0.8589  0.1394
 9036SOL     OW38566   4.656   2.426  14.296  0.1148 -0.1363  0.1374
 9036SOL    HW138567   4.586   2.364  14.319 -0.3967  0.6982  0.8089
 9036SOL    HW238568   4.600   2.502  14.278 -0.7841 -0.1916  2.7528
 9037SOL     OW38569   1.927   1.509   7.064 -0.4737  0.1339 -0.0975
 9037SOL    HW138570   1.856   1.471   7.013  0.1985 -0.2359 -0.7698
 9037SOL    HW238571   1.972   1.430   7.094  0.6763  0.5841 -0.6298
 9038SOL     OW38572   3.996   2.312   7.522  0.0539 -0.5955  0.0583
 9038SOL    HW138573   4.087   2.293   7.544  0.1092  0.8481  1.1400
 9038SOL    HW238574   3.986   2.394   7.572 -0.6156 -0.7651  0.2032
 9039SOL     OW38575   2.727   0.966  13.060  0.2714  0.5506  0.6012
 9039SOL    HW138576   2.780   0.888  13.044 -2.1811 -0.8840 -0.5039
 9039SOL    HW238577   2.693   0.971  12.971 -1.0436 -0.1565  1.0621
 9040SOL     OW38578   0.764   0.561   0.760 -0.5517  0.0264  0.1365
 9040SOL    HW138579   0.690   0.554   0.820 -1.1389  0.6867 -0.5069
 9040SOL    HW238580   0.718   0.606   0.689  1.2922 -0.5079 -1.4130
 9041SOL     OW38581   2.613   3.055   5.367 -0.8132  0.2974 -1.1638
 9041SOL    HW138582   2.677   3.012   5.310  0.7023  2.6828 -1.2241
 9041SOL    HW238583   2.641   3.022   5.452  0.0593  1.5946 -0.9511
 9042SOL     OW38584   1.074   0.533   4.810 -0.2102  0.5413  0.3904
 9042SOL    HW138585   1.066   0.512   4.717  2.0877  0.0152  0.3128
 9042SOL    HW238586   1.025   0.463   4.852  0.1119  0.4079  0.5439
 9043SOL     OW38587   2.071   2.661   8.451  0.0360 -0.2626 -0.6250
 9043SOL    HW138588   2.090   2.754   8.440 -3.5596  0.9020  2.9512
 9043SOL    HW238589   1.998   2.648   8.391 -0.0493 -0.0283 -0.5710
 9044SOL     OW38590   3.245   2.476   6.782 -0.3518  1.1779 -0.6437
 9044SOL    HW138591   3.325   2.503   6.827  0.0738 -2.0638  0.5220
 9044SOL    HW238592   3.277   2.453   6.695  2.1788 -0.0292  0.6311
 9045SOL     OW38593   0.198   0.072   9.295 -0.3674  0.1744  0.2550
 9045SOL    HW138594   0.187   0.087   9.201  0.8017 -2.9057 -0.3863
 9045SOL    HW238595   0.134   0.002   9.306  1.3932 -1.2314  1.4669
 9046SOL     OW38596   2.658   0.377   7.390 -0.0429 -0.1928 -0.4816
 9046SOL    HW138597   2.620   0.363   7.477 -1.0400 -0.2893 -0.9422
 9046SOL    HW238598   2.582   0.404   7.339  1.1108  0.3913 -1.8927
 9047SOL     OW38599   2.710   1.885  12.366  0.5685 -0.4490  0.2572
 9047SOL    HW138600   2.681   1.943  12.296 -0.0085  0.8931  1.6358
 9047SOL    HW238601   2.754   1.939  12.432 -0.6028 -0.2393  0.8587
 9048SOL     OW38602   0.739   3.530   4.889 -0.2307  0.1659 -0.2591
 9048SOL    HW138603   0.811   3.497   4.942 -0.5848 -1.2884 -0.6864
 9048SOL    HW238604   0.665   3.484   4.929  1.3780 -1.1808  1.1326
 9049SOL     OW38605   1.987   3.753   3.164 -0.2768 -0.1259  0.5258
 9049SOL    HW138606   2.071   3.789   3.136 -0.9018  0.2403 -0.9028
 9049SOL    HW238607   1.943   3.739   3.080  1.9881  0.2538 -0.6979
 9050SOL     OW38608   1.701   0.671  14.581 -0.0221  0.1926  0.9791
 9050SOL    HW138609   1.796   0.679  14.571  0.0073 -0.8167  0.4567
 9050SOL    HW238610   1.666   0.717  14.505  0.1581 -1.3851 -0.0619
 9051SOL     OW38611   1.141   3.537   3.101 -0.2357 -0.3145  0.3254
 9051SOL    HW138612   1.192   3.616   3.116  0.7530 -1.1494  1.3219
 9051SOL    HW238613   1.128   3.524   3.007  0.9723  1.1924 -0.0409
 9052SOL     OW38614   1.388   0.186  13.269 -0.2365  0.3148 -0.3815
 9052SOL    HW138615   1.307   0.194  13.319 -1.0387 -0.2418 -1.5818
 9052SOL    HW238616   1.443   0.153  13.339 -2.5119 -0.5060  1.0316
 9053SOL     OW38617   1.962   3.480   4.798  0.5634 -0.3719  0.3912
 9053SOL    HW138618   1.983   3.538   4.725 -0.1964 -1.6208 -0.8132
 9053SOL    HW238619   1.929   3.403   4.753 -3.0238  1.7169 -0.6149
 9054SOL     OW38620   1.070   3.812   5.381 -0.5272  0.6280  0.5434
 9054SOL    HW138621   0.977   3.793   5.385 -0.8962  2.3063  0.1190
 9054SOL    HW238622   1.099   3.785   5.468 -0.9942  1.2436  0.8848
 9055SOL     OW38623   0.997   1.680   9.921  0.4353 -0.3474 -0.1600
 9055SOL    HW138624   1.019   1.653   9.832  0.2567 -1.5833  0.1771
 9055SOL    HW238625   0.924   1.623   9.945 -0.1428 -0.4994 -2.3161
 9056SOL     OW38626   3.110   1.146   0.291 -0.3599 -0.2912 -0.2897
 9056SOL    HW138627   3.095   1.106   0.377 -1.3014  0.3801 -0.1434
 9056SOL    HW238628   3.028   1.194   0.279 -1.1404 -1.3199  0.9247
 9057SOL     OW38629   1.758   0.789   2.273 -0.5051 -0.4021 -0.1071
 9057SOL    HW138630   1.747   0.745   2.188 -0.8643  1.8422 -1.2168
 9057SOL    HW238631   1.851   0.809   2.266 -0.2728 -2.0170 -1.8761
 9058SOL     OW38632   4.039   1.247   8.650 -0.4375  0.1371  0.1071
 9058SOL    HW138633   3.949   1.265   8.624  0.1716  0.2603 -1.9676
 9058SOL    HW238634   4.038   1.275   8.741  0.8029 -0.0887  0.1887
 9059SOL     OW38635   1.099   1.830   1.342 -0.0971  0.4973 -0.0737
 9059SOL    HW138636   1.141   1.841   1.427  1.1584  3.2686 -1.0382
 9059SOL    HW238637   1.012   1.796   1.365 -0.1659  1.3549  0.9585
 9060SOL     OW38638   3.152   3.558   5.401 -0.1220  0.1515  0.2172
 9060SOL    HW138639   3.120   3.623   5.463  1.2666  2.0489 -1.0788
 9060SOL    HW238640   3.139   3.478   5.452 -1.2663 -0.1704 -0.5680
 9061SOL     OW38641   2.987   4.470  12.518  0.6911  0.5701 -0.3176
 9061SOL    HW138642   2.982   4.376  12.536  3.1393  0.5270  0.1204
 9061SOL    HW238643   2.982   4.507  12.607 -1.0559 -2.4669  0.8325
 9062SOL     OW38644   3.426   3.455  17.621  0.5444  0.0319  0.0463
 9062SOL    HW138645   3.338   3.427  17.594  0.3868  0.9123 -0.3519
 9062SOL    HW238646   3.425   3.548  17.597  2.2283 -0.1838 -0.8898
 9063SOL     OW38647   1.412   2.077   8.175 -0.0128  0.3219  0.3766
 9063SOL    HW138648   1.415   2.053   8.082 -0.3548  0.7500  0.2544
 9063SOL    HW238649   1.502   2.107   8.180  0.3708 -1.0337  1.8015
 9064SOL     OW38650   0.835   0.160  16.491 -0.3008 -0.1991  0.1798
 9064SOL    HW138651   0.888   0.174  16.570 -0.1470 -0.4859  0.1287
 9064SOL    HW238652   0.802   0.248  16.473 -2.5725 -1.4595 -1.7658
 9065SOL     OW38653   1.879   2.719   2.010  0.0938 -0.2271  0.5417
 9065SOL    HW138654   1.834   2.799   1.985  1.8426  1.0648  1.5238
 9065SOL    HW238655   1.835   2.688   2.090 -1.1553  1.0708  0.3509
 9066SOL     OW38656   0.139   1.196   5.526 -0.2185  0.6371 -0.4058
 9066SOL    HW138657   0.225   1.156   5.510 -1.1218 -0.5202 -2.2841
 9066SOL    HW238658   0.121   1.184   5.619  0.5767 -1.6629 -0.5403
 9067SOL     OW38659   0.674   2.332   3.894  0.1638 -0.0592  0.0956
 9067SOL    HW138660   0.683   2.254   3.949 -0.6945  1.0562  1.8412
 9067SOL    HW238661   0.653   2.400   3.959  1.4429 -0.1286  0.5840
 9068SOL     OW38662   3.805   3.567   6.180 -0.2815  0.0956  0.4741
 9068SOL    HW138663   3.745   3.492   6.190  0.3203  0.0573  3.5913
 9068SOL    HW238664   3.734   3.631   6.173 -0.6194 -0.6670 -3.0969
 9069SOL     OW38665   0.779   4.416  10.840 -0.4423  0.4484 -0.2908
 9069SOL    HW138666   0.698   4.457  10.812  0.0338  1.6200  0.0500
 9069SOL    HW238667   0.836   4.435  10.765 -0.4142 -0.9045 -0.6197
 9070SOL     OW38668   1.024   2.779   6.324 -0.0322  0.1744 -0.2357
 9070SOL    HW138669   0.997   2.842   6.257  1.7474 -0.2325 -1.3185
 9070SOL    HW238670   1.019   2.698   6.275 -0.6351  1.5141 -2.3846
 9071SOL     OW38671   0.900   2.783   2.620 -0.5022 -0.2009 -0.3948
 9071SOL    HW138672   0.861   2.696   2.628 -0.9473 -0.0142 -0.4972
 9071SOL    HW238673   0.930   2.786   2.529 -0.5428 -1.3473 -0.4444
 9072SOL     OW38674   2.142   3.379   6.512 -0.0395 -0.2170  0.4066
 9072SOL    HW138675   2.114   3.288   6.514 -0.8376  0.0387  0.9452
 9072SOL    HW238676   2.106   3.413   6.430  1.7885 -1.0360 -0.7285
 9073SOL     OW38677   2.634   1.124   6.634 -0.1153 -0.0177  0.0137
 9073SOL    HW138678   2.563   1.075   6.676  0.0205 -0.2124  0.0150
 9073SOL    HW238679   2.626   1.081   6.549 -1.4856 -2.4447  1.3912
 9074SOL     OW38680   0.223   4.271  17.379  0.5584 -0.4348  0.0095
 9074SOL    HW138681   0.207   4.206  17.310  0.9292  0.0963 -0.5815
 9074SOL    HW238682   0.175   4.235  17.453  3.3704  0.8430  2.4366
 9075SOL     OW38683   3.480   2.209   9.473  0.3099 -0.5242  0.7675
 9075SOL    HW138684   3.410   2.259   9.514  1.0971  0.0289  1.4248
 9075SOL    HW238685   3.525   2.280   9.427  0.9713  0.5126  3.0493
 9076SOL     OW38686   3.935   3.754   8.722 -0.3035  0.8747 -0.6611
 9076SOL    HW138687   3.864   3.716   8.669  2.1301 -1.8811 -1.9200
 9076SOL    HW238688   3.869   3.797   8.776 -3.2100 -4.0815 -0.2307
 9077SOL     OW38689   4.595   3.249  11.583 -0.0819 -0.0525  0.3543
 9077SOL    HW138690   4.665   3.199  11.623 -1.3269 -1.5126  0.7214
 9077SOL    HW238691   4.643   3.332  11.586  1.3362 -0.9910  3.4192
 9078SOL     OW38692   2.159   2.524   8.643  0.4626 -0.4627  0.0249
 9078SOL    HW138693   2.204   2.447   8.608  2.9564  2.1965 -2.5916
 9078SOL    HW238694   2.121   2.568   8.566 -0.2882 -0.5143  0.3704
 9079SOL     OW38695   2.327   1.219   9.871  0.1934  0.0251 -0.1870
 9079SOL    HW138696   2.422   1.208   9.877  0.2535  0.8636  0.5365
 9079SOL    HW238697   2.339   1.314   9.880 -0.5581  0.0806  0.1882
 9080SOL     OW38698   3.250   1.349   1.196 -0.5355  0.0571 -0.2008
 9080SOL    HW138699   3.199   1.272   1.169 -0.4476  0.1976 -0.7643
 9080SOL    HW238700   3.300   1.367   1.116  3.9019 -2.2243  2.0813
 9081SOL     OW38701   2.733   0.410   5.621 -0.0212 -0.6219  0.7165
 9081SOL    HW138702   2.704   0.339   5.563 -1.2729  1.7347 -1.5446
 9081SOL    HW238703   2.716   0.484   5.563 -1.4110 -2.2836 -1.0091
 9082SOL     OW38704   2.167   0.927   9.972 -0.3322  0.5220 -0.0009
 9082SOL    HW138705   2.244   0.894   9.926 -0.7400 -1.2154  0.5456
 9082SOL    HW238706   2.159   1.014   9.933 -0.9250  0.2425 -0.5027
 9083SOL     OW38707   3.129   0.458  10.368  0.1725  0.4684 -0.2408
 9083SOL    HW138708   3.194   0.527  10.383  1.7100 -1.1497  0.5785
 9083SOL    HW238709   3.138   0.414  10.453  3.0605  0.6773 -0.4079
 9084SOL     OW38710   1.918   4.469   8.194 -0.5533 -0.4320 -0.4118
 9084SOL    HW138711   1.943   4.434   8.279  0.7142 -1.0255 -1.0243
 9084SOL    HW238712   1.981   4.540   8.180 -1.7331  1.1673  2.5946
 9085SOL     OW38713   1.690   0.322   7.606 -0.1317  0.0015 -0.0347
 9085SOL    HW138714   1.659   0.340   7.695  0.2664 -0.3899  0.1896
 9085SOL    HW238715   1.682   0.226   7.606 -0.4312  0.0321 -1.2377
 9086SOL     OW38716   3.047   2.053   3.055 -0.4039 -0.2143 -0.2407
 9086SOL    HW138717   2.962   2.044   3.012 -0.1839  1.5384 -1.0523
 9086SOL    HW238718   3.109   2.023   2.989  0.8301 -0.1049  0.8414
 9087SOL     OW38719   1.356   2.225   4.445  0.1658 -0.1338  0.1712
 9087SOL    HW138720   1.260   2.221   4.442 -0.0916  5.4325  0.0448
 9087SOL    HW238721   1.383   2.151   4.498 -1.1711 -1.2855 -0.7618
 9088SOL     OW38722   4.054   4.418   6.411  0.0139 -0.0699  0.2770
 9088SOL    HW138723   4.067   4.454   6.323 -0.5500 -1.1745 -0.2604
 9088SOL    HW238724   4.113   4.343   6.412 -0.2705 -0.3034 -0.7547
 9089SOL     OW38725   3.386   0.624  10.390 -0.4061 -0.1594 -0.5005
 9089SOL    HW138726   3.326   0.698  10.383  1.7645  1.6749  0.1372
 9089SOL    HW238727   3.442   0.646  10.316  2.2119  0.7679  1.7485
 9090SOL     OW38728   2.289   2.091   4.501  0.4595 -0.0651  0.6728
 9090SOL    HW138729   2.328   2.151   4.437  0.9321 -0.4039  0.6488
 9090SOL    HW238730   2.345   2.014   4.489  1.8472  0.8706  1.1817
 9091SOL     OW38731   1.186   0.828   3.684  0.3259  0.3420  0.2238
 9091SOL    HW138732   1.242   0.843   3.608  0.4065  0.3084  0.2758
 9091SOL    HW238733   1.243   0.829   3.760  2.4488 -1.0748 -1.3460
 9092SOL     OW38734   2.677   0.957   3.819 -0.3505  0.0549  0.3267
 9092SOL    HW138735   2.734   0.931   3.747  0.9314  1.7552  0.7232
 9092SOL    HW238736   2.593   0.971   3.775 -0.8756 -2.0208  0.6578
 9093SOL     OW38737   4.013   2.687  10.540  0.4848 -0.1850  0.0476
 9093SOL    HW138738   4.015   2.594  10.562 -1.0974  0.0833  1.3589
 9093SOL    HW238739   4.088   2.715  10.592  1.1078  0.9040 -1.4772
 9094SOL     OW38740   2.475   1.205   8.549  0.3017 -0.6964  0.1985
 9094SOL    HW138741   2.481   1.144   8.622 -1.4683  0.5417  1.3798
 9094SOL    HW238742   2.447   1.147   8.478 -0.6288 -0.3877  0.3125
 9095SOL     OW38743   0.374   4.684  12.903  0.0115  0.1788  0.2590
 9095SOL    HW138744   0.393   4.591  12.892  0.9639  0.1824  1.9056
 9095SOL    HW238745   0.297   4.679  12.961 -0.2464 -0.2502 -0.1215
 9096SOL     OW38746   0.344   2.728  14.752  0.7323 -0.3986  0.2914
 9096SOL    HW138747   0.274   2.672  14.719  0.6757  0.4125 -0.9932
 9096SOL    HW238748   0.381   2.768  14.673 -1.0313  2.9529  1.1173
 9097SOL     OW38749   4.538   3.613  16.189 -0.4165 -0.4408  0.3429
 9097SOL    HW138750   4.525   3.564  16.108 -0.6949 -0.1550  0.2154
 9097SOL    HW238751   4.617   3.663  16.172 -1.5793  1.5260  0.6554
 9098SOL     OW38752   1.838   1.392  13.152  0.1481 -0.7484  0.2519
 9098SOL    HW138753   1.882   1.458  13.206  0.4397 -0.6137 -0.1541
 9098SOL    HW238754   1.833   1.442  13.071  0.4258 -1.1923 -0.0363
 9099SOL     OW38755   2.498   1.984   6.667  0.4074 -0.0215 -0.0237
 9099SOL    HW138756   2.535   2.072   6.661 -0.6822  0.4249 -0.1695
 9099SOL    HW238757   2.449   1.996   6.749 -0.3969 -0.5775 -0.4164
 9100SOL     OW38758   1.079   4.474   2.530 -0.7520  0.0604 -0.2396
 9100SOL    HW138759   1.003   4.494   2.475 -0.3441  2.1354 -0.0360
 9100SOL    HW238760   1.067   4.539   2.599  1.2705  0.8889 -0.6576
 9101SOL     OW38761   0.706   0.071   2.443  0.0029  0.5648 -0.3004
 9101SOL    HW138762   0.677   0.056   2.533  0.5975 -1.2156 -0.4027
 9101SOL    HW238763   0.795   0.104   2.450  0.5624 -0.8087 -1.0068
 9102SOL     OW38764   2.630   0.123  15.348  0.3913 -0.4975 -0.1700
 9102SOL    HW138765   2.543   0.121  15.308  1.2595 -1.2868 -2.0188
 9102SOL    HW238766   2.663   0.212  15.337 -1.9337  0.4005  0.1191
 9103SOL     OW38767   1.980   0.535   0.338 -0.2643 -0.6087 -0.0790
 9103SOL    HW138768   1.895   0.495   0.360 -0.9095 -0.1303 -1.7546
 9103SOL    HW238769   2.046   0.473   0.370  0.6710 -0.3134 -1.4599
 9104SOL     OW38770   4.591   4.553   5.119  0.0028 -0.1008  0.4019
 9104SOL    HW138771   4.671   4.534   5.070  2.8633  2.7483  3.9681
 9104SOL    HW238772   4.528   4.498   5.073 -0.9311  0.4745  1.0001
 9105SOL     OW38773   2.569   3.785   9.897  0.6396  0.1365  0.0834
 9105SOL    HW138774   2.586   3.691   9.893  1.8433  0.3655 -0.1437
 9105SOL    HW238775   2.554   3.806   9.805  2.2415  0.9656  0.0120
 9106SOL     OW38776   3.808   0.285   5.165  0.4671  0.3854 -0.2895
 9106SOL    HW138777   3.859   0.248   5.238  0.8427 -0.4310 -0.9627
 9106SOL    HW238778   3.752   0.343   5.216 -0.1365 -0.7910  0.3782
 9107SOL     OW38779   3.239   3.292   4.645  0.0171  0.2019  0.0116
 9107SOL    HW138780   3.283   3.344   4.713  3.5884 -2.1598 -0.4775
 9107SOL    HW238781   3.152   3.331   4.651 -0.0537  0.0938 -0.2905
 9108SOL     OW38782   2.354   3.324   2.621  0.0843 -0.0485  0.4326
 9108SOL    HW138783   2.439   3.342   2.581 -0.0096 -1.4215 -0.4148
 9108SOL    HW238784   2.351   3.232   2.593  0.6019  0.0132  0.1752
 9109SOL     OW38785   2.666   3.309   8.557  0.5248  0.8285 -0.1263
 9109SOL    HW138786   2.586   3.358   8.542  0.5645  1.2935  1.2242
 9109SOL    HW238787   2.648   3.215   8.550  0.3323  0.8997 -0.5595
 9110SOL     OW38788   1.556   4.650   0.937  0.5673 -0.0366  0.2084
 9110SOL    HW138789   1.607   4.621   1.013  1.2693 -0.0178 -0.2547
 9110SOL    HW238790   1.570   0.023   0.948  2.0277 -0.0744 -1.2748
 9111SOL     OW38791   2.594   1.446  14.107 -0.2112  0.3938 -0.0399
 9111SOL    HW138792   2.585   1.354  14.132 -2.5429  0.7245  0.3312
 9111SOL    HW238793   2.546   1.488  14.178  1.2244  1.0053  0.5540
 9112SOL     OW38794   1.237   3.036   2.443 -0.3419  0.0415  0.1309
 9112SOL    HW138795   1.281   2.992   2.370 -1.1944  1.0452 -0.9884
 9112SOL    HW238796   1.308   3.096   2.466  1.9182 -1.9928 -1.6133
 9113SOL     OW38797   2.890   1.711   2.395 -0.1918  1.0818  0.3234
 9113SOL    HW138798   2.902   1.641   2.331 -2.2784 -0.1570  1.3247
 9113SOL    HW238799   2.898   1.664   2.478  1.2563 -1.0667 -1.0496
 9114SOL     OW38800   2.641   3.908   4.176  0.0628 -0.4879 -0.3633
 9114SOL    HW138801   2.570   3.972   4.183  1.3794  0.9424 -0.3249
 9114SOL    HW238802   2.696   3.933   4.250 -2.2119 -0.7172  1.4346
 9115SOL     OW38803   2.728   1.114   9.020 -0.9609  0.1032 -0.4023
 9115SOL    HW138804   2.780   1.189   8.991 -1.3020  0.4212 -0.1875
 9115SOL    HW238805   2.640   1.148   9.032 -1.2943 -0.6954 -0.6129
 9116SOL     OW38806   2.853   2.064   8.808  0.0868 -0.1256 -0.1228
 9116SOL    HW138807   2.788   1.993   8.806 -2.6303  2.4068 -1.6978
 9116SOL    HW238808   2.815   2.121   8.876  0.2702  0.7986 -0.7962
 9117SOL     OW38809   1.273   2.847   6.062  0.5994 -0.4981 -0.0764
 9117SOL    HW138810   1.340   2.813   6.003  0.7338  1.5702 -1.1364
 9117SOL    HW238811   1.187   2.834   6.021  0.0577 -1.3879  1.3377
 9118SOL     OW38812   3.219   2.948  11.166  0.0241  0.5211 -0.2476
 9118SOL    HW138813   3.261   2.969  11.083 -1.4866 -0.6406 -1.3060
 9118SOL    HW238814   3.142   3.004  11.158 -1.3252 -1.6989 -2.6776
 9119SOL     OW38815   2.431   2.787   3.210  0.3154  0.4584  0.2456
 9119SOL    HW138816   2.450   2.868   3.163 -2.3201  0.0675 -1.4403
 9119SOL    HW238817   2.357   2.818   3.262 -1.7514  0.5260 -2.8070
 9120SOL     OW38818   1.336   1.474   6.978 -0.4533  0.1814 -0.2030
 9120SOL    HW138819   1.311   1.382   6.969 -0.4473  0.1841 -0.2462
 9120SOL    HW238820   1.431   1.481   6.968 -0.1988 -2.1262  0.6375
 9121SOL     OW38821   1.178   0.867   2.925  1.1788 -0.2768 -0.0879
 9121SOL    HW138822   1.259   0.848   2.879  0.4258 -1.0011 -1.1274
 9121SOL    HW238823   1.182   0.810   3.002 -2.9063  1.0298  1.1130
 9122SOL     OW38824   2.014   4.101  15.334  0.4522  0.0643  0.1298
 9122SOL    HW138825   2.099   4.056  15.336 -1.3159 -3.2858  0.1816
 9122SOL    HW238826   2.048   4.190  15.339  0.6980  0.0231 -0.7329
 9123SOL     OW38827   4.504   1.069   2.058 -0.9988 -0.4310  0.1242
 9123SOL    HW138828   4.491   1.098   2.148  0.4346  0.7724 -0.0470
 9123SOL    HW238829   4.520   1.156   2.022  0.8923 -1.3992 -1.3888
 9124SOL     OW38830   0.502   3.673  14.214 -0.1817 -0.1585 -0.1863
 9124SOL    HW138831   0.522   3.684  14.307 -1.4162 -0.7306  0.1373
 9124SOL    HW238832   0.567   3.606  14.191 -1.3592 -1.8933  1.6069
 9125SOL     OW38833   2.808   2.901   3.852 -0.3060  0.1752  0.4514
 9125SOL    HW138834   2.787   2.993   3.838 -1.8625 -0.4149 -1.1464
 9125SOL    HW238835   2.725   2.874   3.892  0.0606 -0.0330  1.0731
 9126SOL     OW38836   4.293   0.377   6.750  0.0922  0.0492  0.1732
 9126SOL    HW138837   4.316   0.377   6.657  0.2368  2.0682  0.2069
 9126SOL    HW238838   4.347   0.440   6.798  1.0238  0.2973 -1.2131
 9127SOL     OW38839   1.048   3.329   5.754 -0.2672  0.0838  0.3560
 9127SOL    HW138840   1.004   3.341   5.838  1.4674  1.4117  1.0774
 9127SOL    HW238841   1.018   3.401   5.698  1.5939  0.5958 -0.0124
 9128SOL     OW38842   2.073   0.328   3.540 -0.0893 -0.4442  0.7831
 9128SOL    HW138843   2.043   0.241   3.563  1.8585 -1.0696  0.9670
 9128SOL    HW238844   2.090   0.361   3.629  3.4427  1.4407 -0.5604
 9129SOL     OW38845   1.761   2.017   7.188 -0.2499  0.0466 -0.6667
 9129SOL    HW138846   1.841   2.063   7.163 -0.3333 -0.1427 -1.2921
 9129SOL    HW238847   1.741   2.051   7.275  0.8023  0.0866 -0.4435
 9130SOL     OW38848   3.642   4.226   8.306 -0.1358 -0.7040 -0.3687
 9130SOL    HW138849   3.628   4.309   8.352 -0.9154 -0.3357 -1.2737
 9130SOL    HW238850   3.678   4.167   8.372 -1.5366 -1.8112 -0.5927
 9131SOL     OW38851   1.875   0.085   2.189 -0.2771 -0.4566  0.3813
 9131SOL    HW138852   1.935   0.086   2.114 -1.4118 -1.2724 -0.5425
 9131SOL    HW238853   1.820   0.160   2.167 -1.0400 -0.6334  1.7042
 9132SOL     OW38854   4.448   0.853   6.051 -0.1085  0.2865 -0.3535
 9132SOL    HW138855   4.517   0.887   5.994  1.3882 -1.3825  0.4548
 9132SOL    HW238856   4.475   0.874   6.140 -0.8794 -1.6462  0.3482
 9133SOL     OW38857   3.270   2.114   7.333 -0.6481 -0.1351 -0.0775
 9133SOL    HW138858   3.269   2.134   7.426 -1.2332  0.9980 -0.3183
 9133SOL    HW238859   3.332   2.042   7.323  1.0714  0.9823  2.5571
 9134SOL     OW38860   0.206   1.995  13.003 -0.0082  0.0367  0.0348
 9134SOL    HW138861   0.239   1.946  12.927  0.8299  0.4500  0.1253
 9134SOL    HW238862   0.232   1.932  13.071  1.3496  1.2487  0.6466
 9135SOL     OW38863   1.718   0.483   9.209 -0.0081  0.3832  0.0975
 9135SOL    HW138864   1.767   0.474   9.291  1.8154  2.0980 -0.8143
 9135SOL    HW238865   1.671   0.400   9.207 -0.4593  0.6530 -0.4777
 9136SOL     OW38866   2.065   4.631   8.923  0.0601  0.1875 -0.0520
 9136SOL    HW138867   2.007   4.706   8.937  1.7576  1.9210 -2.3565
 9136SOL    HW238868   2.149   4.656   8.961 -0.5303  1.1726  0.6004
 9137SOL     OW38869   1.702   0.076  13.520  0.1488  0.6545 -0.3847
 9137SOL    HW138870   1.675   0.155  13.566  3.5015  1.4924  0.1856
 9137SOL    HW238871   1.621   0.028  13.537 -0.0882  0.7968 -1.1002
 9138SOL     OW38872   1.300   4.372  15.545  0.1165 -0.4185  0.2665
 9138SOL    HW138873   1.284   4.281  15.572  2.1182 -0.3102  1.7854
 9138SOL    HW238874   1.274   4.419  15.623  1.1864  1.4522 -0.5219
 9139SOL     OW38875   3.217   3.301   4.235  0.2818  0.0163 -0.1396
 9139SOL    HW138876   3.293   3.244   4.247  0.6128  0.8554  1.7561
 9139SOL    HW238877   3.184   3.266   4.152 -0.1209 -0.3314  0.1640
 9140SOL     OW38878   4.533   2.724  15.230 -0.5783  0.1740  0.4792
 9140SOL    HW138879   4.521   2.783  15.305  1.6701 -0.4331  1.3148
 9140SOL    HW238880   4.473   2.766  15.168  1.0354 -0.0140 -1.2097
 9141SOL     OW38881   1.961   1.384   2.365 -0.4497  0.1086 -0.0262
 9141SOL    HW138882   1.884   1.440   2.368  1.0356  2.2701 -2.7630
 9141SOL    HW238883   1.978   1.386   2.271 -0.9972  1.3825 -0.0982
 9142SOL     OW38884   0.456   3.526   9.859 -0.4667  0.4371  0.5656
 9142SOL    HW138885   0.454   3.599   9.797  1.0820  0.1069  0.1248
 9142SOL    HW238886   0.365   3.521   9.890 -0.5192  0.3124  0.3929
 9143SOL     OW38887   0.510   2.523   7.152 -0.1010 -0.0510  0.6636
 9143SOL    HW138888   0.470   2.553   7.233 -0.0647 -1.1911  1.0996
 9143SOL    HW238889   0.554   2.603   7.124  1.2381 -0.8696  0.4155
 9144SOL     OW38890   2.752   2.450   8.322  0.0972  0.4831  0.2510
 9144SOL    HW138891   2.724   2.460   8.231  1.1112 -1.8215 -0.3190
 9144SOL    HW238892   2.677   2.406   8.362  0.7288  0.4050  1.3278
 9145SOL     OW38893   2.251   0.486   5.317 -0.3643 -0.2687 -0.1056
 9145SOL    HW138894   2.268   0.403   5.361  1.0757 -0.0714 -0.2865
 9145SOL    HW238895   2.172   0.504   5.367 -1.2854  1.0317 -2.0062
 9146SOL     OW38896   4.031   4.490   5.062  0.6752  0.4272  0.0394
 9146SOL    HW138897   4.099   4.523   5.003  2.2243 -0.3567  1.3863
 9146SOL    HW238898   4.068   4.406   5.087  0.6828  0.1246 -0.9790
 9147SOL     OW38899   3.058   3.281   8.749 -0.0022 -0.4403 -0.0934
 9147SOL    HW138900   2.981   3.225   8.749 -0.2460 -0.1065  1.3513
 9147SOL    HW238901   3.132   3.223   8.767  0.4541  1.3096  3.6823
 9148SOL     OW38902   0.482   4.226  16.781  0.2799 -0.3614  0.1564
 9148SOL    HW138903   0.430   4.291  16.734 -0.1689 -0.1563  0.9371
 9148SOL    HW238904   0.496   4.271  16.864  0.0952 -1.0568  0.5662
 9149SOL     OW38905   4.032   1.421   9.349 -0.2840  0.5433  0.4133
 9149SOL    HW138906   3.996   1.333   9.357  3.6983 -0.9436  1.9343
 9149SOL    HW238907   4.004   1.451   9.436  0.7971  0.7190  0.6996
 9150SOL     OW38908   2.765   1.184  13.592 -0.0479 -0.2382  0.1274
 9150SOL    HW138909   2.771   1.147  13.503  1.8624  2.0956 -0.7274
 9150SOL    HW238910   2.679   1.146  13.610  0.0575 -0.4107  0.2620
 9151SOL     OW38911   3.572   4.518   9.288 -0.3950 -0.5329  0.3009
 9151SOL    HW138912   3.652   4.468   9.274 -0.1905 -0.2081  0.3092
 9151SOL    HW238913   3.561   4.517   9.383 -0.9419 -0.0681  0.2421
 9152SOL     OW38914   1.892   4.342   4.772 -0.7537  0.0446  0.0235
 9152SOL    HW138915   1.883   4.398   4.850  0.6768  0.1123  0.1339
 9152SOL    HW238916   1.976   4.374   4.741 -1.2334 -2.3639 -3.7252
 9153SOL     OW38917   1.651   2.847   5.428 -0.4780 -0.3715  0.8035
 9153SOL    HW138918   1.625   2.756   5.442  0.6412 -0.7166  0.6457
 9153SOL    HW238919   1.603   2.900   5.491 -1.5227 -1.6863  1.1004
 9154SOL     OW38920   0.442   1.189   3.925  0.0064 -0.6372 -0.2143
 9154SOL    HW138921   0.463   1.259   3.988 -1.4140 -0.1747 -0.2689
 9154SOL    HW238922   0.504   1.207   3.855  0.7980 -0.2074  0.5900
 9155SOL     OW38923   2.782   0.649  12.395 -0.0362 -0.2744  0.5075
 9155SOL    HW138924   2.837   0.572  12.385  0.3394  0.1434 -0.6730
 9155SOL    HW238925   2.725   0.617  12.464 -2.8149  2.9057 -0.3128
 9156SOL     OW38926   2.232   2.454   8.922  0.1737 -0.1627  0.6096
 9156SOL    HW138927   2.313   2.503   8.915 -0.1836  0.1434 -1.2315
 9156SOL    HW238928   2.215   2.444   8.829 -1.6753 -1.5474  1.0831
 9157SOL     OW38929   3.874   4.567   5.266  0.6018 -0.3221  0.3456
 9157SOL    HW138930   3.811   4.614   5.211 -1.3607 -1.6278  1.4919
 9157SOL    HW238931   3.930   4.543   5.192  1.6789  1.8620  0.4419
 9158SOL     OW38932   1.537   4.081   3.305 -0.4824  0.3547  0.1796
 9158SOL    HW138933   1.552   4.142   3.232 -1.3562  0.2664 -0.0746
 9158SOL    HW238934   1.628   4.049   3.303 -1.2617 -1.8013 -1.1759
 9159SOL     OW38935   3.773   1.267  13.826 -0.0333 -0.1419  0.2902
 9159SOL    HW138936   3.701   1.224  13.779  0.2787  1.5611 -1.7272
 9159SOL    HW238937   3.839   1.242  13.762 -0.0848  1.5997 -0.4225
 9160SOL     OW38938   2.178   3.395  13.698  0.3874  0.0290 -0.1602
 9160SOL    HW138939   2.264   3.422  13.664 -0.8111  0.7834 -2.6276
 9160SOL    HW238940   2.193   3.387  13.792  1.6507  0.4537 -0.3214
 9161SOL     OW38941   2.649   0.456  16.275 -0.1606 -0.1605  0.6419
 9161SOL    HW138942   2.724   0.400  16.256  0.7853  1.1098  0.5807
 9161SOL    HW238943   2.692   0.541  16.262  2.3818 -1.4783  0.4974
 9162SOL     OW38944   4.315   0.499  13.872  0.3029  0.6175  0.3075
 9162SOL    HW138945   4.303   0.404  13.878  1.1287  0.4188 -1.3117
 9162SOL    HW238946   4.229   0.521  13.834  1.4123  0.2086 -2.4424
 9163SOL     OW38947   0.761   1.259   7.478 -0.3495 -0.0008 -0.1948
 9163SOL    HW138948   0.743   1.338   7.426 -1.9553  0.1482  0.5832
 9163SOL    HW238949   0.769   1.199   7.404  0.8912  0.7757 -0.6871
 9164SOL     OW38950   3.023   0.762  12.180 -0.0995  0.0802 -0.1906
 9164SOL    HW138951   3.013   0.856  12.164 -1.8171  0.0370  0.6185
 9164SOL    HW238952   2.970   0.716  12.115 -0.1689 -0.6077  0.3580
 9165SOL     OW38953   0.170   1.174   7.590 -0.0531 -0.0283 -0.5349
 9165SOL    HW138954   0.220   1.169   7.671  1.1316  0.7415 -1.2148
 9165SOL    HW238955   0.085   1.197   7.628  0.3657  0.8343 -0.1013
 9166SOL     OW38956   1.083   3.528   7.731 -0.4125  0.0602  0.2110
 9166SOL    HW138957   1.111   3.474   7.804 -0.3825 -0.9105 -0.5188
 9166SOL    HW238958   0.994   3.496   7.717 -0.0680  0.8454 -3.7658
 9167SOL     OW38959   4.495   1.949   6.125 -0.2887 -0.5701  0.8209
 9167SOL    HW138960   4.449   1.961   6.042 -1.5587  0.7960  1.7295
 9167SOL    HW238961   4.473   2.037   6.156  1.0720  0.0628 -0.0214
 9168SOL     OW38962   4.208   0.320   2.755 -0.0605 -0.2597  0.1976
 9168SOL    HW138963   4.292   0.275   2.746  1.8692  3.7165 -1.6020
 9168SOL    HW238964   4.149   0.266   2.704 -0.4620  1.8970 -1.6109
 9169SOL     OW38965   1.318   3.184   6.897  0.1152  0.0345 -0.3003
 9169SOL    HW138966   1.371   3.153   6.971  0.3086 -1.5407 -1.0988
 9169SOL    HW238967   1.378   3.159   6.826  0.1341  4.3325 -1.7877
 9170SOL     OW38968   0.940   1.318  16.548 -0.3913 -0.0801  0.4324
 9170SOL    HW138969   0.929   1.339  16.455 -2.2197 -0.8862  0.4539
 9170SOL    HW238970   0.848   1.299  16.569 -0.4871  1.9145  1.7611
 9171SOL     OW38971   0.903   4.098   3.912 -0.2313 -0.0782  0.3993
 9171SOL    HW138972   0.972   4.059   3.858  0.1600  1.9919 -0.6187
 9171SOL    HW238973   0.943   4.090   3.999  2.3824  0.5461 -0.7413
 9172SOL     OW38974   2.641   2.231   6.601 -0.0764  0.1688  0.1360
 9172SOL    HW138975   2.668   2.321   6.619  0.2430  0.3063 -1.0280
 9172SOL    HW238976   2.705   2.197   6.663  1.8784  2.7124 -0.4494
 9173SOL     OW38977   0.759   0.699  12.440 -0.1718  0.0288  0.3575
 9173SOL    HW138978   0.687   0.664  12.388  0.6419 -1.1488  0.0228
 9173SOL    HW238979   0.733   0.791  12.440  2.1522  0.6962 -1.1039
 9174SOL     OW38980   4.215   2.414   0.927  0.1637 -0.2535  0.5694
 9174SOL    HW138981   4.149   2.416   0.857  2.1882 -1.6224 -1.3925
 9174SOL    HW238982   4.178   2.473   0.993  0.7053  0.8359 -0.1038
 9175SOL     OW38983   2.028   1.617   6.199 -0.8128  0.2809 -0.5475
 9175SOL    HW138984   1.947   1.576   6.169 -0.8883  0.1433 -0.1601
 9175SOL    HW238985   1.990   1.704   6.211 -0.6498 -0.0927  2.7181
 9176SOL     OW38986   1.710   2.222   1.075 -0.0601  0.2457  0.3490
 9176SOL    HW138987   1.765   2.150   1.046 -0.9132 -0.6374  0.9118
 9176SOL    HW238988   1.733   2.228   1.167 -2.1110  0.5049  0.8553
 9177SOL     OW38989   4.699   4.016   7.052 -0.1438  0.0341  0.1333
 9177SOL    HW138990   4.605   4.007   7.071  0.4432 -2.2522  1.8888
 9177SOL    HW238991   4.713   4.106   7.084  0.2707  0.0248 -0.0312
 9178SOL     OW38992   2.958   4.217   8.507 -0.9584 -0.6034  0.0731
 9178SOL    HW138993   3.032   4.195   8.564 -1.7651  0.0020  1.3587
 9178SOL    HW238994   2.991   4.187   8.423  0.5360  2.0620 -0.2890
 9179SOL     OW38995   2.629   2.751   8.379 -0.5272  0.1864  0.2281
 9179SOL    HW138996   2.607   2.677   8.322  0.2533  1.6087 -1.9411
 9179SOL    HW238997   2.721   2.734   8.395 -0.4073  0.4645 -0.1625
 9180SOL     OW38998   4.286   3.101   2.384  0.0498 -0.1462  0.2248
 9180SOL    HW138999   4.256   3.188   2.357  0.0429 -0.3395 -0.4055
 9180SOL    HW239000   4.283   3.114   2.478 -3.0374  2.0040 -0.1554
 9181SOL     OW39001   0.873   0.469   9.486 -0.0197  0.0575 -0.3433
 9181SOL    HW139002   0.954   0.430   9.452 -0.3665 -1.2522  0.3168
 9181SOL    HW239003   0.839   0.382   9.506  0.8574  0.1178  1.4276
 9182SOL     OW39004   0.818   4.175  11.265  0.2514 -0.0957  0.1204
 9182SOL    HW139005   0.895   4.162  11.209  1.0923  0.6640  1.1198
 9182SOL    HW239006   0.744   4.130  11.223  2.1422 -0.2992 -3.0063
 9183SOL     OW39007   4.271   3.095   7.142  0.8580 -0.2164 -0.3092
 9183SOL    HW139008   4.223   3.177   7.149  2.5287  0.7039  0.2949
 9183SOL    HW239009   4.210   3.024   7.123  0.4797  0.0065  0.0575
 9184SOL     OW39010   3.322   2.596  14.924 -0.8459  0.0893  0.1248
 9184SOL    HW139011   3.374   2.663  14.969 -1.5330  0.8356 -0.1679
 9184SOL    HW239012   3.241   2.593  14.975  0.0210  2.3178  1.6377
 9185SOL     OW39013   4.471   1.259  10.716  0.2034  0.0897 -0.1267
 9185SOL    HW139014   4.563   1.285  10.727  0.0871  0.1157  0.8172
 9185SOL    HW239015   4.430   1.345  10.725 -2.0310 -1.2484  2.5768
 9186SOL     OW39016   2.204   1.914   5.347  0.7734 -0.5023 -0.0605
 9186SOL    HW139017   2.240   1.877   5.266 -0.1702 -1.4333 -0.0474
 9186SOL    HW239018   2.262   1.866   5.407 -0.3516 -0.1168  1.3238
 9187SOL     OW39019   4.170   4.227  14.412  0.9976 -0.4427  0.1426
 9187SOL    HW139020   4.140   4.228  14.321  1.7500 -0.9227 -0.1089
 9187SOL    HW239021   4.224   4.148  14.409 -0.5799 -1.6619  3.7603
 9188SOL     OW39022   2.117   3.268   8.499 -0.0754 -0.1795 -0.5001
 9188SOL    HW139023   2.116   3.220   8.416  1.5158  2.7980 -2.2681
 9188SOL    HW239024   2.032   3.311   8.497 -0.0765 -0.1748 -0.3239
 9189SOL     OW39025   2.909   2.699   7.586 -0.0102  0.5906 -0.4364
 9189SOL    HW139026   2.976   2.696   7.654 -0.2150  0.5158 -0.2376
 9189SOL    HW239027   2.962   2.702   7.506  1.5154  0.6754  0.5728
 9190SOL     OW39028   3.675   3.252  13.350  0.2833  0.3541 -0.3376
 9190SOL    HW139029   3.634   3.339  13.357  0.6793  0.5114  0.0452
 9190SOL    HW239030   3.599   3.195  13.355  2.8787 -2.9725  0.8800
 9191SOL     OW39031   0.358   1.539  11.525 -0.1888  0.0856  0.3216
 9191SOL    HW139032   0.293   1.535  11.595  0.9692 -0.0215  1.3789
 9191SOL    HW239033   0.384   1.447  11.522  0.7661  0.3785 -0.6452
 9192SOL     OW39034   3.161   0.431  16.213  0.4563  0.1019  0.3635
 9192SOL    HW139035   3.118   0.507  16.175 -4.3434 -1.3870  2.8338
 9192SOL    HW239036   3.237   0.464  16.261 -0.6062  0.6766  1.6376
 9193SOL     OW39037   1.946   1.798   6.599 -0.3436  0.8371  0.2963
 9193SOL    HW139038   1.998   1.856   6.656 -0.2585  0.5172  0.5475
 9193SOL    HW239039   1.956   1.714   6.644 -1.3166  0.6859  0.2107
 9194SOL     OW39040   0.999   0.605   0.501  0.2174 -0.3032  0.9869
 9194SOL    HW139041   1.088   0.615   0.535  0.3921  0.5216  0.3088
 9194SOL    HW239042   1.015   0.525   0.451  0.2018  0.8778 -0.9332
 9195SOL     OW39043   3.180   2.593   4.824 -0.1230  0.4191 -0.6050
 9195SOL    HW139044   3.183   2.665   4.761  1.4811 -1.3458 -2.5693
 9195SOL    HW239045   3.098   2.547   4.805 -0.0717  0.5794 -1.2107
 9196SOL     OW39046   1.222   4.353   3.246  0.2849 -0.4122 -0.0986
 9196SOL    HW139047   1.258   4.310   3.168 -1.8932 -0.1346 -1.2652
 9196SOL    HW239048   1.300   4.386   3.291  0.9987 -2.1028 -0.0830
 9197SOL     OW39049   2.784   1.178   8.541  0.1566 -0.2015  0.0359
 9197SOL    HW139050   2.742   1.101   8.502 -1.4761  0.1068  1.1891
 9197SOL    HW239051   2.732   1.188   8.621  1.3902 -1.5762  1.0089
 9198SOL     OW39052   2.871   1.886   5.806  0.0360  0.1813 -0.0832
 9198SOL    HW139053   2.809   1.817   5.782  0.0883  0.7354 -1.7730
 9198SOL    HW239054   2.932   1.839   5.863 -0.5760  0.5417  0.8750
 9199SOL     OW39055   1.362   0.303  17.313 -0.3618 -0.2087 -0.5167
 9199SOL    HW139056   1.287   0.300  17.374  0.9060 -0.2327  1.0524
 9199SOL    HW239057   1.418   0.229  17.338 -0.9854 -0.7675 -0.7770
 9200SOL     OW39058   1.996   4.635   1.662  0.5618  0.2408  0.7810
 9200SOL    HW139059   2.056   4.644   1.736 -0.2641  2.7486  1.1679
 9200SOL    HW239060   1.908   4.636   1.701 -0.0296  0.9078 -0.5643
 9201SOL     OW39061   1.335   1.857   2.303  0.0520  0.3402  0.3678
 9201SOL    HW139062   1.338   1.772   2.259 -2.6161  1.4958 -1.9850
 9201SOL    HW239063   1.273   1.846   2.375  1.0061 -2.3233  0.7791
 9202SOL     OW39064   3.007   2.579   1.819  0.0983 -0.5513  0.5594
 9202SOL    HW139065   3.014   2.664   1.863 -2.1100 -1.5393  2.7932
 9202SOL    HW239066   3.034   2.524   1.893  2.9247  0.2382  0.1510
 9203SOL     OW39067   3.426   4.382   7.127  0.6333 -0.3670 -0.0872
 9203SOL    HW139068   3.429   4.373   7.222  1.8960 -0.4705 -0.1405
 9203SOL    HW239069   3.332   4.366   7.120  0.3948  1.4785 -1.1945
 9204SOL     OW39070   1.417   2.955  16.104  1.0015  0.4097  0.5122
 9204SOL    HW139071   1.429   3.016  16.177 -2.2977 -0.7824  2.0445
 9204SOL    HW239072   1.500   2.972  16.059  0.7989  2.1475  0.7891
 9205SOL     OW39073   4.210   0.070   8.387  0.5038  0.1213  0.1647
 9205SOL    HW139074   4.194   0.153   8.342 -2.9218 -1.1073 -0.8865
 9205SOL    HW239075   4.263   0.023   8.323  0.8653  1.6543 -0.6517
 9206SOL     OW39076   2.154   1.716   8.368 -0.1381  0.1454 -0.3266
 9206SOL    HW139077   2.226   1.660   8.337 -1.5644 -0.5116 -2.5235
 9206SOL    HW239078   2.202   1.789   8.406 -1.1597 -0.3614  1.9453
 9207SOL     OW39079   4.448   4.466   2.749  0.3966  0.8126 -0.4165
 9207SOL    HW139080   4.411   4.404   2.812 -0.5553  0.2351 -1.5353
 9207SOL    HW239081   4.377   4.456   2.685 -0.0156  0.6231  0.0626
 9208SOL     OW39082   1.821   0.713  12.327  0.3813 -0.4366  0.5122
 9208SOL    HW139083   1.746   0.758  12.366  0.0764 -0.5734  0.0870
 9208SOL    HW239084   1.886   0.781  12.346  0.1307 -0.0823  0.1087
 9209SOL     OW39085   0.469   1.311   6.432  0.1954  0.0359 -0.0301
 9209SOL    HW139086   0.410   1.329   6.506 -0.3904  0.2573 -0.5524
 9209SOL    HW239087   0.558   1.322   6.464  0.6783 -1.5786 -0.8313
 9210SOL     OW39088   2.274   0.545   5.053 -0.0566 -0.4361  0.6906
 9210SOL    HW139089   2.263   0.513   5.143  3.9899  0.4788  1.5026
 9210SOL    HW239090   2.221   0.624   5.062 -0.9557 -0.8804 -0.6509
 9211SOL     OW39091   0.376   1.568   8.639 -0.4805  0.1974 -0.2633
 9211SOL    HW139092   0.386   1.528   8.726  1.1898  1.5236  0.1581
 9211SOL    HW239093   0.419   1.497   8.591  0.7495  1.4441 -0.9909
 9212SOL     OW39094   0.777   0.302   7.220  0.2141  0.6238  0.4679
 9212SOL    HW139095   0.716   0.233   7.194  2.1233 -0.0749 -2.1482
 9212SOL    HW239096   0.730   0.355   7.284 -1.2953 -0.5170  0.3098
 9213SOL     OW39097   4.456   0.832  10.323  0.0491  0.7185  0.2101
 9213SOL    HW139098   4.409   0.824  10.241  0.3192  0.2222  0.0989
 9213SOL    HW239099   4.535   0.783  10.298 -0.2392  1.1543 -1.5402
 9214SOL     OW39100   4.047   4.546   2.839  0.1896 -0.0088  0.1556
 9214SOL    HW139101   4.095   4.594   2.906  0.1844 -1.6278  1.3268
 9214SOL    HW239102   3.985   4.492   2.886  0.2629  0.2050  0.4977
 9215SOL     OW39103   0.746   2.396   3.376  0.2562 -0.5299 -0.5341
 9215SOL    HW139104   0.772   2.487   3.390 -0.6767 -0.4318  0.4930
 9215SOL    HW239105   0.706   2.371   3.459  0.7289 -0.3319 -0.2471
 9216SOL     OW39106   0.296   4.417   8.421 -0.2343  0.1861 -0.1342
 9216SOL    HW139107   0.273   4.345   8.362  0.4978 -0.1105 -0.0574
 9216SOL    HW239108   0.256   4.491   8.376 -1.1036  0.8741  1.7744
 9217SOL     OW39109   3.931   4.684  15.079  0.0581  0.0309 -0.0168
 9217SOL    HW139110   3.874   0.039  15.064  1.5277  1.0669 -0.4225
 9217SOL    HW239111   3.964   4.660  14.993 -0.5690  1.6535 -0.7173
 9218SOL     OW39112   3.961   0.133   2.261 -0.1883 -0.0577 -0.3493
 9218SOL    HW139113   3.951   0.037   2.263 -1.4139  0.0469 -1.8836
 9218SOL    HW239114   3.952   0.177   2.345  0.4075  0.9202 -0.8028
 9219SOL     OW39115   0.990   2.303  14.183  0.1626  0.0651  0.0917
 9219SOL    HW139116   0.946   2.355  14.116 -0.9060 -0.9560 -0.0056
 9219SOL    HW239117   1.075   2.346  14.187  0.6886 -0.7134 -2.6617
 9220SOL     OW39118   0.223   4.636   6.459  0.6180 -0.0063  0.2532
 9220SOL    HW139119   0.189   0.005   6.468 -2.7041 -1.0542 -2.0639
 9220SOL    HW239120   0.254   4.608   6.545 -0.5241  0.5073  0.8377
 9221SOL     OW39121   0.357   3.836   2.025 -0.6407 -0.3802  0.3552
 9221SOL    HW139122   0.366   3.741   2.021  0.7661 -0.1676 -2.2189
 9221SOL    HW239123   0.265   3.833   2.051 -1.2846  2.4956 -1.5763
 9222SOL     OW39124   4.349   0.555   2.444  0.4640  0.0999  0.2411
 9222SOL    HW139125   4.365   0.464   2.472 -1.7221 -0.3397  0.0808
 9222SOL    HW239126   4.315   0.548   2.355 -0.3169 -0.2699  0.5699
 9223SOL     OW39127   1.887   0.681   6.582  0.3573  0.4191 -0.3099
 9223SOL    HW139128   1.915   0.609   6.639 -1.8771 -0.3488 -0.1851
 9223SOL    HW239129   1.905   0.648   6.494 -0.1331 -1.0539  0.1502
 9224SOL     OW39130   1.781   4.252   2.845  0.7209 -0.0291  0.1645
 9224SOL    HW139131   1.860   4.296   2.876  1.1567 -0.7521  0.0919
 9224SOL    HW239132   1.816   4.206   2.768  0.7556 -0.1881  0.2769
 9225SOL     OW39133   1.233   2.431   0.556  0.4130  0.2065 -0.0640
 9225SOL    HW139134   1.315   2.472   0.585 -0.9489 -0.4183  4.7738
 9225SOL    HW239135   1.211   2.385   0.637  0.3241  0.9808  0.3537
 9226SOL     OW39136   1.740   3.455   9.445  0.2831  0.1201 -0.1438
 9226SOL    HW139137   1.754   3.541   9.405  1.2413  1.1336  2.4129
 9226SOL    HW239138   1.830   3.427   9.458  0.3225  0.0913 -0.4632
 9227SOL     OW39139   0.943   0.207  16.972 -0.7351 -0.3214  0.1202
 9227SOL    HW139140   0.959   0.163  16.889  0.1094  1.4747 -0.6866
 9227SOL    HW239141   0.848   0.218  16.967 -0.5767  1.3734  0.6639
 9228SOL     OW39142   3.005   2.706  15.334 -0.7777 -0.4943  0.0716
 9228SOL    HW139143   3.069   2.670  15.395 -1.1944  2.1423  2.0492
 9228SOL    HW239144   3.019   2.800  15.340  1.0072 -0.7147 -0.3735
 9229SOL     OW39145   0.464   1.336   0.545  0.5196  0.0183 -0.3045
 9229SOL    HW139146   0.531   1.320   0.610  0.9844  4.0797  0.2481
 9229SOL    HW239147   0.518   1.375   0.476  0.1182  0.5251 -0.3344
 9230SOL     OW39148   0.280   3.916   8.616 -0.0354 -0.2966  0.2721
 9230SOL    HW139149   0.197   3.883   8.650 -0.3864  1.7842  1.4601
 9230SOL    HW239150   0.348   3.860   8.653  1.5506  0.8664 -0.8860
 9231SOL     OW39151   2.087   1.093   7.827 -0.5677  0.3446 -0.1413
 9231SOL    HW139152   1.994   1.101   7.803 -0.3017  0.4064 -1.1283
 9231SOL    HW239153   2.116   1.118   7.739 -0.0369  3.8558  1.0653
 9232SOL     OW39154   3.501   3.181   9.505 -0.0731 -0.0977  0.3909
 9232SOL    HW139155   3.500   3.086   9.517 -1.4110 -0.2476 -0.9648
 9232SOL    HW239156   3.588   3.211   9.531 -0.2768  0.0312  0.9248
 9233SOL     OW39157   0.903   1.156   5.523 -0.6872 -0.0672 -0.3822
 9233SOL    HW139158   0.951   1.165   5.605 -2.2637  0.1022  0.5210
 9233SOL    HW239159   0.958   1.207   5.464 -1.6921  0.0105 -1.2563
 9234SOL     OW39160   2.407   3.620  12.274  0.2401  0.1656 -0.0472
 9234SOL    HW139161   2.357   3.573  12.342  0.4986 -1.2217 -0.8046
 9234SOL    HW239162   2.499   3.609  12.296  0.4779 -2.3609 -2.2974
 9235SOL     OW39163   1.607   3.826  12.008 -0.4061  0.5131 -0.1296
 9235SOL    HW139164   1.522   3.833  11.963  0.3040  2.4038 -1.1665
 9235SOL    HW239165   1.569   3.855  12.091 -1.1394 -2.8058  0.6775
 9236SOL     OW39166   3.264   0.096   5.176  0.0454 -0.7878  0.5850
 9236SOL    HW139167   3.289   0.135   5.092 -1.5917 -1.1626 -0.0843
 9236SOL    HW239168   3.261   0.004   5.150  0.5441 -0.7585  0.4230
 9237SOL     OW39169   3.502   3.060  13.634  0.4244 -0.1828 -0.5606
 9237SOL    HW139170   3.562   3.134  13.639 -0.3594  0.4711 -0.8012
 9237SOL    HW239171   3.489   3.046  13.540 -1.5118 -1.0764 -0.1737
 9238SOL     OW39172   4.674   1.923   9.967 -0.1163 -0.2586  0.3046
 9238SOL    HW139173   4.685   2.011  10.004 -0.4837 -0.2302  0.3479
 9238SOL    HW239174   4.650   1.925   9.875 -0.7041  0.6817  0.4718
 9239SOL     OW39175   2.748   3.511   6.781  1.0119 -0.3690  0.1323
 9239SOL    HW139176   2.694   3.561   6.842 -1.2426 -1.7733 -0.7190
 9239SOL    HW239177   2.728   3.562   6.702  1.1817 -2.7603 -1.4545
 9240SOL     OW39178   1.431   0.788   2.824  0.3483 -0.1151  0.7620
 9240SOL    HW139179   1.464   0.787   2.734  0.3334 -0.9460  0.7657
 9240SOL    HW239180   1.466   0.707   2.861 -0.8582 -0.4036  1.2695
 9241SOL     OW39181   3.478   0.525  12.962 -0.1395  0.4071  0.1171
 9241SOL    HW139182   3.387   0.525  12.933 -0.8577 -2.2690  2.4912
 9241SOL    HW239183   3.479   0.616  12.993  1.2552  0.6657 -0.6674
 9242SOL     OW39184   1.865   1.255   7.453  0.3209 -0.1274  0.3453
 9242SOL    HW139185   1.924   1.289   7.384  0.3362 -1.1367 -0.1417
 9242SOL    HW239186   1.918   1.192   7.502  0.2083  0.1076  0.7611
 9243SOL     OW39187   0.220   1.830   5.682 -0.0553  0.4675  0.2418
 9243SOL    HW139188   0.131   1.816   5.714  1.5430 -2.6183  3.3553
 9243SOL    HW239189   0.257   1.744   5.661  0.7347  1.7094 -3.4617
 9244SOL     OW39190   0.202   2.737   2.379 -0.2788  0.0624  0.2570
 9244SOL    HW139191   0.273   2.796   2.405  0.2699 -1.0684  1.3375
 9244SOL    HW239192   0.215   2.662   2.437 -1.4642 -0.3426 -0.0189
 9245SOL     OW39193   3.270   1.172   2.718  0.2543 -0.2148  0.0673
 9245SOL    HW139194   3.283   1.087   2.760 -0.2635  0.5361  1.7323
 9245SOL    HW239195   3.349   1.215   2.751 -0.9168  1.3916  0.7601
 9246SOL     OW39196   2.282   1.768  10.609  0.0813 -0.0696  0.2036
 9246SOL    HW139197   2.352   1.727  10.659  1.2072 -0.1910 -1.4901
 9246SOL    HW239198   2.311   1.857  10.624  1.6079  0.0388 -3.3254
 9247SOL     OW39199   1.250   3.780  16.609 -0.4328  0.1972 -0.1811
 9247SOL    HW139200   1.233   3.704  16.664  0.6491  0.5928  0.7009
 9247SOL    HW239201   1.183   3.845  16.631 -1.4373 -0.5291 -1.1352
 9248SOL     OW39202   0.996   1.679   4.668 -0.2927 -0.2423  0.2164
 9248SOL    HW139203   0.973   1.710   4.756 -1.4301 -0.1163 -0.1218
 9248SOL    HW239204   0.926   1.613   4.674  0.2825 -0.9722 -1.2520
 9249SOL     OW39205   0.821   1.309   4.436  0.4396 -0.6565  0.1217
 9249SOL    HW139206   0.826   1.350   4.350 -2.9137 -0.3522  0.0765
 9249SOL    HW239207   0.885   1.237   4.434 -0.0015 -1.0553  0.2856
 9250SOL     OW39208   4.208   3.563  15.467  0.5557 -0.8373 -0.3133
 9250SOL    HW139209   4.201   3.535  15.558  0.6549 -0.3895 -0.1685
 9250SOL    HW239210   4.131   3.516  15.434 -0.3286  1.3926 -1.5192
 9251SOL     OW39211   3.205   2.493   7.758  0.0771  0.3362 -0.4425
 9251SOL    HW139212   3.181   2.541   7.680  1.3676  0.2509 -0.8857
 9251SOL    HW239213   3.258   2.558   7.805  1.2997 -1.0984  0.1958
 9252SOL     OW39214   0.224   1.731   8.318  0.2860  0.2007 -0.2957
 9252SOL    HW139215   0.311   1.741   8.280  0.4442 -0.9876 -0.2527
 9252SOL    HW239216   0.230   1.642   8.353  1.1686  0.5401  0.4202
 9253SOL     OW39217   1.938   2.462   5.153 -0.1749 -0.1523 -0.6347
 9253SOL    HW139218   1.964   2.380   5.111  0.9104 -0.5635  0.8408
 9253SOL    HW239219   1.971   2.525   5.089 -1.9741  0.8136 -0.6111
 9254SOL     OW39220   2.129   3.835  12.004  0.0951 -0.3236 -0.2956
 9254SOL    HW139221   2.101   3.916  11.963  0.4867  0.4233  0.9046
 9254SOL    HW239222   2.044   3.791  11.999 -0.6900  0.9643  1.7551
 9255SOL     OW39223   3.951   3.202   4.540 -0.3413  0.3257  0.5598
 9255SOL    HW139224   4.026   3.146   4.522 -0.9032 -0.6690  1.3759
 9255SOL    HW239225   3.960   3.212   4.635  0.6352 -2.2239  0.7136
 9256SOL     OW39226   3.544   3.804   2.159  0.2350 -0.2273 -0.1990
 9256SOL    HW139227   3.475   3.816   2.095  1.5167 -0.0470 -1.5611
 9256SOL    HW239228   3.599   3.735   2.122  2.5466  1.0678  0.8074
 9257SOL     OW39229   4.490   1.201   7.481  0.4459 -0.3230  0.4874
 9257SOL    HW139230   4.506   1.122   7.533  1.2319 -1.7676 -1.9529
 9257SOL    HW239231   4.559   1.198   7.414 -0.3527 -0.8965 -0.3062
 9258SOL     OW39232   3.323   4.327   3.919  0.5026 -0.9214 -0.4027
 9258SOL    HW139233   3.396   4.381   3.889 -1.3259  1.1926 -1.1432
 9258SOL    HW239234   3.265   4.385   3.970 -0.3982 -0.6736 -1.6832
 9259SOL     OW39235   3.766   2.779   5.291 -0.2871  0.0211  0.3218
 9259SOL    HW139236   3.765   2.866   5.329  3.0717  0.3038 -0.2726
 9259SOL    HW239237   3.678   2.777   5.253 -1.3641  1.2907  2.7573
 9260SOL     OW39238   1.393   1.788   3.037  0.5585 -0.2474  0.5073
 9260SOL    HW139239   1.465   1.819   2.983  1.0886  0.4344  1.6173
 9260SOL    HW239240   1.428   1.709   3.079  1.2576  0.3465  1.0342
 9261SOL     OW39241   0.472   3.826  13.224 -0.0558  0.1451  0.2250
 9261SOL    HW139242   0.453   3.879  13.301  1.2692 -1.3363  1.5584
 9261SOL    HW239243   0.535   3.763  13.260  2.0199  2.2747  0.3463
 9262SOL     OW39244   1.510   4.506   4.802 -0.3420  0.7519  0.1349
 9262SOL    HW139245   1.464   4.590   4.808 -1.0536  0.4656 -1.5499
 9262SOL    HW239246   1.512   4.484   4.896  0.6256 -0.6486 -0.2093
 9263SOL     OW39247   3.311   1.842   0.230  0.2772  0.3708  0.5183
 9263SOL    HW139248   3.229   1.888   0.219 -1.0490 -1.7169  1.5954
 9263SOL    HW239249   3.286   1.783   0.302 -2.6310 -0.7932 -1.4646
 9264SOL     OW39250   3.906   0.551   7.147 -0.3377 -0.3723  0.2930
 9264SOL    HW139251   3.970   0.591   7.206 -2.1018  3.1263 -0.1141
 9264SOL    HW239252   3.886   0.468   7.188 -0.2995 -0.9066 -0.7700
 9265SOL     OW39253   0.021   0.984   7.454 -0.1126 -0.3372  0.2983
 9265SOL    HW139254   0.076   1.032   7.516  0.7704 -2.5074  1.2034
 9265SOL    HW239255   0.050   1.029   7.374  1.4550  0.7342  1.4666
 9266SOL     OW39256   3.385   4.397   3.427 -0.6287  0.1636 -0.4241
 9266SOL    HW139257   3.369   4.448   3.507 -0.9364  0.4855 -0.6854
 9266SOL    HW239258   3.300   4.402   3.383 -1.1035 -1.0349  0.3670
 9267SOL     OW39259   0.959   2.339  16.998  0.4542  0.7141 -0.3314
 9267SOL    HW139260   1.027   2.274  17.014  0.5468  0.9698  0.2977
 9267SOL    HW239261   1.002   2.404  16.942  0.7378 -1.4251 -2.5511
 9268SOL     OW39262   0.933   1.147   0.121  0.3196  0.2569 -0.3404
 9268SOL    HW139263   0.918   1.052   0.125 -0.4387  0.3314 -1.4557
 9268SOL    HW239264   1.028   1.155   0.119  0.3308  0.2635  0.2543
 9269SOL     OW39265   1.601   2.949   6.064 -0.4138 -0.3176 -0.9010
 9269SOL    HW139266   1.584   2.926   6.155 -3.4261  0.1751 -1.3590
 9269SOL    HW239267   1.635   2.866   6.029 -1.3744  0.0497 -2.6905
 9270SOL     OW39268   2.599   2.432   4.584 -0.1854  0.3211  0.0659
 9270SOL    HW139269   2.588   2.344   4.548 -0.7352 -0.0463  1.1546
 9270SOL    HW239270   2.619   2.416   4.676  0.2678  0.7524  0.0451
 9271SOL     OW39271   2.028   3.597   5.669  0.4081  0.1373  0.5842
 9271SOL    HW139272   2.074   3.680   5.686 -1.2300  1.0464  0.5388
 9271SOL    HW239273   2.049   3.552   5.750  3.1700  0.1001 -0.1446
 9272SOL     OW39274   0.605   2.309   5.596 -0.0797  0.0856 -0.0752
 9272SOL    HW139275   0.619   2.222   5.634 -0.0460 -0.0682 -0.4434
 9272SOL    HW239276   0.571   2.361   5.669 -1.7107 -0.2667 -0.5831
 9273SOL     OW39277   0.517   4.618   3.537 -0.3879  0.0074 -0.0482
 9273SOL    HW139278   0.569   4.541   3.562 -0.7151 -1.3946 -3.5894
 9273SOL    HW239279   0.561   4.689   3.584 -0.3992 -0.3174  0.4536
 9274SOL     OW39280   2.646   3.787   0.411 -0.7106  0.1861  0.3886
 9274SOL    HW139281   2.732   3.747   0.413 -0.1678  1.3194 -0.0756
 9274SOL    HW239282   2.617   3.758   0.497 -0.6311  2.3001  1.1351
 9275SOL     OW39283   3.320   2.772   1.528  0.5622  0.4540  0.7007
 9275SOL    HW139284   3.336   2.727   1.611 -2.6336  0.7669  1.4823
 9275SOL    HW239285   3.314   2.690   1.478 -1.7713 -0.0618  1.8123
 9276SOL     OW39286   0.550   4.594   0.663 -0.1290 -0.1230  0.6294
 9276SOL    HW139287   0.570   4.531   0.593 -1.5945 -0.8580  0.8831
 9276SOL    HW239288   0.459   4.615   0.646  0.5149  1.4947 -0.7943
 9277SOL     OW39289   3.076   1.301  11.555 -0.3554  0.1704  0.8293
 9277SOL    HW139290   3.031   1.220  11.529 -0.1781 -0.4624  2.5358
 9277SOL    HW239291   3.003   1.361  11.540  0.7062  1.0878 -0.6757
 9278SOL     OW39292   1.468   4.016  15.218  0.4345  0.2303  0.5394
 9278SOL    HW139293   1.536   3.991  15.156  2.3912  0.5524  2.5252
 9278SOL    HW239294   1.392   3.966  15.190 -0.5132  1.5537  0.7297
 9279SOL     OW39295   0.909   0.593   1.186 -0.0625  0.1452  1.2970
 9279SOL    HW139296   0.987   0.539   1.172  1.1954  1.1950  4.2939
 9279SOL    HW239297   0.948   0.662   1.240 -1.4653  2.9289 -1.2798
 9280SOL     OW39298   0.856   2.622  12.125  0.0357  0.0368 -0.2504
 9280SOL    HW139299   0.912   2.633  12.202 -0.2173  3.2922 -0.5335
 9280SOL    HW239300   0.915   2.616  12.050 -0.1002 -0.7244 -0.2947
 9281SOL     OW39301   1.388   0.413   3.893  0.0696 -0.0231  0.2023
 9281SOL    HW139302   1.327   0.356   3.939 -0.3300  0.2723  0.0346
 9281SOL    HW239303   1.471   0.410   3.942  0.3476 -0.1669 -0.2750
 9282SOL     OW39304   4.495   1.237   3.820 -0.1882 -0.2989  0.0800
 9282SOL    HW139305   4.439   1.311   3.845 -0.9128 -0.0977 -2.1128
 9282SOL    HW239306   4.459   1.172   3.880 -0.9969 -0.0943 -0.1820
 9283SOL     OW39307   3.971   1.332   2.716  0.0708 -0.0032 -0.3589
 9283SOL    HW139308   3.896   1.309   2.772 -0.9005  0.0918 -1.6205
 9283SOL    HW239309   3.922   1.356   2.637 -3.9467 -3.7934  0.9487
 9284SOL     OW39310   3.456   2.876   4.376  0.1234 -0.9150  0.0884
 9284SOL    HW139311   3.384   2.877   4.313  0.6119 -0.0331 -0.4445
 9284SOL    HW239312   3.434   2.945   4.439 -1.6830 -0.6386 -0.8324
 9285SOL     OW39313   2.265   0.668   4.481  0.0288  0.3943  0.3759
 9285SOL    HW139314   2.337   0.607   4.463  0.6320  1.7467 -1.7996
 9285SOL    HW239315   2.245   0.706   4.396  0.4066  1.1910  0.6357
 9286SOL     OW39316   3.831   2.803   4.673  0.3070  0.5784  0.0266
 9286SOL    HW139317   3.754   2.778   4.622  0.8421 -2.8771  0.9215
 9286SOL    HW239318   3.794   2.881   4.714  1.7176  1.1532  0.2025
 9287SOL     OW39319   1.618   0.581   2.859  0.3795  0.1925 -0.3691
 9287SOL    HW139320   1.707   0.578   2.824  0.3889 -2.0098 -0.1504
 9287SOL    HW239321   1.635   0.542   2.945 -0.8440 -0.1015 -0.2579
 9288SOL     OW39322   3.914   3.702   7.765  0.0142  0.3782  0.1100
 9288SOL    HW139323   3.867   3.714   7.682  1.6413  2.5713 -0.4943
 9288SOL    HW239324   3.860   3.753   7.825 -0.5902 -0.9526  0.6899
 9289SOL     OW39325   4.089   2.771   4.735 -0.1290  0.0879 -0.1882
 9289SOL    HW139326   3.995   2.788   4.724 -0.5164 -2.2120 -0.3456
 9289SOL    HW239327   4.101   2.689   4.687 -0.5675  0.4192 -0.8781
 9290SOL     OW39328   2.227   3.113   2.865  0.4328  0.2379 -0.2958
 9290SOL    HW139329   2.284   3.097   2.790  2.4557  1.7262  0.9185
 9290SOL    HW239330   2.273   3.059   2.930  0.3206  0.4380 -0.0476
 9291SOL     OW39331   4.427   2.057  11.595  0.3743  0.0387 -0.3846
 9291SOL    HW139332   4.500   2.006  11.630 -0.3318  0.3499  1.5287
 9291SOL    HW239333   4.408   2.105  11.675  1.3787 -1.0601  0.5014
 9292SOL     OW39334   0.396   1.106   5.488  0.4796 -0.7886 -0.0044
 9292SOL    HW139335   0.429   1.118   5.400  2.2517  0.8794  0.8969
 9292SOL    HW239336   0.478   1.111   5.537  0.7495 -1.6971 -0.3657
 9293SOL     OW39337   0.144   0.242   5.629  0.2669 -0.9102  0.2302
 9293SOL    HW139338   0.097   0.197   5.559 -2.2082 -0.8018  1.8156
 9293SOL    HW239339   0.114   0.196   5.707 -0.3102  0.3467  0.7565
 9294SOL     OW39340   3.583   2.385   7.264  0.2065 -0.0302  0.4705
 9294SOL    HW139341   3.563   2.436   7.343 -1.5233  0.2946 -0.1831
 9294SOL    HW239342   3.677   2.369   7.277  0.2376 -1.1248 -1.2657
 9295SOL     OW39343   2.705   0.410   3.159 -0.6228  0.3292 -0.2704
 9295SOL    HW139344   2.737   0.351   3.090 -0.1196  0.7969 -0.4341
 9295SOL    HW239345   2.619   0.368   3.170 -1.0620  1.1811 -0.4733
 9296SOL     OW39346   0.492   2.330   6.259  0.0737  0.0105 -0.2940
 9296SOL    HW139347   0.522   2.417   6.284  0.2383  0.1725 -1.0494
 9296SOL    HW239348   0.417   2.328   6.319  0.0366 -2.1701 -0.4342
 9297SOL     OW39349   4.591   3.209  13.511 -0.4198  0.8536  0.1536
 9297SOL    HW139350   4.603   3.265  13.435  0.4367  0.8395  0.2737
 9297SOL    HW239351   4.576   3.124  13.468  1.9310 -0.0438  1.0616
 9298SOL     OW39352   0.947   0.613   6.795  0.0497  0.3654  0.3689
 9298SOL    HW139353   0.920   0.537   6.848 -0.0250 -2.1330 -3.2415
 9298SOL    HW239354   1.037   0.637   6.816 -0.2361  1.7777 -0.0581
 9299SOL     OW39355   2.118   3.010  15.902 -0.6015  0.1312  0.6526
 9299SOL    HW139356   2.199   2.959  15.904 -1.0253 -0.6023 -0.6171
 9299SOL    HW239357   2.150   3.100  15.893  2.3311 -0.9001  0.7754
 9300SOL     OW39358   4.034   2.516  15.279  0.8544 -0.6829 -0.0267
 9300SOL    HW139359   4.056   2.550  15.366  0.4462  1.1030 -0.6179
 9300SOL    HW239360   3.973   2.448  15.306 -0.0198  0.8249  1.6835
 9301SOL     OW39361   1.963   1.549  11.995  0.8166  0.3089  0.2756
 9301SOL    HW139362   1.915   1.472  12.025  1.6924 -0.0698  0.7112
 9301SOL    HW239363   1.920   1.625  12.035 -2.0719 -1.4652  0.5800
 9302SOL     OW39364   0.484   3.244   6.045  0.1787 -0.3022  0.5360
 9302SOL    HW139365   0.453   3.221   6.133 -0.5091 -0.7326  0.1813
 9302SOL    HW239366   0.571   3.275   6.072  0.4136 -0.3979 -0.0983
 9303SOL     OW39367   2.459   2.233   9.128 -0.1632  0.0967 -0.2762
 9303SOL    HW139368   2.398   2.183   9.074  2.5838 -1.1347 -2.1875
 9303SOL    HW239369   2.397   2.295   9.165  0.1019 -0.0334  0.3882
 9304SOL     OW39370   3.383   4.081  16.608 -0.2697  0.3658 -0.2710
 9304SOL    HW139371   3.443   4.142  16.565 -1.6063  1.7891 -0.1439
 9304SOL    HW239372   3.421   4.067  16.694 -2.5295  0.6399  0.7705
 9305SOL     OW39373   2.430   0.996   3.350  0.3143  0.2663 -0.3250
 9305SOL    HW139374   2.432   0.906   3.383 -0.1893 -0.2661 -1.7227
 9305SOL    HW239375   2.363   1.034   3.406 -1.8568 -2.9080 -0.7627
 9306SOL     OW39376   3.785   2.907   1.184  0.0246  0.8548 -0.0371
 9306SOL    HW139377   3.789   2.983   1.125  0.4140 -0.0093 -1.1278
 9306SOL    HW239378   3.694   2.886   1.162  0.8104 -2.0946 -0.4393
 9307SOL     OW39379   4.345   1.354   0.887  0.2008 -0.0842 -0.0611
 9307SOL    HW139380   4.310   1.353   0.976 -0.2434  1.5006 -0.2136
 9307SOL    HW239381   4.424   1.407   0.900  1.0839 -1.2459 -0.7124
 9308SOL     OW39382   0.994   4.400   4.539 -0.2230  0.0109  0.0192
 9308SOL    HW139383   0.968   4.481   4.581  2.8028  0.6690  0.6092
 9308SOL    HW239384   0.911   4.355   4.523  0.0207 -0.7114  0.8185
 9309SOL     OW39385   0.556   3.047   4.978  0.0545  0.2323 -0.2848
 9309SOL    HW139386   0.515   3.110   5.036 -1.5639 -1.8442  0.8161
 9309SOL    HW239387   0.537   3.084   4.891  0.0830 -0.8546 -0.7582
 9310SOL     OW39388   2.835   2.158   7.418  0.3968  0.3221  0.9130
 9310SOL    HW139389   2.782   2.098   7.470 -1.0944  1.4154  0.6579
 9310SOL    HW239390   2.881   2.101   7.356 -1.5406 -0.3599  0.0708
 9311SOL     OW39391   0.366   1.543   0.857 -0.1816 -0.6685  0.2303
 9311SOL    HW139392   0.406   1.456   0.865 -1.0707 -1.0632  0.3565
 9311SOL    HW239393   0.420   1.599   0.912  0.0423 -0.1517 -0.5051
 9312SOL     OW39394   0.264   3.147   3.610  0.3157 -0.4886  0.3338
 9312SOL    HW139395   0.213   3.080   3.565  0.8918 -1.6791  1.4320
 9312SOL    HW239396   0.261   3.217   3.545 -0.7515 -1.0519 -0.2151
 9313SOL     OW39397   2.593   0.287   8.302 -0.4251  0.0768 -0.6505
 9313SOL    HW139398   2.674   0.330   8.276  0.7306 -2.0319 -0.5118
 9313SOL    HW239399   2.597   0.198   8.269 -0.1452 -0.1915  0.1180
 9314SOL     OW39400   1.095   4.200  13.328 -0.5964 -0.0772 -0.2948
 9314SOL    HW139401   1.147   4.120  13.329  0.7584  0.8073 -1.3882
 9314SOL    HW239402   1.039   4.189  13.251 -0.9112 -1.6782  0.1550
 9315SOL     OW39403   2.068   0.613  12.703  0.5047 -0.1477  0.0241
 9315SOL    HW139404   2.039   0.554  12.633  1.6317 -0.4732 -0.1660
 9315SOL    HW239405   1.991   0.651  12.746 -0.5384 -1.4447 -0.7148
 9316SOL     OW39406   3.587   2.559   8.428  0.2205  0.4894  0.2614
 9316SOL    HW139407   3.535   2.633   8.397 -0.5368  0.0900  0.5811
 9316SOL    HW239408   3.671   2.575   8.384 -0.3091  0.4588 -0.7378
 9317SOL     OW39409   3.195   2.902   3.409  0.4284  0.3879 -0.4814
 9317SOL    HW139410   3.281   2.869   3.385  1.1842  0.2129  2.4706
 9317SOL    HW239411   3.217   2.944   3.492  1.9124 -3.2909  0.9847
 9318SOL     OW39412   2.177   0.710  14.311  0.4214  0.2020  0.0969
 9318SOL    HW139413   2.143   0.792  14.275 -0.6695 -0.8412 -1.2620
 9318SOL    HW239414   2.228   0.743  14.385 -0.0234  2.5445 -0.6334
 9319SOL     OW39415   0.319   0.711  13.389  0.2922 -0.0144  0.4034
 9319SOL    HW139416   0.365   0.711  13.306  1.0280 -1.1317  0.7971
 9319SOL    HW239417   0.232   0.674  13.372  0.0185  1.2429 -0.8209
 9320SOL     OW39418   0.826   0.664   4.612 -0.5440 -0.2804  0.1769
 9320SOL    HW139419   0.871   0.589   4.572  0.8743  0.5115  0.2865
 9320SOL    HW239420   0.767   0.620   4.674 -1.1235  0.5200  0.1908
 9321SOL     OW39421   2.048   1.229   2.573 -0.3213 -0.2583  0.0295
 9321SOL    HW139422   2.002   1.147   2.559  0.1398 -0.3578 -0.9050
 9321SOL    HW239423   2.017   1.291   2.507 -0.6242 -1.1935 -0.6948
 9322SOL     OW39424   3.083   4.718  13.635 -0.2668 -0.7696  0.1307
 9322SOL    HW139425   3.167   4.715  13.680 -0.1121 -1.2611 -0.1856
 9322SOL    HW239426   3.097   4.652  13.568  1.9956  0.2780 -0.3944
 9323SOL     OW39427   3.398   1.874   6.577 -0.2215  0.4715 -0.2624
 9323SOL    HW139428   3.417   1.781   6.583 -0.3483  0.3894 -1.0484
 9323SOL    HW239429   3.308   1.871   6.544 -0.2709 -0.7734  0.0035
 9324SOL     OW39430   3.047   3.571   9.107 -0.0608  0.1402 -0.0212
 9324SOL    HW139431   3.003   3.491   9.082 -0.6799  1.0132 -1.7032
 9324SOL    HW239432   3.020   3.579   9.199 -2.6842 -1.5766 -0.6692
 9325SOL     OW39433   2.771   1.851   2.681  0.2673 -0.1632 -0.0967
 9325SOL    HW139434   2.860   1.820   2.697  0.1167 -0.5397  0.0075
 9325SOL    HW239435   2.720   1.771   2.690 -2.1972  1.2973 -0.9971
 9326SOL     OW39436   2.706   3.308   9.761  0.2789  0.1982 -0.0975
 9326SOL    HW139437   2.652   3.241   9.718 -0.3784  0.7178 -0.0740
 9326SOL    HW239438   2.769   3.252   9.807  0.7448  0.0185 -0.9507
 9327SOL     OW39439   1.357   1.953   3.846  0.0601 -0.0342  0.3312
 9327SOL    HW139440   1.408   2.009   3.787  0.1056  0.4022  0.7869
 9327SOL    HW239441   1.271   1.995   3.837  0.8163  2.0162  2.8487
 9328SOL     OW39442   0.015   1.858   8.179  0.2063  0.6090 -0.1841
 9328SOL    HW139443   0.087   1.814   8.222  0.2561  3.3078  2.4685
 9328SOL    HW239444   0.029   1.820   8.092  0.2583  1.7280 -0.6562
 9329SOL     OW39445   4.208   0.308   1.713 -0.0051 -0.2341  0.3849
 9329SOL    HW139446   4.218   0.271   1.801  0.1130 -1.0048  0.0465
 9329SOL    HW239447   4.215   0.399   1.743 -2.0024  0.1277 -0.2209
 9330SOL     OW39448   0.591   0.174  13.844 -0.2316  0.0012  0.1694
 9330SOL    HW139449   0.539   0.146  13.769  2.1854  1.7061 -2.1084
 9330SOL    HW239450   0.539   0.250  13.869 -0.8191 -0.4069  0.2089
 9331SOL     OW39451   3.493   0.290   0.024 -0.5988  0.4826 -0.3501
 9331SOL    HW139452   3.486   0.357  17.641 -1.4201  1.2616  0.5123
 9331SOL    HW239453   3.496   0.347   0.101 -0.5326 -0.7008  0.5201
 9332SOL     OW39454   0.017   1.990   3.130 -0.1748  0.2223 -0.0803
 9332SOL    HW139455   0.024   1.898   3.106 -0.2116  0.1333  0.2589
 9332SOL    HW239456   0.074   2.034   3.066 -1.2416  3.3728  1.1394
 9333SOL     OW39457   2.416   2.531   7.709  0.0705  0.4682  0.1460
 9333SOL    HW139458   2.436   2.584   7.632  0.3534 -0.2084 -0.2381
 9333SOL    HW239459   2.434   2.591   7.782 -0.5729  0.2714  0.4737
 9334SOL     OW39460   3.966   1.200   3.898  0.0021  0.2075  0.4625
 9334SOL    HW139461   4.010   1.192   3.983 -0.8004  3.5699  1.2007
 9334SOL    HW239462   4.006   1.140   3.836 -2.1324  1.3377 -2.0431
 9335SOL     OW39463   3.169   3.549   3.791  0.6675 -0.1072  0.6523
 9335SOL    HW139464   3.121   3.626   3.821  1.1289  0.1568  0.7074
 9335SOL    HW239465   3.163   3.581   3.701 -1.3811  1.2321  1.2770
 9336SOL     OW39466   3.676   0.853  17.661  0.1607 -0.4032  0.1683
 9336SOL    HW139467   3.675   0.831  17.568 -0.9722 -0.7743  0.2732
 9336SOL    HW239468   3.656   0.770   0.018  1.6964 -1.5566 -1.3933
 9337SOL     OW39469   3.162   0.929  11.822 -0.1740 -0.0979  0.0355
 9337SOL    HW139470   3.078   0.964  11.794 -0.8746 -3.2783 -1.8094
 9337SOL    HW239471   3.214   1.006  11.798 -1.8832  0.8408 -0.6313
 9338SOL     OW39472   0.278   3.589   0.956 -0.0193  0.2399 -0.7491
 9338SOL    HW139473   0.191   3.557   0.935 -0.1984 -0.3436  0.8885
 9338SOL    HW239474   0.274   3.683   0.935  0.8700  0.1463 -1.3633
 9339SOL     OW39475   2.048   0.404   5.867 -0.1919  0.3411  0.6228
 9339SOL    HW139476   2.098   0.481   5.838 -0.1336  0.8440  2.0856
 9339SOL    HW239477   2.028   0.418   5.959 -0.9043  1.0870  0.3621
 9340SOL     OW39478   2.660   3.601   8.677  0.7087  0.5039 -0.1244
 9340SOL    HW139479   2.564   3.602   8.671  0.7191 -2.6761 -0.8649
 9340SOL    HW239480   2.677   3.532   8.741  1.8175  1.2384  0.3668
 9341SOL     OW39481   0.264   2.193   9.294  0.3065  0.1005 -0.0340
 9341SOL    HW139482   0.232   2.280   9.270  1.2695  0.0681 -1.4480
 9341SOL    HW239483   0.355   2.214   9.315  0.1166  0.9044 -0.0134
 9342SOL     OW39484   2.488   3.843   9.651 -0.7188  0.2088 -0.4162
 9342SOL    HW139485   2.481   3.831   9.557 -5.5313  0.6655 -0.1538
 9342SOL    HW239486   2.464   3.935   9.667  2.5975  0.5654  2.5014
 9343SOL     OW39487   1.317   3.777   3.102 -0.1477  0.5766 -0.1405
 9343SOL    HW139488   1.281   3.759   3.015 -1.2207  0.4018  0.3452
 9343SOL    HW239489   1.404   3.742   3.081 -0.2295  1.1565 -1.4553
 9344SOL     OW39490   4.523   3.687   3.191  0.4757 -0.1737 -0.0564
 9344SOL    HW139491   4.554   3.770   3.226  1.1653 -1.1014  1.5660
 9344SOL    HW239492   4.508   3.636   3.271 -0.2851  0.9909  0.5416
 9345SOL     OW39493   0.196   1.130   4.304  0.2629  0.4175  0.7131
 9345SOL    HW139494   0.218   1.099   4.216 -1.7748 -0.2841  0.4534
 9345SOL    HW239495   0.129   1.192   4.275  1.7143  0.4813 -2.5172
 9346SOL     OW39496   2.218   4.665   1.791  0.2630  0.3369  0.3764
 9346SOL    HW139497   2.247   4.657   1.700  0.7672  1.8255  0.4095
 9346SOL    HW239498   2.284   4.611   1.833  0.4937  1.3784  1.3562
 9347SOL     OW39499   4.439   3.229  10.507  0.2255 -0.5062 -0.1204
 9347SOL    HW139500   4.362   3.287  10.512 -0.6374 -1.7101  0.5208
 9347SOL    HW239501   4.405   3.150  10.465  1.1930 -0.6927 -0.5306
 9348SOL     OW39502   4.503   2.399   2.507 -0.1428  0.0472  0.0786
 9348SOL    HW139503   4.520   2.356   2.423  2.4832 -2.8346  2.0418
 9348SOL    HW239504   4.521   2.492   2.493  1.2390 -0.4604 -1.5962
 9349SOL     OW39505   0.953   0.312   7.898  0.3419 -0.0362 -0.1772
 9349SOL    HW139506   0.930   0.337   7.988 -1.9591  0.3682 -0.8854
 9349SOL    HW239507   0.873   0.272   7.865  0.3193  0.7533 -1.0655
 9350SOL     OW39508   3.825   2.226   7.340 -0.3852 -0.3318 -0.0920
 9350SOL    HW139509   3.890   2.256   7.404 -1.3052  1.1395  0.1493
 9350SOL    HW239510   3.893   2.218   7.273  0.0950 -2.3428  0.6487
 9351SOL     OW39511   0.361   1.415  14.482  0.0228 -0.3566  0.0494
 9351SOL    HW139512   0.386   1.324  14.497 -0.2791 -0.6694 -1.3364
 9351SOL    HW239513   0.298   1.393  14.414 -1.3245  1.6641  0.6213
 9352SOL     OW39514   4.014   1.665   3.752 -0.3644 -0.0656  0.2190
 9352SOL    HW139515   4.079   1.602   3.721  0.8950  0.2412  2.2825
 9352SOL    HW239516   3.938   1.607   3.761 -0.4730  0.3036  1.5766
 9353SOL     OW39517   2.516   1.998  11.282  0.3117 -0.0179 -0.2580
 9353SOL    HW139518   2.450   1.977  11.348 -1.0958 -0.5253 -1.8404
 9353SOL    HW239519   2.473   2.076  11.248  0.6472  0.9811  1.6256
 9354SOL     OW39520   4.488   1.919   3.745  0.2214 -0.3286  0.1416
 9354SOL    HW139521   4.464   2.004   3.781 -1.9733 -0.9664  0.1891
 9354SOL    HW239522   4.402   1.877   3.746  0.0562 -0.0268 -1.5897
 9355SOL     OW39523   4.438   3.857   7.118 -0.8007 -1.0710  0.1768
 9355SOL    HW139524   4.343   3.867   7.113 -0.6669  0.3087  0.2934
 9355SOL    HW239525   4.459   3.764   7.110  1.4920 -0.3668 -1.9443
 9356SOL     OW39526   0.013   1.293   5.857  0.2379  0.1713  0.1154
 9356SOL    HW139527   0.055   1.291   5.943  0.4122  2.1629  0.0681
 9356SOL    HW239528   4.668   1.226   5.878  0.8017 -0.8919 -1.4723
 9357SOL     OW39529   3.792   3.744   1.416 -0.2290 -0.0305  0.1443
 9357SOL    HW139530   3.775   3.752   1.322  0.5619  2.7587  0.2224
 9357SOL    HW239531   3.714   3.781   1.458  0.0225  0.4339  0.2016
 9358SOL     OW39532   2.780   3.218   3.316  0.8444  0.1800 -0.4467
 9358SOL    HW139533   2.823   3.134   3.332 -2.8032 -1.5595  0.1698
 9358SOL    HW239534   2.693   3.217   3.356 -0.2717  1.7904 -2.8237
 9359SOL     OW39535   3.099   2.411   3.321 -0.3573  0.3691  0.2553
 9359SOL    HW139536   3.029   2.465   3.358 -0.7179 -0.7813  1.2258
 9359SOL    HW239537   3.179   2.451   3.355  0.9568 -1.6464 -0.5146
 9360SOL     OW39538   1.653   3.913   3.949 -0.0892 -0.8517  0.2241
 9360SOL    HW139539   1.691   3.865   3.875 -0.7763 -1.6871  0.4111
 9360SOL    HW239540   1.600   3.976   3.901 -1.9192 -1.2451  1.6964
 9361SOL     OW39541   0.945   3.525  14.686  0.0957 -0.0405  0.7028
 9361SOL    HW139542   0.955   3.540  14.780 -3.2429 -0.4997  1.1209
 9361SOL    HW239543   1.030   3.489  14.661  0.3994  2.3856 -1.6721
 9362SOL     OW39544   2.705   2.100   3.189 -0.3090 -0.3110  0.4026
 9362SOL    HW139545   2.729   2.183   3.146 -2.1490  0.5524  1.0520
 9362SOL    HW239546   2.610   2.095   3.183 -0.4179  1.1450  0.8963
 9363SOL     OW39547   1.819   4.107   9.393  0.2844 -0.0461 -0.1915
 9363SOL    HW139548   1.861   4.163   9.458 -0.2121 -0.0877  0.1629
 9363SOL    HW239549   1.851   4.022   9.423 -0.1089 -0.0737  0.1584
 9364SOL     OW39550   4.684   1.257   4.273 -0.3381 -0.5304  0.7116
 9364SOL    HW139551   4.621   1.187   4.290 -0.9661 -0.3651 -0.8931
 9364SOL    HW239552   4.636   1.327   4.228 -0.0174 -0.0345  1.1327
 9365SOL     OW39553   0.603   2.369   8.418  0.1851 -0.0482 -0.5761
 9365SOL    HW139554   0.554   2.287   8.415  0.2205 -0.0566 -0.9380
 9365SOL    HW239555   0.566   2.414   8.342  0.2269 -3.3648 -2.5661
 9366SOL     OW39556   3.234   1.194  11.727 -0.3032  0.3541  0.4003
 9366SOL    HW139557   3.296   1.177  11.655  0.4935  0.4993  1.0510
 9366SOL    HW239558   3.178   1.256  11.681 -0.2880  0.7946  0.9786
 9367SOL     OW39559   1.524   2.413   8.015  0.6990 -0.2286  0.2717
 9367SOL    HW139560   1.486   2.352   7.952  1.2346  0.3094 -0.5767
 9367SOL    HW239561   1.533   2.496   7.968 -0.0567  0.0828  0.6738
 9368SOL     OW39562   2.523   1.281   5.250 -0.1444 -0.7412  0.5255
 9368SOL    HW139563   2.586   1.250   5.315 -0.1394  3.1641  2.3871
 9368SOL    HW239564   2.525   1.207   5.189 -1.4016  1.2717 -1.9637
 9369SOL     OW39565   1.659   1.060   7.053 -0.7362  0.3796 -0.8214
 9369SOL    HW139566   1.660   0.964   7.050 -0.5055  0.3220  1.5552
 9369SOL    HW239567   1.724   1.072   6.984 -0.1758  1.5375 -0.0781
 9370SOL     OW39568   2.050   2.496  13.835 -0.1494 -0.1422  0.0679
 9370SOL    HW139569   1.984   2.557  13.867  1.3694 -0.2319  3.3423
 9370SOL    HW239570   2.095   2.469  13.915 -1.1860 -1.5724  0.1892
 9371SOL     OW39571   2.647   3.915   6.496 -0.0877 -0.5000 -0.4417
 9371SOL    HW139572   2.566   3.932   6.545  0.3581  2.1731 -0.6200
 9371SOL    HW239573   2.659   3.991   6.439  3.3559 -0.1032  0.8539
 9372SOL     OW39574   2.577   4.418  16.622 -0.2028  0.1768 -0.2284
 9372SOL    HW139575   2.571   4.324  16.638 -4.2279  0.7355  1.3991
 9372SOL    HW239576   2.486   4.448  16.624 -0.0596  0.6715 -1.5396
 9373SOL     OW39577   3.114   4.250   4.271  0.6675  1.0163 -0.0218
 9373SOL    HW139578   3.100   4.162   4.238  3.3284  0.2322  0.9668
 9373SOL    HW239579   3.182   4.285   4.214  0.4697  0.7569 -0.4185
 9374SOL     OW39580   2.390   3.953   6.605  0.8507 -0.1482  0.1811
 9374SOL    HW139581   2.300   3.923   6.607 -0.1344  2.6154 -1.6767
 9374SOL    HW239582   2.371   4.031   6.552  0.5417  0.2056  0.8192
 9375SOL     OW39583   2.606   1.543  12.696  0.2345  0.4217  0.2924
 9375SOL    HW139584   2.599   1.593  12.615  0.0820 -1.2935 -0.7608
 9375SOL    HW239585   2.540   1.592  12.745  0.9354 -0.3450  2.0050
 9376SOL     OW39586   0.058   1.774  14.663  0.5962 -0.1436 -0.6414
 9376SOL    HW139587   0.034   1.756  14.754  2.4880  0.0914 -0.0914
 9376SOL    HW239588   0.132   1.714  14.649  0.6044 -0.0869 -0.8268
 9377SOL     OW39589   1.187   2.697  14.942  0.2482 -0.7789 -0.6942
 9377SOL    HW139590   1.268   2.653  14.968 -0.2464 -0.3706  1.5564
 9377SOL    HW239591   1.215   2.788  14.948  0.9187 -1.0685  0.5430
 9378SOL     OW39592   4.277   1.566   2.678 -0.1570 -0.4821  0.5087
 9378SOL    HW139593   4.209   1.522   2.627 -0.4890 -0.6250  1.0860
 9378SOL    HW239594   4.235   1.652   2.673  0.9116  0.0121 -0.0074
 9379SOL     OW39595   1.578   2.611   8.669 -0.1352 -0.0103 -0.3835
 9379SOL    HW139596   1.506   2.606   8.731 -0.6209  2.0846 -0.7562
 9379SOL    HW239597   1.562   2.521   8.643  1.6946  0.5276 -3.4170
 9380SOL     OW39598   4.058   2.150   4.466  0.4708  0.1151 -0.0687
 9380SOL    HW139599   4.057   2.069   4.415 -0.6465 -0.2363  0.5104
 9380SOL    HW239600   4.139   2.137   4.515  0.6034 -3.5980 -1.2487
 9381SOL     OW39601   2.675   1.736   4.393  0.0483  0.1151  0.0347
 9381SOL    HW139602   2.717   1.652   4.412 -0.3319  0.1343  0.9721
 9381SOL    HW239603   2.670   1.749   4.298 -1.5118 -2.7930 -0.2807
 9382SOL     OW39604   1.211   1.280   2.068  0.2567  0.0862 -0.5539
 9382SOL    HW139605   1.134   1.225   2.058 -0.5042  0.8479  1.1350
 9382SOL    HW239606   1.190   1.304   2.158  3.4432 -0.0875  0.2630
 9383SOL     OW39607   0.215   2.128  16.733  0.3984  0.0204 -0.3233
 9383SOL    HW139608   0.279   2.139  16.662  0.1714  0.2232 -0.4980
 9383SOL    HW239609   0.174   2.046  16.704  0.4549  0.5684 -1.9677
 9384SOL     OW39610   4.682   0.687   3.086 -0.1356 -0.1650  0.2940
 9384SOL    HW139611   4.678   0.727   2.999 -0.6880 -1.1466 -0.1376
 9384SOL    HW239612   4.595   0.647   3.084  0.1408 -0.7820  0.3708
 9385SOL     OW39613   0.887   0.697   5.875 -0.9283  0.3620  0.7458
 9385SOL    HW139614   0.849   0.609   5.874  0.3805 -0.2078  1.8838
 9385SOL    HW239615   0.908   0.715   5.967  0.8072 -0.1634  0.4455
 9386SOL     OW39616   3.419   4.373   4.812 -0.0571  0.3871  0.4092
 9386SOL    HW139617   3.439   4.396   4.903  2.0105 -0.6659  0.2234
 9386SOL    HW239618   3.505   4.342   4.786 -0.0625  1.0757 -0.4183
 9387SOL     OW39619   0.859   2.863   1.542 -1.2924 -0.1127 -0.1780
 9387SOL    HW139620   0.940   2.818   1.518  0.2671  3.2782 -1.2966
 9387SOL    HW239621   0.834   2.824   1.625  0.1592 -0.1783  0.2197
 9388SOL     OW39622   4.685   1.692  13.803  0.2033  0.0967 -0.2538
 9388SOL    HW139623   0.031   1.638  13.847  3.3082  3.0437 -1.3334
 9388SOL    HW239624   4.710   1.783  13.818 -1.7696  0.0211  3.4215
 9389SOL     OW39625   2.947   1.427  17.678 -0.4697 -0.0292 -0.0138
 9389SOL    HW139626   3.024   1.456  17.629 -0.8004 -0.7458 -0.9488
 9389SOL    HW239627   2.975   1.338   0.016 -2.0831 -0.3100  0.8333
 9390SOL     OW39628   4.047   1.591   8.797 -0.0429  0.3904 -0.1719
 9390SOL    HW139629   3.956   1.619   8.801 -0.3294 -0.2105 -2.9440
 9390SOL    HW239630   4.069   1.570   8.888  2.8151  2.5749 -0.3220
 9391SOL     OW39631   0.565   3.864  17.599 -0.2062 -0.5119 -0.6421
 9391SOL    HW139632   0.506   3.790  17.591  0.5554 -0.9828 -2.0043
 9391SOL    HW239633   0.566   3.894  17.508  1.2894  0.0644 -0.4392
 9392SOL     OW39634   2.901   0.769   4.382  0.3972  0.0140  0.0908
 9392SOL    HW139635   2.991   0.783   4.352 -0.0239 -0.0180 -1.1860
 9392SOL    HW239636   2.861   0.741   4.300 -0.1238 -1.2882  0.7789
 9393SOL     OW39637   1.057   0.618   7.548 -0.0472 -0.0848  0.1926
 9393SOL    HW139638   1.064   0.625   7.643  0.1960 -1.4954  0.2830
 9393SOL    HW239639   1.069   0.707   7.514 -0.4191  0.3681  1.2491
 9394SOL     OW39640   2.132   1.830   2.231  0.4316  0.1387 -0.0146
 9394SOL    HW139641   2.209   1.778   2.252  0.2747  0.0813  0.4175
 9394SOL    HW239642   2.091   1.781   2.159  0.7082 -1.5980  0.9998
 9395SOL     OW39643   0.327   2.848   9.052  0.2550  0.4358 -0.2435
 9395SOL    HW139644   0.401   2.828   8.994 -1.7483 -2.1750 -1.9097
 9395SOL    HW239645   0.357   2.817   9.137 -0.7086 -0.1868 -0.1366
 9396SOL     OW39646   0.003   1.191  16.257  0.3188 -0.0464 -0.5212
 9396SOL    HW139647   4.690   1.121  16.201 -1.3326 -1.2852  1.9992
 9396SOL    HW239648   4.687   1.160  16.340 -0.0121  0.8611 -0.3286
 9397SOL     OW39649   3.775   0.535  10.350  0.8793 -0.6551  0.1239
 9397SOL    HW139650   3.745   0.518  10.261 -0.4776 -0.4945  0.5461
 9397SOL    HW239651   3.700   0.503  10.401  1.2725 -0.9411  0.5315
 9398SOL     OW39652   3.856   2.472   6.234 -0.0114  0.4176 -0.4945
 9398SOL    HW139653   3.946   2.444   6.247  0.2379  1.5332  0.1763
 9398SOL    HW239654   3.840   2.473   6.328  0.6445 -1.1047 -0.3613
 9399SOL     OW39655   2.699   0.250   6.529 -0.1702 -0.7303 -0.6803
 9399SOL    HW139656   2.777   0.301   6.505 -1.1130  1.2910  0.5320
 9399SOL    HW239657   2.743   0.170   6.559  0.6499 -0.2593 -0.6057
 9400SOL     OW39658   2.614   3.245   7.468 -0.3029  0.0108 -0.5687
 9400SOL    HW139659   2.521   3.240   7.492  0.7804  0.0871  3.5975
 9400SOL    HW239660   2.648   3.304   7.535 -0.2743  0.7432 -1.2358
 9401SOL     OW39661   1.391   1.652   9.093 -0.2073 -0.1721 -0.4860
 9401SOL    HW139662   1.350   1.575   9.052  2.3429 -0.6446 -2.1931
 9401SOL    HW239663   1.428   1.696   9.016 -0.1768 -0.0196 -0.3836
 9402SOL     OW39664   2.444   4.539   3.336 -0.0167 -0.6520  0.0844
 9402SOL    HW139665   2.531   4.501   3.325  0.6252  0.0384  2.7834
 9402SOL    HW239666   2.467   4.630   3.313  0.6115 -0.3431  1.9581
 9403SOL     OW39667   2.682   0.751   5.499 -0.3674 -0.5052  0.2508
 9403SOL    HW139668   2.744   0.802   5.551  1.9480 -1.7183 -1.3435
 9403SOL    HW239669   2.741   0.701   5.442  0.0993 -0.4023  0.6440
 9404SOL     OW39670   3.265   3.727   6.233 -0.4897 -0.3763 -0.2134
 9404SOL    HW139671   3.285   3.674   6.311 -0.0694 -0.6198 -0.4907
 9404SOL    HW239672   3.281   3.816   6.264  1.5118  0.0822 -2.5467
 9405SOL     OW39673   2.057   4.270  13.071  0.0979 -0.1158 -1.1267
 9405SOL    HW139674   1.995   4.339  13.095 -0.9551 -1.0799 -1.0750
 9405SOL    HW239675   2.111   4.267  13.150 -1.9134  1.7412  0.3075
 9406SOL     OW39676   3.000   3.629   8.306 -0.0710 -0.7235  0.3146
 9406SOL    HW139677   2.972   3.586   8.387 -1.8838 -0.8017 -0.3499
 9406SOL    HW239678   3.086   3.589   8.297  0.1156 -0.0731 -0.7796
 9407SOL     OW39679   1.596   0.801  17.122  0.4623  0.2192  0.4307
 9407SOL    HW139680   1.586   0.893  17.098  0.6287 -0.2710 -1.5640
 9407SOL    HW239681   1.539   0.758  17.058 -0.1802  0.3270  0.9324
 9408SOL     OW39682   1.877   2.202   2.683 -0.5595  0.2670  0.0701
 9408SOL    HW139683   1.855   2.249   2.602 -1.0189  1.0399  0.6497
 9408SOL    HW239684   1.795   2.151   2.686 -0.1419 -0.3583  0.8639
 9409SOL     OW39685   4.156   0.466   9.941 -0.0982  0.8286 -0.6542
 9409SOL    HW139686   4.225   0.462   9.875  0.1223  2.1336 -0.5152
 9409SOL    HW239687   4.084   0.425   9.894 -1.2897  0.2982  1.6388
 9410SOL     OW39688   1.649   0.732   1.150 -0.0362 -0.1362  0.0696
 9410SOL    HW139689   1.577   0.686   1.193  0.1796  0.2130  0.8051
 9410SOL    HW239690   1.656   0.804   1.213  2.1324 -0.2539 -0.0483
 9411SOL     OW39691   3.631   0.303   4.952 -0.0397 -0.1474 -0.4859
 9411SOL    HW139692   3.647   0.397   4.943  0.4575 -0.4615 -2.7603
 9411SOL    HW239693   3.699   0.291   5.018  0.0343 -0.3720 -0.6023
 9412SOL     OW39694   1.542   3.852   8.254 -0.1548 -0.4742 -0.4545
 9412SOL    HW139695   1.448   3.836   8.241 -0.7775  1.8722  1.1522
 9412SOL    HW239696   1.536   3.947   8.244 -0.3827 -0.3136  1.2362
 9413SOL     OW39697   4.552   4.700  14.239 -0.4195 -0.0135 -0.6598
 9413SOL    HW139698   4.634   0.029  14.235 -0.2337 -0.2005  0.7333
 9413SOL    HW239699   4.496   0.056  14.250  0.5004  0.9137 -2.4244
 9414SOL     OW39700   0.213   2.220  12.825 -0.6774  0.4014  0.0699
 9414SOL    HW139701   0.186   2.145  12.879 -1.4494  0.5623 -0.0879
 9414SOL    HW239702   0.214   2.180  12.739 -0.9215 -2.7391  1.5298
 9415SOL     OW39703   0.598   1.899   7.204 -0.0345  0.2033  0.1583
 9415SOL    HW139704   0.634   1.853   7.280  1.2459  0.0161 -0.5752
 9415SOL    HW239705   0.683   1.938   7.182  0.4305 -1.3038 -0.6976
 9416SOL     OW39706   0.277   1.838  16.122  0.0214  0.4595  0.3706
 9416SOL    HW139707   0.354   1.807  16.073  0.1190  2.7146 -0.9312
 9416SOL    HW239708   0.212   1.776  16.089  0.1274 -0.3897  1.7811
 9417SOL     OW39709   0.287   0.953  11.017 -0.2073 -0.0158  0.4445
 9417SOL    HW139710   0.238   0.988  10.942  1.2503 -0.2104 -0.5948
 9417SOL    HW239711   0.294   1.021  11.084 -0.3529 -0.3264  0.7746
 9418SOL     OW39712   0.869   1.416   1.262  0.4631 -0.0537 -0.1593
 9418SOL    HW139713   0.879   1.489   1.201  2.3387  0.3570  0.6537
 9418SOL    HW239714   0.815   1.457   1.330 -0.0980 -0.8209 -0.1473
 9419SOL     OW39715   2.878   3.077   9.898 -0.1958  0.1265  0.3195
 9419SOL    HW139716   2.867   3.003   9.959 -2.5975  1.0930  1.0279
 9419SOL    HW239717   2.970   3.056   9.879  0.0656  1.2350  0.3898
 9420SOL     OW39718   4.341   0.824   8.673  0.4931  0.2038 -0.2012
 9420SOL    HW139719   4.409   0.793   8.613 -1.5952 -0.2111 -2.3527
 9420SOL    HW239720   4.321   0.745   8.723 -0.9581 -1.9547 -4.2188
 9421SOL     OW39721   1.117   3.803   7.683 -0.2313 -0.5798 -0.2860
 9421SOL    HW139722   1.150   3.717   7.707  0.5855 -0.6269 -1.5916
 9421SOL    HW239723   1.191   3.851   7.720  0.5788 -0.1825 -2.4159
 9422SOL     OW39724   3.456   1.735   6.324 -0.3263  0.0521  0.3059
 9422SOL    HW139725   3.380   1.755   6.268  1.5141  1.0378 -1.8654
 9422SOL    HW239726   3.474   1.826   6.348 -1.5198  0.2059  0.6210
 9423SOL     OW39727   0.695   4.593  15.498  0.2250 -0.1827  0.0546
 9423SOL    HW139728   0.767   4.637  15.543  0.7343 -2.1979  1.2401
 9423SOL    HW239729   0.642   4.561  15.571 -0.3418 -1.7433 -1.0267
 9424SOL     OW39730   3.003   1.538   2.579  0.7368  0.7319  0.0240
 9424SOL    HW139731   3.029   1.594   2.653  0.5622  0.2101  0.4845
 9424SOL    HW239732   3.008   1.454   2.626  1.1199  0.0866 -1.1871
 9425SOL     OW39733   2.642   0.334   4.797  0.4461  0.1463 -0.2328
 9425SOL    HW139734   2.573   0.300   4.855 -0.0939  0.3511 -0.7555
 9425SOL    HW239735   2.710   0.267   4.804 -1.1478 -1.8305 -3.3816
 9426SOL     OW39736   2.944   1.145  10.826 -0.1028  0.0738 -0.6259
 9426SOL    HW139737   2.981   1.165  10.740 -0.3297  0.2064 -0.6933
 9426SOL    HW239738   3.006   1.196  10.878 -1.1970 -1.2167  1.9435
 9427SOL     OW39739   2.107   0.615  13.658  0.4298 -0.4025 -0.3017
 9427SOL    HW139740   2.082   0.632  13.567 -0.3332  0.5957  0.1005
 9427SOL    HW239741   2.142   0.526  13.654  1.2202  0.0802 -4.1944
 9428SOL     OW39742   4.167   3.320   1.650 -0.1530  0.0958 -0.3043
 9428SOL    HW139743   4.228   3.388   1.620  0.7324 -0.8997 -0.8057
 9428SOL    HW239744   4.146   3.350   1.738  2.8043 -2.1556  1.1731
 9429SOL     OW39745   3.595   4.282  17.007  0.6553 -0.3273  0.8136
 9429SOL    HW139746   3.588   4.341  16.933  2.0875 -2.0097 -0.6555
 9429SOL    HW239747   3.556   4.338  17.075 -2.3780 -0.6941 -0.6218
 9430SOL     OW39748   2.294   1.042   5.471  0.1236  0.3848  0.6301
 9430SOL    HW139749   2.384   1.019   5.450 -0.9075 -1.8470 -1.2917
 9430SOL    HW239750   2.247   0.996   5.402  0.3034  0.0675  0.7237
 9431SOL     OW39751   0.773   2.527  15.654 -0.2940  0.2159 -0.1488
 9431SOL    HW139752   0.813   2.523  15.567  1.6629 -0.9128  0.8227
 9431SOL    HW239753   0.689   2.569  15.635  0.8110  2.2234 -0.6439
 9432SOL     OW39754   0.243   3.513   2.515 -0.1254  0.5945  0.1940
 9432SOL    HW139755   0.151   3.512   2.542  0.2467 -2.4066  1.2476
 9432SOL    HW239756   0.279   3.545   2.597  0.0906  0.2975  0.2144
 9433SOL     OW39757   1.878   0.121  14.143  0.1074  0.7938  0.0413
 9433SOL    HW139758   1.895   0.158  14.229 -0.5340  2.6398 -0.6052
 9433SOL    HW239759   1.964   0.109  14.102 -0.1663  1.1194 -0.6386
 9434SOL     OW39760   3.831   1.867   8.464 -0.6431  0.1586 -0.2872
 9434SOL    HW139761   3.893   1.798   8.487  1.1170  0.6266 -3.5846
 9434SOL    HW239762   3.785   1.869   8.548 -0.3494  0.3208 -0.1300
 9435SOL     OW39763   1.186   3.133   3.318  0.0318 -0.1489  0.0644
 9435SOL    HW139764   1.167   3.041   3.331  0.1635 -0.5196 -2.3192
 9435SOL    HW239765   1.192   3.143   3.222 -2.4993 -1.9340 -0.2569
 9436SOL     OW39766   1.237   1.561   3.825 -0.1726  0.3074 -0.1102
 9436SOL    HW139767   1.163   1.621   3.825  0.4078  1.0376  2.2494
 9436SOL    HW239768   1.221   1.512   3.745  0.3988 -3.5472  2.1406
 9437SOL     OW39769   0.200   0.953  13.441 -0.2498  0.1431 -0.3822
 9437SOL    HW139770   0.269   0.976  13.503  0.3188  0.5263 -1.1573
 9437SOL    HW239771   0.233   0.871  13.404 -2.5855 -0.5884 -0.8552
 9438SOL     OW39772   2.517   2.358   8.406  0.3228  0.2855 -0.2307
 9438SOL    HW139773   2.440   2.405   8.374 -0.8895 -1.4457  0.1256
 9438SOL    HW239774   2.493   2.265   8.405  1.5818 -0.0489  0.1078
 9439SOL     OW39775   2.797   1.056   0.596  0.1150 -0.6586 -0.5001
 9439SOL    HW139776   2.726   0.997   0.568  0.1442  0.3611 -2.7459
 9439SOL    HW239777   2.793   1.051   0.691 -1.2395  1.1353 -0.4567
 9440SOL     OW39778   0.699   1.505   1.464  0.3025  0.4551  0.0842
 9440SOL    HW139779   0.676   1.421   1.503  0.8148 -0.0912 -0.8185
 9440SOL    HW239780   0.617   1.555   1.456 -1.0099 -1.4616  1.5517
 9441SOL     OW39781   3.151   3.727   4.148  0.1271  0.3661  0.1099
 9441SOL    HW139782   3.222   3.676   4.111 -0.2819 -0.8684  1.0034
 9441SOL    HW239783   3.150   3.683   4.234 -0.1368  1.2069  0.5372
 9442SOL     OW39784   3.037   0.770   3.308  0.2061 -0.0015  0.2632
 9442SOL    HW139785   3.014   0.684   3.274 -0.6923  0.7295 -1.0082
 9442SOL    HW239786   3.082   0.798   3.228 -1.2584  0.5910 -0.3728
 9443SOL     OW39787   4.254   0.015   2.143  0.0354 -0.0086 -0.2731
 9443SOL    HW139788   4.208   0.007   2.059  2.6791  0.4732 -1.7721
 9443SOL    HW239789   4.337   0.062   2.129 -0.3889  0.4473 -1.2552
 9444SOL     OW39790   2.192   1.663   0.270  0.0386  0.6517 -0.0038
 9444SOL    HW139791   2.169   1.703   0.187 -0.8271 -0.4727 -0.3000
 9444SOL    HW239792   2.263   1.599   0.257 -0.2526  0.5269 -0.9022
 9445SOL     OW39793   2.762   2.952   7.718  0.6648  0.1288 -0.0575
 9445SOL    HW139794   2.813   2.871   7.721  1.5349  0.6949  0.6541
 9445SOL    HW239795   2.827   3.021   7.732 -3.2201  4.0846 -1.3438
 9446SOL     OW39796   1.461   3.002  13.471  0.1950 -0.6095 -0.0842
 9446SOL    HW139797   1.481   2.934  13.406 -2.9517 -2.8538  1.2976
 9446SOL    HW239798   1.403   3.062  13.425 -0.6330  0.3286  2.2113
 9447SOL     OW39799   2.797   3.686   3.272  0.7377  0.1391 -0.2138
 9447SOL    HW139800   2.787   3.615   3.208  0.4017  0.2495 -0.2845
 9447SOL    HW239801   2.755   3.657   3.353  0.4727  2.7122  0.5551
 9448SOL     OW39802   4.578   1.287   8.535 -0.5851 -0.3131 -0.2868
 9448SOL    HW139803   4.632   1.365   8.518 -1.2288 -0.4627 -3.0712
 9448SOL    HW239804   4.510   1.287   8.468 -3.0796 -1.3846  2.2831
 9449SOL     OW39805   3.035   1.009   8.141 -0.4746  0.6335 -0.4013
 9449SOL    HW139806   2.948   0.989   8.105 -0.3227  1.6495 -1.3330
 9449SOL    HW239807   3.073   0.923   8.158 -0.2444  1.2796  2.2836
 9450SOL     OW39808   0.194   1.003  14.340  0.2522  0.2156 -0.2367
 9450SOL    HW139809   0.279   1.043  14.320 -0.4013  2.6134  1.7646
 9450SOL    HW239810   0.145   1.011  14.259  1.2387 -0.8941 -0.9472
 9451SOL     OW39811   0.773   1.979   9.899  0.2984  0.8432 -0.2699
 9451SOL    HW139812   0.748   2.070   9.915  2.9353  1.4799  0.1260
 9451SOL    HW239813   0.749   1.966   9.808  0.8807  1.9164 -0.5723
 9452SOL     OW39814   0.200   1.653   5.360  0.0891 -0.0295  0.2360
 9452SOL    HW139815   0.295   1.658   5.349 -0.2060  1.2741 -1.7483
 9452SOL    HW239816   0.185   1.746   5.372 -0.7541 -0.1473  0.0489
 9453SOL     OW39817   1.228   1.714  10.104  0.4124 -0.6637  0.2852
 9453SOL    HW139818   1.277   1.717  10.021  0.6151 -0.2066  0.4192
 9453SOL    HW239819   1.143   1.676  10.082 -0.2587  1.6097 -1.1120
 9454SOL     OW39820   0.073   2.461   2.160  0.3999  0.2484 -0.3974
 9454SOL    HW139821   0.013   2.399   2.202  3.0569 -0.8141  1.8024
 9454SOL    HW239822   0.012   2.487   2.091  1.0966  0.2483 -1.0034
 9455SOL     OW39823   0.281   0.787   0.375  0.2426  0.1567 -0.4909
 9455SOL    HW139824   0.228   0.847   0.428  0.1937  1.0063 -1.5173
 9455SOL    HW239825   0.237   0.795   0.291  1.1377 -3.8144 -1.2875
 9456SOL     OW39826   3.020   2.578   0.546  0.7140  0.3449  0.2882
 9456SOL    HW139827   3.067   2.657   0.517  0.0540 -0.3887 -2.7737
 9456SOL    HW239828   2.928   2.605   0.550  0.6119  0.0145  0.1386
 9457SOL     OW39829   0.973   1.788  10.313  0.5720  0.1277 -0.7487
 9457SOL    HW139830   0.883   1.793  10.279 -0.2479 -0.4975  1.3280
 9457SOL    HW239831   1.020   1.820  10.236  0.8506  2.0142  0.2063
 9458SOL     OW39832   0.805   0.056   8.664 -0.4791  0.2631  0.5538
 9458SOL    HW139833   0.722   0.053   8.712  0.0984  0.8187  1.5813
 9458SOL    HW239834   0.803   4.702   8.604 -0.4943  0.0567  0.8077
 9459SOL     OW39835   3.842   4.203  11.316 -0.0441 -0.5697  0.2019
 9459SOL    HW139836   3.795   4.134  11.268  0.6867 -0.6606 -0.3864
 9459SOL    HW239837   3.780   4.273  11.334  1.3805  1.1725 -1.6929
 9460SOL     OW39838   4.215   0.120   6.839  0.2686 -0.2128  0.3470
 9460SOL    HW139839   4.235   0.182   6.769 -0.2886 -0.1680  0.2240
 9460SOL    HW239840   4.272   0.052   6.806 -0.5635 -1.1304  0.8117
 9461SOL     OW39841   0.956   0.416   2.091  0.2021  0.2943  0.2229
 9461SOL    HW139842   0.926   0.439   2.178  1.2297  0.0933  0.6257
 9461SOL    HW239843   0.875   0.388   2.048  0.6092 -0.8069  0.1640
 9462SOL     OW39844   3.887   3.006   7.445  0.5175 -0.5419  0.2675
 9462SOL    HW139845   3.953   2.944   7.415 -0.5653 -1.4124 -0.3523
 9462SOL    HW239846   3.919   3.091   7.416  0.2658 -0.0493  1.4308
 9463SOL     OW39847   4.657   4.500   8.552  0.0310 -0.2667  0.3752
 9463SOL    HW139848   4.656   4.506   8.457 -0.6665 -0.8155  0.3478
 9463SOL    HW239849   4.581   4.442   8.562 -2.2324  2.7357  0.9582
 9464SOL     OW39850   2.879   4.638   5.399 -0.0196 -0.1795  0.2899
 9464SOL    HW139851   2.971   4.636   5.372  0.0707  0.1987  0.5831
 9464SOL    HW239852   2.837   4.602   5.320 -1.2549  0.2881  0.7418
 9465SOL     OW39853   3.020   0.901   4.593 -0.1211  0.7576 -0.4500
 9465SOL    HW139854   2.969   0.923   4.670 -0.3575 -0.2148 -0.3282
 9465SOL    HW239855   2.960   0.843   4.545 -0.0549 -1.1764  1.8111
 9466SOL     OW39856   1.920   0.254  13.598  0.0387  0.1641  0.0922
 9466SOL    HW139857   2.011   0.284  13.593 -0.1730  0.4591 -2.1671
 9466SOL    HW239858   1.894   0.265  13.689 -1.1609 -1.8817  0.0038
 9467SOL     OW39859   1.144   2.099   3.744 -0.7520  0.1502 -0.0712
 9467SOL    HW139860   1.124   2.147   3.824  0.5572 -1.1900  1.0631
 9467SOL    HW239861   1.152   2.170   3.680 -1.6993  1.4389  1.2342
 9468SOL     OW39862   0.795   3.924   3.143  0.0718 -0.1108 -0.3247
 9468SOL    HW139863   0.828   3.834   3.153  0.7320  0.1966  0.1837
 9468SOL    HW239864   0.816   3.948   3.053  2.6134  2.7877  1.0670
 9469SOL     OW39865   1.394   1.132   4.822 -0.2947  0.1632 -0.1426
 9469SOL    HW139866   1.343   1.207   4.791  2.1812  2.9604  2.5251
 9469SOL    HW239867   1.409   1.077   4.746 -0.5982  0.5492 -0.4815
 9470SOL     OW39868   2.853   2.661   6.564  0.3057  0.0703 -0.1062
 9470SOL    HW139869   2.791   2.724   6.527  0.2921  1.5434  2.4471
 9470SOL    HW239870   2.915   2.722   6.604  1.2926 -1.0433  0.0435
 9471SOL     OW39871   2.844   0.148   4.846  0.1790  0.3231 -0.0592
 9471SOL    HW139872   2.869   0.172   4.935 -1.2679  2.6127 -0.2523
 9471SOL    HW239873   2.787   0.072   4.849 -1.0527  1.2792  0.9221
 9472SOL     OW39874   2.090   1.438  16.583 -0.2643  0.3584  0.0819
 9472SOL    HW139875   2.108   1.415  16.674 -1.0616 -0.5160  0.0196
 9472SOL    HW239876   2.042   1.519  16.602 -0.1604  0.6165 -0.7781
 9473SOL     OW39877   2.896   3.080  10.243  0.4517  0.1091 -0.0573
 9473SOL    HW139878   2.857   3.044  10.322 -0.1122 -0.0408 -0.4018
 9473SOL    HW239879   2.965   3.019  10.214  0.8896  0.9594 -0.8050
 9474SOL     OW39880   2.461   4.065  12.033  0.6217  0.1478  0.1565
 9474SOL    HW139881   2.553   4.041  12.033  0.1447 -1.7090 -1.6641
 9474SOL    HW239882   2.427   3.983  12.068  2.6537 -1.1225 -0.8542
 9475SOL     OW39883   1.486   2.109  13.538 -0.1502  0.5005  0.3229
 9475SOL    HW139884   1.405   2.068  13.568  0.3932  0.6557  2.0310
 9475SOL    HW239885   1.464   2.161  13.461 -0.4585 -0.5028 -0.2657
 9476SOL     OW39886   1.491   1.333  12.693 -0.5352  0.1936 -0.4351
 9476SOL    HW139887   1.572   1.331  12.744 -1.1860 -3.0147  0.4726
 9476SOL    HW239888   1.426   1.318  12.762  0.8291 -0.1939  0.7891
 9477SOL     OW39889   1.240   2.906   3.526  0.2714  0.4551 -0.2383
 9477SOL    HW139890   1.168   2.969   3.532 -0.1423 -0.2573  2.4140
 9477SOL    HW239891   1.209   2.829   3.479  3.7752  0.2218 -2.1121
 9478SOL     OW39892   0.365   1.311   5.751  0.9929  0.5994 -0.1435
 9478SOL    HW139893   0.451   1.343   5.723  0.1383  1.0798 -2.2532
 9478SOL    HW239894   0.333   1.264   5.674  1.6515  0.2605 -0.2111
 9479SOL     OW39895   1.576   4.440   5.341  0.4034  0.3640 -0.2516
 9479SOL    HW139896   1.552   4.350   5.360  0.2192  0.9593  2.2983
 9479SOL    HW239897   1.560   4.476   5.428 -2.6114 -2.1042  0.2234
 9480SOL     OW39898   2.467   2.948  12.542  0.4580 -0.6778 -0.4254
 9480SOL    HW139899   2.450   2.962  12.635 -2.4818 -0.1423 -1.0331
 9480SOL    HW239900   2.381   2.928  12.506 -1.0389  0.2472  2.6429
 9481SOL     OW39901   4.510   3.389   2.830 -0.6121 -0.3277 -0.0819
 9481SOL    HW139902   4.539   3.360   2.744  1.1165 -0.4359  0.5306
 9481SOL    HW239903   4.479   3.306   2.867 -1.5827  0.1057  0.0864
 9482SOL     OW39904   1.588   0.580   4.905 -0.4929  0.0394 -0.1451
 9482SOL    HW139905   1.652   0.587   4.834  0.9319  0.3779  1.1656
 9482SOL    HW239906   1.521   0.635   4.866 -0.0980  0.5639 -0.0858
 9483SOL     OW39907   1.450   2.592   5.275  0.2654 -0.0171 -0.1505
 9483SOL    HW139908   1.430   2.500   5.260  2.9886 -0.7649  0.8460
 9483SOL    HW239909   1.544   2.589   5.261  0.3062  0.9060 -0.0944
 9484SOL     OW39910   0.269   1.907   9.502 -0.6471  0.1906 -0.6946
 9484SOL    HW139911   0.218   1.855   9.565 -0.9165 -0.1359 -1.1845
 9484SOL    HW239912   0.282   1.840   9.435  1.6669  1.8109 -1.8218
 9485SOL     OW39913   1.674   1.346  17.276 -0.2958 -0.4355  0.2452
 9485SOL    HW139914   1.660   1.312  17.365  0.8708 -0.3001  0.4829
 9485SOL    HW239915   1.682   1.270  17.219 -0.0121 -0.6798  0.6154
 9486SOL     OW39916   0.203   0.240   7.553  0.4244 -0.1229  0.1478
 9486SOL    HW139917   0.140   0.188   7.503  0.9022 -0.5680  0.0094
 9486SOL    HW239918   0.158   0.324   7.560  0.6831  0.0628 -0.4451
 9487SOL     OW39919   0.512   4.703   1.341  0.3005  0.1711 -0.7287
 9487SOL    HW139920   0.464   4.621   1.351 -0.6745  0.7617 -0.6415
 9487SOL    HW239921   0.517   0.012   1.431  1.4243 -1.2465 -0.3187
 9488SOL     OW39922   3.980   3.283   6.765  0.6754 -0.2030 -0.1762
 9488SOL    HW139923   3.909   3.227   6.736 -0.0436  0.8615 -0.4896
 9488SOL    HW239924   4.052   3.262   6.705  0.6483  0.4780 -0.4517
 9489SOL     OW39925   4.200   4.707   8.651  0.7741  0.1381  0.1063
 9489SOL    HW139926   4.194   0.045   8.576  0.7307 -0.4840 -0.3726
 9489SOL    HW239927   4.111   4.715   8.684  0.4252  1.2799 -1.1394
 9490SOL     OW39928   3.106   4.399   4.493  1.1397  0.4248 -0.0386
 9490SOL    HW139929   3.173   4.468   4.487  2.3190 -0.9607 -2.6754
 9490SOL    HW239930   3.131   4.349   4.415 -0.9215 -1.1441  0.3138
 9491SOL     OW39931   4.333   2.432   7.250  0.0448  0.0098  0.2886
 9491SOL    HW139932   4.361   2.513   7.207 -1.8478  0.9618  0.8617
 9491SOL    HW239933   4.245   2.456   7.280 -0.2458 -1.9880  1.0020
 9492SOL     OW39934   0.521   1.606   9.276  0.2624  0.1876 -0.1390
 9492SOL    HW139935   0.444   1.588   9.330  0.8721 -1.3632  0.2097
 9492SOL    HW239936   0.581   1.637   9.344  0.1639 -1.0315  0.5124
 9493SOL     OW39937   3.716   0.561   7.505  0.0524 -0.4502  0.1434
 9493SOL    HW139938   3.628   0.591   7.482  0.8319  0.1462 -2.1113
 9493SOL    HW239939   3.728   0.483   7.451  2.8082 -0.1478  0.3417
 9494SOL     OW39940   3.304   0.944   5.121 -0.0327 -0.4734  0.1055
 9494SOL    HW139941   3.359   0.870   5.096  1.1197  0.5658 -0.4370
 9494SOL    HW239942   3.341   1.017   5.072  1.2490 -1.0845  0.1658
 9495SOL     OW39943   3.077   3.442  17.245 -0.2413 -0.0313 -0.1523
 9495SOL    HW139944   3.080   3.353  17.281  0.3731 -0.1820 -0.5722
 9495SOL    HW239945   3.018   3.429  17.171  1.4834  1.1469 -1.7341
 9496SOL     OW39946   0.837   2.954   8.011  0.1177 -0.0536  0.1352
 9496SOL    HW139947   0.780   2.920   8.080 -1.4199 -1.9950 -2.1013
 9496SOL    HW239948   0.816   2.882   7.952 -0.2708 -1.2853  1.7855
 9497SOL     OW39949   0.284   1.610   9.367 -0.5118  0.5069  0.1166
 9497SOL    HW139950   0.210   1.574   9.416 -1.4497  1.4035 -0.6479
 9497SOL    HW239951   0.254   1.601   9.277  3.4124 -0.2811 -1.1061
 9498SOL     OW39952   1.724   3.209   6.029 -0.6354 -0.2450  0.1176
 9498SOL    HW139953   1.707   3.244   5.942 -1.1024  0.1923  0.3895
 9498SOL    HW239954   1.672   3.129   6.027 -0.9811 -0.0244  0.3176
 9499SOL     OW39955   2.504   1.380   8.154  0.4675  0.1641 -0.2727
 9499SOL    HW139956   2.506   1.285   8.162 -0.7289  0.1638 -0.0165
 9499SOL    HW239957   2.519   1.394   8.060  0.1640 -1.0445 -0.5042
 9500SOL     OW39958   0.268   1.881   2.254 -0.3655  0.1488  0.4447
 9500SOL    HW139959   0.172   1.872   2.255 -0.3409 -0.3143 -1.7423
 9500SOL    HW239960   0.300   1.816   2.317  0.6174 -0.2491 -0.4767
 9501SOL     OW39961   1.304   1.569   2.407  0.0939  0.6685  0.5230
 9501SOL    HW139962   1.352   1.591   2.486 -0.5106  2.4981  0.3929
 9501SOL    HW239963   1.248   1.494   2.427  1.2077 -0.3286 -0.0768
 9502SOL     OW39964   1.942   3.770   9.245  0.4403 -0.5160 -0.1542
 9502SOL    HW139965   1.851   3.744   9.236  1.0219 -2.0156 -1.5892
 9502SOL    HW239966   1.947   3.826   9.323 -0.8602 -0.2034 -0.3013
 9503SOL     OW39967   1.615   0.293  14.240 -0.0802 -0.0704 -0.1844
 9503SOL    HW139968   1.628   0.275  14.146  1.4098 -0.5806  0.1109
 9503SOL    HW239969   1.566   0.212  14.256  2.5856 -1.7366 -0.3798
 9504SOL     OW39970   0.129   0.894  10.366  0.0551  0.3452 -0.4394
 9504SOL    HW139971   0.118   0.860  10.277 -2.6208 -0.4123  0.2014
 9504SOL    HW239972   0.110   0.988  10.357  1.8687  1.0222  2.6278
 9505SOL     OW39973   4.368   4.605   2.379  0.0164  0.1315 -0.9189
 9505SOL    HW139974   4.375   4.528   2.323  1.1855  0.3837 -1.1161
 9505SOL    HW239975   4.298   4.651   2.332 -0.7490  0.0595  0.1511
 9506SOL     OW39976   3.602   2.596   9.127 -0.1328  0.0282 -0.2710
 9506SOL    HW139977   3.678   2.586   9.185  0.1093 -0.6551 -0.7116
 9506SOL    HW239978   3.543   2.641   9.188  0.6586  1.0880 -0.2742
 9507SOL     OW39979   3.394   1.099   5.359  1.0369 -0.4697  0.3214
 9507SOL    HW139980   3.338   1.087   5.282 -0.8580 -1.7468  1.8848
 9507SOL    HW239981   3.330   1.082   5.428  0.6669  0.2202  0.1468
 9508SOL     OW39982   0.888   1.919   8.608 -0.7271 -0.2010  0.0184
 9508SOL    HW139983   0.826   1.866   8.657 -0.7591 -0.9013 -0.7685
 9508SOL    HW239984   0.934   1.851   8.558 -1.7609 -1.3049  0.5830
 9509SOL     OW39985   0.200   0.623   6.873  0.0926  0.2769  0.4788
 9509SOL    HW139986   0.218   0.709   6.834  0.4661 -2.0223 -4.2987
 9509SOL    HW239987   0.261   0.574   6.818 -1.6715  0.5077 -1.6968
 9510SOL     OW39988   3.833   2.789   8.135 -0.2443  0.5615 -0.4083
 9510SOL    HW139989   3.897   2.854   8.163  0.0257  0.5430 -0.9929
 9510SOL    HW239990   3.835   2.810   8.042  0.6139  1.5164 -0.1604
 9511SOL     OW39991   1.436   3.062   5.518  0.6120 -0.6795  0.5443
 9511SOL    HW139992   1.368   3.026   5.461 -1.6077 -1.0322  3.4047
 9511SOL    HW239993   1.382   3.094   5.590 -1.1556  0.0753 -1.1276
 9512SOL     OW39994   0.451   2.810   6.728 -0.6280  0.6366 -0.0207
 9512SOL    HW139995   0.539   2.787   6.697 -1.4984 -1.4177 -1.0059
 9512SOL    HW239996   0.404   2.729   6.707  0.7726 -0.5186  1.3441
 9513SOL     OW39997   0.812   3.730   0.025 -0.1156  0.4666 -0.0830
 9513SOL    HW139998   0.739   3.728   0.086  1.4512  1.8244  1.8175
 9513SOL    HW239999   0.767   3.708  17.628 -1.5197  4.2341 -0.3132
 9514SOL     OW40000   0.293   4.296   7.578 -0.0365  0.6896  0.1652
 9514SOL    HW140001   0.253   4.374   7.540  0.3282  1.0908  0.6071
 9514SOL    HW240002   0.221   4.239   7.606  1.5091 -0.3187  2.1339
 9515SOL     OW40003   0.274   3.565   3.897 -0.0719 -0.0719 -0.1504
 9515SOL    HW140004   0.307   3.525   3.816 -0.4528 -0.2374 -0.2214
 9515SOL    HW240005   0.217   3.492   3.922  0.0683  0.0343  0.4736
 9516SOL     OW40006   0.279   1.227  16.061 -0.1732 -0.2565 -0.0108
 9516SOL    HW140007   0.315   1.255  15.977 -0.9052 -0.6612 -0.4570
 9516SOL    HW240008   0.326   1.286  16.120  0.6300 -0.3249 -0.5805
 9517SOL     OW40009   0.553   2.442  13.468 -0.4236  0.3570 -0.3237
 9517SOL    HW140010   0.556   2.377  13.398 -2.3343  1.0332 -1.0344
 9517SOL    HW240011   0.511   2.397  13.542 -1.3069  2.5096  0.5039
 9518SOL     OW40012   3.820   3.144   5.814 -0.1121 -0.2390 -0.3095
 9518SOL    HW140013   3.780   3.060   5.839  0.4817 -0.5295 -0.3374
 9518SOL    HW240014   3.904   3.129   5.772 -0.0636 -0.6511 -0.0660
 9519SOL     OW40015   0.770   0.611  11.420  0.3548 -0.2605  0.2176
 9519SOL    HW140016   0.715   0.642  11.492 -0.3120  0.2356 -0.5143
 9519SOL    HW240017   0.826   0.688  11.425  0.4103 -0.3228  0.5680
 9520SOL     OW40018   2.920   1.504  11.973 -0.1846 -0.4782 -0.5572
 9520SOL    HW140019   3.008   1.506  11.933 -0.1737  3.5029 -0.3332
 9520SOL    HW240020   2.902   1.598  11.970 -0.8226 -0.5741  0.3811
 9521SOL     OW40021   3.224   0.764   5.383  0.4874 -0.3585 -0.4271
 9521SOL    HW140022   3.251   0.844   5.338 -2.1018  0.5520 -0.3693
 9521SOL    HW240023   3.288   0.754   5.454  0.2808  0.9956 -0.0599
 9522SOL     OW40024   0.805   2.422   2.594 -0.3009  0.5230  0.0490
 9522SOL    HW140025   0.719   2.410   2.554  1.4355 -1.8798 -2.9735
 9522SOL    HW240026   0.818   2.335   2.631 -0.9678  0.8937  1.1529
 9523SOL     OW40027   4.119   4.516   9.217 -0.4410  0.6306 -0.2512
 9523SOL    HW140028   4.078   4.443   9.172  0.1272  0.7269 -0.9240
 9523SOL    HW240029   4.211   4.493   9.204 -0.5664 -1.6086  2.7339
 9524SOL     OW40030   1.425   2.422   6.039 -0.0290 -0.1146 -0.1182
 9524SOL    HW140031   1.445   2.415   6.132  0.5949  0.8485 -0.1797
 9524SOL    HW240032   1.455   2.336   6.010 -0.7311  0.3272 -2.1703
 9525SOL     OW40033   3.199   1.092   7.185 -0.6070  0.2405  0.2347
 9525SOL    HW140034   3.184   1.038   7.107  2.2917  0.5982 -0.5439
 9525SOL    HW240035   3.260   1.034   7.231 -3.4164 -0.0874  3.5931
 9526SOL     OW40036   3.130   0.370   9.431  0.2123 -0.0934  0.1964
 9526SOL    HW140037   3.118   0.275   9.437 -0.1902  0.0265  1.2634
 9526SOL    HW240038   3.218   0.381   9.466  0.3872  0.8697 -0.5387
 9527SOL     OW40039   3.708   3.293   6.163 -0.4638  0.1052  0.2792
 9527SOL    HW140040   3.737   3.215   6.117 -1.0203  0.7322 -1.1378
 9527SOL    HW240041   3.760   3.273   6.241  0.2068 -0.7836 -0.3964
 9528SOL     OW40042   1.993   4.253   3.996  0.3876  0.1447 -0.6070
 9528SOL    HW140043   2.009   4.160   4.013 -0.8885  0.1864  0.8613
 9528SOL    HW240044   1.898   4.248   3.990  0.3866  0.8942 -1.1811
 9529SOL     OW40045   1.040   0.592  15.163 -0.3067 -0.2220 -0.9499
 9529SOL    HW140046   1.113   0.651  15.183 -0.8762  0.8909 -2.1475
 9529SOL    HW240047   1.081   0.535  15.099 -1.0439 -2.2381  0.3680
 9530SOL     OW40048   0.526   0.526   2.186  0.2194 -0.1837 -0.2645
 9530SOL    HW140049   0.448   0.519   2.242  0.6680 -0.7555  0.2932
 9530SOL    HW240050   0.590   0.469   2.228  0.0325 -1.3870 -1.6031
 9531SOL     OW40051   2.817   0.352   6.867 -0.2507  0.3211  0.0907
 9531SOL    HW140052   2.849   0.351   6.777  0.8204 -0.1721  0.4776
 9531SOL    HW240053   2.725   0.375   6.854  0.1863  1.8286 -0.2921
 9532SOL     OW40054   1.766   4.637  14.253  0.2040 -0.0563 -0.2747
 9532SOL    HW140055   1.849   4.591  14.264  0.5132  0.0516 -2.1940
 9532SOL    HW240056   1.797   4.715  14.207 -1.1744 -0.0653 -1.2217
 9533SOL     OW40057   3.051   2.544   9.343 -0.9222  0.7742 -0.2226
 9533SOL    HW140058   3.099   2.561   9.424 -1.2496 -1.3814  0.4207
 9533SOL    HW240059   3.121   2.515   9.284 -0.5106 -0.2407  0.7711
 9534SOL     OW40060   0.195   4.079  11.494  0.4762  0.0365  0.3111
 9534SOL    HW140061   0.264   4.137  11.461 -0.5126 -0.9840 -3.5472
 9534SOL    HW240062   0.154   4.052  11.412  0.7659 -1.8879  0.7867
 9535SOL     OW40063   4.332   1.491   7.283 -0.0858  0.0105  0.3342
 9535SOL    HW140064   4.334   1.397   7.267  1.3615  0.1534 -0.2787
 9535SOL    HW240065   4.407   1.519   7.231  1.1195 -4.0364 -0.1305
 9536SOL     OW40066   3.718   1.894   7.936 -0.5685 -0.3874 -0.3153
 9536SOL    HW140067   3.702   1.901   8.030 -0.8814  0.6358 -0.4429
 9536SOL    HW240068   3.755   1.981   7.918 -0.2953 -1.0657 -3.0275
 9537SOL     OW40069   1.353   1.295   5.410 -0.2556 -0.2258  0.1849
 9537SOL    HW140070   1.292   1.281   5.338 -0.4838 -0.0793  0.3495
 9537SOL    HW240071   1.419   1.353   5.373 -0.1461  0.3198  1.2204
 9538SOL     OW40072   0.499   4.635   8.975  0.9854 -0.2602  0.2546
 9538SOL    HW140073   0.405   4.638   8.957  0.9179 -0.2107  0.6021
 9538SOL    HW240074   0.505   4.663   9.067 -2.1975 -2.0993  1.0209
 9539SOL     OW40075   1.524   3.721  15.312  0.1122  0.1958 -0.0119
 9539SOL    HW140076   1.608   3.690  15.346 -0.3070  0.3694  1.1834
 9539SOL    HW240077   1.546   3.809  15.283  1.0948  0.4390  1.4447
 9540SOL     OW40078   2.599   1.537   5.135 -0.5496  0.1701 -0.1663
 9540SOL    HW140079   2.686   1.504   5.113 -0.2146  0.4537  0.7247
 9540SOL    HW240080   2.550   1.462   5.167 -0.5905  0.7009  0.9891
 9541SOL     OW40081   1.999   3.185   5.720 -0.0160  0.3429 -1.0412
 9541SOL    HW140082   1.931   3.239   5.680 -1.4371  0.7225  1.8243
 9541SOL    HW240083   1.963   3.098   5.701 -0.1156  0.1092  0.1572
 9542SOL     OW40084   3.624   3.457   3.420  0.3167 -0.1186  0.5544
 9542SOL    HW140085   3.675   3.438   3.340 -1.1774  0.8122 -0.6086
 9542SOL    HW240086   3.687   3.425   3.485  0.3279 -0.5103  0.3521
 9543SOL     OW40087   0.175   3.462  10.298 -0.1448  0.5626 -0.6592
 9543SOL    HW140088   0.196   3.513  10.220  2.3499 -1.2679 -1.1923
 9543SOL    HW240089   0.135   3.538  10.342  0.4973  1.1471 -1.0989
 9544SOL     OW40090   4.187   3.120  10.459  0.0694  0.1648  0.4969
 9544SOL    HW140091   4.157   3.199  10.505 -3.8981 -0.6876 -0.6658
 9544SOL    HW240092   4.109   3.091  10.412  1.0432  1.1006 -1.6741
 9545SOL     OW40093   2.089   3.566   6.922 -0.1695  0.0389  0.6779
 9545SOL    HW140094   2.113   3.516   7.000  2.4184 -1.0454 -0.8047
 9545SOL    HW240095   2.130   3.525   6.846  0.4261  2.6577 -0.4238
 9546SOL     OW40096   0.428   1.496   8.113 -0.2540 -0.2839 -0.1913
 9546SOL    HW140097   0.341   1.468   8.141  0.1065  0.3157  1.5301
 9546SOL    HW240098   0.408   1.563   8.048 -1.1507 -0.5305 -0.1660
 9547SOL     OW40099   3.095   4.646  12.070 -0.3213  0.2630  0.4782
 9547SOL    HW140100   3.050   4.652  12.154 -0.3973 -2.7014  0.6685
 9547SOL    HW240101   3.176   4.695  12.084 -1.0261  1.7609 -0.7040
 9548SOL     OW40102   2.285   4.493   6.558 -0.6325  0.2545  0.3184
 9548SOL    HW140103   2.295   4.451   6.473  1.6962 -0.0530  0.7240
 9548SOL    HW240104   2.235   4.428   6.607  1.0202 -1.5913 -0.4859
 9549SOL     OW40105   1.278   2.555   2.747  0.6439  0.0306 -0.1288
 9549SOL    HW140106   1.252   2.504   2.670  1.9277  0.3624 -0.7889
 9549SOL    HW240107   1.213   2.533   2.813  0.1414  1.1929 -0.2370
 9550SOL     OW40108   4.396   1.608   6.713  0.4513 -0.5074  0.0059
 9550SOL    HW140109   4.472   1.626   6.769  0.9020 -2.4433  0.0358
 9550SOL    HW240110   4.333   1.636   6.779 -2.9410 -2.8252 -2.2270
 9551SOL     OW40111   0.165   4.314   8.639 -1.0162 -0.2386 -0.1365
 9551SOL    HW140112   0.228   4.318   8.567 -0.5994 -0.1071  0.2314
 9551SOL    HW240113   0.095   4.373   8.611 -2.0725 -1.0710  0.7471
 9552SOL     OW40114   0.996   4.127   6.475  0.3475 -0.0179 -0.2026
 9552SOL    HW140115   1.016   4.220   6.478 -1.4764  0.3661  0.0685
 9552SOL    HW240116   0.983   4.104   6.567 -0.1370 -1.5481 -0.6440
 9553SOL     OW40117   4.258   0.943   6.789  0.0103 -0.0122 -0.2340
 9553SOL    HW140118   4.230   0.859   6.825  1.0111  0.4536  1.6186
 9553SOL    HW240119   4.173   0.988   6.784  0.6470  1.4459  2.3105
 9554SOL     OW40120   4.076   3.528   5.209  0.6239  0.1411  0.1365
 9554SOL    HW140121   4.013   3.524   5.281  1.0930 -0.2006  0.5339
 9554SOL    HW240122   4.161   3.558   5.242  0.7926 -1.3201  1.0339
 9555SOL     OW40123   1.832   2.932   7.009 -0.4093  0.1362  0.4151
 9555SOL    HW140124   1.757   2.988   6.990 -0.8126 -0.4241  0.3932
 9555SOL    HW240125   1.865   2.918   6.920  1.0373 -0.0252  0.9718
 9556SOL     OW40126   0.715   0.724   4.253 -0.4041 -0.1745 -0.4902
 9556SOL    HW140127   0.696   0.632   4.269  0.5339 -1.0755 -4.5322
 9556SOL    HW240128   0.754   0.708   4.167 -0.4668  0.7213 -0.6844
 9557SOL     OW40129   3.526   4.360   1.246 -0.3554 -0.2198  0.6064
 9557SOL    HW140130   3.459   4.296   1.268 -1.1303  0.7884  1.2053
 9557SOL    HW240131   3.481   4.442   1.266 -0.1396  0.1581 -0.4524
 9558SOL     OW40132   1.272   3.569   3.521  0.1525 -0.4676 -0.3091
 9558SOL    HW140133   1.324   3.562   3.601 -0.3079 -0.2505  0.0104
 9558SOL    HW240134   1.260   3.477   3.500 -0.5279 -0.2065 -1.0758
 9559SOL     OW40135   2.597   3.390  16.699 -0.0470 -0.8239 -0.5176
 9559SOL    HW140136   2.684   3.429  16.703 -0.4947  0.1918 -0.5823
 9559SOL    HW240137   2.588   3.395  16.604 -1.8641  0.3404 -0.2916
 9560SOL     OW40138   4.669   3.342   4.936  0.4463  0.3126 -0.0227
 9560SOL    HW140139   4.611   3.332   4.861 -0.2307  4.6560 -0.1049
 9560SOL    HW240140   4.611   3.357   5.011  0.3784 -0.7640  0.1452
 9561SOL     OW40141   0.281   2.962   4.085  0.3432  0.6338  0.4016
 9561SOL    HW140142   0.356   3.019   4.099 -0.2245  1.6273 -0.5801
 9561SOL    HW240143   0.319   2.883   4.045 -0.3962  0.7496 -0.5407
 9562SOL     OW40144   0.492   3.928   2.892  0.5717  0.0155 -0.7211
 9562SOL    HW140145   0.421   3.952   2.951  2.2425  3.5686 -0.1053
 9562SOL    HW240146   0.511   3.840   2.923 -2.5873 -0.4961 -0.3114
 9563SOL     OW40147   0.324   3.048   8.142  0.5537 -0.3766  0.1973
 9563SOL    HW140148   0.271   2.969   8.136  1.8932 -1.4105  1.8171
 9563SOL    HW240149   0.274   3.103   8.083  0.4403  1.8859  2.4251
 9564SOL     OW40150   4.599   1.525   7.126 -0.5642 -0.2019  0.2823
 9564SOL    HW140151   4.616   1.541   7.033 -1.7434  1.3209  0.3173
 9564SOL    HW240152   4.607   1.615   7.158  0.0643 -0.8306  1.8867
 9565SOL     OW40153   4.567   0.901   2.313 -0.1320  0.0533  0.1412
 9565SOL    HW140154   4.607   0.953   2.383 -0.7075  0.9854 -0.2263
 9565SOL    HW240155   4.582   0.813   2.347  1.7195  0.2186 -0.2554
   4.72058   4.72058  17.68484
